G1.5-PAMAM in water
82610
    1aaa     N1    1   2.993   0.808   5.301 -0.2362 -0.5143  0.3828
    1aaa     C1    2   2.891   0.792   5.190  0.6409 -0.6981 -0.6549
    1aaa     C2    3   2.947   0.822   5.055 -0.0860 -0.0081  0.2433
    1aaa     N2    4   2.830   0.835   4.950 -0.4425 -0.4822 -0.2790
    1aaa     C3    5   2.786   0.692   4.904  1.1469  0.4299 -0.5914
    1aaa     C4    6   2.891   0.901   4.835 -0.2413 -0.2387  0.8287
    1aaa     C5    7   3.114   0.719   5.278  0.7275  0.0651  0.0267
    1aaa     C6    8   2.931   0.790   5.438  0.1268  0.3660 -0.2102
    1aaa     C7    9   2.885   1.052   4.842  0.2961  0.1794  0.0551
    1aaa     C8   10   2.925   1.112   4.713  0.3556 -0.0772 -0.0260
    1aaa     C9   11   2.646   0.694   4.825 -0.4139 -0.2139  0.4145
    1aaa    C10   12   2.624   0.567   4.743 -0.1238  0.2010  0.1351
    1aaa    C11   13   3.235   0.784   5.349  0.5596 -0.2000 -0.3416
    1aaa    C12   14   3.352   0.704   5.310 -0.1464  0.1946 -0.2666
    1aaa    C13   15   2.825   0.895   5.475 -0.4542 -0.0977 -0.1372
    1aaa    C14   16   2.802   0.904   5.626 -0.4076  0.3401  0.7608
    1aaa     O1   17   2.709   0.476   4.745  0.0572  0.8224  0.3228
    1aaa     O2   18   2.880   1.091   4.604  0.5148 -0.3576  0.3401
    1aaa     O3   19   2.787   0.795   5.682  0.2865  0.3523  0.3747
    1aaa     O4   20   3.363   0.615   5.232 -0.2662 -0.3306  1.0361
    1aaa     H1   21   2.817   0.868   5.214  2.5173  1.3427 -1.0712
    1aaa     H2   22   2.854   0.689   5.189  1.2224 -0.9210 -2.1293
    1aaa     H3   23   3.019   0.749   5.017  0.9706  1.0402  0.2081
    1aaa     H4   24   3.004   0.913   5.067  1.1219 -0.6882 -0.2216
    1aaa     H5   25   2.766   0.635   4.995 -0.4993  0.6676 -0.7743
    1aaa     H6   26   2.859   0.638   4.844  1.1525 -2.3528  1.6597
    1aaa     H7   27   2.995   0.871   4.823 -0.1669  0.0216  0.8084
    1aaa     H8   28   2.842   0.870   4.743 -0.2837  0.8859  0.4564
    1aaa     H9   29   3.081   0.625   5.323 -0.4262  0.7917  0.7784
    1aaa    H10   30   3.141   0.724   5.173  0.7966  1.1186  0.0869
    1aaa    H11   31   2.895   0.687   5.441  1.9446 -0.4238 -2.4540
    1aaa    H12   32   3.011   0.798   5.511  1.4955  0.5685 -1.6784
    1aaa    H13   33   2.784   1.087   4.867  0.0120  1.1527 -2.2349
    1aaa    H14   34   2.954   1.083   4.922  0.5498 -1.2209  0.3962
    1aaa    H15   35   2.635   0.785   4.765 -1.1570 -0.4723  0.1382
    1aaa    H16   36   2.564   0.709   4.896 -0.6718  0.1218  0.0512
    1aaa    H17   37   3.250   0.890   5.324 -1.2357 -0.0015 -0.6579
    1aaa    H18   38   3.226   0.771   5.457 -2.5876  1.4732 -0.3052
    1aaa    H19   39   2.858   0.997   5.451 -2.7948  0.5902 -0.6657
    1aaa    H20   40   2.731   0.882   5.422 -0.3111  0.1251 -0.4466
    1aaa    H37   41   3.033   0.903   5.297 -1.3186 -0.0440  0.5994
    1aaa    H38   42   2.747   0.881   4.990 -1.3377 -3.4104  1.5603
    2bbb     N1   43   3.146   1.547   4.545 -0.1095  0.0765  0.6993
    2bbb     C1   44   3.273   1.512   4.454  0.4484 -0.3813 -0.6801
    2bbb     C2   45   3.181   1.679   4.607  0.0031  0.6485 -0.5218
    2bbb     C3   46   3.266   1.398   4.352 -0.1833  0.5102  0.0808
    2bbb     C4   47   3.142   1.402   4.261  0.0966  0.2481 -0.7250
    2bbb     C5   48   3.064   1.753   4.681  0.1614  0.4622 -0.4753
    2bbb     C6   49   3.120   1.885   4.740 -0.2204  0.2647 -0.4787
    2bbb     C7   50   3.124   1.442   4.653  0.5170  0.3324 -0.1333
    2bbb     C8   51   3.055   1.314   4.611  0.0643  0.2478  0.0883
    2bbb     N2   52   3.025   1.213   4.717 -0.3680  0.3816  0.3933
    2bbb     O1   53   3.047   1.330   4.286 -0.2987 -0.4707 -0.1512
    2bbb     O2   54   3.224   1.890   4.807 -0.2380  0.6199 -0.2454
    2bbb     H1   55   3.307   1.606   4.411  0.4497 -0.3751 -0.6661
    2bbb     H2   56   3.352   1.492   4.526 -1.1747 -1.5458  0.8705
    2bbb     H3   57   3.214   1.743   4.526 -3.3072  3.6681  0.2400
    2bbb     H4   58   3.263   1.667   4.678 -3.0680 -1.6317  3.0678
    2bbb     H5   59   3.351   1.400   4.283 -1.5558  0.4426 -1.6865
    2bbb     H6   60   3.260   1.304   4.408  0.8326  0.3835 -0.0095
    2bbb     H7   61   3.023   1.695   4.765  0.2582 -0.3837 -1.0030
    2bbb     H8   62   2.979   1.783   4.618 -0.3816  1.7310  0.8164
    2bbb     H9   63   3.069   1.487   4.735  1.1037  1.6444 -0.4254
    2bbb    H10   64   3.220   1.426   4.701  0.7583 -0.9582 -0.9861
    2bbb    H11   65   3.125   1.266   4.541  1.6324  4.4355 -1.5556
    2bbb    H12   66   2.966   1.343   4.554  0.4586  2.4361  0.4780
    2bbb    H13   67   3.079   1.226   4.801  0.3089 -0.3770  0.0876
    2bbb    H25   68   3.058   1.556   4.493  0.1605 -0.2584  0.1722
    3bbb     N1   69   2.329   0.216   4.577  0.1504 -0.4100  0.1746
    3bbb     C1   70   2.458   0.148   4.516  0.0267  0.1301  0.2712
    3bbb     C2   71   2.225   0.242   4.464  0.2464 -0.2473 -0.0497
    3bbb     C3   72   2.561   0.091   4.624  0.3947 -0.3383  0.3828
    3bbb     C4   73   2.507  -0.034   4.693  0.0545 -0.2827  0.0789
    3bbb     C5   74   2.177   0.121   4.381  0.0956 -0.2649 -0.4535
    3bbb     C6   75   2.064   0.155   4.285  0.2368 -0.8061 -0.0742
    3bbb     C7   76   2.373   0.337   4.662  0.5522 -0.1601 -0.1602
    3bbb     C8   77   2.457   0.451   4.592 -0.6305  0.1146  0.2110
    3bbb     N2   78   2.499   0.557   4.682  0.0236  0.0146 -0.5933
    3bbb     O1   79   2.391  -0.040   4.733  0.2714 -0.1908  0.0779
    3bbb     O2   80   2.043   0.270   4.246  0.2825  0.6531  0.9683
    3bbb     H1   81   2.415   0.074   4.449 -1.1378  0.2247  0.8879
    3bbb     H2   82   2.509   0.225   4.457  0.0877  1.0565  1.4899
    3bbb     H3   83   2.261   0.318   4.394  0.4658 -1.6505 -1.5004
    3bbb     H4   84   2.142   0.292   4.514  0.1742  0.9619 -1.3158
    3bbb     H5   85   2.658   0.060   4.584  0.1031 -0.4897 -0.2195
    3bbb     H6   86   2.581   0.179   4.687 -1.3479  1.5552 -1.5409
    3bbb     H7   87   2.154   0.043   4.454  2.3839 -0.4959  0.1102
    3bbb     H8   88   2.260   0.079   4.324  2.6234  2.8673  0.5803
    3bbb     H9   89   2.435   0.300   4.744  1.3297  0.6868 -0.3385
    3bbb    H10   90   2.277   0.375   4.694  2.1928  3.9842  0.4922
    3bbb    H11   91   2.426   0.486   4.493 -0.9758  0.1932  0.3470
    3bbb    H12   92   2.550   0.398   4.565  1.0050  4.1058 -3.0210
    3bbb    H13   93   2.432   0.629   4.706  1.5069  1.2207 -0.0161
    3bbb    H25   94   2.278   0.154   4.642  1.9484 -2.2881 -0.1364
    4bbb     N1   95   3.820   0.679   5.482  0.7904 -0.0833 -0.5714
    4bbb     C1   96   3.892   0.740   5.609 -0.3370 -0.0165  0.4435
    4bbb     C2   97   3.913   0.678   5.355 -0.3945 -0.5545 -0.2148
    4bbb     C3   98   3.980   0.636   5.678  0.0593  0.6153  0.9667
    4bbb     C4   99   4.065   0.690   5.783  0.2386 -0.3546 -0.5114
    4bbb     C5  100   3.928   0.540   5.288  0.2478 -0.7941 -0.1312
    4bbb     C6  101   4.040   0.527   5.188  0.1253 -0.8220  0.0409
    4bbb     C7  102   3.694   0.761   5.455  0.2275 -0.4133  0.6163
    4bbb     C8  103   3.589   0.692   5.363  0.3866  0.4637 -0.8083
    4bbb     N2  104   3.466   0.763   5.353 -0.0859 -0.5917 -0.0778
    4bbb     O1  105   4.044   0.797   5.840 -0.4713  0.1129 -0.4849
    4bbb     O2  106   4.139   0.597   5.184 -0.6680 -0.2493 -0.2181
    4bbb     H1  107   3.959   0.816   5.569 -0.4831 -0.1191 -0.0058
    4bbb     H2  108   3.819   0.796   5.667 -0.4851  1.3562 -1.0137
    4bbb     H3  109   4.012   0.713   5.383 -1.2394  1.1399  0.7968
    4bbb     H4  110   3.871   0.748   5.282 -3.5345  0.2084  2.1227
    4bbb     H5  111   3.928   0.551   5.723  1.5927 -1.0302 -0.2104
    4bbb     H6  112   4.051   0.593   5.606 -0.0933  2.8820 -0.6770
    4bbb     H7  113   3.831   0.519   5.240 -0.4583  0.2684  0.8033
    4bbb     H8  114   3.933   0.464   5.367 -2.1509  0.2421  1.1213
    4bbb     H9  115   3.720   0.860   5.417  1.6151 -0.9402  0.0873
    4bbb    H10  116   3.642   0.775   5.549 -0.4167  1.7571 -0.0148
    4bbb    H11  117   3.569   0.589   5.397  1.4501  0.2956 -0.6413
    4bbb    H12  118   3.619   0.673   5.259 -2.0237  0.2148 -1.5215
    4bbb    H13  119   3.445   0.853   5.395 -3.1095 -0.2479 -1.9834
    4bbb    H25  120   3.793   0.583   5.506 -2.2410  0.5339 -1.1300
    5bbb     N1  121   2.621   1.155   5.990 -0.2292  0.1061 -0.5800
    5bbb     C1  122   2.615   1.040   6.090 -0.1211  0.3143 -0.9641
    5bbb     C2  123   2.489   1.229   5.981  0.0212  0.2851 -0.3890
    5bbb     C3  124   2.601   1.080   6.242  0.4097  0.6365  0.0658
    5bbb     C4  125   2.599   0.961   6.336 -0.3995  0.2793  0.0155
    5bbb     C5  126   2.503   1.367   5.907 -0.1529  0.3038  0.2890
    5bbb     C6  127   2.383   1.459   5.905  0.3083  0.0370 -0.2797
    5bbb     C7  128   2.652   1.109   5.845  0.2865 -0.4195 -0.5300
    5bbb     C8  129   2.794   1.058   5.830 -0.1080  0.1638 -0.0951
    5bbb     N2  130   2.816   1.026   5.688 -0.3149  0.4536 -0.9868
    5bbb     O1  131   2.644   0.853   6.309 -0.4305  0.2970 -0.8393
    5bbb     O2  132   2.286   1.435   5.980 -0.0630 -0.3187 -0.6042
    5bbb     H1  133   2.538   0.967   6.065 -1.6383  1.4208  0.2770
    5bbb     H2  134   2.709   0.988   6.077 -0.0165  0.5948 -1.3458
    5bbb     H3  135   2.461   1.264   6.081 -0.4812 -0.6953 -0.1754
    5bbb     H4  136   2.410   1.165   5.942  1.8732 -1.3677 -1.6437
    5bbb     H5  137   2.690   1.131   6.281  1.3349 -0.3419 -0.7064
    5bbb     H6  138   2.515   1.145   6.259 -0.5285 -0.9939  1.9910
    5bbb     H7  139   2.528   1.353   5.801 -0.1300 -0.2005  0.3561
    5bbb     H8  140   2.584   1.419   5.959  0.8553 -2.3325  1.5630
    5bbb     H9  141   2.633   1.193   5.779  2.8311  1.1263  0.5875
    5bbb    H10  142   2.579   1.029   5.829 -0.5909  0.3916 -0.6450
    5bbb    H11  143   2.828   0.968   5.883 -1.5997 -0.6765 -0.4995
    5bbb    H12  144   2.865   1.135   5.863  0.7872 -0.9450  0.6276
    5bbb    H13  145   2.859   1.095   5.627  0.6638  2.4491  1.7494
    5bbb    H25  146   2.692   1.217   6.032  0.2965 -0.5830 -0.4281
    6bbb     N1  147   2.954   1.590   3.853 -0.1870 -0.5944  0.4752
    6bbb     C1  148   2.803   1.576   3.850  0.1100 -0.1251 -0.1553
    6bbb     C2  149   3.017   1.546   3.725 -0.7576 -0.2101  0.1375
    6bbb     C3  150   2.726   1.682   3.764  0.7304 -0.3116 -0.1252
    6bbb     C4  151   2.677   1.642   3.625 -0.4073 -0.0358  0.0260
    6bbb     C5  152   3.158   1.606   3.709 -0.6266 -0.5122  0.5035
    6bbb     C6  153   3.220   1.589   3.570  0.7313 -0.7074 -0.5880
    6bbb     C7  154   3.025   1.499   3.953  0.2807  0.4530 -0.1908
    6bbb     C8  155   3.020   1.546   4.098 -0.3138  0.1546  0.9431
    6bbb     N2  156   3.143   1.487   4.160  0.1349  0.3071 -0.0069
    6bbb     O1  157   2.745   1.584   3.542  0.1476 -0.1735 -0.0265
    6bbb     O2  158   3.224   1.480   3.516  0.2398  0.1469 -0.2164
    6bbb     H1  159   2.783   1.474   3.817  1.3796 -0.8908  1.3030
    6bbb     H2  160   2.781   1.598   3.955  3.5641  0.9290  0.4689
    6bbb     H3  161   2.963   1.589   3.641 -2.4073  0.2561  1.3912
    6bbb     H4  162   3.009   1.438   3.719 -0.2878 -0.1811 -1.3641
    6bbb     H5  163   2.641   1.723   3.819  1.5506  1.8412 -0.3243
    6bbb     H6  164   2.791   1.769   3.749 -2.0022  1.5879 -1.9366
    6bbb     H7  165   3.225   1.556   3.780 -0.9480 -0.4525  0.8522
    6bbb     H8  166   3.143   1.712   3.732 -1.8757 -0.3198 -1.0818
    6bbb     H9  167   3.126   1.467   3.925 -0.1768 -0.2811 -1.0237
    6bbb    H10  168   2.968   1.408   3.935 -0.6442  1.2247 -1.2385
    6bbb    H11  169   2.927   1.518   4.149 -0.6221 -0.4354  0.0711
    6bbb    H12  170   3.026   1.655   4.097 -1.0436  0.2016  1.1285
    6bbb    H13  171   3.231   1.536   4.152  0.1120  0.1579 -1.4326
    6bbb    H25  172   2.978   1.688   3.871  0.0258 -0.4344 -0.6315
    7bbb     N1  173   2.945   2.362   4.816  0.1990 -1.1226 -0.5160
    7bbb     C1  174   2.864   2.341   4.944 -0.5687  0.2082 -0.1730
    7bbb     C2  175   2.886   2.470   4.729 -1.1182  0.6007  0.0349
    7bbb     C3  176   2.890   2.417   5.073 -0.0927  0.3148  0.4622
    7bbb     C4  177   3.015   2.378   5.144 -0.7313  0.1422 -0.2879
    7bbb     C5  178   2.992   2.538   4.637  0.1599  0.6964  0.3014
    7bbb     C6  179   2.929   2.652   4.564 -0.1756 -0.0544  0.5241
    7bbb     C7  180   2.971   2.234   4.734  0.0752  0.4220  0.0940
    7bbb     C8  181   3.065   2.129   4.799  0.4474  0.1245 -0.6246
    7bbb     N2  182   3.058   2.001   4.714  0.6536  0.4790 -0.2831
    7bbb     O1  183   3.057   2.263   5.143  0.5681  0.2010  0.1591
    7bbb     O2  184   2.817   2.702   4.581 -0.1523 -0.4159 -0.6157
    7bbb     H1  185   2.761   2.353   4.909 -0.2577  3.5640 -0.2403
    7bbb     H2  186   2.872   2.238   4.980  0.9015  0.3438 -0.0378
    7bbb     H3  187   2.828   2.539   4.791  0.5936  0.8497  1.4536
    7bbb     H4  188   2.813   2.417   4.668  0.0902 -0.3410 -0.6360
    7bbb     H5  189   2.906   2.521   5.045  3.4602 -1.1379 -4.2624
    7bbb     H6  190   2.808   2.414   5.146  1.2572  1.1643  2.1110
    7bbb     H7  191   3.030   2.464   4.565  1.8045  1.8566 -0.0792
    7bbb     H8  192   3.072   2.576   4.701  1.2359 -0.0816 -0.5387
    7bbb     H9  193   3.020   2.266   4.642  1.0171 -2.3536 -0.4541
    7bbb    H10  194   2.873   2.188   4.718 -0.1134 -0.0491  2.3700
    7bbb    H11  195   3.024   2.102   4.897  4.0467 -0.8753  0.7833
    7bbb    H12  196   3.173   2.148   4.811  0.3934  0.7609 -1.0805
    7bbb    H13  197   2.980   1.999   4.649  0.3429 -1.2954  0.0842
    7bbb    H25  198   3.037   2.401   4.841 -0.8566  1.1863 -0.0010
    8bbb     N1  199   2.645  -0.489   4.864  0.2650  0.1956  0.3342
    8bbb     C1  200   2.773  -0.551   4.914 -0.4574 -0.0905 -0.2661
    8bbb     C2  201   2.581  -0.581   4.766  0.2656 -0.3158  0.1215
    8bbb     C3  202   2.819  -0.489   5.054 -0.6412  0.5415 -0.0277
    8bbb     C4  203   2.947  -0.557   5.104 -0.4528  0.1417  0.6926
    8bbb     C5  204   2.673  -0.620   4.649  0.5177  0.7045  0.2206
    8bbb     C6  205   2.602  -0.702   4.544 -0.0287  0.1820  0.7730
    8bbb     C7  206   2.670  -0.351   4.810  0.0757  0.5217 -0.0409
    8bbb     C8  207   2.553  -0.270   4.763 -0.1621  0.0757  0.2494
    8bbb     N2  208   2.593  -0.137   4.707  0.0235  0.4268 -0.3140
    8bbb     O1  209   3.047  -0.573   5.035  0.0958  0.5211  0.5671
    8bbb     O2  210   2.488  -0.676   4.505  0.0049 -0.1973  0.8474
    8bbb     H1  211   2.745  -0.657   4.917 -3.0995  0.4957 -1.1545
    8bbb     H2  212   2.856  -0.547   4.843 -0.0214 -0.1562  0.2370
    8bbb     H3  213   2.490  -0.530   4.734 -0.4901 -2.4465 -1.3875
    8bbb     H4  214   2.542  -0.666   4.822 -1.3224 -0.8106 -1.6201
    8bbb     H5  215   2.843  -0.383   5.040  0.1943  0.1742 -1.6540
    8bbb     H6  216   2.743  -0.494   5.133 -1.7024 -0.9861 -1.0632
    8bbb     H7  217   2.762  -0.670   4.688 -0.9217 -0.1124  2.6770
    8bbb     H8  218   2.716  -0.529   4.606  0.1869  0.1344 -1.4216
    8bbb     H9  219   2.736  -0.361   4.723 -1.5558 -0.2433 -1.2490
    8bbb    H10  220   2.709  -0.290   4.891  1.3683 -0.6781  0.2949
    8bbb    H11  221   2.492  -0.247   4.851 -1.2666 -1.5041 -0.0511
    8bbb    H12  222   2.486  -0.334   4.704 -1.3064 -0.4640  2.0413
    8bbb    H13  223   2.690  -0.135   4.678  0.3658 -3.1387  0.0989
    8bbb    H25  224   2.578  -0.481   4.942 -1.4318  1.7399 -1.1827
    9bbb     N1  225   1.685   0.050   3.993 -0.1937  0.4129 -0.4018
    9bbb     C1  226   1.574  -0.016   4.073 -0.2983 -0.5461  0.4708
    9bbb     C2  227   1.689   0.006   3.850 -0.5365 -0.3342  0.3289
    9bbb     C3  228   1.436  -0.008   4.000  0.3342 -0.2527  0.1527
    9bbb     C4  229   1.325  -0.076   4.084 -0.0823  0.7942 -0.1353
    9bbb     C5  230   1.780   0.094   3.764  0.5638  0.8435  0.3895
    9bbb     C6  231   1.781   0.056   3.620 -0.0162 -0.1372  0.3190
    9bbb     C7  232   1.821   0.042   4.065 -0.0774  0.9724 -0.1070
    9bbb     C8  233   1.831   0.089   4.209 -0.2722 -0.3246 -0.2011
    9bbb     N2  234   1.968   0.057   4.261  0.6745  0.4182  1.0392
    9bbb     O1  235   1.346  -0.175   4.150  0.0285  0.5110  0.1758
    9bbb     O2  236   1.717  -0.038   3.569  0.2946 -0.0191 -0.3185
    9bbb     H1  237   1.595  -0.118   4.103 -0.6730 -0.8158 -0.1632
    9bbb     H2  238   1.560   0.046   4.161 -0.6579  0.1474 -0.0648
    9bbb     H3  239   1.591   0.012   3.803 -0.3034  0.1456 -0.1048
    9bbb     H4  240   1.727  -0.096   3.849  0.0837 -0.2358 -3.6111
    9bbb     H5  241   1.408   0.095   3.974 -2.1954 -1.2739 -1.6205
    9bbb     H6  242   1.439  -0.061   3.904 -0.3244  1.3372 -0.7859
    9bbb     H7  243   1.882   0.081   3.803  0.4858 -1.4444  0.0255
    9bbb     H8  244   1.749   0.199   3.759  1.2489  1.0356 -0.1247
    9bbb     H9  245   1.889   0.095   3.997 -1.6270  1.4827 -1.3242
    9bbb    H10  246   1.853  -0.062   4.064  0.9122  1.2679  0.0290
    9bbb    H11  247   1.751   0.040   4.266 -0.2227 -1.0119 -0.7104
    9bbb    H12  248   1.812   0.197   4.216 -0.2883 -0.3137 -0.4190
    9bbb    H13  249   1.977  -0.030   4.310 -0.3746 -0.8076 -0.8157
    9bbb    H25  250   1.655   0.148   3.991 -1.0280  0.2531  1.7304
   10bbb     N1  251   4.529   0.581   5.976 -0.0730 -0.4823  0.2725
   10bbb     C1  252   4.625   0.467   5.978 -0.2349 -0.1761 -0.5828
   10bbb     C2  253   4.504   0.612   6.124  0.0845  0.6715  0.4926
   10bbb     C3  254   4.768   0.497   6.025 -0.8199 -0.0961  0.2929
   10bbb     C4  255   4.852   0.369   6.043 -0.2036 -0.4474  0.0668
   10bbb     C5  256   4.469   0.758   6.158  0.6037  0.3426 -0.1358
   10bbb     C6  257   4.503   0.793   6.307  0.3531 -0.1445  0.4036
   10bbb     C7  258   4.397   0.539   5.909 -0.8166  0.0125  0.2309
   10bbb     C8  259   4.282   0.649   5.902 -0.6938  0.2477 -0.1894
   10bbb     N2  260   4.167   0.607   5.819 -0.1881 -0.6961  0.1719
   10bbb     O1  261   4.798   0.264   6.008  0.4680 -0.0397  0.1615
   10bbb     O2  262   4.517   0.706   6.394 -0.1704  0.2864 -0.0944
   10bbb     H1  263   4.572   0.406   6.052  0.9838 -2.1667 -1.2668
   10bbb     H2  264   4.610   0.409   5.887 -2.7173  2.1980 -1.8333
   10bbb     H3  265   4.595   0.587   6.179  0.8129  1.0901 -0.4957
   10bbb     H4  266   4.427   0.543   6.158  2.2839 -1.8245  0.7407
   10bbb     H5  267   4.827   0.554   5.952  3.1327 -0.2651  3.0431
   10bbb     H6  268   4.778   0.554   6.117  2.2253 -0.7369  0.4676
   10bbb     H7  269   4.360   0.774   6.153  0.1646 -1.9805  0.9195
   10bbb     H8  270   4.517   0.832   6.093 -1.1600  0.2586 -1.6100
   10bbb     H9  271   4.346   0.450   5.946  1.3441 -1.4255 -0.1192
   10bbb    H10  272   4.432   0.520   5.808 -1.1037 -2.1158  0.4755
   10bbb    H11  273   4.312   0.749   5.872 -0.6084 -0.3522 -2.2989
   10bbb    H12  274   4.241   0.656   6.004  0.4516  1.3233  0.2146
   10bbb    H13  275   4.183   0.523   5.765  0.6225 -1.2487  1.2342
   10bbb    H25  276   4.568   0.667   5.934 -1.8777  0.1579 -0.1698
   11bbb     N1  277   4.147   0.189   4.840  0.0140 -0.5113 -0.4218
   11bbb     C1  278   4.008   0.208   4.771  0.6746 -0.2213 -0.2039
   11bbb     C2  279   4.180   0.050   4.869 -0.0238  0.1630  0.0441
   11bbb     C3  280   4.013   0.228   4.619  0.4527  0.1338  0.0852
   11bbb     C4  281   4.094   0.343   4.570  0.0795 -0.4650  0.9926
   11bbb     C5  282   4.207  -0.041   4.746  0.7095 -0.1911 -0.4074
   11bbb     C6  283   4.325  -0.010   4.654 -0.2060  0.5298 -0.4187
   11bbb     C7  284   4.142   0.243   4.983  0.5416  0.7151 -0.5162
   11bbb     C8  285   4.120   0.394   4.991  0.4663  0.0409  0.1410
   11bbb     N2  286   4.028   0.418   5.100  0.2726 -0.4632 -0.3639
   11bbb     O1  287   4.195   0.382   4.625  0.3388 -0.2784  0.5370
   11bbb     O2  288   4.326   0.095   4.591 -0.3360 -0.2873 -0.0075
   11bbb     H1  289   3.942   0.126   4.799 -0.0660  0.8127  1.2448
   11bbb     H2  290   3.953   0.293   4.813 -0.3508 -0.8190 -0.3055
   11bbb     H3  291   4.090   0.009   4.917 -0.9549  1.7886 -0.2466
   11bbb     H4  292   4.270   0.054   4.930  0.3327  0.2672 -0.4855
   11bbb     H5  293   4.050   0.138   4.568 -1.0190 -0.1231 -0.6042
   11bbb     H6  294   3.907   0.231   4.589  0.8947  2.1438 -1.4419
   11bbb     H7  295   4.119  -0.056   4.682 -1.3183  2.4455  1.5091
   11bbb     H8  296   4.232  -0.140   4.785 -1.6736 -2.1191 -3.3117
   11bbb     H9  297   4.233   0.210   5.034  2.3138  1.7569 -2.8654
   11bbb    H10  298   4.052   0.196   5.024  0.8416  0.6961  0.1388
   11bbb    H11  299   4.081   0.437   4.898 -0.8591  1.5006  1.3139
   11bbb    H12  300   4.215   0.448   5.000  0.8925 -0.4850 -0.9851
   11bbb    H13  301   3.949   0.359   5.124  0.3386  0.2223  1.7592
   11bbb    H25  302   4.230   0.231   4.795 -1.3535  1.6822 -1.0325
   12bbb     N1  303   2.389   0.864   6.789  0.0941 -0.4782  0.3858
   12bbb     C1  304   2.516   0.893   6.864  0.3307  0.4569 -0.0339
   12bbb     C2  305   2.366   0.719   6.776 -0.7642 -0.2786  0.4260
   12bbb     C3  306   2.544   1.044   6.890 -0.0155 -0.7551  0.0179
   12bbb     C4  307   2.679   1.066   6.963 -0.2060  0.0363  0.4885
   12bbb     C5  308   2.232   0.677   6.716 -0.2617 -0.8349 -0.9261
   12bbb     C6  309   2.191   0.540   6.764  0.1825 -0.3806 -0.0423
   12bbb     C7  310   2.383   0.929   6.651  0.6095  0.1954 -0.2477
   12bbb     C8  311   2.484   0.882   6.541 -0.7293 -0.0247  0.0588
   12bbb     N2  312   2.527   0.988   6.453 -0.3191  0.0065  0.1860
   12bbb     O1  313   2.751   0.977   7.000 -0.4621  0.2669 -0.3557
   12bbb     O2  314   2.271   0.475   6.833  0.4178  0.3001 -0.1509
   12bbb     H1  315   2.510   0.839   6.958 -1.0975  1.1148  0.2757
   12bbb     H2  316   2.591   0.843   6.803  0.0479 -1.0271  0.8024
   12bbb     H3  317   2.364   0.684   6.879  0.4585  1.4899  1.0945
   12bbb     H4  318   2.449   0.672   6.724  0.9581  2.0185  0.9403
   12bbb     H5  319   2.530   1.100   6.797 -0.4601 -1.3279 -0.2685
   12bbb     H6  320   2.460   1.077   6.953 -0.6568  1.5582 -1.9109
   12bbb     H7  321   2.230   0.677   6.607 -0.7104  0.4535 -0.9332
   12bbb     H8  322   2.153   0.745   6.749  2.2841  2.6377 -1.3832
   12bbb     H9  323   2.401   1.035   6.668 -0.0003  0.5641 -1.7451
   12bbb    H10  324   2.280   0.921   6.617  0.4631  1.5864 -0.1894
   12bbb    H11  325   2.444   0.800   6.481  0.6217 -0.4539 -0.2921
   12bbb    H12  326   2.571   0.838   6.591 -0.2866 -1.9360 -2.1968
   12bbb    H13  327   2.507   1.086   6.467 -0.0406  0.0874  0.0338
   12bbb    H25  328   2.316   0.914   6.841 -1.4257  0.0991 -2.1045
   13bbb     N1  329   2.081   1.583   5.731  0.4121  0.5013 -0.1214
   13bbb     C1  330   1.987   1.622   5.623  0.4789  0.7056  0.0557
   13bbb     C2  331   2.006   1.546   5.861 -0.2509 -0.2400  0.8599
   13bbb     C3  332   1.919   1.508   5.536  0.4521  0.0696 -0.2363
   13bbb     C4  333   1.854   1.564   5.404 -0.1039  0.4999 -0.1087
   13bbb     C5  334   1.895   1.644   5.906  0.1708 -0.4349 -0.4590
   13bbb     C6  335   1.816   1.607   6.029  0.2771 -0.1409 -0.4015
   13bbb     C7  336   2.181   1.699   5.750  0.3635 -0.1384 -0.1835
   13bbb     C8  337   2.298   1.685   5.847  0.1335  0.0629  0.2941
   13bbb     N2  338   2.390   1.570   5.828  0.2055 -0.2762 -0.3044
   13bbb     O1  339   1.873   1.678   5.372 -0.4944  0.1576  0.0167
   13bbb     O2  340   1.783   1.494   6.066 -0.4614  0.1548  0.3375
   13bbb     H1  341   1.917   1.700   5.655 -1.0089 -0.1837 -0.9355
   13bbb     H2  342   2.055   1.678   5.559  0.3841  0.6683 -0.0765
   13bbb     H3  343   2.088   1.535   5.931 -0.4061  0.7648  1.2118
   13bbb     H4  344   1.949   1.456   5.834 -2.2408  1.3019 -0.3190
   13bbb     H5  345   1.979   1.420   5.510  0.1862  0.0776 -0.8982
   13bbb     H6  346   1.837   1.466   5.594 -1.0625  2.2402 -0.6873
   13bbb     H7  347   1.830   1.676   5.824  0.1116  0.8243  0.0665
   13bbb     H8  348   1.943   1.741   5.921  0.3080 -0.4341 -0.8906
   13bbb     H9  349   2.119   1.782   5.783  1.2083  0.2032  0.5718
   13bbb    H10  350   2.232   1.720   5.656 -0.2201  1.3055 -0.2082
   13bbb    H11  351   2.253   1.683   5.948 -1.6799  0.6502 -0.4570
   13bbb    H12  352   2.365   1.772   5.848  0.2669 -0.0387  0.1034
   13bbb    H13  353   2.473   1.575   5.771  0.7654 -0.3216  0.5029
   13bbb    H25  354   2.135   1.504   5.693 -1.1902 -0.7073  0.0517
   14bbb     N1  355   2.360   1.804   3.281  0.5689  0.4258 -0.2439
   14bbb     C1  356   2.383   1.690   3.186 -0.0631  0.0525  0.3513
   14bbb     C2  357   2.365   1.942   3.210  0.3311 -0.0201 -0.2597
   14bbb     C3  358   2.266   1.663   3.088  0.3624  0.3757  0.3156
   14bbb     C4  359   2.291   1.549   2.990  0.0408 -0.4411  0.2007
   14bbb     C5  360   2.288   2.059   3.279 -1.1644 -0.8810  0.7530
   14bbb     C6  361   2.145   2.030   3.304  0.4178  0.9151  0.4243
   14bbb     C7  362   2.463   1.799   3.392 -0.5900 -0.7724  0.9780
   14bbb     C8  363   2.473   1.663   3.464  0.0605  0.8618 -0.1879
   14bbb     N2  364   2.546   1.685   3.592  0.1300  0.3554 -0.2113
   14bbb     O1  365   2.371   1.452   2.996  0.8177 -0.5965 -0.0635
   14bbb     O2  366   2.086   1.922   3.314  0.4694 -0.3790  0.2005
   14bbb     H1  367   2.466   1.728   3.127 -1.9618 -0.9916 -3.2628
   14bbb     H2  368   2.409   1.594   3.231 -1.8104 -0.2830  0.7085
   14bbb     H3  369   2.333   1.922   3.107  3.3946  0.6088 -1.4439
   14bbb     H4  370   2.472   1.962   3.201  0.8627 -0.4180  3.4567
   14bbb     H5  371   2.172   1.652   3.144 -0.2832 -0.2124 -0.8369
   14bbb     H6  372   2.250   1.753   3.028 -0.0585  0.6772  0.8639
   14bbb     H7  373   2.290   2.148   3.215 -3.3451  1.4593  3.6441
   14bbb     H8  374   2.332   2.091   3.375 -1.1461  1.2530  0.0863
   14bbb     H9  375   2.431   1.880   3.458  0.0612 -0.5604  1.0421
   14bbb    H10  376   2.559   1.823   3.346 -0.3295  1.3948  2.5220
   14bbb    H11  377   2.523   1.588   3.401 -2.3610 -1.2549  0.2624
   14bbb    H12  378   2.371   1.627   3.479 -0.2263  1.4416 -0.7016
   14bbb    H13  379   2.490   1.728   3.664 -1.3684 -0.6350 -0.7429
   14bbb    H25  380   2.264   1.784   3.314  0.4264 -1.0827 -1.4707
   15bbb     N1  381   3.510   1.655   3.221 -0.1566 -1.1402 -0.2013
   15bbb     C1  382   3.481   1.520   3.150 -0.6796  0.2578 -0.1339
   15bbb     C2  383   3.660   1.675   3.238  0.2256 -0.4632  0.3269
   15bbb     C3  384   3.509   1.522   2.999 -0.5048  0.6183 -0.1656
   15bbb     C4  385   3.441   1.399   2.942  0.7484 -1.1667 -0.1495
   15bbb     C5  386   3.703   1.796   3.321  0.6932 -0.0024 -0.6090
   15bbb     C6  387   3.852   1.813   3.343 -0.5537  0.1236  0.7239
   15bbb     C7  388   3.446   1.649   3.360  0.5543  0.3878  0.2007
   15bbb     C8  389   3.306   1.693   3.363 -0.3844  0.1105  0.3767
   15bbb     N2  390   3.259   1.697   3.499  0.3710  0.4321  0.3114
   15bbb     O1  391   3.389   1.315   3.011  0.7509  0.4238 -0.0239
   15bbb     O2  392   3.933   1.725   3.323  0.6068  0.2287  0.3323
   15bbb     H1  393   3.548   1.446   3.195 -0.6829  1.1698  1.4620
   15bbb     H2  394   3.376   1.495   3.161 -0.7731 -0.3903 -2.0516
   15bbb     H3  395   3.707   1.670   3.140 -1.9443 -1.3833 -0.7294
   15bbb     H4  396   3.698   1.592   3.298 -0.0893 -1.1304 -0.3777
   15bbb     H5  397   3.470   1.615   2.956  0.1319  1.6936  1.4636
   15bbb     H6  398   3.616   1.507   2.978  0.2368  0.6924  2.9235
   15bbb     H7  399   3.666   1.784   3.424 -0.1704 -1.9659 -1.0815
   15bbb     H8  400   3.668   1.888   3.273  1.7922  0.5328 -0.3984
   15bbb     H9  401   3.508   1.707   3.429 -2.0662  1.4826  1.8156
   15bbb    H10  402   3.449   1.542   3.379 -0.0570  0.5725  1.4270
   15bbb    H11  403   3.239   1.633   3.300 -1.8632  1.5747  0.4863
   15bbb    H12  404   3.308   1.791   3.315 -0.7516 -0.2611 -0.4031
   15bbb    H13  405   3.242   1.789   3.538 -1.3168  0.4175 -0.3369
   15bbb    H25  406   3.469   1.739   3.178  0.4314 -1.2925 -1.0968
   16bbb     N1  407   3.399   2.550   5.420  0.6092  0.6368  0.2210
   16bbb     C1  408   3.470   2.410   5.393 -0.3319  0.1640  0.1176
   16bbb     C2  409   3.407   2.585   5.573  0.4138 -0.7777  0.1296
   16bbb     C3  410   3.549   2.394   5.264 -0.3133  0.1024 -0.2783
   16bbb     C4  411   3.650   2.505   5.222 -0.2589  0.7512 -1.2806
   16bbb     C5  412   3.362   2.729   5.621 -0.2954 -0.0203 -0.4407
   16bbb     C6  413   3.459   2.821   5.702 -0.0254  1.0716  0.1439
   16bbb     C7  414   3.253   2.539   5.373 -0.9509  0.3951  0.1157
   16bbb     C8  415   3.224   2.477   5.234 -0.0296 -0.4921  0.9297
   16bbb     N2  416   3.085   2.486   5.201  0.1696  0.2715 -0.2323
   16bbb     O1  417   3.600   2.596   5.157 -0.1566 -0.5725 -0.5778
   16bbb     O2  418   3.570   2.784   5.727  0.3040  0.0122  0.1201
   16bbb     H1  419   3.535   2.393   5.480  2.3590 -0.6014 -1.8994
   16bbb     H2  420   3.391   2.336   5.408  0.8959 -1.1648  0.2734
   16bbb     H3  421   3.510   2.567   5.605  0.8116 -1.8079 -1.6220
   16bbb     H4  422   3.353   2.507   5.627 -1.2645  0.1354 -0.1479
   16bbb     H5  423   3.602   2.298   5.271  0.2239  0.4032 -0.1672
   16bbb     H6  424   3.485   2.375   5.177  0.6644  0.3423 -1.0606
   16bbb     H7  425   3.274   2.708   5.683 -0.5912  1.0725 -0.4769
   16bbb     H8  426   3.322   2.780   5.533 -0.7280  0.2874 -0.0715
   16bbb     H9  427   3.207   2.638   5.378  0.8370  1.2484  0.9799
   16bbb    H10  428   3.190   2.475   5.434 -1.0270  0.5060  0.1532
   16bbb    H11  429   3.253   2.372   5.243  2.7532  0.2384  1.1816
   16bbb    H12  430   3.279   2.527   5.154 -3.3469 -0.1297 -1.3417
   16bbb    H13  431   3.047   2.576   5.171 -0.7109 -0.1973 -0.5680
   16bbb    H25  432   3.448   2.619   5.362  1.1045 -0.4483 -0.6750
   17bbb     N1  433   3.042   3.037   4.246  0.6930  0.1172 -0.6311
   17bbb     C1  434   2.936   3.004   4.143 -0.6368  0.1908  0.5885
   17bbb     C2  435   3.157   3.103   4.184 -0.6533 -0.1915  0.6121
   17bbb     C3  436   2.845   3.122   4.130  0.3734  0.9745  0.1706
   17bbb     C4  437   2.753   3.111   4.009  0.4387  0.4254  0.4044
   17bbb     C5  438   3.257   3.159   4.280 -0.2439  1.0535  0.4909
   17bbb     C6  439   3.387   3.207   4.218 -0.0445  0.2315 -0.2579
   17bbb     C7  440   3.075   2.902   4.320  0.1220 -0.6014  0.4702
   17bbb     C8  441   2.968   2.827   4.399 -0.0594 -0.1098 -0.3455
   17bbb     N2  442   3.011   2.704   4.466 -0.3953 -0.2342  0.3406
   17bbb     O1  443   2.755   3.025   3.925  0.2550 -0.2996  0.0471
   17bbb     O2  444   3.396   3.253   4.106  0.1497  0.0458 -0.3917
   17bbb     H1  445   2.982   2.986   4.046 -2.2212  3.3243 -0.9153
   17bbb     H2  446   2.878   2.915   4.169 -1.0800 -0.0809 -1.1951
   17bbb     H3  447   3.126   3.189   4.126  1.4898  0.3240  0.1531
   17bbb     H4  448   3.211   3.036   4.116 -1.0409 -0.0342  0.1452
   17bbb     H5  449   2.789   3.139   4.223 -0.4212 -0.0121 -0.1093
   17bbb     H6  450   2.901   3.212   4.103  0.3603  0.8046 -0.4346
   17bbb     H7  451   3.272   3.078   4.352  1.2215 -0.7227 -1.6526
   17bbb     H8  452   3.213   3.251   4.320 -0.3385  1.5674 -0.7324
   17bbb     H9  453   3.151   2.933   4.392 -0.8248 -1.4655  1.8667
   17bbb    H10  454   3.119   2.833   4.248 -0.2985  0.1936 -0.5799
   17bbb    H11  455   2.895   2.801   4.321 -0.6552  0.5672 -0.0273
   17bbb    H12  456   2.923   2.895   4.472  1.4614 -0.0662  0.5919
   17bbb    H13  457   3.111   2.689   4.470 -0.1471  1.1415 -0.1667
   17bbb    H25  458   3.011   3.103   4.318 -0.3359  0.7804 -1.6353
   18bbb     N1  459   3.058  -0.948   5.371 -0.1107  0.0259  0.2630
   18bbb     C1  460   3.168  -1.011   5.286  0.3363 -0.6990  0.8970
   18bbb     C2  461   2.964  -1.060   5.416  0.3139 -0.3784  0.1135
   18bbb     C3  462   3.288  -1.064   5.358  0.0116 -0.0285 -0.3564
   18bbb     C4  463   3.407  -1.102   5.273 -0.1112 -0.1858 -0.0464
   18bbb     C5  464   2.856  -1.020   5.515  0.1497  0.3633  0.0568
   18bbb     C6  465   2.742  -1.124   5.518 -0.6392  0.6332  0.1734
   18bbb     C7  466   2.986  -0.845   5.292  0.8299  0.5571  0.7075
   18bbb     C8  467   3.040  -0.704   5.289  1.3792 -0.4170  0.4399
   18bbb     N2  468   2.946  -0.606   5.236  0.1652  0.0397  0.1068
   18bbb     O1  469   3.403  -1.123   5.151  0.1318 -0.4346 -0.2397
   18bbb     O2  470   2.733  -1.217   5.444  0.2487  0.3852  0.0225
   18bbb     H1  471   3.128  -1.089   5.221  1.2346  0.9061 -1.7159
   18bbb     H2  472   3.214  -0.935   5.222  0.0670 -1.7878 -0.6580
   18bbb     H3  473   3.025  -1.143   5.453 -1.5849 -1.1491  1.7075
   18bbb     H4  474   2.922  -1.104   5.326  1.0538  1.1812 -1.0361
   18bbb     H5  475   3.326  -0.995   5.434 -0.1334 -0.0032 -0.3059
   18bbb     H6  476   3.257  -1.151   5.416 -1.1911  0.7872  0.2832
   18bbb     H7  477   2.818  -0.918   5.507 -2.7262 -0.4849  1.2855
   18bbb     H8  478   2.894  -1.031   5.617 -0.3045 -0.6875  0.1361
   18bbb     H9  479   2.886  -0.840   5.337  1.8055  2.2465  2.8119
   18bbb    H10  480   2.966  -0.883   5.191  2.2027  0.8838  0.3044
   18bbb    H11  481   3.133  -0.690   5.232 -0.0432  0.9577 -1.6950
   18bbb    H12  482   3.060  -0.670   5.391  1.5050 -2.0171  0.9634
   18bbb    H13  483   2.856  -0.590   5.279  0.1709  0.5325 -0.0514
   18bbb    H25  484   3.102  -0.904   5.453  1.6118 -0.8679 -0.1277
   19bbb     N1  485   2.618  -1.155   4.366  0.5096  0.2273  0.2140
   19bbb     C1  486   2.489  -1.179   4.443 -0.1094 -0.4654 -0.5180
   19bbb     C2  487   2.704  -1.284   4.357 -0.1501  0.4467  0.6258
   19bbb     C3  488   2.399  -1.289   4.381 -0.1185 -0.1516  0.1743
   19bbb     C4  489   2.282  -1.312   4.474  0.3476 -0.5420  0.6160
   19bbb     C5  490   2.817  -1.280   4.246  0.0687  0.5184  0.6610
   19bbb     C6  491   2.883  -1.414   4.230 -0.1350 -0.8022  0.0683
   19bbb     C7  492   2.695  -1.031   4.410 -0.1388  0.1693  0.1818
   19bbb     C8  493   2.634  -0.894   4.384  0.2679 -0.2469 -0.2436
   19bbb     N2  494   2.672  -0.803   4.484  0.0347 -0.0141  0.3153
   19bbb     O1  495   2.255  -1.252   4.575 -0.0400  0.5320  0.6987
   19bbb     O2  496   2.841  -1.518   4.283  0.2359  0.2552  0.0552
   19bbb     H1  497   2.518  -1.203   4.545 -2.1444 -3.0198 -0.4489
   19bbb     H2  498   2.431  -1.086   4.445 -1.9384 -1.5332 -1.6120
   19bbb     H3  499   2.641  -1.371   4.335 -0.4475  1.3861 -2.8936
   19bbb     H4  500   2.756  -1.295   4.452 -0.2024 -0.5039  0.5527
   19bbb     H5  501   2.373  -1.267   4.277  2.5958 -0.2588 -0.5802
   19bbb     H6  502   2.458  -1.381   4.373 -2.7891 -1.8443 -1.7366
   19bbb     H7  503   2.885  -1.196   4.267  0.1699  0.7884 -0.6424
   19bbb     H8  504   2.776  -1.264   4.145 -1.1059  2.6441  1.3928
   19bbb     H9  505   2.795  -1.031   4.366 -0.0427  0.4127  0.3946
   19bbb    H10  506   2.710  -1.035   4.518  2.5809 -0.8564 -0.1588
   19bbb    H11  507   2.524  -0.893   4.376  0.3306  1.6326 -1.4346
   19bbb    H12  508   2.664  -0.869   4.281 -0.2394 -1.4050 -0.6965
   19bbb    H13  509   2.763  -0.819   4.525  0.1042 -0.5439 -0.0368
   19bbb    H25  510   2.583  -1.147   4.269  2.2057 -2.0897 -0.7107
   20bbb     N1  511   0.945   0.148   4.097  0.4365  0.4797  0.0190
   20bbb     C1  512   0.847   0.261   4.134 -0.6444  0.1992 -0.0886
   20bbb     C2  513   0.876   0.055   3.994  0.3558  0.3825  0.0300
   20bbb     C3  514   0.729   0.218   4.229  0.4489  0.0102  0.6253
   20bbb     C4  515   0.652   0.344   4.280 -0.5766 -1.0804 -0.4659
   20bbb     C5  516   0.828   0.124   3.864 -0.0759 -0.6182  0.7555
   20bbb     C6  517   0.701   0.067   3.801 -0.4623 -0.4981 -0.3542
   20bbb     C7  518   0.994   0.061   4.213  0.0002  0.3691 -0.1545
   20bbb     C8  519   1.093  -0.048   4.177 -0.4190 -0.3674  1.0773
   20bbb     N2  520   1.210  -0.007   4.090 -0.4511 -0.6513 -0.9248
   20bbb     O1  521   0.697   0.459   4.291 -0.4363 -0.1765 -0.3306
   20bbb     O2  522   0.655  -0.034   3.838  0.1459 -0.0153 -0.1943
   20bbb     H1  523   0.909   0.337   4.183 -1.0738  0.3312  0.2504
   20bbb     H2  524   0.809   0.306   4.042  0.6466 -1.9916 -1.7835
   20bbb     H3  525   0.791   0.006   4.040 -0.1841  1.0886 -0.1930
   20bbb     H4  526   0.946  -0.023   3.962  1.5023  1.5307 -0.3554
   20bbb     H5  527   0.654   0.152   4.184  0.8908  1.0528 -1.8126
   20bbb     H6  528   0.764   0.162   4.317 -2.4140 -1.0371  1.2104
   20bbb     H7  529   0.911   0.130   3.792 -0.2259  1.7458  0.6930
   20bbb     H8  530   0.801   0.230   3.873  2.2540  0.3499 -1.8927
   20bbb     H9  531   0.902   0.025   4.259 -1.0261  1.0658 -1.5614
   20bbb    H10  532   1.041   0.138   4.274 -0.8362  0.4157  0.4522
   20bbb    H11  533   1.049  -0.132   4.122  0.1814 -0.5220  0.8231
   20bbb    H12  534   1.118  -0.082   4.279  0.2965 -0.1850  0.9608
   20bbb    H13  535   1.216   0.088   4.055 -0.2065  0.2337  1.3437
   20bbb    H25  536   1.029   0.195   4.061  1.7968 -0.8294  1.3263
   21bbb     N1  537   1.923   0.236   3.181 -0.2887 -0.4458  0.2117
   21bbb     C1  538   1.906   0.378   3.120  0.5385 -0.2596 -0.8297
   21bbb     C2  539   1.853   0.137   3.090  1.2558 -0.0348 -0.2742
   21bbb     C3  540   1.771   0.448   3.158  0.3540 -0.2602 -1.2406
   21bbb     C4  541   1.747   0.562   3.057 -0.0368 -0.2505 -0.0990
   21bbb     C5  542   1.932   0.008   3.065 -0.1553  0.3367 -0.9348
   21bbb     C6  543   1.875  -0.072   2.950 -0.5318 -0.5534  0.2863
   21bbb     C7  544   1.867   0.239   3.325 -0.0443 -0.0252  0.2658
   21bbb     C8  545   1.885   0.115   3.408 -0.0948 -0.8562 -0.4850
   21bbb     N2  546   1.859   0.141   3.545  0.1622  0.0570 -0.0690
   21bbb     O1  547   1.841   0.631   3.024  0.0477 -0.5636  0.6978
   21bbb     O2  548   1.761  -0.071   2.915  0.6801  0.6833 -0.2380
   21bbb     H1  549   1.985   0.445   3.154  0.8547 -0.6536 -0.7783
   21bbb     H2  550   1.910   0.367   3.012  2.4926  0.0410 -0.8186
   21bbb     H3  551   1.838   0.191   2.996 -0.3346  0.6635  0.3419
   21bbb     H4  552   1.752   0.115   3.123  0.8918 -0.4958 -1.6141
   21bbb     H5  553   1.686   0.379   3.161 -0.5260  0.8039 -1.3165
   21bbb     H6  554   1.777   0.491   3.258 -0.2196 -1.0027 -0.8788
   21bbb     H7  555   1.922  -0.046   3.160  0.5970 -0.3592 -1.2457
   21bbb     H8  556   2.038   0.035   3.058 -0.7865  3.1734 -0.7619
   21bbb     H9  557   1.761   0.267   3.322  0.0304  0.7375  2.5570
   21bbb    H10  558   1.926   0.313   3.379  1.0959 -0.3567 -0.4810
   21bbb    H11  559   1.983   0.068   3.395 -0.5484 -2.0240  0.1471
   21bbb    H12  560   1.804   0.050   3.373 -0.5384 -1.1683  1.0407
   21bbb    H13  561   1.879   0.222   3.602 -1.9137 -0.3032  1.2748
   21bbb    H25  562   2.024   0.217   3.173 -0.6475 -1.9859 -1.0636
   22bbb     N1  563   5.232   0.139   6.282  0.3038 -0.0548 -0.3469
   22bbb     C1  564   5.355   0.162   6.368 -0.6576  0.0184 -0.8695
   22bbb     C2  565   5.255   0.039   6.179 -0.0680  0.1718  0.2161
   22bbb     C3  566   5.333   0.259   6.484 -0.1191  0.0094  0.5658
   22bbb     C4  567   5.457   0.264   6.563  0.2830 -0.0304 -0.2102
   22bbb     C5  568   5.288  -0.108   6.221  0.2225  0.4301 -0.0309
   22bbb     C6  569   5.165  -0.163   6.292  0.3510  0.4505 -0.4818
   22bbb     C7  570   5.179   0.267   6.214 -0.0682 -0.2627 -0.4476
   22bbb     C8  571   5.031   0.252   6.160 -0.3288 -0.4590  0.0222
   22bbb     N2  572   4.973   0.378   6.106  0.5557  0.0232  0.0570
   22bbb     O1  573   5.565   0.245   6.514 -0.2697 -0.3248  0.4520
   22bbb     O2  574   5.081  -0.089   6.345  0.5236 -0.7726  0.1569
   22bbb     H1  575   5.379   0.060   6.395 -0.7572  0.1738 -0.1798
   22bbb     H2  576   5.438   0.200   6.307 -1.2641 -0.6762 -2.1563
   22bbb     H3  577   5.338   0.076   6.118 -1.6182  2.7237 -0.4731
   22bbb     H4  578   5.163   0.035   6.121  1.3720  1.0147 -2.2524
   22bbb     H5  579   5.308   0.359   6.446  0.1107 -0.2253 -0.2183
   22bbb     H6  580   5.251   0.219   6.544 -0.9561  1.0767  0.1675
   22bbb     H7  581   5.375  -0.122   6.287  0.4952  0.9572 -0.2771
   22bbb     H8  582   5.310  -0.174   6.136  0.0473  1.8361 -1.2041
   22bbb     H9  583   5.248   0.297   6.135 -0.5663  0.3970 -0.6409
   22bbb    H10  584   5.180   0.340   6.294  0.7343  0.8797 -1.4646
   22bbb    H11  585   4.958   0.216   6.234 -2.0396  3.3741  0.4721
   22bbb    H12  586   5.041   0.174   6.083 -0.4848 -1.4077  0.9338
   22bbb    H13  587   5.010   0.470   6.126 -1.5296  0.9527 -0.1089
   22bbb    H25  588   5.163   0.106   6.351  0.3265 -0.4099 -0.4934
   23bbb     N1  589   4.782   1.092   6.420 -0.1819 -0.1723  0.9155
   23bbb     C1  590   4.929   1.048   6.410 -0.9509 -0.2260 -0.3703
   23bbb     C2  591   4.774   1.230   6.477  0.0221 -0.1635  0.0315
   23bbb     C3  592   4.999   1.019   6.546 -0.2080  0.4530 -0.0068
   23bbb     C4  593   5.131   1.083   6.566  0.3589 -0.2440 -1.1407
   23bbb     C5  594   4.852   1.342   6.394  0.2664  0.0118 -0.4582
   23bbb     C6  595   4.857   1.477   6.469  0.0081  1.3092 -0.0003
   23bbb     C7  596   4.702   0.987   6.504  0.0301 -0.1389 -0.0142
   23bbb     C8  597   4.550   0.983   6.477 -0.0386 -0.2257  0.7042
   23bbb     N2  598   4.507   0.929   6.342 -0.4392  0.0428 -0.4057
   23bbb     O1  599   5.158   1.186   6.506  0.5845 -0.3604  0.1633
   23bbb     O2  600   4.806   1.489   6.583  0.1663  0.1818  0.6379
   23bbb     H1  601   4.927   0.965   6.339 -2.4910 -0.5007 -0.0471
   23bbb     H2  602   4.987   1.128   6.363 -1.2973 -0.3995 -1.1053
   23bbb     H3  603   4.813   1.239   6.579  3.6270  1.2891 -1.3040
   23bbb     H4  604   4.667   1.245   6.486  0.2607  0.7621  1.9327
   23bbb     H5  605   4.931   1.060   6.622  0.7306  0.9714  0.5767
   23bbb     H6  606   5.007   0.910   6.554 -0.8642  0.4554  0.8817
   23bbb     H7  607   4.806   1.363   6.296 -1.6561  0.1953  0.4260
   23bbb     H8  608   4.956   1.310   6.383  0.9498  0.9093  2.4251
   23bbb     H9  609   4.727   1.015   6.606  1.5560  3.5695 -1.2302
   23bbb    H10  610   4.749   0.892   6.481 -0.1258  0.2555 -2.2104
   23bbb    H11  611   4.516   1.086   6.499  0.9905  0.1194  0.7141
   23bbb    H12  612   4.508   0.917   6.554  0.0540 -0.8826  0.1950
   23bbb    H13  613   4.485   0.998   6.270  1.4869  1.1301 -0.0359
   23bbb    H25  614   4.756   1.090   6.321  1.0591  3.4128  0.3544
   24bbb     N1  615   4.045   0.475   4.150 -0.6588  0.1978 -0.6285
   24bbb     C1  616   4.193   0.452   4.112 -0.0820  0.0857  0.2697
   24bbb     C2  617   3.961   0.532   4.036  0.6316 -0.5723  0.1419
   24bbb     C3  618   4.220   0.357   3.988  0.0716 -0.0366  0.2101
   24bbb     C4  619   4.376   0.346   3.951  0.2827 -0.0971 -0.1517
   24bbb     C5  620   3.805   0.556   4.055 -1.0491  0.0566  0.8918
   24bbb     C6  621   3.729   0.572   3.924  0.0271  0.1478 -0.0258
   24bbb     C7  622   4.040   0.568   4.274 -0.2086  0.0316 -0.7775
   24bbb     C8  623   4.114   0.523   4.407  0.3880  0.4256  0.8375
   24bbb     N2  624   4.048   0.402   4.457 -0.3137  0.5525 -0.5328
   24bbb     O1  625   4.456   0.377   4.035  0.3010 -0.2693 -0.3813
   24bbb     O2  626   3.769   0.528   3.817  0.5616 -0.8710  0.1200
   24bbb     H1  627   4.238   0.550   4.095  0.8110 -0.6310 -1.8374
   24bbb     H2  628   4.245   0.406   4.196 -0.6166 -0.6815  0.1894
   24bbb     H3  629   3.976   0.465   3.951 -2.5331 -1.8720  0.4534
   24bbb     H4  630   3.998   0.633   4.015 -1.7577  0.3034 -0.2248
   24bbb     H5  631   4.194   0.255   4.016  0.4939 -0.4630 -0.9257
   24bbb     H6  632   4.157   0.386   3.903  1.5016 -0.4689 -1.0395
   24bbb     H7  633   3.788   0.632   4.132 -2.0784 -0.7015  1.4510
   24bbb     H8  634   3.762   0.472   4.111 -0.5997 -1.1438 -0.5048
   24bbb     H9  635   3.936   0.596   4.291 -0.1038  0.4041 -0.7548
   24bbb    H10  636   4.092   0.660   4.249  1.2163  0.3656  2.8567
   24bbb    H11  637   4.119   0.603   4.482 -0.3685  1.7319 -0.4471
   24bbb    H12  638   4.215   0.503   4.368  0.7930 -0.3214  2.1994
   24bbb    H13  639   3.959   0.363   4.427  0.1610 -0.5739 -0.5305
   24bbb    H25  640   4.004   0.384   4.175  2.4750 -1.8431 -2.1769
   25bbb     N1  641   4.705  -0.247   4.435 -0.2323 -0.5348 -0.3127
   25bbb     C1  642   4.737  -0.382   4.385  0.4459  0.6601  0.0181
   25bbb     C2  643   4.837  -0.176   4.464 -0.4065 -0.4763  0.0299
   25bbb     C3  644   4.630  -0.453   4.303 -0.7052 -0.5800 -0.3695
   25bbb     C4  645   4.550  -0.549   4.395  0.2943  0.0627 -0.1356
   25bbb     C5  646   4.937  -0.240   4.567  0.3621  0.3416 -0.9662
   25bbb     C6  647   5.050  -0.310   4.502  0.3290  0.8454 -0.6879
   25bbb     C7  648   4.610  -0.235   4.549 -0.1507 -0.1190  0.5485
   25bbb     C8  649   4.534  -0.098   4.548 -0.0224  0.1282 -0.2658
   25bbb     N2  650   4.420  -0.107   4.644 -0.6517 -0.0743 -0.2887
   25bbb     O1  651   4.531  -0.531   4.518  0.0561  0.0623  0.0240
   25bbb     O2  652   5.030  -0.413   4.440 -0.1126  0.6191 -0.3632
   25bbb     H1  653   4.821  -0.364   4.318  0.8172  0.5648  0.4523
   25bbb     H2  654   4.785  -0.432   4.469 -0.2297 -0.2186 -0.1144
   25bbb     H3  655   4.820  -0.079   4.510  0.7184  0.0384 -0.5791
   25bbb     H4  656   4.886  -0.170   4.367 -1.2245 -0.9797 -0.4283
   25bbb     H5  657   4.567  -0.387   4.241 -0.8533 -0.2130  0.1702
   25bbb     H6  658   4.676  -0.517   4.226  2.2110  0.8627  0.0223
   25bbb     H7  659   4.887  -0.319   4.625 -0.6093  0.7108 -1.2974
   25bbb     H8  660   4.983  -0.161   4.628  1.7838  0.6897 -2.4335
   25bbb     H9  661   4.665  -0.251   4.643  0.3035  0.4631  0.3822
   25bbb    H10  662   4.539  -0.316   4.531  1.6530 -1.5473 -0.5939
   25bbb    H11  663   4.486  -0.092   4.450 -0.6834 -1.5834 -0.0824
   25bbb    H12  664   4.593  -0.008   4.567 -1.8203  1.2513  0.1590
   25bbb    H13  665   4.405  -0.182   4.711 -0.4524 -0.9802 -1.2415
   25bbb    H25  666   4.665  -0.185   4.363 -0.0732  1.4488  1.2146
   26bbb     N1  667   3.032   1.370   7.104  0.0636  0.4350 -0.3412
   26bbb     C1  668   3.049   1.514   7.056  0.2699  0.6630 -0.0146
   26bbb     C2  669   3.169   1.300   7.127 -0.2239 -0.7961  0.1146
   26bbb     C3  670   3.106   1.546   6.915 -0.0539  1.0893  0.0201
   26bbb     C4  671   3.119   1.694   6.883 -0.6384  0.7448 -0.2097
   26bbb     C5  672   3.161   1.166   7.193 -1.3076  0.1916 -0.4450
   26bbb     C6  673   3.300   1.097   7.219 -0.2262 -0.0296 -0.5214
   26bbb     C7  674   2.938   1.289   7.014 -0.1371 -0.2646  0.0144
   26bbb     C8  675   2.823   1.234   7.093 -0.5652  0.0199  0.5235
   26bbb     N2  676   2.711   1.197   7.006  0.3705 -0.5314  0.1542
   26bbb     O1  677   3.032   1.775   6.911  0.5207 -0.2382  0.3455
   26bbb     O2  678   3.399   1.125   7.155  0.3267  0.2250  0.6607
   26bbb     H1  679   2.954   1.566   7.049  0.7786  1.5242 -0.9197
   26bbb     H2  680   3.108   1.571   7.127 -0.6291 -0.0576  1.3433
   26bbb     H3  681   3.225   1.363   7.196  1.1546 -1.3370 -0.4740
   26bbb     H4  682   3.230   1.297   7.036 -0.4200  2.7578 -0.2744
   26bbb     H5  683   3.205   1.499   6.921 -1.4584 -2.2151 -0.1562
   26bbb     H6  684   3.049   1.508   6.830 -0.8650  0.6649  0.7330
   26bbb     H7  685   3.105   1.094   7.132 -1.3300 -0.5823  0.4539
   26bbb     H8  686   3.093   1.180   7.278  0.5442 -0.0963  1.1624
   26bbb     H9  687   2.994   1.227   6.944  0.5007  1.1067 -0.7470
   26bbb    H10  688   2.889   1.365   6.952 -0.3159 -0.7778 -0.4738
   26bbb    H11  689   2.797   1.304   7.174 -1.7554 -2.8386  2.8120
   26bbb    H12  690   2.850   1.146   7.153 -2.0973  0.6256  2.2053
   26bbb    H13  691   2.645   1.270   6.981 -0.1948 -0.8903  0.5739
   26bbb    H25  692   2.982   1.370   7.195 -3.3087 -2.1706 -1.9295
   27bbb     N1  693   1.803   0.215   6.760  0.2318 -0.2400 -0.3016
   27bbb     C1  694   1.657   0.237   6.757 -0.2622 -0.2243 -0.4780
   27bbb     C2  695   1.844   0.156   6.896 -0.5086 -0.1436 -0.1464
   27bbb     C3  696   1.598   0.243   6.611 -0.0045 -0.1573 -1.0725
   27bbb     C4  697   1.445   0.257   6.594  0.0113 -0.7459 -0.1232
   27bbb     C5  698   1.818   0.010   6.917 -0.2498 -0.3505  0.7520
   27bbb     C6  699   1.883  -0.051   7.039 -0.5801  0.7047  0.3268
   27bbb     C7  700   1.865   0.353   6.743 -0.2067 -0.1292 -0.0309
   27bbb     C8  701   2.016   0.357   6.746 -0.1051 -0.3893  0.1665
   27bbb     N2  702   2.063   0.495   6.727 -0.4654 -0.1234 -0.6389
   27bbb     O1  703   1.370   0.293   6.684  0.2368  0.1876 -0.5822
   27bbb     O2  704   1.835  -0.041   7.148  0.5263 -0.1957  0.3196
   27bbb     H1  705   1.610   0.157   6.814  2.5102 -0.6365  1.4409
   27bbb     H2  706   1.628   0.332   6.802 -0.8345 -1.1836  1.3031
   27bbb     H3  707   1.794   0.205   6.980  0.1214 -1.0737  0.7892
   27bbb     H4  708   1.950   0.180   6.903 -0.8198  1.0281  0.8767
   27bbb     H5  709   1.649   0.317   6.547 -1.7632  0.1167 -2.2058
   27bbb     H6  710   1.640   0.150   6.572  3.1858  1.1763 -1.1286
   27bbb     H7  711   1.845  -0.045   6.825 -3.2470  0.1680 -0.5722
   27bbb     H8  712   1.710   0.002   6.935 -0.2356  0.2114  1.1046
   27bbb     H9  713   1.835   0.414   6.828  0.8620  1.3228 -0.6500
   27bbb    H10  714   1.835   0.403   6.651  1.3429  0.1106 -0.4290
   27bbb    H11  715   2.054   0.297   6.662  1.6449 -0.6728  1.1231
   27bbb    H12  716   2.058   0.319   6.839  0.4218 -1.8508 -0.6355
   27bbb    H13  717   1.998   0.569   6.709 -0.7118  0.6515  2.7602
   27bbb    H25  718   1.828   0.155   6.680  0.1305  0.5270 -0.9173
   28bbb     N1  719   1.570   1.330   5.142 -0.1840 -0.1792 -0.2775
   28bbb     C1  720   1.523   1.215   5.051 -0.2772 -0.1397 -0.2429
   28bbb     C2  721   1.468   1.443   5.141  0.6650  0.6709  0.3816
   28bbb     C3  722   1.607   1.086   5.045  0.1428 -0.3193 -0.6679
   28bbb     C4  723   1.582   0.992   4.929  0.1922 -0.2274 -0.3345
   28bbb     C5  724   1.448   1.527   5.007  0.5243 -0.1543 -0.2410
   28bbb     C6  725   1.325   1.621   5.019 -0.8487  0.6853 -0.2720
   28bbb     C7  726   1.709   1.390   5.102 -0.3985  0.4868  0.5283
   28bbb     C8  727   1.769   1.507   5.182  0.3231  0.2155  0.5032
   28bbb     N2  728   1.790   1.478   5.319  0.2956  0.0057  0.2372
   28bbb     O1  729   1.572   1.028   4.816 -0.8599 -0.0134 -0.0039
   28bbb     O2  730   1.232   1.591   5.087 -0.2912 -0.3731 -0.1247
   28bbb     H1  731   1.424   1.195   5.093 -0.2394 -0.5787 -0.3645
   28bbb     H2  732   1.517   1.264   4.954 -3.0905 -0.7605 -0.4482
   28bbb     H3  733   1.486   1.508   5.226  1.3301  2.6056 -1.1536
   28bbb     H4  734   1.375   1.393   5.168  0.9190 -0.0404 -0.0364
   28bbb     H5  735   1.712   1.119   5.045 -1.1317  4.6208  0.9987
   28bbb     H6  736   1.593   1.032   5.139  2.3148  0.4201  0.1551
   28bbb     H7  737   1.437   1.471   4.913  0.2687 -0.7485  0.1348
   28bbb     H8  738   1.534   1.591   4.981 -0.7717  1.2984 -1.1048
   28bbb     H9  739   1.717   1.419   4.998  3.9661  1.6165  1.0033
   28bbb    H10  740   1.775   1.303   5.110  0.7225  0.9405 -2.5528
   28bbb    H11  741   1.698   1.589   5.165 -0.1001 -0.4211 -0.9856
   28bbb    H12  742   1.860   1.537   5.129 -1.2818  0.7017 -2.1665
   28bbb    H13  743   1.786   1.384   5.356 -0.6022  0.0774  0.3606
   28bbb    H25  744   1.576   1.299   5.240 -1.3112 -0.8330 -0.4096
   29bbb     N1  745   1.676   1.752   6.481 -0.2229  0.3729 -0.5873
   29bbb     C1  746   1.639   1.904   6.471  0.1598  0.2999  0.3759
   29bbb     C2  747   1.762   1.717   6.608 -0.1438 -0.9673  0.2734
   29bbb     C3  748   1.759   2.007   6.466  0.2781 -0.1176  0.1921
   29bbb     C4  749   1.720   2.149   6.489 -0.2007  0.3893  0.8180
   29bbb     C5  750   1.682   1.728   6.742  0.9932 -0.0072  0.0172
   29bbb     C6  751   1.696   1.865   6.806  0.6892 -0.6142 -0.5160
   29bbb     C7  752   1.759   1.718   6.363 -0.3884 -0.4628 -0.0496
   29bbb     C8  753   1.690   1.725   6.229  0.3906 -0.3132  0.3165
   29bbb     N2  754   1.788   1.717   6.114 -0.0815  0.4487 -0.6274
   29bbb     O1  755   1.689   2.193   6.595  0.3548  0.8076  0.0431
   29bbb     O2  756   1.789   1.941   6.791  0.5097  0.0188  0.5162
   29bbb     H1  757   1.569   1.918   6.388 -0.0817  0.1247  0.5528
   29bbb     H2  758   1.576   1.918   6.559  2.2910  0.3123  1.9658
   29bbb     H3  759   1.843   1.790   6.612 -1.5457  0.7704 -1.1445
   29bbb     H4  760   1.806   1.618   6.599  2.5958  0.0583  1.1499
   29bbb     H5  761   1.840   1.983   6.537  0.1229  0.3042  0.5206
   29bbb     H6  762   1.818   1.992   6.375  1.7005 -0.2308  1.1039
   29bbb     H7  763   1.709   1.653   6.817 -1.5787  0.5111  1.5846
   29bbb     H8  764   1.573   1.719   6.726  0.4767  0.0276  2.9512
   29bbb     H9  765   1.804   1.620   6.378  2.3882  0.5875 -0.9898
   29bbb    H10  766   1.836   1.795   6.364 -1.8645  1.1260 -1.0050
   29bbb    H11  767   1.639   1.822   6.223  0.0576 -0.5058  0.0117
   29bbb    H12  768   1.616   1.644   6.228 -0.1076  0.0597 -2.5377
   29bbb    H13  769   1.836   1.804   6.095 -1.3009  1.2700 -0.0764
   29bbb    H25  770   1.592   1.694   6.491  0.7579 -1.1525 -0.8132
   30bbb     N1  771   2.053   1.547   2.612  0.1747  0.7644 -0.0958
   30bbb     C1  772   1.959   1.430   2.627  0.1199  0.1041 -0.8063
   30bbb     C2  773   2.061   1.603   2.471  1.0653  0.0014  0.7557
   30bbb     C3  774   1.825   1.461   2.689  1.0569 -0.1295  1.0713
   30bbb     C4  775   1.841   1.495   2.838  0.0757  0.4961  0.5623
   30bbb     C5  776   1.955   1.712   2.436  0.4589  0.3348 -0.0765
   30bbb     C6  777   1.942   1.751   2.295  0.5805  0.2649  0.9919
   30bbb     C7  778   2.193   1.500   2.634  0.0458 -0.2352  0.1092
   30bbb     C8  779   2.232   1.450   2.774  0.1638 -0.5753  0.0454
   30bbb     N2  780   2.233   1.562   2.869  0.0437  0.2132 -0.0455
   30bbb     O1  781   1.954   1.499   2.887  0.5733  0.0000  0.3009
   30bbb     O2  782   2.035   1.769   2.220 -0.3243 -0.0425 -0.5194
   30bbb     H1  783   1.950   1.387   2.527  2.2379  0.8803 -1.3791
   30bbb     H2  784   1.995   1.355   2.698  2.4527 -0.8635 -2.8515
   30bbb     H3  785   2.028   1.522   2.406 -1.6866  0.7324  1.1068
   30bbb     H4  786   2.157   1.644   2.439  0.3855 -0.0045 -1.4743
   30bbb     H5  787   1.783   1.551   2.641 -3.0822 -1.6703  1.3695
   30bbb     H6  788   1.745   1.389   2.666 -0.8708  2.1217  0.2212
   30bbb     H7  789   1.983   1.803   2.491  0.7955 -0.6522  1.4300
   30bbb     H8  790   1.858   1.682   2.478  0.4226 -0.8433 -0.9470
   30bbb     H9  791   2.262   1.581   2.609 -0.2917  0.0323  0.0406
   30bbb    H10  792   2.201   1.419   2.562 -1.9286 -0.2017 -0.1907
   30bbb    H11  793   2.336   1.418   2.760  0.5120  0.5863 -0.1275
   30bbb    H12  794   2.161   1.374   2.808  2.1219 -1.3620  2.7881
   30bbb    H13  795   2.164   1.634   2.851  2.3116  1.8114 -3.3986
   30bbb    H25  796   2.034   1.619   2.683  1.5923 -0.2769  1.4142
   31bbb     N1  797   1.870   2.301   3.571  0.2728  0.3243  0.3657
   31bbb     C1  798   1.728   2.239   3.573  0.6265 -0.5171 -0.1958
   31bbb     C2  799   1.862   2.443   3.621  0.6254  0.3156  0.0166
   31bbb     C3  800   1.664   2.235   3.716 -0.8873  0.4859 -0.3202
   31bbb     C4  801   1.551   2.138   3.738  0.7251 -0.0978 -1.0845
   31bbb     C5  802   1.999   2.513   3.642 -0.3590  0.2262 -0.4163
   31bbb     C6  803   2.089   2.454   3.753  0.0773  0.3429  0.0217
   31bbb     C7  804   1.910   2.294   3.424 -0.2720 -1.2360 -0.0199
   31bbb     C8  805   1.946   2.156   3.382 -0.1213  0.2828  0.4407
   31bbb     N2  806   2.077   2.145   3.323  0.1092  0.1110  0.2652
   31bbb     O1  807   1.565   2.046   3.819 -0.0218 -0.1044  0.2493
   31bbb     O2  808   2.081   2.339   3.782 -0.2393  0.6382  0.0847
   31bbb     H1  809   1.663   2.286   3.499 -0.2317  1.2396  1.5669
   31bbb     H2  810   1.746   2.142   3.527  0.9673 -0.9031  0.7378
   31bbb     H3  811   1.804   2.444   3.713 -0.9595 -0.5322 -0.9374
   31bbb     H4  812   1.797   2.501   3.555  0.3447  0.0854  0.0868
   31bbb     H5  813   1.745   2.205   3.784 -2.0001 -2.5877 -0.1867
   31bbb     H6  814   1.625   2.333   3.746  2.1929  1.2959  1.4363
   31bbb     H7  815   1.974   2.617   3.667  0.0850  0.7717 -2.1053
   31bbb     H8  816   2.059   2.522   3.551 -0.4175  0.6922 -0.4099
   31bbb     H9  817   2.004   2.351   3.422 -0.6964 -0.5081  0.2753
   31bbb    H10  818   1.829   2.342   3.369 -1.0799 -0.8259  1.4607
   31bbb    H11  819   1.870   2.124   3.310  0.5767  1.9410 -1.0966
   31bbb    H12  820   1.947   2.089   3.468  0.9287  1.8365  1.6996
   31bbb    H13  821   2.134   2.227   3.306  3.5336 -2.0176  0.4764
   31bbb    H25  822   1.936   2.245   3.627  1.0444 -0.1554 -0.9705
   32bbb     N1  823   3.333   1.187   2.499 -0.2133  0.1996 -0.5846
   32bbb     C1  824   3.189   1.149   2.538  0.1464  0.0040  0.3904
   32bbb     C2  825   3.422   1.073   2.547  0.8773 -0.4917  1.1594
   32bbb     C3  826   3.082   1.252   2.501 -0.4033 -0.1635 -0.1615
   32bbb     C4  827   2.946   1.200   2.530  0.1046  0.2303  0.3794
   32bbb     C5  828   3.564   1.059   2.484  0.1226  0.4415  0.0410
   32bbb     C6  829   3.662   1.154   2.551  0.5847 -0.1849 -0.7831
   32bbb     C7  830   3.375   1.311   2.577  0.7207 -0.0446 -0.4408
   32bbb     C8  831   3.347   1.313   2.729 -0.0388  0.5442 -0.1234
   32bbb     N2  832   3.438   1.400   2.803 -0.1286  0.2985  0.9017
   32bbb     O1  833   2.930   1.085   2.567  0.2227  0.1677 -0.2292
   32bbb     O2  834   3.664   1.176   2.670  0.2691 -0.3366  0.1647
   32bbb     H1  835   3.163   1.063   2.476 -2.7711  1.1843 -0.1617
   32bbb     H2  836   3.179   1.116   2.642 -0.5626 -1.3349 -0.0844
   32bbb     H3  837   3.362   0.989   2.512  1.5158 -0.6927  0.5146
   32bbb     H4  838   3.429   1.074   2.656 -0.2623 -0.6203  1.2489
   32bbb     H5  839   3.092   1.341   2.565 -0.4890 -0.2915  0.0295
   32bbb     H6  840   3.081   1.290   2.398  1.5834  0.3310 -0.0309
   32bbb     H7  841   3.566   1.068   2.375 -0.8905 -2.2694 -0.2754
   32bbb     H8  842   3.611   0.962   2.500  3.8788  1.9807 -0.5674
   32bbb     H9  843   3.336   1.399   2.526 -0.8214 -0.9338 -0.8605
   32bbb    H10  844   3.484   1.321   2.567  0.7817  1.7794  1.3891
   32bbb    H11  845   3.359   1.213   2.771  1.9770  1.4560  1.7139
   32bbb    H12  846   3.244   1.344   2.750  0.5756  1.1348  2.4922
   32bbb    H13  847   3.484   1.480   2.762  0.7564 -0.5462  0.2248
   32bbb    H25  848   3.326   1.199   2.397 -0.4794 -0.1516 -0.6099
   33bbb     N1  849   4.187   2.207   3.380  0.6579  0.7905 -0.4299
   33bbb     C1  850   4.156   2.350   3.396 -0.4908 -0.5276 -0.7495
   33bbb     C2  851   4.246   2.188   3.238 -0.2061 -0.0789  0.0297
   33bbb     C3  852   4.120   2.372   3.548 -0.3637  0.3417 -0.1575
   33bbb     C4  853   4.243   2.395   3.635 -0.2611 -0.1137  0.1068
   33bbb     C5  854   4.388   2.229   3.220  0.0190  0.3716 -0.2850
   33bbb     C6  855   4.444   2.205   3.083 -0.0556 -0.2997 -0.3812
   33bbb     C7  856   4.046   2.141   3.380 -0.1229  0.7717 -0.1635
   33bbb     C8  857   4.035   1.987   3.357  0.1585  0.3749  0.0348
   33bbb     N2  858   3.895   1.938   3.380  0.2276 -0.2252  0.8233
   33bbb     O1  859   4.352   2.344   3.612 -0.5842 -0.8389 -0.1641
   33bbb     O2  860   4.374   2.186   2.988  0.0526  0.2566  0.0004
   33bbb     H1  861   4.245   2.411   3.378 -1.4088  1.3255  0.6034
   33bbb     H2  862   4.068   2.371   3.335 -1.5023  0.5337  0.9727
   33bbb     H3  863   4.194   2.247   3.161 -0.9658  1.0007  1.3124
   33bbb     H4  864   4.223   2.084   3.217  1.4417 -0.5944  0.6519
   33bbb     H5  865   4.069   2.469   3.548  0.1741  0.6779  2.0968
   33bbb     H6  866   4.064   2.292   3.598  0.1148  0.0744 -0.0487
   33bbb     H7  867   4.455   2.175   3.287 -0.7740  0.5208  0.6517
   33bbb     H8  868   4.396   2.338   3.235 -1.0799  0.4206  0.0126
   33bbb     H9  869   3.979   2.195   3.313 -2.0988 -1.5741 -0.2018
   33bbb    H10  870   3.990   2.151   3.473 -1.6607 -0.0492 -0.9741
   33bbb    H11  871   4.094   1.932   3.432  0.4117  1.0379  0.3352
   33bbb    H12  872   4.072   1.959   3.258  1.2433 -0.8828  0.7608
   33bbb    H13  873   3.825   2.009   3.399 -0.4062 -0.9987  1.4619
   33bbb    H25  874   4.249   2.178   3.457  1.0011 -0.1669 -1.0489
   34bbb     N1  875   4.099   2.790   5.527  0.0721 -0.3523 -0.3941
   34bbb     C1  876   3.984   2.814   5.625  0.1227 -0.0469 -0.7371
   34bbb     C2  877   4.185   2.913   5.534  0.4198 -0.6061 -0.4569
   34bbb     C3  878   3.897   2.938   5.641 -0.2058 -0.0304 -0.1030
   34bbb     C4  879   3.839   3.002   5.512  0.3362  0.1808  0.7847
   34bbb     C5  880   4.264   2.933   5.664 -0.3700  0.3602  0.1056
   34bbb     C6  881   4.353   2.817   5.701  0.3073  0.3039 -0.4133
   34bbb     C7  882   4.040   2.749   5.387  0.2737  0.1903  0.4087
   34bbb     C8  883   3.971   2.601   5.377  0.0419 -0.1855  0.0831
   34bbb     N2  884   3.790   2.498   5.263 -0.3528 -0.1775  0.3672
   34bbb     O1  885   3.912   3.045   5.426 -0.3608 -0.2564  0.3089
   34bbb     O2  886   4.392   2.734   5.615 -0.2566 -0.2103  0.5767
   34bbb     H1  887   3.907   2.736   5.622 -1.5248  1.5077 -0.6068
   34bbb     H2  888   4.030   2.800   5.723 -0.7903  0.2087 -0.2577
   34bbb     H3  889   4.118   2.997   5.513  0.4824 -0.7276 -1.1785
   34bbb     H4  890   4.253   2.902   5.449 -1.0510  1.7924 -2.0704
   34bbb     H5  891   3.817   2.910   5.712  0.1272 -3.2519 -0.8774
   34bbb     H6  892   3.957   3.014   5.692  1.2950 -1.5293  0.4453
   34bbb     H7  893   4.201   2.964   5.749 -0.8351  2.9768 -1.1018
   34bbb     H8  894   4.334   3.016   5.647 -1.5981  2.1208  2.8475
   34bbb     H9  895   4.124   2.756   5.318 -0.0343  3.4598  0.2242
   34bbb    H10  896   3.975   2.832   5.359  1.0532  0.1017 -1.8988
   34bbb    H11  897   3.985   2.584   5.484  0.7346  2.3935  0.4633
   34bbb    H12  898   4.068   2.550   5.368  0.3856  0.6305 -1.1573
   34bbb    H13  899   3.816   2.401   5.250  1.4664  0.1626  1.1735
   34bbb    H25  900   4.149   2.710   5.569  2.4313  1.1851 -0.0530
   35bbb     N1  901   3.419   3.442   5.803 -0.4380  0.3564 -0.2623
   35bbb     C1  902   3.532   3.538   5.842  0.5215  0.2651 -0.1108
   35bbb     C2  903   3.289   3.515   5.830  0.0949 -0.3573 -0.4990
   35bbb     C3  904   3.538   3.684   5.797  0.0626 -0.7258  0.5195
   35bbb     C4  905   3.562   3.701   5.646 -0.4842 -0.0534 -0.4040
   35bbb     C5  906   3.218   3.567   5.709  0.8121  0.2055 -0.8582
   35bbb     C6  907   3.126   3.469   5.633  0.0030  0.5122 -0.2635
   35bbb     C7  908   3.429   3.306   5.877 -0.3858  0.0007  0.8578
   35bbb     C8  909   3.475   3.053   5.828  0.0466  0.2789  0.1561
   35bbb     N2  910   3.401   2.941   5.749 -0.0991  0.7271 -0.3124
   35bbb     O1  911   3.510   3.619   5.575 -0.6985  1.0227  0.8544
   35bbb     O2  912   3.146   3.435   5.518 -0.1128 -0.3879  0.3532
   35bbb     H1  913   3.523   3.532   5.950 -1.4577  1.2619 -0.1861
   35bbb     H2  914   3.627   3.492   5.814  1.0476  0.8474  0.6873
   35bbb     H3  915   3.311   3.594   5.901 -1.5218  0.2252 -0.6209
   35bbb     H4  916   3.218   3.450   5.880  0.3621  1.4926  2.5209
   35bbb     H5  917   3.451   3.748   5.814  1.7117  1.6271  0.6231
   35bbb     H6  918   3.626   3.736   5.838 -0.8612  0.1846  1.4116
   35bbb     H7  919   3.287   3.616   5.639 -1.0718  1.0036 -2.2322
   35bbb     H8  920   3.150   3.645   5.744  2.1923  0.6504  1.0132
   35bbb     H9  921   3.333   3.316   5.928 -1.5293 -0.2038 -1.1501
   35bbb    H10  922   3.486   3.342   5.963  0.0874  1.2536  0.0609
   35bbb    H11  923   3.507   2.987   5.909 -0.9748  0.7023  0.9314
   35bbb    H12  924   3.565   3.025   5.773 -0.5001  0.3199 -0.7790
   35bbb    H13  925   3.303   2.953   5.725 -0.3612  0.9554  0.8011
   35bbb    H25  926   3.420   3.424   5.701 -3.0299  0.0531 -0.3087
   36bbb     N1  927   2.543   3.460   3.907 -0.3485 -0.5243 -0.6203
   36bbb     C1  928   2.446   3.569   3.940  0.5401  0.1801  0.1560
   36bbb     C2  929   2.605   3.487   3.767 -0.0950  0.0887 -0.0138
   36bbb     C3  930   2.315   3.574   3.855 -0.3582 -0.4431  0.0079
   36bbb     C4  931   2.235   3.705   3.891  0.4454 -0.0781 -0.2514
   36bbb     C5  932   2.722   3.592   3.761 -1.1094  0.2499 -0.5000
   36bbb     C6  933   2.850   3.543   3.832 -0.1089  0.7673  0.0358
   36bbb     C7  934   2.467   3.329   3.906 -0.1053 -0.9111 -0.2894
   36bbb     C8  935   2.551   3.206   3.897 -0.1525 -0.0757 -0.3860
   36bbb     N2  936   2.656   3.209   3.989 -0.3547  0.2834  0.3102
   36bbb     O1  937   2.146   3.707   3.977 -0.4419  0.5976  0.1484
   36bbb     O2  938   2.867   3.433   3.876  0.4454 -0.1381 -0.1602
   36bbb     H1  939   2.422   3.574   4.046  1.4174  0.7285  0.3429
   36bbb     H2  940   2.490   3.667   3.919  0.8464 -0.2081 -1.1488
   36bbb     H3  941   2.524   3.527   3.705  0.9065 -0.2433 -1.6078
   36bbb     H4  942   2.648   3.396   3.726  2.3572  0.8876  0.6551
   36bbb     H5  943   2.325   3.574   3.746 -1.0980 -0.4787 -0.0624
   36bbb     H6  944   2.249   3.490   3.881  1.6563 -2.2013 -0.1862
   36bbb     H7  945   2.689   3.684   3.811  1.4945  0.8197  0.2808
   36bbb     H8  946   2.745   3.617   3.657  0.7184 -1.8816 -0.6780
   36bbb     H9  947   2.382   3.328   3.837 -0.5251 -2.8054  0.2070
   36bbb    H10  948   2.422   3.328   4.005 -0.8589  1.6963 -0.5340
   36bbb    H11  949   2.601   3.195   3.800  1.7895  2.1899  0.2547
   36bbb    H12  950   2.484   3.120   3.908 -1.7213  0.7219 -2.8183
   36bbb    H13  951   2.654   3.290   4.050  0.1558  1.3830 -1.0777
   36bbb    H25  952   2.611   3.468   3.983  1.2589  0.7333 -2.1112
   37bbb     N1  953   3.859   3.331   4.351 -0.2171  0.2361 -0.2188
   37bbb     C1  954   3.954   3.316   4.468 -0.6154 -0.2308 -0.1226
   37bbb     C2  955   3.874   3.472   4.293 -0.3095  0.0370 -0.1698
   37bbb     C3  956   3.923   3.402   4.605 -0.0397  0.3381  0.0160
   37bbb     C4  957   3.852   3.324   4.718  0.0233 -0.1706  0.4410
   37bbb     C5  958   4.006   3.505   4.240  0.2406 -0.0925 -0.7112
   37bbb     C6  959   4.047   3.422   4.118  0.1372 -0.2909  0.3838
   37bbb     C7  960   3.717   3.315   4.394 -0.6371 -0.1529  0.0802
   37bbb     C8  961   3.614   3.295   4.275 -1.1333  0.4253 -0.2273
   37bbb     N2  962   3.494   3.213   4.307 -0.8361  0.0185  0.4740
   37bbb     O1  963   3.768   3.243   4.687 -0.3003 -0.2100  0.1570
   37bbb     O2  964   4.004   3.315   4.093  0.6829  0.1333 -0.3053
   37bbb     H1  965   3.953   3.208   4.484 -3.2833 -0.1980  0.2628
   37bbb     H2  966   4.054   3.355   4.444 -0.7652 -0.2435 -0.7910
   37bbb     H3  967   3.866   3.543   4.376  1.3575  1.1862 -0.9408
   37bbb     H4  968   3.797   3.490   4.218 -0.5200 -0.2259 -0.0183
   37bbb     H5  969   4.021   3.433   4.644  0.8240 -0.9971 -0.9753
   37bbb     H6  970   3.864   3.491   4.582 -0.9182  0.1096  1.2769
   37bbb     H7  971   4.085   3.493   4.315  0.4024  1.8308 -0.5170
   37bbb     H8  972   4.014   3.611   4.213  3.6170  0.3680  1.4637
   37bbb     H9  973   3.691   3.398   4.461 -0.0056 -2.3277  3.2711
   37bbb    H10  974   3.710   3.224   4.453  0.3048  0.2815  0.8800
   37bbb    H11  975   3.658   3.249   4.185  0.5497 -0.0248  0.7862
   37bbb    H12  976   3.585   3.398   4.251  0.9362  1.0153 -0.4426
   37bbb    H13  977   3.476   3.179   4.401 -2.5562 -1.0442 -0.2042
   37bbb    H25  978   3.880   3.266   4.274 -2.8914 -0.9904 -0.0209
   38bbb     N1  979   3.685  -1.370   5.441 -0.2051  0.6789 -0.2545
   38bbb     C1  980   3.813  -1.332   5.516 -0.2636  0.0758 -0.4158
   38bbb     C2  981   3.678  -1.515   5.429  0.3479 -0.3028  0.2886
   38bbb     C3  982   3.820  -1.361   5.668 -0.0646 -0.3730  0.4347
   38bbb     C4  983   3.957  -1.316   5.725  0.1544  0.4864 -0.0020
   38bbb     C5  984   3.799  -1.599   5.377  0.5405 -0.1083  0.1465
   38bbb     C6  985   3.773  -1.745   5.365 -0.2067 -0.3819 -0.0172
   38bbb     C7  986   3.672  -1.319   5.297 -0.2155 -0.2164  0.4751
   38bbb     C8  987   3.650  -1.165   5.287  0.0091  0.0827 -0.3688
   38bbb     N2  988   3.518  -1.126   5.352 -0.2482 -0.3775  0.3523
   38bbb     O1  989   4.028  -1.236   5.669  0.0281 -0.5650  0.1147
   38bbb     O2  990   3.697  -1.785   5.276 -0.6417  0.2285  0.1567
   38bbb     H1  991   3.902  -1.377   5.472  0.2985 -1.1592  1.8249
   38bbb     H2  992   3.817  -1.225   5.495  1.5402  0.3875  1.2576
   38bbb     H3  993   3.593  -1.540   5.366 -0.7576  1.2716  1.0980
   38bbb     H4  994   3.659  -1.552   5.530 -0.8410 -1.7176 -0.4187
   38bbb     H5  995   3.736  -1.311   5.719 -1.4420 -0.3490 -1.7545
   38bbb     H6  996   3.806  -1.469   5.677 -0.9956 -0.2126  1.1033
   38bbb     H7  997   3.876  -1.583   5.453  0.9539 -1.2443 -0.0134
   38bbb     H8  998   3.833  -1.562   5.280 -0.2359  0.1067 -0.0517
   38bbb     H9  999   3.595  -1.377   5.246  0.3762  0.2018 -0.9539
   38bbb    H10 1000   3.768  -1.343   5.251 -0.1081  1.1072 -0.0507
   38bbb    H11 1001   3.648  -1.137   5.181  0.9161  1.4302 -0.0642
   38bbb    H12 1002   3.733  -1.106   5.329  0.6408 -1.4447  0.5934
   38bbb    H13 1003   3.513  -1.110   5.452 -0.8084  1.1402  0.1112
   38bbb    H25 1004   3.605  -1.340   5.497  1.0375  0.6830  1.5918
   39bbb     N1 1005   2.296  -1.264   5.583 -0.0713 -0.6000 -0.4525
   39bbb     C1 1006   2.159  -1.229   5.530 -0.7773  0.1764 -0.8116
   39bbb     C2 1007   2.273  -1.313   5.728 -0.1149  0.3722 -0.2362
   39bbb     C3 1008   2.082  -1.121   5.605 -0.3162 -0.1115 -0.6421
   39bbb     C4 1009   1.943  -1.099   5.541  0.4087  0.5615 -0.4541
   39bbb     C5 1010   2.183  -1.440   5.748 -0.2827 -0.1605  0.6768
   39bbb     C6 1011   2.225  -1.509   5.882  0.1263  0.3854  0.2976
   39bbb     C7 1012   2.400  -1.148   5.601 -0.0207 -0.1560 -0.1804
   39bbb     C8 1013   2.538  -1.192   5.660  0.8171  0.2312 -0.2719
   39bbb     N2 1014   2.645  -1.100   5.617 -0.1232 -0.0696  0.1209
   39bbb     O1 1015   1.886  -1.198   5.502  0.3053  0.1948  0.0853
   39bbb     O2 1016   2.340  -1.532   5.909  0.1514  0.3942  0.0409
   39bbb     H1 1017   2.170  -1.196   5.426 -1.1421 -1.7738 -1.5208
   39bbb     H2 1018   2.087  -1.310   5.524 -0.5662  0.0215 -1.4048
   39bbb     H3 1019   2.236  -1.231   5.790  4.0801  0.7101  2.1742
   39bbb     H4 1020   2.370  -1.336   5.771  0.0640  1.8195  0.1819
   39bbb     H5 1021   2.069  -1.145   5.711 -0.0602  0.9215 -0.3712
   39bbb     H6 1022   2.125  -1.021   5.607 -2.9031  1.0767  0.5943
   39bbb     H7 1023   2.194  -1.512   5.666 -1.1530 -0.4436  0.8050
   39bbb     H8 1024   2.076  -1.422   5.760 -0.5422 -1.9503  1.3412
   39bbb     H9 1025   2.347  -1.077   5.664 -1.4574 -0.7850 -0.6347
   39bbb    H10 1026   2.410  -1.110   5.499 -1.0078 -1.4844 -0.8098
   39bbb    H11 1027   2.566  -1.296   5.637  0.1601 -0.5091  1.9955
   39bbb    H12 1028   2.534  -1.181   5.769  1.9188 -0.1608 -0.1747
   39bbb    H13 1029   2.651  -1.015   5.673  0.0111 -0.4796  0.7412
   39bbb    H25 1030   2.328  -1.341   5.522 -3.8235 -3.2501  0.5079
   40bbb     N1 1031   2.170  -1.688   4.533 -0.3737 -0.4306  0.1264
   40bbb     C1 1032   2.249  -1.768   4.430 -0.3810 -0.3288  0.7554
   40bbb     C2 1033   2.100  -1.785   4.627  0.7254  0.2322 -0.8816
   40bbb     C3 1034   2.397  -1.748   4.463 -0.2211 -0.2065 -0.0979
   40bbb     C4 1035   2.490  -1.849   4.395 -0.3810 -0.4524  0.4128
   40bbb     C5 1036   2.185  -1.881   4.715  0.2273 -0.4876  0.2292
   40bbb     C6 1037   2.222  -2.013   4.655  0.2594 -0.0269 -0.0712
   40bbb     C7 1038   2.060  -1.605   4.470 -0.5549 -0.6741 -0.0582
   40bbb     C8 1039   2.082  -1.452   4.504  0.5661  0.7308  0.0485
   40bbb     N2 1040   2.202  -1.410   4.428  0.3584  0.8259  0.3007
   40bbb     O1 1041   2.529  -1.954   4.438 -0.2735 -0.3811  0.0362
   40bbb     O2 1042   2.155  -2.057   4.566 -0.0399  0.1261  0.1095
   40bbb     H1 1043   2.216  -1.872   4.430 -2.0916  0.1701 -0.5482
   40bbb     H2 1044   2.227  -1.732   4.329 -1.6848 -0.2235  1.0521
   40bbb     H3 1045   2.035  -1.838   4.558 -1.1059  2.1430 -0.7230
   40bbb     H4 1046   2.042  -1.722   4.695  2.0474  0.7912 -0.2364
   40bbb     H5 1047   2.414  -1.642   4.441 -1.9368  1.0318  3.6139
   40bbb     H6 1048   2.415  -1.755   4.571  0.3145 -0.2534 -0.1904
   40bbb     H7 1049   2.132  -1.910   4.806 -0.3727 -2.6295 -0.7539
   40bbb     H8 1050   2.275  -1.829   4.750 -0.2561  0.8359 -0.4428
   40bbb     H9 1051   1.968  -1.649   4.508 -0.8123 -1.0757 -1.1269
   40bbb    H10 1052   2.066  -1.620   4.362  2.4497  0.5628 -0.1626
   40bbb    H11 1053   2.097  -1.445   4.613 -1.0791  2.5524  0.2234
   40bbb    H12 1054   2.004  -1.383   4.470  1.5523  1.1977 -1.3440
   40bbb    H13 1055   2.216  -1.446   4.334  0.1692  0.5667  0.3711
   40bbb    H25 1056   2.226  -1.621   4.588  0.9504 -1.2781 -0.1668
   41bbb     N1 1057   3.319  -1.587   4.060  0.9821  0.4505  0.3412
   41bbb     C1 1058   3.423  -1.549   3.949 -0.1741 -0.2054 -0.5613
   41bbb     C2 1059   3.260  -1.731   4.035 -0.2020 -0.6809  0.2447
   41bbb     C3 1060   3.520  -1.438   3.987  0.0269  0.1352 -0.4117
   41bbb     C4 1061   3.544  -1.440   4.140 -0.2715 -0.4847  0.0740
   41bbb     C5 1062   3.347  -1.852   4.047  0.0311 -0.3330  0.0375
   41bbb     C6 1063   3.271  -1.981   4.060  0.1863 -0.3295 -0.5095
   41bbb     C7 1064   3.211  -1.480   4.064 -0.4673 -0.4976 -0.4065
   41bbb     C8 1065   3.118  -1.497   4.184 -0.1023  0.4811 -0.2888
   41bbb     N2 1066   3.003  -1.406   4.162  0.3857 -0.1634 -0.3427
   41bbb     O1 1067   3.458  -1.405   4.221 -0.0808  0.0620  0.5924
   41bbb     O2 1068   3.152  -1.995   4.076 -0.2826  0.3875  0.2930
   41bbb     H1 1069   3.480  -1.641   3.938  1.3301  0.5416  0.5569
   41bbb     H2 1070   3.367  -1.527   3.858 -0.6610  0.2684 -0.1530
   41bbb     H3 1071   3.219  -1.739   3.934 -0.7451 -1.0066  0.4830
   41bbb     H4 1072   3.176  -1.735   4.104 -1.8711  0.6730 -1.5610
   41bbb     H5 1073   3.615  -1.461   3.939  1.0565 -0.3878  1.7297
   41bbb     H6 1074   3.488  -1.335   3.966  0.9743  0.8261  1.3062
   41bbb     H7 1075   3.408  -1.834   4.136  0.0914 -1.1786  0.1763
   41bbb     H8 1076   3.414  -1.850   3.960 -0.2799  0.6714 -0.1873
   41bbb     H9 1077   3.152  -1.478   3.973 -0.7684  2.5058 -0.2341
   41bbb    H10 1078   3.265  -1.385   4.069 -1.0863 -0.1960  1.2180
   41bbb    H11 1079   3.169  -1.476   4.278  0.6282 -0.2821 -0.5047
   41bbb    H12 1080   3.078  -1.599   4.191  3.2128 -0.9067  0.1825
   41bbb    H13 1081   3.026  -1.315   4.123 -0.9404 -0.1306 -1.1285
   41bbb    H25 1082   3.365  -1.580   4.151 -0.8698  0.3248  1.3376
   42bbb     N1 1083   0.311   0.278   4.531  0.9044  0.0429 -0.5421
   42bbb     C1 1084   0.178   0.235   4.588 -0.0390  0.0425  0.6169
   42bbb     C2 1085   0.385   0.352   4.640 -0.5536 -0.4520 -0.2638
   42bbb     C3 1086   0.086   0.133   4.518  0.0330  0.7439  0.2573
   42bbb     C4 1087  -0.051   0.106   4.589 -0.0194  0.0231  0.8530
   42bbb     C5 1088   0.322   0.486   4.690  0.5072  1.1999 -0.0939
   42bbb     C6 1089   0.378   0.523   4.826  0.2274 -0.3240  0.2850
   42bbb     C7 1090   0.302   0.363   4.404  0.3452 -0.8029  0.1725
   42bbb     C8 1091   0.433   0.425   4.353 -0.2143  0.4639 -0.6066
   42bbb     N2 1092   0.526   0.320   4.316 -0.0111  0.2066 -0.0047
   42bbb     O1 1093  -0.062   0.131   4.706  1.0181 -0.3670 -0.1990
   42bbb     O2 1094   0.445   0.452   4.894 -0.0058  0.2119 -0.2301
   42bbb     H1 1095   0.207   0.193   4.684 -0.1793 -0.6629  0.3576
   42bbb     H2 1096   0.126   0.322   4.630  1.5152  1.5929 -0.5534
   42bbb     H3 1097   0.487   0.369   4.605 -0.6656 -0.0600 -0.3945
   42bbb     H4 1098   0.405   0.282   4.722  1.4787  1.0367  0.5845
   42bbb     H5 1099   0.070   0.163   4.414 -0.7081 -0.0247  0.1423
   42bbb     H6 1100   0.138   0.037   4.527  0.6976  1.2142  1.7851
   42bbb     H7 1101   0.215   0.475   4.711  0.9421 -0.8390  1.4292
   42bbb     H8 1102   0.318   0.565   4.615  2.1138  0.3483 -1.1488
   42bbb     H9 1103   0.231   0.444   4.424 -0.1353 -1.3382  0.6765
   42bbb    H10 1104   0.265   0.299   4.324  0.8069  0.5851 -1.1966
   42bbb    H11 1105   0.476   0.498   4.424 -0.9477  1.0339 -0.7352
   42bbb    H12 1106   0.412   0.477   4.259 -2.1834 -0.6655 -0.8427
   42bbb    H13 1107   0.505   0.221   4.317  2.6626 -0.4355 -1.0665
   42bbb    H25 1108   0.369   0.197   4.506  1.9638  1.1475 -1.8506
   43bbb     N1 1109   0.371   0.204   3.439 -0.6362  0.6772 -0.0840
   43bbb     C1 1110   0.431   0.109   3.327  0.1341 -0.2754  0.6947
   43bbb     C2 1111   0.317   0.330   3.384  0.1119 -0.0878  0.6291
   43bbb     C3 1112   0.334  -0.005   3.275 -0.0617 -0.7336 -0.3101
   43bbb     C4 1113   0.319  -0.125   3.370  0.0048 -0.1371  0.2108
   43bbb     C5 1114   0.188   0.318   3.300  0.6507 -0.3629  0.1853
   43bbb     C6 1115   0.116   0.452   3.290 -0.1525 -0.5158  0.0841
   43bbb     C7 1116   0.485   0.230   3.533  0.0200 -0.0908 -0.4424
   43bbb     C8 1117   0.532   0.108   3.613  0.1272 -0.1613 -0.4607
   43bbb     N2 1118   0.647   0.147   3.701  0.3178 -0.3262 -0.4589
   43bbb     O1 1119   0.390  -0.132   3.471  0.8424 -0.1777 -0.3117
   43bbb     O2 1120   0.166   0.558   3.323  0.3328 -0.1445  0.3845
   43bbb     H1 1121   0.450   0.171   3.240 -0.1853 -2.2549 -0.8340
   43bbb     H2 1122   0.529   0.079   3.363  0.7537  0.0787 -0.6576
   43bbb     H3 1123   0.406   0.365   3.330  0.4088 -0.0204  1.1586
   43bbb     H4 1124   0.302   0.396   3.469  1.0461  0.7886  0.1430
   43bbb     H5 1125   0.235   0.039   3.259 -0.8607 -2.7877 -1.3774
   43bbb     H6 1126   0.366  -0.039   3.176 -2.3473  0.0091 -1.3873
   43bbb     H7 1127   0.120   0.250   3.352  2.8413 -2.6887  0.1887
   43bbb     H8 1128   0.196   0.279   3.198 -2.8293  1.6459 -1.0121
   43bbb     H9 1129   0.461   0.309   3.605  2.1457 -0.3051  0.5639
   43bbb    H10 1130   0.562   0.264   3.464 -0.4088  0.6317 -0.5795
   43bbb    H11 1131   0.566   0.028   3.547  0.2780  0.5902 -1.3201
   43bbb    H12 1132   0.448   0.076   3.676 -0.8384  1.7315 -0.6958
   43bbb    H13 1133   0.704   0.222   3.664 -0.6043  0.8991  0.5150
   43bbb    H25 1134   0.297   0.162   3.497  0.2514  0.7141  1.1228
   44bbb     N1 1135   1.372   0.709   2.781  0.0199  0.1771  0.6197
   44bbb     C1 1136   1.348   0.697   2.632 -0.2272 -0.5834  0.3223
   44bbb     C2 1137   1.323   0.839   2.835 -0.0714 -0.0455 -0.2525
   44bbb     C3 1138   1.353   0.558   2.574  0.1608  0.0627 -0.5732
   44bbb     C4 1139   1.312   0.552   2.425 -0.2508 -0.6601 -0.5761
   44bbb     C5 1140   1.185   0.806   2.886 -0.3320 -0.9643 -0.0836
   44bbb     C6 1141   1.169   0.693   3.000  0.5069 -0.0514  0.5673
   44bbb     C7 1142   1.519   0.691   2.816  0.5426  0.2258 -0.4401
   44bbb     C8 1143   1.566   0.706   2.960 -0.0954 -0.1177  0.4483
   44bbb     N2 1144   1.614   0.584   3.022 -0.1177  0.1352 -0.0043
   44bbb     O1 1145   1.381   0.603   2.335  0.2045  0.6078  0.1030
   44bbb     O2 1146   1.259   0.634   3.056  0.6234  0.1417 -0.3426
   44bbb     H1 1147   1.244   0.725   2.613 -1.6224 -4.9080  0.6466
   44bbb     H2 1148   1.412   0.765   2.575  0.6843  1.1424  3.1910
   44bbb     H3 1149   1.307   0.916   2.760  0.9498  0.1719 -0.2663
   44bbb     H4 1150   1.391   0.877   2.912 -0.6519  0.9609 -0.2214
   44bbb     H5 1151   1.454   0.517   2.570  0.6206  1.0649  0.4442
   44bbb     H6 1152   1.280   0.504   2.636 -1.9740  3.7979  0.5160
   44bbb     H7 1153   1.125   0.776   2.799  0.9093 -0.9766 -0.9750
   44bbb     H8 1154   1.139   0.899   2.921  1.5176 -0.1536  0.3076
   44bbb     H9 1155   1.569   0.766   2.755  1.7922 -1.1170 -1.1545
   44bbb    H10 1156   1.546   0.590   2.784 -2.9244 -1.0767  0.2443
   44bbb    H11 1157   1.488   0.745   3.027 -1.0873  1.3921 -1.4982
   44bbb    H12 1158   1.646   0.781   2.955 -0.3434  0.0590 -2.4719
   44bbb    H13 1159   1.547   0.513   3.049 -0.4765 -0.1461 -1.5227
   44bbb    H25 1160   1.315   0.638   2.830 -1.0266  0.3086 -0.3618
   45bbb     N1 1161   1.844  -0.167   2.507 -0.2572  0.1946  0.7888
   45bbb     C1 1162   1.756  -0.068   2.426  0.7683 -0.5453  0.9068
   45bbb     C2 1163   1.767  -0.302   2.510 -0.5055 -0.0235  0.3119
   45bbb     C3 1164   1.699  -0.107   2.285 -0.3205  0.7311 -0.4926
   45bbb     C4 1165   1.617   0.004   2.222 -0.1699  0.0752 -0.1394
   45bbb     C5 1166   1.862  -0.425   2.489  0.0227  0.0576  0.2404
   45bbb     C6 1167   1.948  -0.437   2.360  0.0590 -1.2520  0.0379
   45bbb     C7 1168   1.879  -0.108   2.643  0.2506 -0.7160  0.0610
   45bbb     C8 1169   1.948  -0.205   2.740 -0.4412  0.3482  0.6769
   45bbb     N2 1170   1.969  -0.144   2.878  0.7148  1.0629 -0.0507
   45bbb     O1 1171   1.570   0.099   2.281  0.3861 -0.0273 -0.1279
   45bbb     O2 1172   1.930  -0.368   2.261 -0.1688  0.3284 -0.0888
   45bbb     H1 1173   1.667  -0.049   2.486 -1.7546 -0.1026 -2.6602
   45bbb     H2 1174   1.814   0.024   2.413  0.5012 -0.4440  0.4411
   45bbb     H3 1175   1.681  -0.299   2.443 -2.0186  2.0661  2.1945
   45bbb     H4 1176   1.721  -0.304   2.609  0.2128 -0.7161  0.6487
   45bbb     H5 1177   1.790  -0.125   2.225  2.1441 -0.8046  3.3241
   45bbb     H6 1178   1.639  -0.198   2.293  0.4270  0.2535 -0.1601
   45bbb     H7 1179   1.805  -0.518   2.496  3.0129 -1.7808  3.5457
   45bbb     H8 1180   1.931  -0.426   2.575  0.6011 -1.0489 -0.2100
   45bbb     H9 1181   1.783  -0.071   2.680  0.0587  1.6029 -2.4807
   45bbb    H10 1182   1.938  -0.018   2.626  1.1154 -1.4700 -1.1105
   45bbb    H11 1183   2.046  -0.238   2.703  0.5086  3.5604  0.0992
   45bbb    H12 1184   1.879  -0.289   2.756 -0.0744  0.0801  0.8682
   45bbb    H13 1185   2.065  -0.141   2.910  0.3959 -0.6975  1.2444
   45bbb    H25 1186   1.932  -0.182   2.455 -1.4255  0.7661 -1.4659
   46bbb     N1 1187   5.511   0.032   6.858 -0.1108  0.4483  0.4705
   46bbb     C1 1188   5.427  -0.040   6.968 -0.3754 -0.1493  0.2084
   46bbb     C2 1189   5.649  -0.033   6.848 -0.5657  0.6515  0.6138
   46bbb     C3 1190   5.277  -0.044   6.961  0.2419  0.3347  0.0477
   46bbb     C4 1191   5.217  -0.170   7.026 -1.3284 -0.4440 -0.0558
   46bbb     C5 1192   5.719  -0.030   6.714 -0.3005  0.1851 -0.0695
   46bbb     C6 1193   5.832  -0.130   6.687  0.9944  0.2940  0.2282
   46bbb     C7 1194   5.506   0.178   6.890 -0.0723 -0.1744 -0.8371
   46bbb     C8 1195   5.550   0.275   6.788 -0.7385  0.0415 -0.6976
   46bbb     N2 1196   5.441   0.296   6.695  0.1160 -0.6169  0.0453
   46bbb     O1 1197   5.287  -0.255   7.074  0.1303  0.1080  0.3933
   46bbb     O2 1198   5.842  -0.235   6.754 -0.0014  0.1968  0.6756
   46bbb     H1 1199   5.464  -0.143   6.970  2.0864  0.6521  2.0496
   46bbb     H2 1200   5.459  -0.003   7.066 -1.1067  2.1463 -0.3608
   46bbb     H3 1201   5.638  -0.141   6.852 -0.6294  0.4908 -2.1149
   46bbb     H4 1202   5.714  -0.004   6.931 -2.0874  2.3800  1.2809
   46bbb     H5 1203   5.234   0.047   7.005  0.2471  1.9549 -2.9967
   46bbb     H6 1204   5.248  -0.048   6.855  2.8894 -1.6402 -0.7100
   46bbb     H7 1205   5.756   0.071   6.693  0.5486  0.0484  0.7024
   46bbb     H8 1206   5.641  -0.053   6.640 -1.7496  2.1516  0.7556
   46bbb     H9 1207   5.568   0.184   6.980 -0.1782  0.3966 -0.7959
   46bbb    H10 1208   5.402   0.199   6.916  0.4674  1.7645 -0.0398
   46bbb    H11 1209   5.646   0.255   6.740 -0.1833  1.6841 -0.3236
   46bbb    H12 1210   5.575   0.366   6.844 -1.0363  0.0031 -0.4943
   46bbb    H13 1211   5.357   0.337   6.734  1.3952 -0.5385  2.9372
   46bbb    H25 1212   5.468   0.020   6.766 -0.1960 -0.5979  0.6309
   47bbb     N1 1213   5.092  -0.589   6.217 -0.3759 -0.3008  0.6333
   47bbb     C1 1214   4.950  -0.627   6.165  0.4607 -0.2785  0.0009
   47bbb     C2 1215   5.187  -0.706   6.197 -0.4625 -0.3918  0.1415
   47bbb     C3 1216   4.921  -0.616   6.013  0.4156 -0.4116  0.1112
   47bbb     C4 1217   4.786  -0.671   5.961 -0.4455  0.7043  0.6497
   47bbb     C5 1218   5.147  -0.837   6.270  0.0135 -0.7528  0.7383
   47bbb     C6 1219   5.242  -0.950   6.247  0.6280 -0.1243 -0.2796
   47bbb     C7 1220   5.096  -0.525   6.362  0.2324  0.4743 -0.1241
   47bbb     C8 1221   5.055  -0.379   6.370 -0.0138  0.1831  0.1385
   47bbb     N2 1222   5.161  -0.305   6.301  0.5815 -0.2878  0.3442
   47bbb     O1 1223   4.720  -0.753   6.020 -0.4051 -0.1656 -0.4279
   47bbb     O2 1224   5.345  -0.951   6.307 -0.1914 -0.0490  0.2521
   47bbb     H1 1225   4.935  -0.727   6.207  0.2241 -0.3610 -0.2786
   47bbb     H2 1226   4.883  -0.564   6.226 -0.5114 -2.0620  0.8591
   47bbb     H3 1227   5.286  -0.676   6.231 -1.1875  1.4123  0.7632
   47bbb     H4 1228   5.198  -0.728   6.091  1.2030 -0.2349  0.2506
   47bbb     H5 1229   4.920  -0.510   5.985 -1.4583 -0.2980  0.5132
   47bbb     H6 1230   5.004  -0.660   5.955 -0.4439 -3.0005  0.7005
   47bbb     H7 1231   5.044  -0.866   6.246  0.1895 -0.6700 -0.1748
   47bbb     H8 1232   5.145  -0.814   6.377 -0.7655 -0.2158  0.6140
   47bbb     H9 1233   5.194  -0.541   6.407 -0.5810 -0.4551  1.4010
   47bbb    H10 1234   5.028  -0.578   6.428 -1.0499  0.6918 -1.2343
   47bbb    H11 1235   5.056  -0.367   6.479  2.5141 -0.5101  0.2435
   47bbb    H12 1236   4.955  -0.376   6.325 -0.0792  0.4016  0.2968
   47bbb    H13 1237   5.236  -0.359   6.262  0.8317 -1.2430  2.0668
   47bbb    H25 1238   5.127  -0.522   6.147 -1.0854 -0.2288  0.3444
   48bbb     N1 1239   5.389   1.015   6.910 -0.5734 -0.4762 -0.1375
   48bbb     C1 1240   5.397   1.161   6.970  0.1529  0.7359  0.1690
   48bbb     C2 1241   5.463   0.908   6.987  0.3755 -0.6650  0.0571
   48bbb     C3 1242   5.298   1.195   7.084 -0.4723 -0.0689 -0.2932
   48bbb     C4 1243   5.298   1.347   7.123 -0.0832  0.1931  0.2748
   48bbb     C5 1244   5.595   0.944   7.055 -0.4316  0.1033 -0.0505
   48bbb     C6 1245   5.703   0.946   6.953  0.0209 -0.2370  0.2913
   48bbb     C7 1246   5.443   1.018   6.763  0.0720  0.6575  0.2935
   48bbb     C8 1247   5.359   1.084   6.659  0.2233  0.0358  0.6098
   48bbb     N2 1248   5.222   1.034   6.653 -0.2741 -0.3086  0.4933
   48bbb     O1 1249   5.314   1.433   7.035  0.0650 -0.3818 -0.3752
   48bbb     O2 1250   5.698   0.865   6.864 -0.1637  0.2117  0.3637
   48bbb     H1 1251   5.500   1.174   7.004 -0.0250  0.6651  0.7517
   48bbb     H2 1252   5.384   1.228   6.885  0.9617 -1.7505 -2.0389
   48bbb     H3 1253   5.467   0.818   6.924  0.1459  0.7389 -2.0769
   48bbb     H4 1254   5.397   0.878   7.068  0.1183  0.4853  0.2877
   48bbb     H5 1255   5.197   1.169   7.050 -1.4123 -0.5036  2.5481
   48bbb     H6 1256   5.318   1.134   7.173  0.5518  1.1860  0.3712
   48bbb     H7 1257   5.632   0.867   7.125  0.3116  1.6943  1.3914
   48bbb     H8 1258   5.590   1.038   7.111  0.2831  0.2749 -0.2642
   48bbb     H9 1259   5.452   0.916   6.724 -0.3009  0.4163  0.8213
   48bbb    H10 1260   5.539   1.070   6.771  1.6045 -1.6864 -1.3785
   48bbb    H11 1261   5.406   1.086   6.560 -1.1241  0.5995 -0.0444
   48bbb    H12 1262   5.358   1.187   6.696 -0.0688 -0.5549  2.3351
   48bbb    H13 1263   5.196   0.953   6.708  1.3721 -1.5357 -0.4104
   48bbb    H25 1264   5.290   0.987   6.904 -0.6635 -0.1315 -0.2683
   49bbb     N1 1265   4.832   1.960   6.411 -0.0797  0.7469 -0.0173
   49bbb     C1 1266   4.807   2.152   6.588 -0.0292 -0.8258  0.2722
   49bbb     C2 1267   4.794   1.952   6.256 -0.7486  0.2853  0.8028
   49bbb     C3 1268   4.777   2.162   6.748 -0.6117 -0.9662 -0.0490
   49bbb     C4 1269   4.800   2.303   6.795 -0.4490 -0.1162  0.0935
   49bbb     C5 1270   4.904   1.892   6.160 -0.1650 -0.2470  0.2325
   49bbb     C6 1271   4.857   1.856   6.024 -0.3070 -0.1672  0.0940
   49bbb     C7 1272   4.812   1.797   6.423 -0.2801  0.9671 -0.2441
   49bbb     C8 1273   4.936   1.710   6.452  0.4646  1.3550  0.7228
   49bbb     N2 1274   4.911   1.573   6.401 -0.6912  0.3816  0.1777
   49bbb     O1 1275   4.748   2.402   6.743  0.1072 -0.0111  0.3799
   49bbb     O2 1276   4.743   1.852   5.994  0.4936 -0.5154 -0.0702
   49bbb     H1 1277   4.899   2.209   6.598 -0.2102  0.1024 -2.6565
   49bbb     H2 1278   4.741   2.234   6.562  0.9071  0.1764  0.9511
   49bbb     H3 1279   4.767   2.052   6.221  0.4959  0.3547 -0.0399
   49bbb     H4 1280   4.705   1.891   6.240 -1.1867  1.0435  0.2380
   49bbb     H5 1281   4.674   2.145   6.781 -0.1335 -0.2359  1.9234
   49bbb     H6 1282   4.851   2.104   6.804  1.7002  2.6525  0.9317
   49bbb     H7 1283   4.958   1.806   6.201 -0.1998  0.4606  1.8329
   49bbb     H8 1284   4.982   1.967   6.140  0.6668 -0.7811  1.3674
   49bbb     H9 1285   4.758   1.762   6.335 -0.9155  1.4514 -0.0527
   49bbb    H10 1286   4.745   1.766   6.503  1.5774 -1.9704  0.3354
   49bbb    H11 1287   4.950   1.701   6.560  2.6320  0.5760  0.4272
   49bbb    H12 1288   5.031   1.754   6.417  0.0343  0.7830 -1.3261
   49bbb    H13 1289   4.955   1.554   6.311 -0.9837  0.2020  0.0716
   49bbb    H25 1290   4.933   1.964   6.390 -0.2133 -1.0252 -1.2568
   50bbb     N1 1291   4.578   0.214   3.563  0.0877 -0.1774  0.8492
   50bbb     C1 1292   4.576   0.093   3.460 -0.0575 -0.3509 -0.0656
   50bbb     C2 1293   4.714   0.283   3.542 -0.5823  0.0638 -0.6940
   50bbb     C3 1294   4.442   0.035   3.409 -0.0276 -0.8441 -0.3157
   50bbb     C4 1295   4.377   0.125   3.302 -0.3435  0.2103 -0.7063
   50bbb     C5 1296   4.740   0.347   3.401 -0.5050 -0.0570 -0.3432
   50bbb     C6 1297   4.879   0.411   3.383  0.2903  0.1306 -0.2060
   50bbb     C7 1298   4.562   0.148   3.695 -0.5575  0.3093  0.1119
   50bbb     C8 1299   4.548   0.239   3.819  0.5979 -0.4694 -0.3208
   50bbb     N2 1300   4.411   0.287   3.833  0.1219  0.3470 -0.0176
   50bbb     O1 1301   4.431   0.225   3.262 -0.4159 -0.4160  0.2845
   50bbb     O2 1302   4.983   0.350   3.401  0.3361 -0.1553 -0.0220
   50bbb     H1 1303   4.639   0.113   3.373 -1.5441  2.3461 -0.6555
   50bbb     H2 1304   4.622   0.012   3.516 -0.8763 -0.8525 -0.0989
   50bbb     H3 1305   4.796   0.219   3.573 -0.4393  0.2565 -0.6760
   50bbb     H4 1306   4.710   0.363   3.615 -0.7660 -1.0342  0.5284
   50bbb     H5 1307   4.465  -0.067   3.375  2.7579 -0.5874  0.5131
   50bbb     H6 1308   4.377   0.007   3.492  1.8416 -1.9185  0.8674
   50bbb     H7 1309   4.665   0.427   3.398 -1.2592 -0.7014  0.6836
   50bbb     H8 1310   4.713   0.274   3.324 -2.0686  1.2496 -1.1074
   50bbb     H9 1311   4.642   0.077   3.713 -0.5719  0.6977  1.8763
   50bbb    H10 1312   4.465   0.098   3.689 -1.5440  2.2945 -2.1209
   50bbb    H11 1313   4.618   0.323   3.823  1.0878 -0.9118  1.1591
   50bbb    H12 1314   4.574   0.179   3.907 -1.5086 -2.4571 -0.9405
   50bbb    H13 1315   4.335   0.246   3.781 -0.9732  0.6120  1.3018
   50bbb    H25 1316   4.497   0.273   3.541 -0.5486 -0.5582  2.0842
   51bbb     N1 1317   3.437   0.891   3.867  0.3905  0.0295  0.0789
   51bbb     C1 1318   3.328   0.975   3.941 -0.9256 -0.5219 -0.0757
   51bbb     C2 1319   3.484   0.947   3.735 -0.0879 -0.4758  0.6753
   51bbb     C3 1320   3.293   0.935   4.084  0.6274 -0.0648 -0.5635
   51bbb     C4 1321   3.171   1.008   4.145  0.1440 -0.2127 -0.1545
   51bbb     C5 1322   3.587   1.070   3.743  0.5458  0.3126 -0.6226
   51bbb     C6 1323   3.722   1.023   3.701 -0.0882  0.5276 -0.1084
   51bbb     C7 1324   3.397   0.742   3.855  0.5313 -0.3377  0.7658
   51bbb     C8 1325   3.509   0.633   3.833 -0.3583  0.0836  0.5956
   51bbb     N2 1326   3.612   0.641   3.935  0.3576  0.2508 -0.8914
   51bbb     O1 1327   3.138   1.118   4.105 -0.3936  0.2975 -0.0852
   51bbb     O2 1328   3.782   0.927   3.746 -0.1481 -0.4158  0.4344
   51bbb     H1 1329   3.380   1.071   3.945 -1.9660  0.0273  0.8908
   51bbb     H2 1330   3.235   0.984   3.884 -1.2737  1.0180  0.6881
   51bbb     H3 1331   3.391   0.973   3.683  0.5298 -0.2415 -0.3349
   51bbb     H4 1332   3.530   0.856   3.697 -1.0883 -1.9327  2.7503
   51bbb     H5 1333   3.274   0.827   4.087  3.5813 -0.6447  1.9775
   51bbb     H6 1334   3.381   0.953   4.147  0.3434 -0.9778  0.1106
   51bbb     H7 1335   3.589   1.120   3.840 -1.7255 -0.0987 -0.3141
   51bbb     H8 1336   3.556   1.150   3.675 -1.4953 -0.3190 -0.5038
   51bbb     H9 1337   3.323   0.741   3.775  0.6373  0.0969  0.6573
   51bbb    H10 1338   3.340   0.726   3.947 -0.3807  0.0599  0.2900
   51bbb    H11 1339   3.545   0.642   3.730  1.2672 -1.1114  1.0088
   51bbb    H12 1340   3.457   0.536   3.833 -2.3082  1.0796 -0.3041
   51bbb    H13 1341   3.599   0.680   4.027 -1.6468 -0.9474 -0.6095
   51bbb    H25 1342   3.513   0.892   3.937 -0.0401  1.1623  0.5661
   52bbb     N1 1343   4.549  -0.990   4.330  0.2831  0.2900  0.5576
   52bbb     C1 1344   4.600  -1.059   4.207  0.5399 -0.1294 -0.3756
   52bbb     C2 1345   4.504  -1.095   4.430 -0.0242  0.0227 -0.1376
   52bbb     C3 1346   4.700  -0.972   4.143 -0.8966 -0.3666  0.0538
   52bbb     C4 1347   4.842  -0.985   4.214 -0.1341 -0.0986  0.0153
   52bbb     C5 1348   4.614  -1.181   4.481 -0.3930  0.3503 -0.5873
   52bbb     C6 1349   4.578  -1.271   4.595  0.0613  0.1941  0.4676
   52bbb     C7 1350   4.432  -0.902   4.307  0.3514 -0.0967  0.2102
   52bbb     C8 1351   4.427  -0.775   4.396 -0.5828 -0.2308 -0.9266
   52bbb     N2 1352   4.501  -0.660   4.329 -0.1529 -0.1535  0.6026
   52bbb     O1 1353   4.871  -1.043   4.313  0.4976 -0.0759  0.3141
   52bbb     O2 1354   4.479  -1.247   4.660  0.1257  0.2705 -0.0381
   52bbb     H1 1355   4.643  -1.156   4.232 -1.1893 -0.5508  1.1573
   52bbb     H2 1356   4.514  -1.080   4.144 -0.0285 -0.2612  0.4324
   52bbb     H3 1357   4.431  -1.159   4.381 -0.4185  1.5510 -1.6329
   52bbb     H4 1358   4.452  -1.042   4.510  0.7404 -0.6911  0.8669
   52bbb     H5 1359   4.710  -0.983   4.035 -3.0922 -0.6853 -0.1519
   52bbb     H6 1360   4.667  -0.868   4.155 -1.3546 -0.1285 -2.6185
   52bbb     H7 1361   4.700  -1.122   4.518  0.2461 -1.6654  1.3930
   52bbb     H8 1362   4.644  -1.246   4.398 -0.7318 -0.0600 -0.3900
   52bbb     H9 1363   4.340  -0.957   4.327  0.2286 -0.3650 -1.0499
   52bbb    H10 1364   4.426  -0.865   4.205 -1.3887  1.0003  0.6678
   52bbb    H11 1365   4.470  -0.797   4.494  1.7532 -0.7645 -2.0157
   52bbb    H12 1366   4.322  -0.746   4.409 -0.3558  1.5462 -2.6257
   52bbb    H13 1367   4.504  -0.646   4.229  1.3104 -1.3770  0.4421
   52bbb    H25 1368   4.625  -0.941   4.377  0.2208  0.1885  0.7634
   53bbb     N1 1369   5.461  -0.183   4.622 -0.4825  0.2911  0.3828
   53bbb     C1 1370   5.567  -0.075   4.580 -0.2559  0.2348 -0.2254
   53bbb     C2 1371   5.521  -0.287   4.717  0.3630  0.6926  0.6173
   53bbb     C3 1372   5.522   0.032   4.486 -0.2165 -0.1260 -0.0673
   53bbb     C4 1373   5.394   0.103   4.537 -0.9839  0.8221 -0.1416
   53bbb     C5 1374   5.533  -0.247   4.865  0.0797 -0.3695  0.2095
   53bbb     C6 1375   5.584  -0.363   4.949 -0.1869  0.5921  0.2673
   53bbb     C7 1376   5.424  -0.249   4.487  0.1752 -0.5921 -0.2812
   53bbb     C8 1377   5.294  -0.331   4.484  0.7490 -0.1955  0.0589
   53bbb     N2 1378   5.177  -0.259   4.522 -0.4501 -0.1252 -0.7671
   53bbb     O1 1379   5.296   0.044   4.569  0.2546  0.1629 -0.0629
   53bbb     O2 1380   5.689  -0.417   4.917  0.2337  0.7984  0.5915
   53bbb     H1 1381   5.607  -0.028   4.669  1.9133  0.0260 -1.0370
   53bbb     H2 1382   5.652  -0.133   4.546 -0.8207 -0.6828 -0.0949
   53bbb     H3 1383   5.620  -0.318   4.682 -1.1347 -3.9898 -0.2317
   53bbb     H4 1384   5.462  -0.378   4.704 -0.0340  1.2163 -1.4631
   53bbb     H5 1385   5.595   0.113   4.486 -1.4278  1.0007 -0.3269
   53bbb     H6 1386   5.526   0.009   4.379 -2.0269 -0.0683 -0.1806
   53bbb     H7 1387   5.435  -0.212   4.900 -0.8791 -0.3523 -2.2610
   53bbb     H8 1388   5.604  -0.167   4.891 -1.2692  0.4324  1.6050
   53bbb     H9 1389   5.507  -0.314   4.457  1.5598  1.6233 -1.6186
   53bbb    H10 1390   5.421  -0.171   4.411  0.5596 -1.5205 -1.2762
   53bbb    H11 1391   5.302  -0.416   4.552 -1.2780 -1.6247 -1.3775
   53bbb    H12 1392   5.275  -0.368   4.382  1.5115 -0.6547  0.0724
   53bbb    H13 1393   5.179  -0.164   4.556 -0.3836  1.2138 -4.1757
   53bbb    H25 1394   5.374  -0.139   4.655 -3.1840 -2.6519 -2.0884
   54bbb     N1 1395   3.453   2.036   6.761  0.2766  0.9564  0.3975
   54bbb     C1 1396   3.576   2.072   6.845 -0.4326 -0.1484  0.3674
   54bbb     C2 1397   3.359   2.156   6.745 -0.7720  0.6316 -0.0800
   54bbb     C3 1398   3.716   2.017   6.799  0.4154  0.4642 -0.0503
   54bbb     C4 1399   3.828   2.079   6.875 -0.8611 -0.5770  0.3121
   54bbb     C5 1400   3.360   2.238   6.613  0.1262  0.0232  0.1325
   54bbb     C6 1401   3.259   2.351   6.631 -0.1845  1.0109 -0.3828
   54bbb     C7 1402   3.381   1.920   6.832  0.5963  0.6139  0.1129
   54bbb     C8 1403   3.258   1.860   6.750 -0.1524 -0.5539 -0.3472
   54bbb     N2 1404   3.235   1.727   6.816  0.3975 -0.2292  0.6895
   54bbb     O1 1405   3.808   2.159   6.964  0.3280  0.1030  0.7455
   54bbb     O2 1406   3.269   2.418   6.733  0.4992 -0.4911 -0.0289
   54bbb     H1 1407   3.578   2.177   6.818 -2.0630 -0.2855 -0.3866
   54bbb     H2 1408   3.548   2.042   6.946 -2.2741 -0.8112 -0.3192
   54bbb     H3 1409   3.386   2.212   6.835  0.1756  0.4132 -0.2226
   54bbb     H4 1410   3.260   2.116   6.770 -0.2835 -0.8409 -0.3945
   54bbb     H5 1411   3.719   1.908   6.807 -0.8561  0.4619  0.7059
   54bbb     H6 1412   3.728   2.044   6.693  0.8545  1.0623  0.1468
   54bbb     H7 1413   3.343   2.173   6.526  1.6161 -0.8104  0.4323
   54bbb     H8 1414   3.455   2.293   6.604  0.4633 -0.3026  1.5143
   54bbb     H9 1415   3.346   1.953   6.929 -2.5972 -1.8244 -0.0227
   54bbb    H10 1416   3.453   1.839   6.842  1.1097  0.8866 -1.1762
   54bbb    H11 1417   3.284   1.840   6.645 -1.9899 -2.1334 -0.5475
   54bbb    H12 1418   3.176   1.932   6.752  1.2755  1.1274  0.2360
   54bbb    H13 1419   3.287   1.647   6.782  1.2045 -0.0110  1.3737
   54bbb    H25 1420   3.476   2.001   6.667  0.1617  0.5663  0.5122
   55bbb     N1 1421   3.585   1.082   7.521  0.2268 -0.1897 -0.3419
   55bbb     C1 1422   3.630   1.098   7.677 -0.2713  0.3117 -0.2523
   55bbb     C2 1423   3.560   1.217   7.447 -0.6571  1.1445  0.0341
   55bbb     C3 1424   3.696   0.973   7.748 -0.6480  0.1214 -0.4532
   55bbb     C4 1425   3.832   0.939   7.687  0.5059 -0.0089 -0.4844
   55bbb     C5 1426   3.444   1.307   7.486 -0.8020 -0.4192 -0.2567
   55bbb     C6 1427   3.449   1.446   7.431 -0.3206  0.9071 -0.4616
   55bbb     C7 1428   3.457   0.997   7.512  0.0821 -0.2886 -0.4961
   55bbb     C8 1429   3.421   0.941   7.376  0.3665  0.8541 -0.0888
   55bbb     N2 1430   3.308   1.017   7.325  0.2921 -0.3376  0.2734
   55bbb     O1 1431   3.845   0.937   7.565 -0.0805  0.9067 -0.3241
   55bbb     O2 1432   3.367   1.490   7.359  0.0059 -0.6715  1.0382
   55bbb     H1 1433   3.708   1.174   7.671  0.7984 -0.3858  2.8439
   55bbb     H2 1434   3.548   1.130   7.741  0.3339  0.9294  0.2330
   55bbb     H3 1435   3.569   1.193   7.341 -0.8377  0.5218  0.1584
   55bbb     H4 1436   3.654   1.265   7.473 -0.0555 -0.6934  1.4376
   55bbb     H5 1437   3.714   1.001   7.852  2.8907  2.2764 -1.4713
   55bbb     H6 1438   3.630   0.885   7.753 -0.3807 -0.1976 -1.9785
   55bbb     H7 1439   3.453   1.300   7.595  3.6624 -1.7255 -0.4759
   55bbb     H8 1440   3.350   1.264   7.452  0.3074 -1.5682 -2.0357
   55bbb     H9 1441   3.379   1.057   7.559  1.5159  1.2118  0.0499
   55bbb    H10 1442   3.472   0.911   7.577 -3.5556 -0.5077  0.2726
   55bbb    H11 1443   3.395   0.835   7.376  0.7698  0.7425  0.6316
   55bbb    H12 1444   3.503   0.944   7.304  1.2851  0.7338  0.9246
   55bbb    H13 1445   3.222   1.011   7.379 -1.5235 -0.3615 -2.3914
   55bbb    H25 1446   3.658   1.031   7.469 -0.3075  0.3924 -1.7059
   56bbb     N1 1447   1.292  -0.028   6.298  0.1299  0.2519 -0.1183
   56bbb     C1 1448   1.285  -0.083   6.159 -0.3067 -0.3097  0.1151
   56bbb     C2 1449   1.210  -0.107   6.405  0.3452  0.0709  0.3802
   56bbb     C3 1450   1.367  -0.022   6.041 -0.4242 -0.1759  0.2964
   56bbb     C4 1451   1.363  -0.102   5.911 -0.7741  0.4866  0.4041
   56bbb     C5 1452   1.056  -0.080   6.415  0.3047 -0.3572 -0.3589
   56bbb     C6 1453   0.992  -0.192   6.507  0.3629 -0.8316  0.0479
   56bbb     C7 1454   1.252   0.126   6.295 -0.0500  0.0098  0.3505
   56bbb     C8 1455   1.276   0.203   6.431 -0.4543 -0.2055  0.2169
   56bbb     N2 1456   1.410   0.213   6.470 -0.2836 -0.9813  0.8663
   56bbb     O1 1457   1.294  -0.200   5.896 -0.2759  0.4632 -0.6710
   56bbb     O2 1458   1.063  -0.264   6.578  0.0118  0.0207 -0.0103
   56bbb     H1 1459   1.311  -0.188   6.172 -1.2938 -0.6988 -0.8966
   56bbb     H2 1460   1.180  -0.061   6.137 -0.4254 -1.3710 -0.4178
   56bbb     H3 1461   1.251  -0.082   6.503 -1.2367 -0.3550  1.1640
   56bbb     H4 1462   1.220  -0.213   6.383 -2.0672 -0.6061  2.1652
   56bbb     H5 1463   1.355   0.087   6.033  1.6891  0.0847  0.0854
   56bbb     H6 1464   1.471  -0.037   6.071  0.3460 -1.5360 -2.6604
   56bbb     H7 1465   1.021  -0.094   6.312  0.0797  0.4836 -0.4060
   56bbb     H8 1466   1.038   0.017   6.462  0.2662 -0.5462  0.0220
   56bbb     H9 1467   1.144   0.125   6.275  0.2730 -1.4391 -1.6722
   56bbb    H10 1468   1.303   0.175   6.212  0.2921 -0.3019  0.3764
   56bbb    H11 1469   1.221   0.145   6.506 -3.4730 -0.5033 -2.0029
   56bbb    H12 1470   1.232   0.303   6.426  1.5834  0.6993 -0.4925
   56bbb    H13 1471   1.478   0.199   6.396 -2.7650  0.0223 -1.7738
   56bbb    H25 1472   1.388  -0.033   6.336 -0.2678  1.0312  1.0607
   57bbb     N1 1473   2.252  -0.353   7.053 -0.0182  0.8656  0.2299
   57bbb     C1 1474   2.273  -0.414   7.194  0.2737  0.6166 -0.3576
   57bbb     C2 1475   2.375  -0.386   6.972 -0.6406 -0.7331  0.7912
   57bbb     C3 1476   2.244  -0.569   7.218  0.2487 -0.0711  0.7320
   57bbb     C4 1477   2.210  -0.599   7.362  0.0282 -0.4796 -0.2368
   57bbb     C5 1478   2.341  -0.438   6.829 -0.1772  0.2955 -0.3835
   57bbb     C6 1479   2.286  -0.579   6.827  0.1457 -0.2010  0.2873
   57bbb     C7 1480   2.238  -0.196   7.060  0.0281  0.3489 -0.1976
   57bbb     C8 1481   2.110  -0.130   7.116  0.2038  0.5743  0.0362
   57bbb     N2 1482   2.006  -0.107   7.011  0.1881  0.4529 -0.3889
   57bbb     O1 1483   2.192  -0.511   7.452 -0.0515 -0.5647  0.0208
   57bbb     O2 1484   2.288  -0.651   6.924  0.2616  0.1795 -0.6712
   57bbb     H1 1485   2.375  -0.392   7.224  0.5574 -0.1985 -0.7154
   57bbb     H2 1486   2.209  -0.356   7.262 -1.4922 -2.6832  1.0311
   57bbb     H3 1487   2.430  -0.468   7.020  0.2942 -0.6278 -0.0650
   57bbb     H4 1488   2.441  -0.300   6.960  1.2143 -2.1434  0.2196
   57bbb     H5 1489   2.162  -0.602   7.153  2.9587 -0.3639 -2.8040
   57bbb     H6 1490   2.333  -0.620   7.181 -1.0979 -0.7137 -1.8532
   57bbb     H7 1491   2.427  -0.434   6.761 -0.2538  2.8797 -0.4412
   57bbb     H8 1492   2.269  -0.370   6.782 -0.7422 -0.2306 -0.2927
   57bbb     H9 1493   2.246  -0.172   6.953 -1.0638  0.5585 -0.2477
   57bbb    H10 1494   2.318  -0.156   7.122 -0.6147  1.4900 -0.0831
   57bbb    H11 1495   2.145  -0.033   7.154 -1.1513  2.0431 -2.2080
   57bbb    H12 1496   2.067  -0.187   7.199 -0.2888  2.1267  0.8747
   57bbb    H13 1497   2.031  -0.114   6.913  2.7414 -1.3391  0.2967
   57bbb    H25 1498   2.172  -0.389   7.000  1.1987 -1.9569  0.1554
   58bbb     N1 1499   1.458   0.591   4.733  0.2229  0.2976 -0.7409
   58bbb     C1 1500   1.326   0.510   4.741 -0.6761  0.1227  0.7658
   58bbb     C2 1501   1.574   0.508   4.675 -0.2066  0.3207 -0.5767
   58bbb     C3 1502   1.323   0.377   4.822  0.4743 -0.7395 -0.2147
   58bbb     C4 1503   1.186   0.356   4.878  0.1539 -0.2803 -0.9512
   58bbb     C5 1504   1.590   0.508   4.520 -0.3586  0.0881 -0.2650
   58bbb     C6 1505   1.609   0.648   4.457 -0.5547 -0.1603 -0.1123
   58bbb     C7 1506   1.496   0.645   4.867 -1.1373 -1.1100  0.1678
   58bbb     C8 1507   1.602   0.753   4.855 -0.3102  0.1459 -0.6982
   58bbb     N2 1508   1.606   0.863   4.955  1.0836 -0.1757  0.1807
   58bbb     O1 1509   1.097   0.436   4.849  0.4343  0.1310 -0.4310
   58bbb     O2 1510   1.601   0.750   4.525  0.0072  0.0883  0.5005
   58bbb     H1 1511   1.256   0.587   4.775 -0.4011  1.2419 -1.0440
   58bbb     H2 1512   1.297   0.482   4.640 -1.9722  1.8478  0.6102
   58bbb     H3 1513   1.559   0.406   4.711 -2.6279  1.6609  2.6144
   58bbb     H4 1514   1.666   0.550   4.717  0.7017  0.5294 -2.6365
   58bbb     H5 1515   1.344   0.290   4.759  0.6926 -1.5083  0.8946
   58bbb     H6 1516   1.398   0.366   4.901  1.9394 -1.1630 -1.6144
   58bbb     H7 1517   1.500   0.465   4.476 -0.7939  1.8701 -1.2189
   58bbb     H8 1518   1.679   0.450   4.491  0.1215 -0.1950  1.6453
   58bbb     H9 1519   1.546   0.562   4.917  0.9571 -0.9867 -1.5504
   58bbb    H10 1520   1.405   0.676   4.918 -0.8120  1.3202 -0.5697
   58bbb    H11 1521   1.609   0.805   4.758  0.4592 -1.0588 -1.3028
   58bbb    H12 1522   1.699   0.703   4.852  0.3080  1.3479 -2.1800
   58bbb    H13 1523   1.603   0.844   5.054  2.7714 -0.6148  0.1720
   58bbb    H25 1524   1.441   0.667   4.665 -2.4948  0.7744  0.3697
   59bbb     N1 1525   1.039   1.761   4.922  0.0087  0.0504 -0.3033
   59bbb     C1 1526   0.989   1.732   4.779 -0.0978 -0.0671  0.3387
   59bbb     C2 1527   0.923   1.771   5.014  0.5913 -0.2353 -0.4956
   59bbb     C3 1528   1.097   1.692   4.679 -0.0951  0.4670  0.0365
   59bbb     C4 1529   1.158   1.554   4.702  0.1466 -0.1772 -0.2691
   59bbb     C5 1530   0.818   1.657   5.022 -0.6108 -0.7211  0.1291
   59bbb     C6 1531   0.879   1.532   5.075 -0.0920  0.3217 -0.5741
   59bbb     C7 1532   1.128   1.884   4.919 -0.7147  0.2645  0.2741
   59bbb     C8 1533   1.265   1.866   4.988 -0.8802 -0.9913 -0.3690
   59bbb     N2 1534   1.336   1.742   4.957  0.2731 -0.2425  0.1663
   59bbb     O1 1535   1.137   1.501   4.809  0.1661 -0.0262  0.1047
   59bbb     O2 1536   0.958   1.469   5.007  0.0900  0.4050 -0.3277
   59bbb     H1 1537   0.919   1.648   4.780  2.3321 -2.2236  1.4543
   59bbb     H2 1538   0.932   1.819   4.747 -2.1622 -1.6531 -0.5092
   59bbb     H3 1539   0.873   1.865   4.992 -0.8096 -0.4661  1.4293
   59bbb     H4 1540   0.956   1.791   5.116  1.4542 -0.0631 -0.7963
   59bbb     H5 1541   1.051   1.695   4.579 -0.4542 -1.5423  0.1030
   59bbb     H6 1542   1.174   1.771   4.678  0.8203 -0.3546  1.6393
   59bbb     H7 1543   0.775   1.649   4.922 -1.4073 -1.6022  0.5207
   59bbb     H8 1544   0.732   1.686   5.084 -1.1376 -1.9736  0.0257
   59bbb     H9 1545   1.079   1.974   4.957 -1.8702  0.2359 -1.0939
   59bbb    H10 1546   1.156   1.903   4.815  0.7741 -0.4150  0.5230
   59bbb    H11 1547   1.251   1.860   5.097 -0.0425 -0.2623 -0.2081
   59bbb    H12 1548   1.336   1.945   4.960 -1.9357  0.1221  0.0132
   59bbb    H13 1549   1.414   1.744   4.893  0.9285 -0.0390  0.9533
   59bbb    H25 1550   1.088   1.678   4.960  1.6307  0.7858 -0.7241
   60bbb     N1 1551   1.835   2.492   6.202 -0.0219  0.0933 -0.5875
   60bbb     C1 1552   1.853   2.629   6.270 -0.1661 -0.2138  0.1700
   60bbb     C2 1553   1.862   2.502   6.048 -0.2149 -0.4659  0.0569
   60bbb     C3 1554   1.762   2.750   6.232  0.4529 -0.3053 -0.6785
   60bbb     C4 1555   1.812   2.887   6.266  0.4099 -0.7882 -0.5711
   60bbb     C5 1556   1.992   2.561   5.996 -0.9305  0.0042 -0.2858
   60bbb     C6 1557   1.983   2.707   5.960  0.1114 -0.3326 -0.6607
   60bbb     C7 1558   1.694   2.431   6.232 -0.4746 -0.0064  0.1203
   60bbb     C8 1559   1.669   2.366   6.368 -0.3113 -0.2492  0.4833
   60bbb     N2 1560   1.726   2.231   6.374 -0.1818  0.2223  0.1134
   60bbb     O1 1561   1.861   2.907   6.377 -0.2474  0.3929  0.5841
   60bbb     O2 1562   2.011   2.802   6.034  0.2773 -0.2338 -0.3002
   60bbb     H1 1563   1.850   2.611   6.377  0.1389 -0.5349  0.1243
   60bbb     H2 1564   1.954   2.668   6.258 -0.8328  1.3504 -0.7630
   60bbb     H3 1565   1.781   2.547   5.990 -0.2364  0.3214  0.6783
   60bbb     H4 1566   1.856   2.400   6.011  0.4255 -0.4690 -0.0468
   60bbb     H5 1567   1.754   2.742   6.123  0.4065  0.1937 -0.7146
   60bbb     H6 1568   1.659   2.729   6.266  0.6757  0.2232  0.3683
   60bbb     H7 1569   2.030   2.510   5.906  1.4657  2.3649 -0.7324
   60bbb     H8 1570   2.065   2.558   6.078  0.0332  0.5997 -1.1000
   60bbb     H9 1571   1.683   2.350   6.159  2.9484 -1.7018  1.2373
   60bbb    H10 1572   1.614   2.500   6.205 -0.7401 -0.2594  0.2562
   60bbb    H11 1573   1.561   2.365   6.388 -0.9692 -0.7145 -2.5604
   60bbb    H12 1574   1.719   2.423   6.447 -0.7519 -0.3053  0.8035
   60bbb    H13 1575   1.751   2.186   6.286 -0.8269  0.4915 -0.2186
   60bbb    H25 1576   1.911   2.428   6.230 -0.1456  0.2481  0.1254
   61bbb     N1 1577   1.578   2.148   7.171 -0.2331  0.2169  0.1769
   61bbb     C1 1578   1.638   2.274   7.234 -0.0508 -0.0345 -0.4578
   61bbb     C2 1579   1.528   2.048   7.275  0.1290  0.2085 -0.0894
   61bbb     C3 1580   1.784   2.256   7.287  0.0340 -0.6082 -0.0406
   61bbb     C4 1581   1.852   2.385   7.324 -0.5272  0.6145  0.3740
   61bbb     C5 1582   1.373   2.034   7.285  0.2949  0.8792  0.0577
   61bbb     C6 1583   1.347   1.915   7.375  0.4925  0.9366  0.3761
   61bbb     C7 1584   1.666   2.084   7.061  0.1301  0.1320  0.0392
   61bbb     C8 1585   1.582   2.040   6.943  0.5450  0.9048 -0.4057
   61bbb     N2 1586   1.596   1.902   6.897  0.2071  0.1780  0.0471
   61bbb     O1 1587   1.792   2.486   7.354 -0.2570  0.3600  0.8259
   61bbb     O2 1588   1.407   1.893   7.474 -0.7671  0.8706 -0.4242
   61bbb     H1 1589   1.635   2.355   7.161  1.3856  0.4678  0.0123
   61bbb     H2 1590   1.561   2.297   7.309  1.5593 -0.6443  1.4631
   61bbb     H3 1591   1.572   2.077   7.371  1.0226  0.5622 -0.5884
   61bbb     H4 1592   1.567   1.949   7.254 -0.7237  0.0864 -1.2081
   61bbb     H5 1593   1.787   2.186   7.371 -2.1686 -1.3819 -0.5317
   61bbb     H6 1594   1.846   2.201   7.215 -0.3543 -2.6784  1.1166
   61bbb     H7 1595   1.326   2.027   7.186  2.1722  0.2247 -0.8359
   61bbb     H8 1596   1.323   2.114   7.340  0.3359  0.6024  0.5035
   61bbb     H9 1597   1.738   2.014   7.103  0.7686  0.5388 -0.3654
   61bbb    H10 1598   1.715   2.173   7.022 -2.0521  1.4837  0.2337
   61bbb    H11 1599   1.599   2.104   6.856 -0.9577  0.7052 -0.8874
   61bbb    H12 1600   1.476   2.054   6.969 -0.0787  0.0939 -2.3022
   61bbb    H13 1601   1.522   1.834   6.911 -0.1230  0.4823 -0.2028
   61bbb    H25 1602   1.493   2.183   7.124  0.7797  0.0728 -1.8743
   62ccc     N1 1603   1.722   1.516   2.906  0.1433 -0.6541  0.1407
   62ccc     H4 1604   1.639   1.488   2.855  1.3853 -1.1768 -1.7200
   62ccc     C3 1605   1.720   1.557   3.046  0.5445  0.5255 -0.3107
   62ccc     H5 1606   1.814   1.608   3.071 -0.0291  0.4806  2.2273
   62ccc     C4 1607   1.683   1.443   3.142 -0.2247 -0.0038  0.8173
   62ccc     H6 1608   1.646   1.636   3.060 -0.5341 -0.4862 -0.2416
   62ccc     H7 1609   1.579   1.414   3.123 -0.1083 -1.2329  1.9100
   62ccc     H8 1610   1.687   1.471   3.248 -1.3425 -1.9384  1.4272
   62ccc     N2 1611   1.780   1.327   3.120 -0.4845 -0.1431  0.0508
   62ccc     C5 1612   1.729   1.198   3.187 -0.5379 -0.0381  0.2310
   62ccc     C6 1613   1.917   1.354   3.187  0.2465 -0.5503  0.7716
   62ccc     H9 1614   1.952   1.447   3.142  1.7321 -0.4033  2.1180
   62ccc     C7 1615   2.013   1.236   3.160  0.6098  0.3684  0.0219
   62ccc    H10 1616   1.915   1.356   3.297  0.5054  1.7703  0.7765
   62ccc    H11 1617   2.020   1.207   3.054 -2.4574 -0.0495 -0.1507
   62ccc    H12 1618   1.972   1.148   3.212  0.1023  1.8414  2.2363
   62ccc     C8 1619   2.155   1.271   3.217  0.3833 -0.2038  0.4277
   62ccc     O2 1620   2.198   1.384   3.230  0.4565  0.3693 -0.2571
   62ccc    H13 1621   1.784   1.114   3.142 -1.2985 -0.2023 -0.4110
   62ccc    H14 1622   1.625   1.190   3.152 -0.3775  2.6456 -1.1325
   62ccc     C9 1623   1.715   1.192   3.341 -0.3401  0.4465 -0.0928
   62ccc    H15 1624   1.656   1.271   3.388  1.4264  0.5645  2.1123
   62ccc    H16 1625   1.811   1.200   3.394 -0.6094 -0.2916  0.5219
   62ccc    C10 1626   1.653   1.062   3.378  0.1711  0.7496 -0.2377
   62ccc     O4 1627   1.622   0.969   3.304 -0.3965  0.7588 -0.6673
   62ccc    C11 1628   2.633   1.260   3.346 -0.2567  0.9538 -0.4439
   62ccc    C12 1629   2.533   1.246   3.473  0.8255 -0.4151  1.1333
   62ccc    H17 1630   2.632   1.363   3.309  0.1698  1.2543  0.3451
   62ccc    C13 1631   2.385   1.261   3.433  0.4191  0.6534  0.2731
   62ccc    C14 1632   2.368   1.169   3.301  0.4688  1.0636 -0.6177
   62ccc    C15 1633   2.468   1.183   3.182  0.1232 -0.0666 -0.2735
   62ccc    H18 1634   2.390   1.068   3.338  2.8908  1.4165 -0.9453
   62ccc    H19 1635   2.360   1.367   3.414 -1.3098 -0.0968 -2.1705
   62ccc    H20 1636   2.465   1.280   3.131  0.0846  0.9504  1.5961
   62ccc     O1 1637   2.448   1.075   3.093  0.1290 -0.0141  0.6431
   62ccc     O6 1638   2.311   1.205   3.537 -0.5059  0.1264 -0.0585
   62ccc    C16 1639   2.774   1.228   3.386 -0.3426 -0.8641 -0.5884
   62ccc    H21 1640   2.299   1.273   3.606 -0.8767 -0.2372  0.2429
   62ccc    H22 1641   2.198   1.079   3.205 -1.2398  1.6297 -3.1361
   62ccc    H23 1642   2.818   1.294   3.461  1.9530 -1.3903 -1.3663
   62ccc    H24 1643   2.837   1.227   3.296  0.9110  0.5192  0.2314
   62ccc     O7 1644   2.780   1.093   3.435  0.0860 -0.1501  0.0601
   62ccc    H25 1645   2.726   1.048   3.368  1.4034  0.7204 -1.6701
   62ccc     O8 1646   2.595   1.165   3.243 -0.0476 -0.4473  0.0827
   62ccc    H26 1647   2.367   1.095   3.044 -0.4798  1.4839  2.1811
   62ccc    H27 1648   2.545   1.146   3.517  1.0054 -1.0475 -0.2764
   62ccc     O9 1649   2.562   1.343   3.579  0.2376  0.2482  0.1990
   62ccc    H28 1650   2.492   1.327   3.645  0.9662 -0.7097  0.7631
   62ccc     N3 1651   2.228   1.166   3.248  0.4501 -0.2147 -0.1926
   62ccc    C17 1652   1.287   0.820   3.842  0.1258  0.6216  0.3305
   62ccc    C18 1653   1.233   0.834   3.651 -1.0132 -0.6826  0.2237
   62ccc    H29 1654   1.237   0.904   3.893  0.6843  1.8524 -1.0557
   62ccc    C19 1655   1.367   0.896   3.515 -0.7268  0.5599  0.0196
   62ccc    C20 1656   1.555   0.937   3.572  0.1937 -0.2582  0.3964
   62ccc    C21 1657   1.606   0.927   3.766  0.2018  0.4400  0.1017
   62ccc    H30 1658   1.614   0.864   3.514 -0.2567  1.1188 -1.9268
   62ccc    H31 1659   1.322   0.984   3.467 -1.1446  0.7366  0.7227
   62ccc    H32 1660   1.626   1.034   3.785  1.3356  0.3068 -0.2587
   62ccc    O10 1661   1.727   0.855   3.791  0.6579  0.0484  0.6811
   62ccc    O11 1662   1.377   0.809   3.402 -0.2394  0.2458  0.0457
   62ccc    C22 1663   1.223   0.692   3.915 -0.1687 -0.1539  0.2611
   62ccc    H33 1664   1.287   0.810   3.363  0.3681  2.6482 -1.5062
   62ccc    H34 1665   1.649   1.124   3.572 -2.9615  0.8347  0.1453
   62ccc    H35 1666   1.246   0.598   3.864 -0.8035  1.0830 -2.4766
   62ccc    H36 1667   1.114   0.706   3.911 -0.4244 -1.5641  1.5326
   62ccc    O12 1668   1.270   0.679   4.049 -0.1706 -0.4469  0.0820
   62ccc    H37 1669   1.228   0.595   4.077  0.9317 -0.9415  0.3112
   62ccc    O13 1670   1.471   0.858   3.885 -0.0191 -0.5635 -0.4152
   62ccc    H38 1671   1.689   0.771   3.761  2.1980 -0.4539  0.0483
   62ccc    H39 1672   1.211   0.732   3.617 -0.1159 -0.7945 -0.0593
   62ccc     O5 1673   1.115   0.912   3.638  0.4316 -0.3872 -0.1540
   62ccc    H40 1674   1.035   0.860   3.658  0.0651  0.5029  0.7957
   62ccc     N4 1675   1.621   1.050   3.508 -0.4688 -0.1356  0.0354
   62ccc    H41 1676   1.801   1.308   3.021 -0.6758  0.3830 -0.0950
   63ccc     N1 1677   1.815   1.769   2.251  0.0245 -0.5087  0.2419
   63ccc     H4 1678   1.745   1.765   2.324  1.3123  2.8622  1.8759
   63ccc     C3 1679   1.784   1.789   2.109  0.0700 -0.0468 -0.7633
   63ccc     H5 1680   1.872   1.765   2.049 -0.5689 -1.2607 -1.2280
   63ccc     C4 1681   1.739   1.943   2.090 -0.3020  0.2370 -0.7925
   63ccc     H6 1682   1.701   1.722   2.086  1.0516 -1.3634 -0.6194
   63ccc     H7 1683   1.652   1.959   2.154  0.5485  0.9080  0.2460
   63ccc     H8 1684   1.702   1.957   1.988 -1.1832  3.0798 -0.1833
   63ccc     N2 1685   1.858   2.039   2.118 -0.3220  0.1855  0.0713
   63ccc     C5 1686   1.817   2.174   2.169 -0.3647 -0.5284 -0.6896
   63ccc     C6 1687   1.948   2.052   2.005  0.3469  0.3410  0.0298
   63ccc     H9 1688   1.977   1.957   1.958  0.7978  0.9449 -0.9587
   63ccc     C7 1689   2.084   2.115   2.025 -1.0369  0.2724 -0.2985
   63ccc    H10 1690   1.893   2.103   1.925  0.5496  0.1821 -0.2125
   63ccc    H11 1691   2.084   2.222   2.049  1.7948  0.4712 -0.8764
   63ccc    H12 1692   2.136   2.124   1.929  0.1346 -1.8184  0.0835
   63ccc     C8 1693   2.179   2.034   2.111  0.3581 -0.5732 -0.0943
   63ccc     O2 1694   2.234   1.932   2.076  0.2625 -0.2805  0.2648
   63ccc    H13 1695   1.761   2.227   2.092  1.4784  0.1514 -1.6241
   63ccc    H14 1696   1.901   2.241   2.190 -1.3636  0.5957 -0.1966
   63ccc     C9 1697   1.732   2.175   2.296  0.5431 -0.1859  0.0872
   63ccc    H15 1698   1.630   2.137   2.283  0.0797  1.0312  0.0202
   63ccc    H16 1699   1.719   2.281   2.321 -2.0928 -0.2971 -0.5085
   63ccc    C10 1700   1.796   2.103   2.408 -0.6960  0.2350  0.0303
   63ccc     O4 1701   1.903   2.044   2.395 -1.0367 -0.7312  0.6864
   63ccc    C11 1702   2.509   2.204   2.494  0.6368  0.4158 -0.3912
   63ccc    C12 1703   2.379   2.128   2.556  0.2151  0.1431 -0.3456
   63ccc    H17 1704   2.471   2.299   2.453  2.5286  1.3009 -0.1812
   63ccc    C13 1705   2.275   2.106   2.449  0.2802  0.5325  0.2758
   63ccc    C14 1706   2.326   2.072   2.305 -0.1248  0.4140 -0.6983
   63ccc    C15 1707   2.465   2.133   2.268  0.1465  0.3705  0.3079
   63ccc    H18 1708   2.326   1.962   2.307 -0.5812  0.4166 -0.3040
   63ccc    H19 1709   2.222   2.202   2.443 -1.6377 -0.5371 -1.3215
   63ccc    H20 1710   2.447   2.235   2.234 -0.9560  0.7913  2.0342
   63ccc     O1 1711   2.533   2.052   2.175 -0.1447  0.5407  0.6307
   63ccc     O6 1712   2.172   2.016   2.492  0.6709 -0.2717 -0.1562
   63ccc    C16 1713   2.624   2.217   2.601 -1.2577 -0.8513 -0.2101
   63ccc    H21 1714   2.094   2.052   2.446  1.1232  0.5390 -0.3011
   63ccc    H22 1715   2.188   2.200   2.235 -2.0052 -0.7071  0.0283
   63ccc    H23 1716   2.664   2.117   2.621 -0.6390 -0.8249 -1.2797
   63ccc    H24 1717   2.596   2.259   2.699 -0.2643  1.3899 -0.8099
   63ccc     O7 1718   2.730   2.305   2.554 -0.1174  0.3111 -0.8392
   63ccc    H25 1719   2.784   2.302   2.635 -0.0541  1.2663 -0.8272
   63ccc     O8 1720   2.549   2.124   2.385 -0.1854  0.2233 -0.2799
   63ccc    H26 1721   2.617   2.027   2.217  2.6649  0.6652 -4.1761
   63ccc    H27 1722   2.412   2.029   2.587  1.0596  0.1164 -1.2822
   63ccc     O9 1723   2.331   2.204   2.670 -0.5215  0.3562 -0.6594
   63ccc    H28 1724   2.243   2.175   2.701  0.0035  2.1640  3.0906
   63ccc     N3 1725   2.215   2.103   2.219  0.0767 -0.2309  0.4214
   63ccc    C17 1726   1.738   1.980   2.938 -0.8637 -0.0553  0.2980
   63ccc    C18 1727   1.700   1.877   2.840  0.1852  0.0723  0.5743
   63ccc    H29 1728   1.654   2.048   2.958 -1.6594 -0.3990 -1.6976
   63ccc    C19 1729   1.678   1.933   2.698 -0.2323 -0.7643  0.5065
   63ccc    C20 1730   1.784   2.037   2.650 -0.6153  0.2289  0.3988
   63ccc    C21 1731   1.817   2.137   2.760  0.0344 -0.1260  0.3395
   63ccc    H30 1732   1.878   1.983   2.636 -1.5031 -1.9932  2.3524
   63ccc    H31 1733   1.574   1.969   2.685  0.8256  2.2506 -0.5466
   63ccc    H32 1734   1.734   2.205   2.776 -0.5759 -0.9894  0.9577
   63ccc    O10 1735   1.940   2.204   2.727  0.2805 -0.3103  0.0054
   63ccc    O11 1736   1.681   1.829   2.608 -0.0508 -0.4120  0.3743
   63ccc    C22 1737   1.785   1.937   3.079  0.1675 -0.8953 -0.6355
   63ccc    H33 1738   1.597   1.820   2.560 -0.0194 -0.9059  0.4029
   63ccc    H34 1739   1.645   2.150   2.541  0.5264  1.9598 -0.6651
   63ccc    H35 1740   1.703   1.892   3.137 -2.0333  4.6363  1.1388
   63ccc    H36 1741   1.791   2.023   3.147 -0.1813 -1.4377  0.0995
   63ccc    O12 1742   1.911   1.869   3.080  0.0265  0.1614  0.6527
   63ccc    H37 1743   1.971   1.926   3.029  0.3678  2.6024  3.4853
   63ccc    O13 1744   1.841   2.072   2.884 -0.1065 -0.0576 -0.5678
   63ccc    H38 1745   1.964   2.237   2.815 -1.2633 -0.3798  0.4771
   63ccc    H39 1746   1.781   1.803   2.848  0.5510  0.1698 -1.6277
   63ccc     O5 1747   1.576   1.829   2.892  0.0218 -0.0509 -0.3524
   63ccc    H40 1748   1.537   1.763   2.831 -0.1781  0.4192 -0.7389
   63ccc     N4 1749   1.733   2.101   2.526 -0.0354  0.6396  0.1500
   63ccc    H41 1750   1.904   1.998   2.201 -2.5877 -0.6970  0.9477
   64ccc     N1 1751   1.434   2.176   3.686  0.0489  0.2986  0.8990
   64ccc     H4 1752   1.429   2.266   3.639 -1.1974  0.0970  0.6197
   64ccc     C3 1753   1.307   2.118   3.728 -0.4205  0.1383 -0.5706
   64ccc     H5 1754   1.331   2.059   3.817  0.0463 -0.7927 -1.2927
   64ccc     C4 1755   1.251   2.022   3.626 -0.2256  0.2879  0.2134
   64ccc     H6 1756   1.226   2.187   3.754 -1.5749 -1.0263 -0.9465
   64ccc     H7 1757   1.267   2.066   3.527 -1.0371  1.1757  0.4617
   64ccc     H8 1758   1.142   2.013   3.640  0.0606 -0.3568  2.4237
   64ccc     N2 1759   1.291   1.871   3.633 -0.0300  0.2394  0.7306
   64ccc     C5 1760   1.244   1.809   3.764  0.5281  0.3687  0.0604
   64ccc     C6 1761   1.445   1.838   3.605  0.0486  0.1407  0.0184
   64ccc     H9 1762   1.492   1.930   3.568 -0.1044 -0.0466 -0.6504
   64ccc     C7 1763   1.468   1.737   3.492  0.5650  0.1252  0.9906
   64ccc    H10 1764   1.493   1.803   3.697 -2.0757  0.0605  1.1667
   64ccc    H11 1765   1.459   1.783   3.393 -2.8521 -0.1217  1.0698
   64ccc    H12 1766   1.404   1.648   3.487 -0.0547  0.5056  1.9084
   64ccc     C8 1767   1.613   1.680   3.503  0.2955  0.1794  0.3811
   64ccc     O2 1768   1.644   1.567   3.535 -0.4296 -0.4783 -0.1784
   64ccc    H13 1769   1.162   1.867   3.808 -0.8105 -1.3085 -0.1125
   64ccc    H14 1770   1.322   1.837   3.836  0.0460 -1.8351  1.5431
   64ccc     C9 1771   1.211   1.657   3.770  0.1882 -0.9202  0.2367
   64ccc    H15 1772   1.170   1.632   3.671 -0.8716  2.1172 -0.2000
   64ccc    H16 1773   1.133   1.637   3.843 -0.0209 -0.2126  0.2191
   64ccc    C10 1774   1.325   1.566   3.788 -0.5445  0.3587 -0.1153
   64ccc     O4 1775   1.441   1.602   3.800  0.4790  1.3023 -0.2118
   64ccc    C11 1776   2.074   1.657   3.665 -0.1324 -0.5854  0.2469
   64ccc    C12 1777   2.077   1.649   3.516 -0.0785  0.2790  0.3762
   64ccc    H17 1778   2.036   1.563   3.707 -1.6523  0.2961  0.9073
   64ccc    C13 1779   1.932   1.647   3.465 -0.1623 -0.0485 -0.1314
   64ccc    C14 1780   1.846   1.765   3.521  0.0595  0.4848  0.4519
   64ccc    C15 1781   1.855   1.762   3.672  0.3081 -0.1209 -0.0555
   64ccc    H18 1782   1.897   1.855   3.486  2.1158 -0.1376  1.6608
   64ccc    H19 1783   1.889   1.554   3.505  0.4269 -0.1575  0.2705
   64ccc    H20 1784   1.809   1.671   3.713 -1.8638 -0.0994 -2.1947
   64ccc     O1 1785   1.792   1.873   3.718  0.0262  0.1960  0.1032
   64ccc     O6 1786   1.934   1.644   3.319 -0.6764  0.1706  0.0676
   64ccc    C16 1787   2.216   1.671   3.724 -0.5010 -0.3066  0.6306
   64ccc    H21 1788   1.947   1.734   3.285  1.2558  1.0468  2.6967
   64ccc    H22 1789   1.679   1.862   3.441 -0.9668  0.1148  1.2105
   64ccc    H23 1790   2.279   1.583   3.705  1.0573  0.7734  0.5881
   64ccc    H24 1791   2.208   1.681   3.833  0.2825  1.6828  0.5411
   64ccc     O7 1792   2.288   1.786   3.668 -0.3058  0.2108 -0.3002
   64ccc    H25 1793   2.290   1.849   3.742  1.1063  1.7515 -1.5761
   64ccc     O8 1794   1.995   1.775   3.700 -0.2313  0.3088 -0.1080
   64ccc    H26 1795   1.869   1.932   3.724 -0.0367  0.5554 -1.8288
   64ccc    H27 1796   2.132   1.739   3.483  0.7872  0.4081  2.0606
   64ccc     O9 1797   2.147   1.530   3.468 -0.0299 -0.0746  0.2558
   64ccc    H28 1798   2.131   1.531   3.372 -0.3719  0.4062  0.3152
   64ccc     N3 1799   1.707   1.768   3.469  0.4113  0.2165  0.2646
   64ccc    C17 1800   1.386   1.007   3.727  0.0366 -0.7059 -0.3739
   64ccc    C18 1801   1.377   1.148   3.634  0.9437  0.7205  0.0623
   64ccc    H29 1802   1.282   1.017   3.759 -0.2424 -1.2280 -1.0757
   64ccc    C19 1803   1.444   1.283   3.680  0.1413 -0.6926  0.1140
   64ccc    C20 1804   1.396   1.330   3.820 -0.2435  0.2843  0.8065
   64ccc    C21 1805   1.353   1.205   3.907 -0.2129 -0.2790  0.0410
   64ccc    H30 1806   1.487   1.364   3.872  0.1025  0.7908 -0.1181
   64ccc    H31 1807   1.401   1.360   3.614 -1.5153 -1.7882 -0.1453
   64ccc    H32 1808   1.244   1.205   3.903 -0.2550  1.5978  0.1485
   64ccc    O10 1809   1.398   1.217   4.044 -0.1644 -0.3018 -0.5350
   64ccc    O11 1810   1.586   1.275   3.670 -0.2751  0.1919 -0.3200
   64ccc    C22 1811   1.455   0.755   3.687  0.6781  0.2648 -0.5308
   64ccc    H33 1812   1.619   1.366   3.665 -0.8905  0.4019 -0.6413
   64ccc    H34 1813   1.212   1.390   3.772 -0.4168  0.1150  0.3077
   64ccc    H35 1814   1.408   0.693   3.609  1.1001 -1.7944  0.7898
   64ccc    H36 1815   1.423   0.679   3.760  0.2250  1.7686  0.8918
   64ccc    O12 1816   1.584   0.692   3.657  0.0514 -0.1872  0.0148
   64ccc    H37 1817   1.569   0.599   3.634 -0.0678 -0.5497  1.4661
   64ccc    O13 1818   1.420   1.088   3.855 -0.1530 -0.7304  0.6254
   64ccc    H38 1819   1.396   1.127   4.081  0.3109 -0.1257 -0.0720
   64ccc    H39 1820   1.411   1.136   3.530  0.5414  0.2775 -0.0171
   64ccc     O5 1821   1.241   1.171   3.611 -0.4288  0.4950  0.0785
   64ccc    H40 1822   1.188   1.094   3.585  0.8144 -0.6088  0.6956
   64ccc     N4 1823   1.295   1.436   3.809 -0.1954 -0.3133  0.3600
   64ccc    H41 1824   1.234   1.827   3.560 -0.6342  0.9820  0.7462
   65ccc     N1 1825   2.164   2.543   3.829  0.2976  0.3336  0.3866
   65ccc     H4 1826   2.149   2.639   3.801 -1.4699  0.3152  1.1509
   65ccc     C3 1827   2.282   2.519   3.915  0.6304  0.5631 -0.6024
   65ccc     H5 1828   2.315   2.414   3.910 -1.9217 -0.3675  0.0786
   65ccc     C4 1829   2.242   2.546   4.061 -0.3424 -0.7665 -0.0997
   65ccc     H6 1830   2.360   2.586   3.878 -1.0491  2.0266 -1.6642
   65ccc     H7 1831   2.190   2.642   4.070 -0.0207 -0.7279  1.7435
   65ccc     H8 1832   2.336   2.546   4.119 -0.4961 -0.7153  0.1494
   65ccc     N2 1833   2.150   2.441   4.121  0.2917  0.6025 -0.0972
   65ccc     C5 1834   2.096   2.476   4.260  0.1702 -0.4089 -0.2034
   65ccc     C6 1835   2.212   2.300   4.129 -0.7163  0.0032 -0.2973
   65ccc     H9 1836   2.137   2.239   4.181  0.6985 -0.3800  1.3601
   65ccc     C7 1837   2.351   2.277   4.195  0.0983 -0.1290 -0.1900
   65ccc    H10 1838   2.228   2.266   4.026 -1.1792  1.0609 -0.7328
   65ccc    H11 1839   2.421   2.319   4.121 -1.5013  1.2362 -0.9871
   65ccc    H12 1840   2.381   2.172   4.202  1.1885  0.2596  2.0752
   65ccc     C8 1841   2.372   2.339   4.333  0.5078 -0.5795  0.6904
   65ccc     O2 1842   2.412   2.454   4.335  0.2385 -0.0565 -0.4448
   65ccc    H13 1843   2.180   2.509   4.322  0.1820  0.1233 -0.4991
   65ccc    H14 1844   2.055   2.385   4.306 -1.7383  0.2119 -0.5700
   65ccc     C9 1845   1.988   2.590   4.254  0.4880  0.1874  0.3624
   65ccc    H15 1846   1.892   2.557   4.214 -0.1882  1.8770  0.5100
   65ccc    H16 1847   2.013   2.678   4.193 -2.3724  1.3870  0.7744
   65ccc    C10 1848   1.955   2.635   4.394 -0.4979 -0.1988  0.3919
   65ccc     O4 1849   1.925   2.557   4.489 -0.1349  0.2640  0.0682
   65ccc    C11 1850   2.458   2.481   4.811 -0.4484  0.3996  0.5219
   65ccc    C12 1851   2.308   2.443   4.791  0.7446  0.3751  0.1859
   65ccc    H17 1852   2.468   2.581   4.768 -0.6429  0.0214 -0.4297
   65ccc    C13 1853   2.275   2.397   4.644  0.3771 -0.1131  0.3232
   65ccc    C14 1854   2.381   2.300   4.588  0.0552 -0.3407 -0.2213
   65ccc    C15 1855   2.522   2.359   4.609 -0.0848 -0.3205  0.2816
   65ccc    H18 1856   2.370   2.206   4.643  2.4945 -1.3257 -1.2900
   65ccc    H19 1857   2.260   2.486   4.581  1.7160 -1.5647 -2.1895
   65ccc    H20 1858   2.535   2.456   4.559  0.4170 -0.2290  0.5793
   65ccc     O1 1859   2.624   2.256   4.570  0.1570  0.2396 -0.3680
   65ccc     O6 1860   2.156   2.321   4.657 -0.4141 -0.0896  0.1387
   65ccc    C16 1861   2.493   2.484   4.957 -0.4203 -0.0511  0.5667
   65ccc    H21 1862   2.086   2.368   4.705 -0.3974 -1.6992  1.8704
   65ccc    H22 1863   2.339   2.168   4.440  2.0339 -0.0842 -0.4268
   65ccc    H23 1864   2.487   2.383   5.001  1.5005 -0.2215  0.5306
   65ccc    H24 1865   2.416   2.542   5.011 -1.4062  1.7584 -2.5573
   65ccc     O7 1866   2.613   2.552   4.980  0.3482 -0.2569  0.4257
   65ccc    H25 1867   2.626   2.632   4.925 -0.5068 -1.3547 -1.4465
   65ccc     O8 1868   2.540   2.381   4.750  0.9180 -0.0165  0.2350
   65ccc    H26 1869   2.632   2.256   4.473  2.3097  0.5858 -0.2430
   65ccc    H27 1870   2.283   2.358   4.856  0.7159  0.7342  0.6509
   65ccc     O9 1871   2.217   2.543   4.842  0.3833 -0.2130  0.3388
   65ccc    H28 1872   2.127   2.529   4.808 -0.5579  0.4391  2.4279
   65ccc     N3 1873   2.345   2.270   4.444 -0.1135  0.0621  0.3638
   65ccc    C17 1874   1.817   3.019   4.740 -0.3527 -0.7906 -0.4492
   65ccc    C18 1875   1.711   2.965   4.646  0.0771 -0.3558  0.4352
   65ccc    H29 1876   1.864   3.107   4.693  1.3131 -1.4139 -0.0315
   65ccc    C19 1877   1.772   2.931   4.507 -0.4794  1.0144  0.0725
   65ccc    C20 1878   1.879   2.824   4.534  0.0852 -0.1921 -0.3826
   65ccc    C21 1879   1.980   2.876   4.634 -0.2317  0.6066 -0.0737
   65ccc    H30 1880   1.820   2.745   4.582 -0.1355  0.4362  0.4026
   65ccc    H31 1881   1.824   3.015   4.459 -0.3375 -0.8138 -3.3218
   65ccc    H32 1882   2.034   2.966   4.602 -0.6497  1.0608  0.4669
   65ccc    O10 1883   2.071   2.775   4.672 -0.4863  0.0429 -0.1254
   65ccc    O11 1884   1.686   2.884   4.402  0.0800  0.1114  0.3368
   65ccc    C22 1885   1.758   3.053   4.883  0.0645  0.1031  0.3664
   65ccc    H33 1886   1.623   2.957   4.385 -0.3593 -0.5041 -0.7566
   65ccc    H34 1887   1.949   2.829   4.339 -0.2078  0.9758  0.8115
   65ccc    H35 1888   1.702   3.148   4.878 -0.4576 -0.2236 -0.1607
   65ccc    H36 1889   1.847   3.079   4.941  0.7203  0.4458 -0.7520
   65ccc    O12 1890   1.681   2.949   4.935  0.0455  0.2646 -0.2042
   65ccc    H37 1891   1.642   2.988   5.015  0.6169  0.0349  0.1865
   65ccc    O13 1892   1.916   2.920   4.754 -0.2764  0.3073 -0.1545
   65ccc    H38 1893   2.130   2.818   4.737 -2.0238 -0.5780  1.7890
   65ccc    H39 1894   1.660   2.874   4.681 -2.7667  0.9605 -0.0243
   65ccc     O5 1895   1.613   3.072   4.629  0.4037 -0.2688  0.1300
   65ccc    H40 1896   1.587   3.072   4.535 -2.3682 -1.3865  0.7992
   65ccc     N4 1897   1.948   2.764   4.417  0.2396 -0.1448 -0.0742
   65ccc    H41 1898   2.073   2.434   4.052 -0.2357  0.4747  0.4954
   66ccc     N1 1899   2.831   1.283   2.513 -0.2514  0.6193 -0.7619
   66ccc     H4 1900   2.850   1.374   2.472 -0.0572  1.8744  1.8981
   66ccc     C3 1901   2.685   1.256   2.556  0.2101  0.5821  0.0050
   66ccc     H5 1902   2.617   1.306   2.486  1.5460  0.7635 -1.2268
   66ccc     C4 1903   2.634   1.302   2.692  1.0033  0.2030 -0.3424
   66ccc     H6 1904   2.665   1.149   2.542 -0.1842  0.6738 -0.1387
   66ccc     H7 1905   2.531   1.271   2.714  1.5265 -1.4022 -0.0218
   66ccc     H8 1906   2.638   1.411   2.688  0.9065  0.1840 -1.1014
   66ccc     N2 1907   2.723   1.267   2.805 -0.0522  0.3814 -0.1631
   66ccc     C5 1908   2.734   1.116   2.823 -0.2512  0.3409  0.5219
   66ccc     C6 1909   2.675   1.335   2.939 -0.8669 -0.1888  0.0646
   66ccc     H9 1910   2.573   1.303   2.965 -1.5653  2.6199  1.1024
   66ccc     C7 1911   2.682   1.490   2.936 -0.1203 -0.1381  0.3535
   66ccc    H10 1912   2.750   1.305   3.013  0.2013  0.4677 -0.7188
   66ccc    H11 1913   2.598   1.548   2.896  0.3705  2.9595  3.3248
   66ccc    H12 1914   2.770   1.521   2.878  0.4350 -1.3485  0.5253
   66ccc     C8 1915   2.696   1.546   3.079  0.6859 -0.2747 -0.4137
   66ccc     O2 1916   2.611   1.526   3.166  0.1993  0.3143  0.3522
   66ccc    H13 1917   2.726   1.067   2.726  2.0253  0.1388  0.3808
   66ccc    H14 1918   2.650   1.078   2.882  0.5499  0.0697  1.5320
   66ccc     C9 1919   2.868   1.063   2.887  0.2303  0.2855  0.6785
   66ccc    H15 1920   2.880   1.117   2.982 -0.3072  1.9669 -0.1784
   66ccc    H16 1921   2.949   1.087   2.817 -0.1478 -1.5966 -0.4854
   66ccc    C10 1922   2.878   0.912   2.898 -0.3432 -0.1625 -0.2322
   66ccc     O4 1923   2.783   0.837   2.881 -0.1834 -0.0845 -0.8025
   66ccc    C11 1924   2.976   1.898   3.375  0.4620 -0.3377 -0.7102
   66ccc    C12 1925   2.845   1.939   3.296  0.1792  0.4763 -0.3700
   66ccc    H17 1926   3.068   1.929   3.324  2.0175  0.0789  2.1621
   66ccc    C13 1927   2.818   1.851   3.170  0.3741  0.2691  0.5932
   66ccc    C14 1928   2.829   1.705   3.219  0.0619 -0.0871 -0.0845
   66ccc    C15 1929   2.960   1.676   3.292  0.1601  0.2921  0.4943
   66ccc    H18 1930   2.748   1.689   3.291 -0.1482 -0.3939 -0.3879
   66ccc    H19 1931   2.883   1.871   3.083 -0.2962  0.4387  0.1256
   66ccc    H20 1932   3.044   1.691   3.224 -0.8014  0.4248 -0.6907
   66ccc     O1 1933   2.959   1.544   3.328 -0.3560 -0.0401 -0.3992
   66ccc     O6 1934   2.685   1.876   3.129 -0.0724  0.2078 -0.0766
   66ccc    C16 1935   2.985   1.969   3.514 -0.3301 -0.4047 -0.2111
   66ccc    H21 1936   2.678   1.882   3.032 -1.2851 -1.4922 -0.1450
   66ccc    H22 1937   2.876   1.628   3.032 -2.0256  0.5012 -0.8800
   66ccc    H23 1938   2.916   1.917   3.581 -0.1852 -0.5623 -0.1818
   66ccc    H24 1939   2.956   2.074   3.501 -1.0401 -0.5396  0.2740
   66ccc     O7 1940   3.121   1.966   3.572  0.4699 -0.1553  0.3072
   66ccc    H25 1941   3.168   2.041   3.532 -2.7889  2.2234  0.5330
   66ccc     O8 1942   2.966   1.760   3.406 -0.3796 -0.0489  0.0718
   66ccc    H26 1943   2.895   1.538   3.402 -0.4450  0.2768 -0.4473
   66ccc    H27 1944   2.764   1.909   3.363  0.3821 -2.4601 -1.3040
   66ccc     O9 1945   2.857   2.078   3.261 -0.2495 -0.0803 -0.0113
   66ccc    H28 1946   2.768   2.115   3.250 -0.8276 -1.7622 -1.6740
   66ccc     N3 1947   2.812   1.610   3.110 -0.4503 -0.0186  0.3651
   66ccc    C17 1948   3.361   0.946   3.160  0.3650  0.3470  0.0263
   66ccc    C18 1949   3.367   0.934   3.002  0.3900 -0.1138  0.5025
   66ccc    H29 1950   3.351   0.844   3.201 -1.4402  0.5408  0.1473
   66ccc    C19 1951   3.248   0.875   2.933  0.5396  0.0997  0.5166
   66ccc    C20 1952   3.113   0.937   2.983 -0.1775  0.4968 -1.0988
   66ccc    C21 1953   3.116   0.939   3.143  0.5306 -0.2038 -0.5217
   66ccc    H30 1954   3.106   1.041   2.950 -3.6823  1.1912  1.2921
   66ccc    H31 1955   3.252   0.766   2.948 -1.8995 -0.2221 -0.6156
   66ccc    H32 1956   3.090   0.842   3.185 -0.7256  1.8427  4.0391
   66ccc    O10 1957   3.014   1.027   3.190  0.8941  0.0562 -0.4397
   66ccc    O11 1958   3.266   0.891   2.790 -0.0406 -0.2440  0.3552
   66ccc    C22 1959   3.478   1.024   3.234 -0.1756  0.0879  0.0483
   66ccc    H33 1960   3.268   0.802   2.751 -0.9717 -0.7839  1.4611
   66ccc    H34 1961   2.990   0.763   2.961  1.0957  0.1948  1.8214
   66ccc    H35 1962   3.492   1.125   3.192 -0.1566  1.3081  2.7388
   66ccc    H36 1963   3.575   0.978   3.215 -0.0798  0.9274 -1.7149
   66ccc    O12 1964   3.452   1.034   3.374  0.0861 -0.0590 -0.4271
   66ccc    H37 1965   3.415   0.948   3.402  0.0969  0.6613  2.0485
   66ccc    O13 1966   3.236   1.009   3.194 -0.4905  0.3048  0.0225
   66ccc    H38 1967   3.052   1.040   3.279  0.6459 -0.6364 -0.2261
   66ccc    H39 1968   3.388   1.037   2.970  0.4175 -0.2112  0.2046
   66ccc     O5 1969   3.482   0.854   2.975  0.2762 -0.1359  0.0569
   66ccc    H40 1970   3.493   0.854   2.879  3.3465  1.8663  0.2552
   66ccc     N4 1971   2.995   0.860   2.931 -0.2845 -0.1785  0.2252
   66ccc    H41 1972   2.819   1.305   2.793 -0.2341  0.9622  0.1792
   67ccc     N1 1973   3.728   1.234   2.461  0.3372  0.4726  0.2773
   67ccc     H4 1974   3.723   1.212   2.363  1.0693  0.9620  0.1232
   67ccc     C3 1975   3.817   1.349   2.491  0.1547 -0.0229 -0.4781
   67ccc     H5 1976   3.754   1.436   2.471 -1.0238 -1.2935 -2.8167
   67ccc     C4 1977   3.946   1.324   2.412  0.2923  0.7044  0.5834
   67ccc     H6 1978   3.843   1.353   2.597 -2.0180 -1.0459  0.1467
   67ccc     H7 1979   3.911   1.297   2.312 -1.1030  1.1127  0.9307
   67ccc     H8 1980   3.992   1.238   2.461  1.0500 -1.0366 -2.8825
   67ccc     N2 1981   4.044   1.430   2.390  0.2979 -0.6695 -0.2778
   67ccc     C5 1982   4.163   1.385   2.300  0.1381  0.0676 -0.0269
   67ccc     C6 1983   4.078   1.500   2.518 -0.0160 -0.8565 -0.0309
   67ccc     H9 1984   4.119   1.598   2.490  0.9597 -1.1383  0.3669
   67ccc     C7 1985   4.181   1.436   2.616 -0.8326  0.3999  0.0197
   67ccc    H10 1986   3.982   1.524   2.566 -0.4965  1.4520 -1.9789
   67ccc    H11 1987   4.226   1.512   2.681 -3.0988  0.5416  1.5188
   67ccc    H12 1988   4.270   1.407   2.558 -1.1873 -0.6218 -0.0427
   67ccc     C8 1989   4.127   1.313   2.697 -0.5117 -0.2640  0.2402
   67ccc     O2 1990   4.021   1.310   2.760  0.3586 -0.0928  0.2452
   67ccc    H13 1991   4.238   1.463   2.318  0.7960 -0.4634 -0.4311
   67ccc    H14 1992   4.124   1.390   2.198 -0.1767  0.1819  0.0982
   67ccc     C9 1993   4.233   1.253   2.324  0.3748  0.3036 -0.5958
   67ccc    H15 1994   4.164   1.171   2.300 -1.3317  1.6236 -0.3819
   67ccc    H16 1995   4.237   1.230   2.432 -0.1056 -1.1101 -0.8557
   67ccc    C10 1996   4.370   1.247   2.267 -0.1035 -0.4605  0.4899
   67ccc     O4 1997   4.418   1.339   2.210 -0.3429 -0.4596  0.1604
   67ccc    C11 1998   3.977   0.862   2.855 -0.3808  0.0277  0.8732
   67ccc    C12 1999   4.020   0.868   2.706 -0.4045 -0.5969  0.0608
   67ccc    H17 2000   3.878   0.908   2.862 -0.5926  0.0898 -1.6978
   67ccc    C13 2001   4.063   1.008   2.660 -0.0198 -0.2213  0.2894
   67ccc    C14 2002   4.165   1.075   2.755 -0.3108 -0.1871 -0.1970
   67ccc    C15 2003   4.103   1.068   2.903  0.2507  0.3044  0.0855
   67ccc    H18 2004   4.255   1.013   2.758  0.6078  0.9622 -2.2103
   67ccc    H19 2005   3.972   1.069   2.661  0.0004 -0.1916  0.8808
   67ccc    H20 2006   4.011   1.127   2.909 -0.9416 -0.7953 -3.9461
   67ccc     O1 2007   4.199   1.094   3.008  0.1601  0.0968 -0.1908
   67ccc     O6 2008   4.110   1.000   2.524  0.2151 -0.2520 -0.5411
   67ccc    C16 2009   3.973   0.714   2.908  0.1840  0.0201 -0.2840
   67ccc    H21 2010   4.033   0.989   2.464  0.7587 -2.5659 -0.9112
   67ccc    H22 2011   4.289   1.204   2.644 -1.9834 -1.4214 -2.6075
   67ccc    H23 2012   4.075   0.672   2.903 -0.1692 -0.8155 -0.6881
   67ccc    H24 2013   3.903   0.642   2.864 -0.4187  0.1427  0.4505
   67ccc     O7 2014   3.948   0.719   3.049  0.0791  0.1242  0.3197
   67ccc    H25 2015   3.861   0.762   3.058 -0.5748 -1.2580  1.0524
   67ccc     O8 2016   4.072   0.929   2.933 -0.3113 -0.5876  0.6894
   67ccc    H26 2017   4.269   1.032   2.985 -0.6345 -0.8831 -0.0433
   67ccc    H27 2018   4.102   0.797   2.689 -1.1628 -1.3591 -0.5206
   67ccc     O9 2019   3.911   0.827   2.623 -0.4031  0.0008 -0.1067
   67ccc    H28 2020   3.951   0.795   2.540  1.8643  2.2090  0.0434
   67ccc     N3 2021   4.210   1.209   2.709  0.2035 -1.1388  0.1894
   67ccc    C17 2022   4.592   0.834   2.517  0.0213  0.0126  0.6377
   67ccc    C18 2023   4.548   0.972   2.591 -0.0681  0.5862 -0.2495
   67ccc    H29 2024   4.693   0.850   2.479  0.2438 -2.8687 -0.2035
   67ccc    C19 2025   4.515   1.074   2.487 -0.7145  0.4769  0.1766
   67ccc    C20 2026   4.426   1.023   2.365  0.2470 -0.1157  0.5166
   67ccc    C21 2027   4.479   0.891   2.302 -0.1659  0.2430  0.4727
   67ccc    H30 2028   4.324   1.011   2.405 -0.0058 -1.6925 -0.4791
   67ccc    H31 2029   4.604   1.115   2.437 -0.5712  2.5029  1.9500
   67ccc    H32 2030   4.572   0.905   2.245 -0.2242  0.2449  0.3782
   67ccc    O10 2031   4.388   0.833   2.212  0.0644  0.2219  0.5382
   67ccc    O11 2032   4.455   1.190   2.549 -0.3674 -0.4454 -0.0356
   67ccc    C22 2033   4.604   0.719   2.622 -0.1693 -0.6711  0.3094
   67ccc    H33 2034   4.530   1.241   2.583 -1.1119  0.2772  0.5754
   67ccc    H34 2035   4.516   1.123   2.206 -1.3190 -1.9846 -0.9631
   67ccc    H35 2036   4.508   0.703   2.672 -0.7395 -1.3898 -0.9675
   67ccc    H36 2037   4.674   0.737   2.704 -0.0750 -2.2689  0.6075
   67ccc    O12 2038   4.636   0.603   2.547  0.0764 -0.3907 -0.0309
   67ccc    H37 2039   4.576   0.591   2.472 -1.0178 -0.1992  0.7841
   67ccc    O13 2040   4.501   0.798   2.404 -0.0686  0.0588 -0.3642
   67ccc    H38 2041   4.439   0.763   2.166 -0.3671  1.2443 -1.6097
   67ccc    H39 2042   4.453   0.952   2.642 -1.2538  1.1867 -2.1228
   67ccc     O5 2043   4.645   1.019   2.686  0.0878  0.0097 -0.0178
   67ccc    H40 2044   4.596   1.090   2.731  0.2354 -0.6788  1.2658
   67ccc     N4 2045   4.429   1.131   2.259 -0.3658  0.5411  0.4086
   67ccc    H41 2046   3.993   1.497   2.330 -0.4669  0.0547  1.1351
   68ccc     N1 2047   4.223   2.488   3.741  0.4515 -0.0552  0.4284
   68ccc     H4 2048   4.131   2.528   3.754  0.1319 -1.1304  1.7002
   68ccc     C3 2049   4.325   2.523   3.841 -0.6738  0.1156  0.3360
   68ccc     H5 2050   4.372   2.434   3.885  0.7954  0.8408  0.2818
   68ccc     C4 2051   4.282   2.625   3.939 -0.5710  0.4354 -0.6837
   68ccc     H6 2052   4.412   2.564   3.788 -0.7776 -0.0295  0.0503
   68ccc     H7 2053   4.367   2.636   4.007 -0.9745 -1.5527  0.2112
   68ccc     H8 2054   4.201   2.586   4.001  1.2401 -1.2813  0.7231
   68ccc     N2 2055   4.246   2.762   3.886  0.4715  0.2562  0.1239
   68ccc     C5 2056   4.352   2.835   3.797 -0.1425 -0.0128  0.5113
   68ccc     C6 2057   4.208   2.849   4.007  0.1305  0.5981 -0.2356
   68ccc     H9 2058   4.302   2.857   4.063 -0.2070  0.6587  0.3299
   68ccc     C7 2059   4.097   2.803   4.099  0.5541  1.1040 -0.1265
   68ccc    H10 2060   4.183   2.952   3.977  0.1944  0.5230 -0.5534
   68ccc    H11 2061   4.137   2.716   4.153  0.9125 -0.3295 -2.5628
   68ccc    H12 2062   4.008   2.767   4.045  1.0323  0.6147 -0.6073
   68ccc     C8 2063   4.054   2.904   4.212  0.8349  0.6908  0.6238
   68ccc     O2 2064   4.079   3.018   4.223 -0.4142 -0.6205  0.1999
   68ccc    H13 2065   4.302   2.926   3.763  0.6758 -0.1340 -1.1049
   68ccc    H14 2066   4.372   2.779   3.705  0.0206  0.4939  0.2334
   68ccc     C9 2067   4.486   2.872   3.861  0.5367 -0.3296 -0.3465
   68ccc    H15 2068   4.568   2.875   3.788  0.9529 -2.6218 -0.0523
   68ccc    H16 2069   4.525   2.801   3.935 -0.1003  0.4020  0.7241
   68ccc    C10 2070   4.485   3.008   3.926  0.7666 -0.5108  0.1573
   68ccc     O4 2071   4.420   3.102   3.890  0.6477  0.4998  0.0553
   68ccc    C11 2072   3.622   2.908   4.557  0.3283 -0.3142  0.5727
   68ccc    C12 2073   3.759   2.911   4.627  0.0675  0.1544 -0.1615
   68ccc    H17 2074   3.584   2.805   4.551 -1.8815  0.5013 -0.5077
   68ccc    C13 2075   3.871   2.846   4.534  0.1316  1.1051  0.4289
   68ccc    C14 2076   3.874   2.912   4.394 -0.2321  0.0020 -0.4644
   68ccc    C15 2077   3.731   2.895   4.345 -0.0479 -0.1093  0.3568
   68ccc    H18 2078   3.895   3.020   4.401 -0.5750  0.0010  0.9410
   68ccc    H19 2079   3.832   2.744   4.534  0.6201  0.8973  1.6043
   68ccc    H20 2080   3.695   2.794   4.324  1.2150 -0.8973  1.7512
   68ccc     O1 2081   3.710   2.974   4.226 -0.3126 -0.2576  0.3281
   68ccc     O6 2082   3.987   2.861   4.607 -0.8712  0.1754  0.1657
   68ccc    C16 2083   3.519   3.006   4.622  0.6089 -0.4594 -0.3331
   68ccc    H21 2084   3.974   2.814   4.692  0.0339 -0.0563  0.1795
   68ccc    H22 2085   3.946   2.744   4.294  0.3052  0.6779 -0.6204
   68ccc    H23 2086   3.544   3.111   4.604  0.2611 -0.5036 -1.1293
   68ccc    H24 2087   3.518   2.978   4.728 -1.4466 -0.0247 -0.2041
   68ccc     O7 2088   3.394   2.978   4.563  0.5490 -0.2838  0.3972
   68ccc    H25 2089   3.359   2.901   4.611 -3.3485  0.3789 -1.0320
   68ccc     O8 2090   3.647   2.966   4.427  0.4550  0.0815  0.0384
   68ccc    H26 2091   3.613   2.978   4.229 -0.4983  0.7811 -2.9642
   68ccc    H27 2092   3.782   3.018   4.631  3.1773 -0.4423  0.3689
   68ccc     O9 2093   3.757   2.846   4.759 -0.2570 -0.5260  0.5380
   68ccc    H28 2094   3.840   2.796   4.765  0.9207  0.9414 -2.0442
   68ccc     N3 2095   3.970   2.843   4.302 -0.4247  0.8087  0.0461
   68ccc    C17 2096   4.453   3.381   4.206  0.1834  0.2134 -0.4743
   68ccc    C18 2097   4.407   3.258   4.290  0.3317 -0.5585 -0.2728
   68ccc    H29 2098   4.387   3.392   4.119 -0.3314  1.6883  0.0724
   68ccc    C19 2099   4.413   3.132   4.205 -0.6503 -0.3050 -0.1731
   68ccc    C20 2100   4.554   3.121   4.139  0.1181  0.2224  0.5493
   68ccc    C21 2101   4.596   3.257   4.068  0.3261 -0.0035 -0.2937
   68ccc    H30 2102   4.618   3.112   4.228 -0.3748  1.6809  1.0913
   68ccc    H31 2103   4.338   3.154   4.128 -0.3773  3.9938  0.4980
   68ccc    H32 2104   4.543   3.276   3.973  1.7075  1.4742 -0.8168
   68ccc    O10 2105   4.730   3.254   4.026 -0.0728  0.0308 -0.5076
   68ccc    O11 2106   4.387   3.010   4.286 -0.0596 -0.3685  0.4197
   68ccc    C22 2107   4.450   3.515   4.277  0.0455  0.0084  0.2482
   68ccc    H33 2108   4.334   3.053   4.355  1.7245  4.3400 -0.7332
   68ccc    H34 2109   4.611   2.930   4.073 -0.4043 -0.2985  0.6072
   68ccc    H35 2110   4.529   3.515   4.353  0.2068 -0.2206  0.0816
   68ccc    H36 2111   4.361   3.509   4.341  0.9703  0.3069  1.6155
   68ccc    O12 2112   4.441   3.623   4.185  0.1856 -0.4145  0.0420
   68ccc    H37 2113   4.499   3.604   4.110  0.4313  0.1932  0.0740
   68ccc    O13 2114   4.586   3.364   4.158 -0.1709 -0.3032 -0.1704
   68ccc    H38 2115   4.738   3.334   3.972  1.2743 -0.0860 -0.5363
   68ccc    H39 2116   4.482   3.242   4.369  1.7523 -1.9326 -1.8038
   68ccc     O5 2117   4.270   3.274   4.333 -0.3555  0.0965  0.5001
   68ccc    H40 2118   4.235   3.198   4.382 -2.5274  1.2120  0.8007
   68ccc     N4 2119   4.565   3.013   4.037  0.1073 -0.2515  0.0330
   68ccc    H41 2120   4.161   2.748   3.829  1.5022  0.3935 -1.5046
   69ccc     N1 2121   4.580   2.227   3.071 -0.7047  0.3813 -0.4802
   69ccc     H4 2122   4.632   2.256   3.152 -1.8402  0.1136  0.3705
   69ccc     C3 2123   4.662   2.223   2.954  0.2812 -0.6698 -0.4633
   69ccc     H5 2124   4.762   2.184   2.975  0.5821  1.1282  1.8193
   69ccc     C4 2125   4.661   2.368   2.894  0.2410  0.0888  0.5291
   69ccc     H6 2126   4.620   2.152   2.881  1.1172 -1.3198 -0.3246
   69ccc     H7 2127   4.729   2.377   2.808 -1.0086 -0.3572 -0.5517
   69ccc     H8 2128   4.704   2.429   2.974  0.9346  0.0734  0.1816
   69ccc     N2 2129   4.527   2.423   2.859 -1.0176  0.2695  0.5977
   69ccc     C5 2130   4.484   2.358   2.723 -0.1964 -0.4272 -0.2547
   69ccc     C6 2131   4.520   2.573   2.842  0.2976 -0.1288 -0.1045
   69ccc     H9 2132   4.608   2.601   2.782 -0.4659 -0.8071 -1.5797
   69ccc     C7 2133   4.517   2.658   2.974 -0.1544 -0.4289 -0.2065
   69ccc    H10 2134   4.435   2.607   2.783  1.0034  0.5041 -0.7865
   69ccc    H11 2135   4.511   2.764   2.946  1.1552 -0.9146 -2.6028
   69ccc    H12 2136   4.613   2.646   3.025 -0.1979  2.7485  0.8151
   69ccc     C8 2137   4.398   2.618   3.065  0.4339  0.0269  0.3284
   69ccc     O2 2138   4.328   2.521   3.045  0.2596 -0.6001 -0.1203
   69ccc    H13 2139   4.524   2.257   2.709  1.1898  0.1074 -0.2312
   69ccc    H14 2140   4.527   2.423   2.646 -1.5272  2.8450  1.5427
   69ccc     C9 2141   4.332   2.368   2.697  0.2574  0.3289 -0.9072
   69ccc    H15 2142   4.295   2.468   2.725  2.8290  1.2854 -0.6190
   69ccc    H16 2143   4.273   2.301   2.761 -0.3324  1.6155 -0.0564
   69ccc    C10 2144   4.303   2.344   2.548  0.2958  0.1415  0.6201
   69ccc     O4 2145   4.290   2.446   2.471  0.6803  0.5731  0.3650
   69ccc    C11 2146   4.089   2.801   3.464  0.4587  0.4879 -0.7312
   69ccc    C12 2147   4.042   2.795   3.318 -0.0900 -0.0185  0.4933
   69ccc    H17 2148   4.134   2.900   3.482  2.1736 -0.7973  2.9051
   69ccc    C13 2149   4.154   2.791   3.211 -0.3849  0.3318 -0.3466
   69ccc    C14 2150   4.263   2.695   3.264 -0.5630  0.7625  0.0742
   69ccc    C15 2151   4.305   2.710   3.414 -0.1142 -0.0268  0.4029
   69ccc    H18 2152   4.214   2.597   3.259  0.7568  0.0629  0.3505
   69ccc    H19 2153   4.188   2.895   3.203  2.1663 -0.4802 -1.0788
   69ccc    H20 2154   4.350   2.809   3.423 -0.6837  0.3047 -0.2870
   69ccc     O1 2155   4.393   2.604   3.447  0.0270 -0.2100 -0.1208
   69ccc     O6 2156   4.110   2.742   3.086  0.3646  0.1142  0.3891
   69ccc    C16 2157   3.963   2.789   3.556  0.6939  0.1378 -0.1785
   69ccc    H21 2158   4.172   2.761   3.013 -1.8632  1.3092 -1.3491
   69ccc    H22 2159   4.446   2.766   3.205  1.0186 -0.5435  1.5382
   69ccc    H23 2160   3.912   2.699   3.520 -1.2593  2.2331 -3.1283
   69ccc    H24 2161   3.901   2.880   3.550  2.3587  1.4283  1.2637
   69ccc     O7 2162   3.996   2.782   3.697 -0.0608 -0.2217  0.3578
   69ccc    H25 2163   3.922   2.742   3.746 -1.4001 -0.1117 -1.4568
   69ccc     O8 2164   4.186   2.698   3.503  0.3780 -0.1748  0.4683
   69ccc    H26 2165   4.464   2.648   3.497  0.2543  1.1447 -1.5665
   69ccc    H27 2166   3.985   2.703   3.305  1.3872 -0.9312  0.2753
   69ccc     O9 2167   3.964   2.911   3.293  0.3772  0.0653 -0.0929
   69ccc    H28 2168   3.937   2.917   3.200  2.1451  1.9718 -0.5531
   69ccc     N3 2169   4.382   2.690   3.181  0.3182  0.2580  0.8202
   69ccc    C17 2170   4.406   2.126   2.099 -0.5842 -0.1904 -0.0491
   69ccc    C18 2171   4.484   2.057   2.217  0.7845  0.4237 -0.6531
   69ccc    H29 2172   4.448   2.226   2.084 -1.0369 -0.1328 -0.9727
   69ccc    C19 2173   4.474   2.133   2.351  0.1616  0.3067  0.0175
   69ccc    C20 2174   4.318   2.158   2.379 -0.0968 -0.5474 -0.7695
   69ccc    C21 2175   4.246   2.225   2.264 -1.0427  0.8023  0.4959
   69ccc    H30 2176   4.269   2.060   2.378 -0.1580 -0.5127 -1.5875
   69ccc    H31 2177   4.528   2.227   2.339 -0.4221  0.5271 -1.0423
   69ccc    H32 2178   4.295   2.319   2.236  0.3657  0.0302  0.3027
   69ccc    O10 2179   4.105   2.220   2.283  0.3738 -0.4161 -0.5215
   69ccc    O11 2180   4.531   2.058   2.462  0.7119 -0.4781 -0.4028
   69ccc    C22 2181   4.413   2.047   1.962 -0.1628  0.7322 -1.1723
   69ccc    H33 2182   4.628   2.062   2.456  0.8944 -1.3144  1.3047
   69ccc    H34 2183   4.318   2.140   2.575  0.9728  2.0278  1.4653
   69ccc    H35 2184   4.516   2.052   1.927  0.8879 -2.8570  0.8570
   69ccc    H36 2185   4.345   2.101   1.895 -1.8679  0.9677  0.6268
   69ccc    O12 2186   4.376   1.909   1.984  0.0553  0.2879 -0.0482
   69ccc    H37 2187   4.281   1.908   2.007 -0.3429  1.0109 -1.5503
   69ccc    O13 2188   4.270   2.139   2.150  0.3452 -0.4237 -0.0100
   69ccc    H38 2189   4.074   2.197   2.194  0.1990  1.8226 -1.1108
   69ccc    H39 2190   4.449   1.954   2.232 -0.2597  0.3181 -3.2227
   69ccc     O5 2191   4.621   2.044   2.175 -0.7926 -0.4437 -0.0875
   69ccc    H40 2192   4.648   1.953   2.156 -0.9706 -0.3786 -0.6722
   69ccc     N4 2193   4.288   2.216   2.513 -1.0572  0.3537  0.2527
   69ccc    H41 2194   4.459   2.390   2.929  0.2657 -1.1088  1.2539
   70ccc     N1 2195   3.701   3.003   5.500 -0.8822  0.0157 -0.6663
   70ccc     H4 2196   3.650   2.955   5.573  1.5033  0.5825  1.5281
   70ccc     C3 2197   3.641   3.032   5.366  0.1799  0.6724 -0.1963
   70ccc     H5 2198   3.699   3.116   5.325  1.1122  0.9279  1.5335
   70ccc     C4 2199   3.489   3.051   5.369  0.2911 -0.7698  0.4248
   70ccc     H6 2200   3.659   2.941   5.309  2.1973  1.5006 -0.9815
   70ccc     H7 2201   3.466   3.156   5.391  0.3071 -0.1800 -2.0390
   70ccc     H8 2202   3.447   2.991   5.450  1.1100 -1.0212  0.6679
   70ccc     N2 2203   3.400   3.035   5.244  0.9461  0.1358 -0.5987
   70ccc     C5 2204   3.420   3.129   5.129 -0.6048  0.5533 -0.6348
   70ccc     C6 2205   3.247   3.027   5.268  0.1335  0.3090 -0.6226
   70ccc     H9 2206   3.196   2.968   5.191  0.9340  1.1987 -1.8552
   70ccc     C7 2207   3.174   3.160   5.304 -0.1393 -0.3233  0.2868
   70ccc    H10 2208   3.220   2.968   5.356  0.2847  0.4195 -0.5012
   70ccc    H11 2209   3.145   3.215   5.214 -4.7708 -1.0227  1.0961
   70ccc    H12 2210   3.235   3.228   5.365 -1.8757  0.2808  1.4441
   70ccc     C8 2211   3.036   3.142   5.362  0.8686 -0.2781  0.0198
   70ccc     O2 2212   2.988   3.042   5.405 -0.1064 -0.1871 -0.2987
   70ccc    H13 2213   3.529   3.133   5.115 -0.6277  0.2928 -0.8848
   70ccc    H14 2214   3.388   3.227   5.167 -1.0953 -0.0828  0.6916
   70ccc     C9 2215   3.342   3.100   4.993 -0.4129 -0.3742  0.0481
   70ccc    H15 2216   3.235   3.095   5.015 -0.3471 -0.0412  0.4394
   70ccc    H16 2217   3.358   3.001   4.948 -1.3380 -0.4439 -0.1446
   70ccc    C10 2218   3.371   3.208   4.886  0.1235  0.1135 -0.1308
   70ccc     O4 2219   3.462   3.290   4.890  0.7882  0.0017 -0.1984
   70ccc    C11 2220   2.441   3.372   5.412 -0.1987  0.5390  0.5350
   70ccc    C12 2221   2.559   3.488   5.304 -0.4598 -0.9757  0.1733
   70ccc    H17 2222   2.413   3.431   5.501  1.5391  1.0752  0.7705
   70ccc    C13 2223   2.746   3.441   5.273  0.8443  0.6840  0.2339
   70ccc    C14 2224   2.818   3.266   5.337  0.9678 -0.0388 -0.3260
   70ccc    C15 2225   2.702   3.151   5.450 -0.3689 -0.2382  0.0906
   70ccc    H18 2226   2.811   3.217   5.239 -0.7053 -0.1534 -0.1739
   70ccc    H19 2227   2.808   3.528   5.299 -0.7111  2.1863 -0.8045
   70ccc    H20 2228   2.745   3.159   5.551  0.3599  2.3594 -0.3430
   70ccc     O1 2229   2.724   3.013   5.426  0.1271 -0.1312 -0.0191
   70ccc     O6 2230   2.782   3.453   5.134  0.1285 -0.2527 -0.1136
   70ccc    C16 2231   2.301   3.343   5.353  0.4957  0.1820  0.3441
   70ccc    H21 2232   2.761   3.542   5.100 -0.7830 -0.3921  0.0554
   70ccc    H22 2233   3.000   3.337   5.294  1.2521 -1.1580  0.7836
   70ccc    H23 2234   2.307   3.291   5.256  2.3626  1.0325 -0.0289
   70ccc    H24 2235   2.263   3.443   5.327  1.2631  0.4738  0.3386
   70ccc     O7 2236   2.211   3.280   5.456  0.2705  0.0988 -0.4271
   70ccc    H25 2237   2.120   3.316   5.451  0.4733  0.7847  0.5964
   70ccc     O8 2238   2.514   3.201   5.469  0.0084  0.1439 -0.0335
   70ccc    H26 2239   2.816   2.994   5.401  0.4320  2.9514 -1.7790
   70ccc    H27 2240   2.511   3.500   5.206 -0.3005  2.0675  0.3496
   70ccc     O9 2241   2.548   3.602   5.379  0.5460 -0.4385 -0.1400
   70ccc    H28 2242   2.468   3.644   5.342  0.8681 -1.6985 -2.4341
   70ccc     N3 2243   2.965   3.261   5.352 -0.4272 -0.4575  0.7517
   70ccc    C17 2244   2.891   3.327   4.693  0.0141  0.2909  0.7018
   70ccc    C18 2245   2.915   3.180   4.638  0.2402  0.3782 -0.1486
   70ccc    H29 2246   2.937   3.401   4.627 -0.8842  0.7706  0.5930
   70ccc    C19 2247   3.078   3.164   4.643  0.8635 -0.2090 -0.0094
   70ccc    C20 2248   3.141   3.201   4.780 -0.0477 -1.1129  0.0670
   70ccc    C21 2249   3.088   3.332   4.838 -0.0743 -0.1696 -0.2356
   70ccc    H30 2250   3.126   3.116   4.847  0.7123 -2.8308 -1.8442
   70ccc    H31 2251   3.115   3.227   4.561  0.8141  0.0457  0.1626
   70ccc    H32 2252   3.137   3.419   4.793  0.4892 -1.4680 -2.2742
   70ccc    O10 2253   3.115   3.330   4.981  0.1032  0.2270 -0.1720
   70ccc    O11 2254   3.103   3.025   4.621 -0.5424  0.1995  0.4132
   70ccc    C22 2255   2.744   3.361   4.718  0.7365  0.4440  0.9585
   70ccc    H33 2256   3.198   3.011   4.606 -0.6894  0.1687 -0.5189
   70ccc    H34 2257   3.323   3.267   4.710 -0.5860  0.0660  0.4206
   70ccc    H35 2258   2.698   3.386   4.622  0.7576 -0.3520  0.7334
   70ccc    H36 2259   2.741   3.456   4.773  1.9231  2.0631 -1.6122
   70ccc    O12 2260   2.663   3.259   4.787 -0.1811  0.2122  0.4226
   70ccc    H37 2261   2.575   3.263   4.746 -0.6937 -1.8370  1.2158
   70ccc    O13 2262   2.949   3.334   4.824  0.1887  0.3325 -0.4073
   70ccc    H38 2263   3.093   3.417   5.019  0.8384  0.4264 -0.1901
   70ccc    H39 2264   2.863   3.103   4.697  1.1664 -0.8543 -0.8750
   70ccc     O5 2265   2.873   3.177   4.500 -0.6099 -0.5357 -0.2346
   70ccc    H40 2266   2.778   3.159   4.488 -0.8519  0.2308  0.4761
   70ccc     N4 2267   3.291   3.198   4.778 -0.6572 -0.4214 -0.1034
   70ccc    H41 2268   3.428   2.942   5.211  0.2414 -0.9265  1.5678
   71ccc     N1 2269   4.395   2.805   5.834 -0.2180  0.0778  0.2767
   71ccc     H4 2270   4.370   2.887   5.888  0.7026  1.0214 -0.6705
   71ccc     C3 2271   4.457   2.676   5.882  0.0622 -0.8281 -0.2408
   71ccc     H5 2272   4.391   2.588   5.875 -0.5982 -0.5513  1.7345
   71ccc     C4 2273   4.508   2.691   6.032  0.5975  0.2417  0.0602
   71ccc     H6 2274   4.545   2.661   5.818  0.5863  1.1043 -0.0194
   71ccc     H7 2275   4.423   2.721   6.095  1.6229  0.2174  1.4992
   71ccc     H8 2276   4.584   2.769   6.040  0.6905 -0.0386  2.9821
   71ccc     N2 2277   4.571   2.567   6.088 -0.2762 -0.1932  0.2608
   71ccc     C5 2278   4.489   2.443   6.120 -0.0360  0.3588 -0.1980
   71ccc     C6 2279   4.653   2.619   6.209  0.0969 -0.6102  0.4099
   71ccc     H9 2280   4.706   2.534   6.253 -1.0125 -1.0576  0.9102
   71ccc     C7 2281   4.568   2.672   6.329 -0.4800 -0.4885 -0.3058
   71ccc    H10 2282   4.731   2.693   6.184  0.7510 -0.5382  2.4383
   71ccc    H11 2283   4.491   2.599   6.356  1.2722 -2.5112 -0.4852
   71ccc    H12 2284   4.518   2.768   6.306  2.3310  1.1405 -0.0770
   71ccc     C8 2285   4.659   2.707   6.451 -0.3722  0.0055  0.7982
   71ccc     O2 2286   4.763   2.640   6.477  0.2109 -0.3665 -0.3591
   71ccc    H13 2287   4.461   2.386   6.030  0.7612 -0.0694 -0.1795
   71ccc    H14 2288   4.406   2.486   6.178  0.3876  0.1725  0.5475
   71ccc     C9 2289   4.569   2.341   6.213  0.2509 -0.0311  0.4228
   71ccc    H15 2290   4.572   2.386   6.313  2.0849  1.8319 -0.4095
   71ccc    H16 2291   4.672   2.338   6.174  0.2389  0.2977  0.3661
   71ccc    C10 2292   4.514   2.198   6.211 -0.3132 -0.0677 -0.3110
   71ccc     O4 2293   4.429   2.164   6.128 -0.2814  0.6224  0.1879
   71ccc    C11 2294   4.945   2.813   6.841  1.1409 -0.2603  0.7588
   71ccc    C12 2295   4.946   2.931   6.731 -0.1871  0.8640  0.2850
   71ccc    H17 2296   4.997   2.730   6.791  0.5493 -0.7246  0.9067
   71ccc    C13 2297   4.860   2.898   6.611  0.3224  0.6077 -0.2981
   71ccc    C14 2298   4.718   2.851   6.647 -0.6490  0.0601  0.3826
   71ccc    C15 2299   4.724   2.742   6.757 -0.2958  0.2898 -0.5062
   71ccc    H18 2300   4.672   2.937   6.696  1.4078 -0.1846  2.9381
   71ccc    H19 2301   4.915   2.813   6.568  1.6709  0.2748  1.9177
   71ccc    H20 2302   4.767   2.649   6.719 -0.2266  0.7757 -1.6551
   71ccc     O1 2303   4.594   2.718   6.823 -0.1681 -0.5031  0.0797
   71ccc     O6 2304   4.860   3.008   6.519  0.5664  0.0900  0.1474
   71ccc    C16 2305   5.009   2.846   6.975 -0.6993 -0.3345 -0.5117
   71ccc    H21 2306   4.783   3.001   6.460  0.1662  1.8124  0.4116
   71ccc    H22 2307   4.540   2.856   6.540 -0.0626  1.1536 -2.6351
   71ccc    H23 2308   4.961   2.933   7.021 -0.1728 -0.9889  1.3309
   71ccc    H24 2309   5.113   2.874   6.956 -0.1174 -2.6425 -0.9581
   71ccc     O7 2310   4.996   2.741   7.071 -0.1726  0.3531 -0.4587
   71ccc    H25 2311   4.915   2.756   7.123  0.7783 -1.5898  1.7954
   71ccc     O8 2312   4.801   2.784   6.872 -0.3385  0.0287 -0.4913
   71ccc    H26 2313   4.615   2.701   6.916  0.4374  2.9884  0.7265
   71ccc    H27 2314   4.916   3.019   6.788  2.8312  1.1611  1.5860
   71ccc     O9 2315   5.078   2.960   6.679 -0.6153  0.1047 -0.2168
   71ccc    H28 2316   5.071   3.042   6.627  0.6418  0.9077  0.8256
   71ccc     N3 2317   4.632   2.814   6.526 -0.0834  0.0296  0.1100
   71ccc    C17 2318   4.981   1.989   6.594  0.3777  0.3261  0.2778
   71ccc    C18 2319   5.005   2.119   6.451  0.1123 -0.1857 -0.7275
   71ccc    H29 2320   5.034   1.898   6.562  2.8532  2.0244 -0.7257
   71ccc    C19 2321   4.842   2.197   6.360 -0.5010 -0.3216 -0.3645
   71ccc    C20 2322   4.657   2.128   6.409 -0.1724 -0.0363 -0.1324
   71ccc    C21 2323   4.648   1.984   6.555  0.0549  0.1586  0.0346
   71ccc    H30 2324   4.613   2.218   6.452  1.7765  1.4855 -1.1404
   71ccc    H31 2325   4.871   2.187   6.254  0.9914 -0.5893  0.0385
   71ccc    H32 2326   4.615   1.898   6.494  0.2076  0.0981  0.0374
   71ccc    O10 2327   4.544   2.005   6.645  0.1296  0.1423 -0.5246
   71ccc    O11 2328   4.835   2.338   6.378 -0.3665  0.5404 -0.7264
   71ccc    C22 2329   5.061   2.010   6.721  0.2864  0.2867  0.3576
   71ccc    H33 2330   4.917   2.381   6.348  0.5799  0.3113  1.3887
   71ccc    H34 2331   4.545   2.010   6.279 -2.5884 -0.3873  0.3659
   71ccc    H35 2332   5.158   1.960   6.717 -0.4311 -1.0612 -1.4298
   71ccc    H36 2333   5.004   1.966   6.804  0.6577  0.1247  0.5270
   71ccc    O12 2334   5.078   2.147   6.744 -0.0950  0.0650  0.0803
   71ccc    H37 2335   5.161   2.169   6.698 -0.8673  1.5664 -0.6812
   71ccc    O13 2336   4.809   1.931   6.640  0.3029 -0.0147 -0.0146
   71ccc    H38 2337   4.584   1.965   6.724  1.4778 -0.8588 -1.6517
   71ccc    H39 2338   5.065   2.199   6.496 -0.1661 -1.8525  2.9492
   71ccc     O5 2339   5.099   2.071   6.356  0.3858 -0.4223  0.2846
   71ccc    H40 2340   5.184   2.054   6.399  0.0336  1.0693  1.6815
   71ccc     N4 2341   4.565   2.109   6.294 -0.5281 -0.6983  0.0150
   71ccc    H41 2342   4.635   2.535   6.014  0.5544 -0.0777  0.9143
   72ccc     N1 2343   3.650   3.795   5.597  0.1684 -0.0380 -0.1998
   72ccc     H4 2344   3.693   3.854   5.667 -0.9582 -1.3969  1.7397
   72ccc     C3 2345   3.705   3.781   5.457 -0.2447 -0.2764  0.6479
   72ccc     H5 2346   3.760   3.686   5.456  1.5967  0.6818  2.6595
   72ccc     C4 2347   3.805   3.896   5.431  0.3259 -0.9158  0.1991
   72ccc     H6 2348   3.628   3.784   5.379  2.5451 -0.4893 -2.3647
   72ccc     H7 2349   3.882   3.878   5.508  0.6977  1.0282  0.3318
   72ccc     H8 2350   3.753   3.986   5.465  0.2162 -1.1611  0.6886
   72ccc     N2 2351   3.858   3.907   5.287 -0.0043  0.4217  0.0066
   72ccc     C5 2352   4.009   3.949   5.288  0.5595 -0.2503 -0.0157
   72ccc     C6 2353   3.773   4.004   5.211  0.3007 -0.3151  0.6807
   72ccc     H9 2354   3.670   3.989   5.244  0.8373 -2.1427  1.6590
   72ccc     C7 2355   3.758   3.992   5.055  0.6958 -0.1503 -0.8967
   72ccc    H10 2356   3.801   4.108   5.228  0.8018  0.0261 -1.8253
   72ccc    H11 2357   3.859   3.988   5.013  1.7768  1.1294  1.3939
   72ccc    H12 2358   3.702   4.075   5.010  0.1082 -1.0455 -1.8708
   72ccc     C8 2359   3.689   3.866   5.011  0.2003  0.4666  0.1365
   72ccc     O2 2360   3.680   3.768   5.073  0.4361  0.6895  0.3932
   72ccc    H13 2361   4.020   4.043   5.345 -0.5281 -0.3903  0.4443
   72ccc    H14 2362   4.031   3.953   5.181 -0.2733 -2.8413 -0.3376
   72ccc     C9 2363   4.111   3.843   5.342  0.6382  0.7181  0.4477
   72ccc    H15 2364   4.117   3.825   5.450  1.7876 -2.1449 -0.0062
   72ccc    H16 2365   4.203   3.895   5.314 -0.0345  0.8820 -1.6532
   72ccc    C10 2366   4.087   3.713   5.273 -0.4093  0.5365  0.5706
   72ccc     O4 2367   3.990   3.649   5.300 -0.0759 -0.5672  0.1988
   72ccc    C11 2368   3.456   3.599   4.602 -0.4429  0.0024  0.4760
   72ccc    C12 2369   3.606   3.621   4.576 -0.3088  0.2326  0.6583
   72ccc    H17 2370   3.412   3.684   4.549  1.0483 -0.0114 -0.8718
   72ccc    C13 2371   3.670   3.740   4.656  0.0214  0.5417  0.0003
   72ccc    C14 2372   3.620   3.734   4.809  0.0461  0.2876 -0.0534
   72ccc    C15 2373   3.464   3.718   4.799 -0.3654  0.0192 -0.1125
   72ccc    H18 2374   3.644   3.641   4.862  0.0077 -0.9918 -2.1423
   72ccc    H19 2375   3.634   3.835   4.615 -2.5318  0.8275  2.5712
   72ccc    H20 2376   3.425   3.803   4.741 -1.8290 -1.8407 -2.0158
   72ccc     O1 2377   3.407   3.705   4.922  0.5687 -0.5894  0.2531
   72ccc     O6 2378   3.812   3.738   4.656 -0.6401 -0.3735 -0.2249
   72ccc    C16 2379   3.410   3.464   4.545  0.5673 -0.1466  0.0103
   72ccc    H21 2380   3.829   3.812   4.717 -1.1673 -0.1304 -0.3706
   72ccc    H22 2381   3.652   3.944   4.822  1.9125 -1.1240 -1.6786
   72ccc    H23 2382   3.471   3.383   4.587 -0.1047 -1.9324 -2.2406
   72ccc    H24 2383   3.435   3.464   4.439  2.4324  0.9655  0.4166
   72ccc     O7 2384   3.266   3.444   4.565  0.0319 -0.0160 -0.3781
   72ccc    H25 2385   3.214   3.521   4.592 -0.0894  0.6583 -2.3991
   72ccc     O8 2386   3.425   3.594   4.734  0.1513 -0.3468 -0.7078
   72ccc    H26 2387   3.320   3.670   4.899  0.4627  0.1928 -0.5900
   72ccc    H27 2388   3.655   3.530   4.612 -2.2205 -0.2516  2.2587
   72ccc     O9 2389   3.623   3.629   4.439  0.0988 -0.3244 -0.0002
   72ccc    H28 2390   3.603   3.720   4.410  1.5343 -0.5890 -2.0243
   72ccc     N3 2391   3.657   3.859   4.879  0.1113 -0.0573  0.1875
   72ccc    C17 2392   4.261   3.385   4.872  0.3911  0.1429 -0.1600
   72ccc    C18 2393   4.309   3.358   5.016 -0.0117 -0.1761  0.1279
   72ccc    H29 2394   4.331   3.451   4.818 -1.1352  0.0765 -2.3551
   72ccc    C19 2395   4.303   3.475   5.117  0.1426 -0.4480  0.6468
   72ccc    C20 2396   4.167   3.556   5.099 -0.2369 -0.1341 -0.5736
   72ccc    C21 2397   4.138   3.582   4.948 -0.2337  0.4255 -0.0163
   72ccc    H30 2398   4.088   3.488   5.134  0.2083 -0.6531 -0.5681
   72ccc    H31 2399   4.392   3.538   5.102 -0.3643  0.2464  0.5055
   72ccc    H32 2400   4.207   3.650   4.898 -0.4922  0.6866 -0.0189
   72ccc    O10 2401   4.004   3.628   4.938 -0.6391  0.0304 -0.4696
   72ccc    O11 2402   4.318   3.420   5.245  0.2726 -0.2395 -0.4081
   72ccc    C22 2403   4.251   3.249   4.793  0.9375  0.9545 -0.5423
   72ccc    H33 2404   4.292   3.495   5.302 -0.5263 -0.5531 -0.3403
   72ccc    H34 2405   4.254   3.731   5.169  0.6489 -1.3126 -0.6803
   72ccc    H35 2406   4.355   3.213   4.793  0.4669 -0.6614 -3.3795
   72ccc    H36 2407   4.214   3.261   4.691 -2.2872  0.0239  0.3842
   72ccc    O12 2408   4.167   3.158   4.856  0.0396 -0.0477 -0.3810
   72ccc    H37 2409   4.203   3.070   4.836  2.5541 -0.0287  3.0249
   72ccc    O13 2410   4.134   3.454   4.885 -0.2794 -0.2492 -0.0925
   72ccc    H38 2411   4.014   3.717   4.900 -1.3477  0.9296  1.2894
   72ccc    H39 2412   4.253   3.272   5.055  0.8794 -1.3484 -1.0784
   72ccc     O5 2413   4.440   3.310   5.011  0.1852  0.8577  0.4354
   72ccc    H40 2414   4.444   3.213   5.010  0.0405  0.7836 -2.9368
   72ccc     N4 2415   4.163   3.685   5.168 -0.0747  0.0792 -0.8982
   72ccc    H41 2416   3.862   3.811   5.249  2.2163  0.9157 -1.1933
   73ccc     N1 2417   3.019   3.425   5.702  0.8240  0.2261 -0.1654
   73ccc     H4 2418   3.021   3.456   5.798  1.0571 -2.5485  0.7974
   73ccc     C3 2419   2.910   3.339   5.648  0.0301 -0.2171  0.6518
   73ccc     H5 2420   2.960   3.255   5.599 -0.4233 -1.2009  1.8311
   73ccc     C4 2421   2.809   3.425   5.547  0.2842  0.3809 -0.1633
   73ccc     H6 2422   2.844   3.306   5.729  0.0101  1.2550  1.2669
   73ccc     H7 2423   2.885   3.452   5.472  2.0870  0.1101  1.4737
   73ccc     H8 2424   2.793   3.525   5.589 -0.3007 -0.2123  1.0495
   73ccc     N2 2425   2.664   3.377   5.490  0.4092  0.3103  0.0247
   73ccc     C5 2426   2.603   3.363   5.643  0.5343  0.5138  0.5220
   73ccc     C6 2427   2.589   3.255   5.263  0.0457 -0.3131 -0.7403
   73ccc     H9 2428   2.509   3.302   5.204  1.3863  2.3792 -0.5555
   73ccc     C7 2429   2.559   3.097   5.215 -0.0668 -0.6696  0.0887
   73ccc    H10 2430   2.648   3.274   5.173 -0.6440  2.6179 -0.6906
   73ccc    H11 2431   2.512   3.034   5.291  0.6059 -0.3316  0.8059
   73ccc    H12 2432   2.657   3.049   5.199 -0.1314 -0.2411 -1.7186
   73ccc     C8 2433   2.492   3.083   5.081  0.1860  0.1810 -0.0750
   73ccc     O2 2434   2.469   3.171   4.990 -0.0138  0.1284 -0.5992
   73ccc    H13 2435   2.648   3.288   5.710  1.5131  1.4399  0.9257
   73ccc    H14 2436   2.497   3.334   5.638  1.2838 -2.7098  0.7324
   73ccc     C9 2437   2.591   3.496   5.722  0.0461 -0.2313 -0.0718
   73ccc    H15 2438   2.571   3.578   5.652  1.3428 -0.2526 -0.4962
   73ccc    H16 2439   2.688   3.512   5.772 -0.2533  2.2578 -0.1844
   73ccc    C10 2440   2.489   3.477   5.836 -0.2083  0.2034  0.4843
   73ccc     O4 2441   2.458   3.363   5.880  0.0150  0.4013 -0.4063
   73ccc    C11 2442   2.437   2.878   4.620  0.2172  0.4366  0.4910
   73ccc    C12 2443   2.570   2.846   4.694  0.1623  0.1163 -0.1698
   73ccc    H17 2444   2.450   2.976   4.573 -1.1507 -0.2456 -1.4430
   73ccc    C13 2445   2.582   2.903   4.838 -0.1216 -0.9618 -0.1240
   73ccc    C14 2446   2.444   2.901   4.915 -0.6222  0.5244 -0.0098
   73ccc    C15 2447   2.330   2.965   4.826  0.1483  0.8062 -0.0089
   73ccc    H18 2448   2.423   2.793   4.919  1.3029  0.1414  1.5967
   73ccc    H19 2449   2.610   3.008   4.830 -2.3215 -0.4217 -1.2937
   73ccc    H20 2450   2.341   3.071   4.800 -1.4004  0.5855 -1.8332
   73ccc     O1 2451   2.210   2.940   4.894  0.2118 -0.4681 -0.1069
   73ccc     O6 2452   2.686   2.826   4.916 -0.1419  0.0303  0.4057
   73ccc    C16 2453   2.402   2.791   4.499  0.2614  0.3950  0.0642
   73ccc    H21 2454   2.765   2.861   4.871 -0.1549  0.0809  0.4237
   73ccc    H22 2455   2.526   2.889   5.103  1.5392  0.7889 -0.1662
   73ccc    H23 2456   2.454   2.827   4.410 -0.4331  0.1466 -0.4490
   73ccc    H24 2457   2.295   2.802   4.478 -0.0962 -2.6281 -0.1770
   73ccc     O7 2458   2.423   2.657   4.524  0.8424  0.1554 -0.6018
   73ccc    H25 2459   2.421   2.604   4.443 -1.6467 -0.4378 -0.2386
   73ccc     O8 2460   2.320   2.890   4.701  0.1005 -0.1236 -0.5557
   73ccc    H26 2461   2.159   3.023   4.887  2.0715  0.7140 -0.5490
   73ccc    H27 2462   2.577   2.737   4.702 -0.4960 -0.0345 -1.4715
   73ccc     O9 2463   2.665   2.914   4.610 -0.3954  0.0053 -0.3883
   73ccc    H28 2464   2.739   2.851   4.610 -1.1830 -1.0082 -2.4976
   73ccc     N3 2465   2.465   2.956   5.056  0.5618 -0.0385 -0.1324
   73ccc    C17 2466   2.052   3.693   6.067 -0.2598  0.7661 -0.1730
   73ccc    C18 2467   2.054   3.568   5.969 -0.3946 -0.3140  0.0678
   73ccc    H29 2468   2.034   3.787   6.013 -0.3305 -0.1461 -1.7843
   73ccc    C19 2469   2.184   3.586   5.879  0.3766 -0.1931 -0.3273
   73ccc    C20 2470   2.307   3.594   5.963 -0.2141 -0.3641 -0.2679
   73ccc    C21 2471   2.290   3.724   6.047  0.1177  0.9463 -0.2637
   73ccc    H30 2472   2.312   3.509   6.033 -1.9962 -1.1962 -1.0744
   73ccc    H31 2473   2.177   3.678   5.819  1.9485 -0.0438 -0.3500
   73ccc    H32 2474   2.274   3.808   5.979 -0.3425 -1.4106 -3.2836
   73ccc    O10 2475   2.405   3.740   6.122  0.3879  0.4912  0.1429
   73ccc    O11 2476   2.192   3.484   5.785 -0.1072  0.9045 -0.0857
   73ccc    C22 2477   1.955   3.675   6.186 -0.2964 -0.1592  0.0885
   73ccc    H33 2478   2.139   3.519   5.711 -2.5077 -1.2332  0.4651
   73ccc    H34 2479   2.452   3.674   5.832 -1.9078 -0.1156 -0.7448
   73ccc    H35 2480   1.852   3.678   6.147 -0.8944 -1.9492  1.3759
   73ccc    H36 2481   1.980   3.759   6.251  1.5805 -0.3283 -0.3475
   73ccc    O12 2482   1.983   3.554   6.258 -0.2943  0.1690 -0.6173
   73ccc    H37 2483   1.912   3.533   6.321  0.3058 -0.2508 -0.0703
   73ccc    O13 2484   2.180   3.705   6.132 -0.6850  0.3143  0.2745
   73ccc    H38 2485   2.370   3.771   6.207 -0.0935  1.0120 -0.2351
   73ccc    H39 2486   2.068   3.477   6.029 -1.1426  0.2253  1.0770
   73ccc     O5 2487   1.945   3.561   5.893 -0.0065  0.6153 -0.4124
   73ccc    H40 2488   1.924   3.649   5.857  0.2289  1.5115  1.5279
   73ccc     N4 2489   2.429   3.587   5.879 -0.3920 -0.0204  0.2543
   73ccc    H41 2490   2.631   3.472   5.469 -1.2301 -0.5782 -1.6635
   74ccc     N1 2491   2.262   3.821   3.823  0.4545 -0.0505  0.7991
   74ccc     H4 2492   2.332   3.805   3.752  0.1882 -0.2082  0.5661
   74ccc     C3 2493   2.188   3.949   3.833  0.7839  0.1115  1.1675
   74ccc     H5 2494   2.209   4.006   3.742 -2.4982 -2.5962 -1.5481
   74ccc     C4 2495   2.242   4.035   3.947 -0.0088  0.5669  0.1749
   74ccc     H6 2496   2.080   3.927   3.838  0.6177  0.7428  0.5406
   74ccc     H7 2497   2.194   4.132   3.929  0.0209  0.4473 -0.6211
   74ccc     H8 2498   2.351   4.033   3.940  0.1279  2.8864  0.9991
   74ccc     N2 2499   2.201   3.995   4.088  0.3417 -0.0152 -0.3813
   74ccc     C5 2500   2.051   4.003   4.109  0.2046 -0.3099 -0.8008
   74ccc     C6 2501   2.264   4.090   4.189  0.1449 -0.0314  0.5673
   74ccc     H9 2502   2.228   4.194   4.184 -2.3083 -0.8671 -1.4884
   74ccc     C7 2503   2.419   4.083   4.187  0.7292  0.5447 -0.6476
   74ccc    H10 2504   2.222   4.054   4.284 -0.2419  0.3274  0.5347
   74ccc    H11 2505   2.459   4.151   4.263  3.1925 -1.9164  0.4272
   74ccc    H12 2506   2.464   4.124   4.096 -0.5162  1.8155 -0.7282
   74ccc     C8 2507   2.478   3.946   4.217  0.1087  0.7003 -0.3976
   74ccc     O2 2508   2.415   3.837   4.207 -0.2561  0.3585  0.5999
   74ccc    H13 2509   2.004   3.948   4.027  1.6500 -0.6283 -1.4573
   74ccc    H14 2510   2.015   4.106   4.105 -1.3034 -0.8363 -1.2161
   74ccc     C9 2511   1.996   3.940   4.241  0.3401  0.3415  1.2872
   74ccc    H15 2512   1.887   3.949   4.244  0.3431  1.9680 -1.0308
   74ccc    H16 2513   2.031   4.000   4.326  0.3619  0.5392  1.1384
   74ccc    C10 2514   2.032   3.789   4.258 -0.3752  0.1389  0.1859
   74ccc     O4 2515   2.137   3.746   4.305  0.0986 -0.1518  0.6556
   74ccc    C11 2516   2.949   3.673   4.296  0.6051  0.0103 -0.3718
   74ccc    C12 2517   2.905   3.756   4.423  0.2210  0.0139  0.1394
   74ccc    H17 2518   3.022   3.726   4.234  1.6151 -0.7222  0.1756
   74ccc    C13 2519   2.807   3.870   4.390  0.0435 -0.7085  0.1521
   74ccc    C14 2520   2.698   3.829   4.285  0.0143  0.2754 -0.5133
   74ccc    C15 2521   2.766   3.761   4.155  0.2500  0.3437  0.1119
   74ccc    H18 2522   2.637   3.753   4.335 -2.4940  2.7594  0.4985
   74ccc    H19 2523   2.879   3.944   4.354  1.4081 -0.9281  2.2201
   74ccc    H20 2524   2.838   3.823   4.100 -0.5230  0.8668 -0.3215
   74ccc     O1 2525   2.664   3.717   4.066  0.5703 -0.5023 -0.3747
   74ccc     O6 2526   2.750   3.930   4.508  1.0336 -0.5269 -0.1957
   74ccc    C16 2527   3.004   3.535   4.329 -0.3770  0.3680  0.2487
   74ccc    H21 2528   2.813   3.995   4.543 -0.7764  2.0114 -1.3674
   74ccc    H22 2529   2.654   4.022   4.303  0.9650 -0.5017  0.7616
   74ccc    H23 2530   2.926   3.458   4.341  0.1267 -0.0390  0.9605
   74ccc    H24 2531   3.059   3.551   4.422 -1.0670  1.1746  0.5315
   74ccc     O7 2532   3.104   3.493   4.225 -0.3266  0.5294 -0.4475
   74ccc    H25 2533   3.173   3.561   4.231 -0.7128  0.7676  1.8727
   74ccc     O8 2534   2.842   3.648   4.203  0.2358  0.2019 -0.1871
   74ccc    H26 2535   2.601   3.790   4.079  0.1408 -1.2944  2.6684
   74ccc    H27 2536   2.859   3.693   4.501  1.8278  2.7931  3.6053
   74ccc     O9 2537   3.022   3.811   4.480 -0.2275  0.1216 -0.8489
   74ccc    H28 2538   2.999   3.874   4.551  0.7100 -1.0781  0.5947
   74ccc     N3 2539   2.609   3.945   4.254  0.6051  0.2798 -0.1832
   74ccc    C17 2540   2.032   3.336   4.432 -0.0948  0.0889 -0.6385
   74ccc    C18 2541   1.889   3.391   4.465  0.1445  0.1880  0.0634
   74ccc    H29 2542   2.107   3.402   4.478  1.9252 -2.3792 -0.2126
   74ccc    C19 2543   1.883   3.536   4.417 -0.1885 -0.4731 -0.1903
   74ccc    C20 2544   1.930   3.549   4.269 -0.1890 -0.6287 -0.4095
   74ccc    C21 2545   2.058   3.466   4.241 -0.1760 -0.7777  0.1644
   74ccc    H30 2546   1.851   3.500   4.211  1.0974 -0.0584 -2.7577
   74ccc    H31 2547   1.957   3.590   4.477 -0.9175 -0.3535  0.6290
   74ccc    H32 2548   2.150   3.513   4.277 -0.5045  0.1589 -0.1785
   74ccc    O10 2549   2.076   3.458   4.099 -0.1138 -0.0052 -0.1356
   74ccc    O11 2550   1.760   3.609   4.453 -0.4532 -0.1278 -0.2506
   74ccc    C22 2551   2.077   3.199   4.486  0.0870  0.1021  0.4548
   74ccc    H33 2552   1.757   3.695   4.407  2.4944  0.3979  0.3293
   74ccc    H34 2553   1.851   3.728   4.186  1.3168  3.1126  0.5550
   74ccc    H35 2554   2.030   3.122   4.423 -0.1480  0.8348 -0.2860
   74ccc    H36 2555   2.056   3.189   4.593  1.3833 -0.4874  0.6765
   74ccc    O12 2556   2.217   3.171   4.475  0.0136  0.1487  0.3332
   74ccc    H37 2557   2.244   3.154   4.383  0.3927 -0.9449  0.6328
   74ccc    O13 2558   2.044   3.334   4.296  0.4938  0.1251  0.1124
   74ccc    H38 2559   2.103   3.545   4.066  1.5498 -0.4511 -0.0491
   74ccc    H39 2560   1.809   3.331   4.420  0.2065 -1.0883  1.5351
   74ccc     O5 2561   1.868   3.381   4.604 -0.6549 -0.3576  0.2463
   74ccc    H40 2562   1.774   3.385   4.631 -0.2041  0.2126  1.8709
   74ccc     N4 2563   1.941   3.696   4.222  0.5865 -0.3688 -0.3001
   74ccc    H41 2564   2.223   3.897   4.110  0.0220 -0.0782 -0.3347
   75ccc     N1 2565   2.941   3.643   3.855  0.5447 -0.1723 -0.3154
   75ccc     H4 2566   2.915   3.737   3.830  1.6862  0.3680  0.4445
   75ccc     C3 2567   3.074   3.620   3.904  0.6219  0.4109  0.0336
   75ccc     H5 2568   3.101   3.711   3.958  0.0314  1.0048 -0.6527
   75ccc     C4 2569   3.168   3.599   3.781 -0.8190  0.7341  0.8853
   75ccc     H6 2570   3.082   3.533   3.971 -0.3475  2.0596  2.4107
   75ccc     H7 2571   3.222   3.692   3.762 -1.6860  0.7328 -1.8953
   75ccc     H8 2572   3.124   3.584   3.682 -0.2626 -1.6487  0.9338
   75ccc     N2 2573   3.274   3.484   3.789  0.3355  0.1596  0.5326
   75ccc     C5 2574   3.216   3.345   3.805  0.3850 -0.5985  0.0911
   75ccc     C6 2575   3.388   3.514   3.888  0.4835  0.3030 -0.1236
   75ccc     H9 2576   3.336   3.496   3.983  0.0969  2.3103  0.0728
   75ccc     C7 2577   3.457   3.651   3.891 -0.6264 -0.7269  0.2233
   75ccc    H10 2578   3.458   3.431   3.872  0.3480  0.0714  0.4831
   75ccc    H11 2579   3.388   3.733   3.914  0.2032 -0.0634  0.4169
   75ccc    H12 2580   3.498   3.676   3.792 -1.7579  0.3797  0.0139
   75ccc     C8 2581   3.566   3.647   4.001 -0.4459 -0.0973 -0.2522
   75ccc     O2 2582   3.604   3.543   4.060  0.0902 -0.8340  0.3612
   75ccc    H13 2583   3.168   3.355   3.904  2.0009 -2.4232  1.1099
   75ccc    H14 2584   3.295   3.278   3.839  1.8084  0.3767 -1.1408
   75ccc     C9 2585   3.119   3.291   3.699 -0.1286 -0.4630 -0.4271
   75ccc    H15 2586   3.177   3.249   3.616  1.7222 -0.8270  0.9709
   75ccc    H16 2587   3.045   3.367   3.670 -0.8743 -0.7149  0.7368
   75ccc    C10 2588   3.039   3.169   3.756  0.7401 -0.7397 -0.2805
   75ccc     O4 2589   3.077   3.115   3.856  0.0909  0.5008 -0.0103
   75ccc    C11 2590   3.934   3.948   4.220 -0.0239  0.3197  0.0960
   75ccc    C12 2591   3.817   3.927   4.316 -0.0107  0.4009  0.5695
   75ccc    H17 2592   3.912   4.045   4.174  2.3804  1.2229  0.7029
   75ccc    C13 2593   3.691   3.901   4.225  0.2093 -0.6080  0.3613
   75ccc    C14 2594   3.715   3.777   4.137  0.6811  0.4155  0.4473
   75ccc    C15 2595   3.829   3.800   4.040 -0.1399 -0.0059  0.6489
   75ccc    H18 2596   3.726   3.686   4.196  2.3733  0.3621  0.0906
   75ccc    H19 2597   3.668   3.988   4.163 -1.1311 -2.0775 -1.2951
   75ccc    H20 2598   3.796   3.877   3.969 -2.1036  0.7224  2.2777
   75ccc     O1 2599   3.857   3.680   3.972  0.0176  0.2848  0.0917
   75ccc     O6 2600   3.575   3.881   4.316 -0.1145  0.5006 -0.5400
   75ccc    C16 2601   4.076   3.964   4.272  0.0794  0.5841 -0.6032
   75ccc    H21 2602   3.500   3.917   4.266  1.1678  0.2742 -2.7395
   75ccc    H22 2603   3.577   3.854   4.003  0.2525  1.9161  1.7747
   75ccc    H23 2604   4.064   4.024   4.364  0.0846  3.5332 -2.4083
   75ccc    H24 2605   4.146   4.018   4.208  1.6100 -1.4026 -0.7102
   75ccc     O7 2606   4.128   3.836   4.303  0.9115  0.1371 -0.5747
   75ccc    H25 2607   4.123   3.785   4.221  1.1372  0.6299 -0.8977
   75ccc     O8 2608   3.944   3.839   4.118  0.4840 -0.2545  0.3556
   75ccc    H26 2609   3.932   3.703   3.914  0.4623  0.6102  0.7826
   75ccc    H27 2610   3.829   3.839   4.379 -0.1478 -0.5816 -0.7308
   75ccc     O9 2611   3.822   4.047   4.391  0.1446  0.5811  0.2871
   75ccc    H28 2612   3.748   4.098   4.355  2.0648  3.1331 -0.3582
   75ccc     N3 2613   3.590   3.768   4.056 -0.2439  0.3792 -0.4629
   75ccc    C17 2614   2.777   2.997   3.312  0.0035 -0.1141 -0.1724
   75ccc    C18 2615   2.743   3.146   3.361  0.4375 -0.3697 -0.7406
   75ccc    H29 2616   2.704   2.930   3.359  0.3433 -1.6445 -1.7075
   75ccc    C19 2617   2.761   3.169   3.517  0.0816  0.9940  0.0346
   75ccc    C20 2618   2.901   3.120   3.561  0.1678 -0.0137 -0.6506
   75ccc    C21 2619   2.914   2.977   3.516 -0.5032 -0.3262  0.0728
   75ccc    H30 2620   2.975   3.180   3.506  1.1156 -0.3357  0.2410
   75ccc    H31 2621   2.685   3.107   3.565 -1.1807  2.1220 -0.4197
   75ccc    H32 2622   2.831   2.920   3.560 -0.5121  0.7696  1.5633
   75ccc    O10 2623   3.038   2.923   3.548 -0.1446  0.6527 -0.1359
   75ccc    O11 2624   2.736   3.303   3.547 -0.1353 -0.3376 -0.4124
   75ccc    C22 2625   2.787   2.955   3.166 -0.8020 -0.9362 -0.3252
   75ccc    H33 2626   2.648   3.321   3.510 -0.6514  0.8490  1.2623
   75ccc    H34 2627   2.848   3.103   3.760 -1.6848 -0.2257 -1.3568
   75ccc    H35 2628   2.683   2.939   3.135 -0.9291 -1.2526  0.2553
   75ccc    H36 2629   2.858   2.872   3.158  1.0819  0.4318  1.3584
   75ccc    O12 2630   2.831   3.068   3.097  0.1545 -0.1677 -0.2078
   75ccc    H37 2631   2.921   3.095   3.123 -0.1870  1.2557 -0.4240
   75ccc    O13 2632   2.909   2.970   3.372 -0.0603 -0.0735 -0.3788
   75ccc    H38 2633   3.089   2.954   3.471  1.4793  0.4921  0.8333
   75ccc    H39 2634   2.803   3.219   3.305  1.2467 -1.1507 -0.9000
   75ccc     O5 2635   2.604   3.150   3.330  0.4365 -0.5660 -0.0791
   75ccc    H40 2636   2.600   3.157   3.233 -2.0521  0.5176  0.0213
   75ccc     N4 2637   2.922   3.148   3.706 -1.0869 -0.3230 -0.6423
   75ccc    H41 2638   3.319   3.485   3.696  0.2949 -0.9906  0.4818
   76ccc     N1 2639   3.868   3.365   4.847  0.1797  0.2332 -0.2976
   76ccc     H4 2640   3.929   3.446   4.847 -0.9242  1.1171 -1.8410
   76ccc     C3 2641   3.753   3.371   4.945  0.4554  0.0121  0.1284
   76ccc     H5 2642   3.697   3.457   4.906  0.0403 -1.2163 -2.1686
   76ccc     C4 2643   3.809   3.400   5.085  0.4484  0.5503 -0.2942
   76ccc     H6 2644   3.683   3.286   4.946  0.9194 -0.3752  0.0473
   76ccc     H7 2645   3.733   3.468   5.126 -2.7129 -1.5709 -2.1800
   76ccc     H8 2646   3.898   3.464   5.093  0.8805 -0.2860  4.6697
   76ccc     N2 2647   3.833   3.287   5.182  0.4767  0.5330 -0.7822
   76ccc     C5 2648   3.848   3.342   5.322 -0.3222  0.4203  0.1538
   76ccc     C6 2649   3.950   3.193   5.143 -0.4087 -0.0195 -0.0263
   76ccc     H9 2650   4.022   3.261   5.095  0.6754  0.6905  2.4822
   76ccc     C7 2651   3.916   3.076   5.042 -0.1634 -0.6340 -0.4534
   76ccc    H10 2652   3.992   3.154   5.236 -0.8563 -0.9227 -0.1897
   76ccc    H11 2653   4.008   3.035   4.999  1.6347 -0.1972  2.6375
   76ccc    H12 2654   3.850   3.107   4.960 -0.9979  1.5499  0.9481
   76ccc     C8 2655   3.848   2.948   5.100  0.0458  0.1528 -0.3354
   76ccc     O2 2656   3.725   2.930   5.089  0.0599 -0.1198  0.0356
   76ccc    H13 2657   3.915   3.428   5.318  0.1245  0.0439 -3.5545
   76ccc    H14 2658   3.894   3.266   5.387  1.3295  1.5119  0.3151
   76ccc     C9 2659   3.714   3.396   5.382  0.3620 -1.0344  1.1406
   76ccc    H15 2660   3.629   3.351   5.329 -0.2537 -1.2372  2.2808
   76ccc    H16 2661   3.708   3.505   5.368  2.9885 -0.7027  2.1117
   76ccc    C10 2662   3.696   3.346   5.522 -0.1350  0.3583 -0.4101
   76ccc     O4 2663   3.789   3.312   5.591 -0.6274 -0.7900  0.2389
   76ccc    C11 2664   3.905   2.376   5.426  0.2938 -0.5385  0.4773
   76ccc    C12 2665   3.770   2.527   5.490 -0.4243  0.3852  0.3038
   76ccc    H17 2666   3.981   2.369   5.504  1.3827  2.5022 -0.1782
   76ccc    C13 2667   3.759   2.700   5.379 -0.0007 -0.0329  0.4693
   76ccc    C14 2668   3.856   2.708   5.196  0.1311 -0.3655  0.1741
   76ccc    C15 2669   3.983   2.557   5.142 -0.3401  0.0271  0.4372
   76ccc    H18 2670   3.779   2.701   5.118  0.2168 -0.9811  0.1401
   76ccc    H19 2671   3.813   2.780   5.432  0.7770 -0.0986 -0.1912
   76ccc    H20 2672   4.078   2.611   5.144 -0.6618  0.6034  0.5209
   76ccc     O1 2673   3.953   2.497   5.018  0.5202 -0.6981 -0.1837
   76ccc     O6 2674   3.622   2.740   5.383 -0.6437 -0.2908  0.2048
   76ccc    C16 2675   3.834   2.243   5.414  0.1885  0.7260 -0.6086
   76ccc    H21 2676   3.596   2.742   5.289 -1.7295  0.0720  0.5039
   76ccc    H22 2677   4.010   2.862   5.188 -0.5991  0.6161  1.7290
   76ccc    H23 2678   3.910   2.168   5.441 -1.9853 -1.6618 -0.7023
   76ccc    H24 2679   3.808   2.219   5.311 -0.8777 -1.8810  0.1830
   76ccc     O7 2680   3.716   2.234   5.498 -0.0765 -0.2005 -0.5394
   76ccc    H25 2681   3.747   2.173   5.568  0.0689 -2.6247 -2.5577
   76ccc     O8 2682   3.993   2.402   5.254  0.1839  0.3611  0.9720
   76ccc    H26 2683   3.890   2.426   5.040 -0.0384 -0.3171 -0.5264
   76ccc    H27 2684   3.665   2.496   5.493 -0.1404 -0.5615  0.6959
   76ccc     O9 2685   3.798   2.552   5.628 -0.2424 -0.9045 -0.0555
   76ccc    H28 2686   3.782   2.467   5.672 -1.1453  0.0627  1.5869
   76ccc     N3 2687   3.914   2.846   5.157 -0.0647  0.6551 -0.0466
   76ccc    C17 2688   3.374   3.134   6.035 -0.2898  0.2943 -0.5713
   76ccc    C18 2689   3.259   3.141   5.874  0.5814  0.5212  0.5513
   76ccc    H29 2690   3.356   3.221   6.099 -0.1926 -1.6443  2.2889
   76ccc    C19 2691   3.330   3.194   5.695  0.0248  0.9356 -0.3730
   76ccc    C20 2692   3.533   3.224   5.676  1.1336  0.3741 -0.4826
   76ccc    C21 2693   3.648   3.216   5.845  0.9359 -0.4277 -0.1013
   76ccc    H30 2694   3.567   3.134   5.624  0.2350 -2.1298  2.9078
   76ccc    H31 2695   3.275   3.286   5.669 -1.4331  0.0315 -0.6063
   76ccc    H32 2696   3.686   3.318   5.848 -0.8811  0.3039 -0.6689
   76ccc    O10 2697   3.757   3.129   5.830 -0.0516  0.2056 -0.8808
   76ccc    O11 2698   3.283   3.112   5.590  0.1977 -0.5775 -0.1394
   76ccc    C22 2699   3.346   3.020   6.132 -0.2322  0.0504  0.0033
   76ccc    H33 2700   3.201   3.071   5.622  0.0724  0.5344  1.0552
   76ccc    H34 2701   3.492   3.343   5.507 -0.4326 -1.4010 -1.9683
   76ccc    H35 2702   3.267   3.064   6.195 -0.6647 -2.1445  1.1048
   76ccc    H36 2703   3.433   2.994   6.193 -0.1166 -2.2931 -1.0443
   76ccc    O12 2704   3.296   2.904   6.060  0.3908 -0.9330  0.3155
   76ccc    H37 2705   3.267   2.849   6.135 -0.5557  1.8085  2.1265
   76ccc    O13 2706   3.565   3.165   6.008 -0.3139 -0.0987 -0.0603
   76ccc    H38 2707   3.836   3.164   5.875 -0.3571  0.3100 -0.4160
   76ccc    H39 2708   3.223   3.039   5.855  1.4796  0.6195 -2.1596
   76ccc     O5 2709   3.140   3.216   5.900  0.3940 -0.0666  0.4029
   76ccc    H40 2710   3.089   3.179   5.974  0.5047  2.7924  2.0859
   76ccc     N4 2711   3.570   3.325   5.569 -1.0742  0.5031 -0.5004
   76ccc    H41 2712   3.749   3.227   5.178 -0.4793  1.8434 -0.9046
   77ccc     N1 2713   4.135   3.488   4.037  0.1745 -0.3492  0.2145
   77ccc     H4 2714   4.156   3.583   4.065  2.2811 -1.1748  1.6737
   77ccc     C3 2715   4.163   3.452   3.900 -0.0413 -0.8961 -0.0443
   77ccc     H5 2716   4.176   3.343   3.905  0.1085 -0.8363  1.4451
   77ccc     C4 2717   4.295   3.509   3.848  0.5005 -0.0752 -0.8615
   77ccc     H6 2718   4.075   3.486   3.844 -0.3545  0.5309  1.2473
   77ccc     H7 2719   4.377   3.468   3.909 -1.0962 -0.8841  0.8625
   77ccc     H8 2720   4.290   3.618   3.863  1.3828 -0.1604  0.2656
   77ccc     N2 2721   4.322   3.483   3.705  0.1011  0.4521 -0.1138
   77ccc     C5 2722   4.347   3.332   3.676  0.3225  0.4031  0.0545
   77ccc     C6 2723   4.441   3.573   3.656  0.3749 -0.0283 -0.5214
   77ccc     H9 2724   4.532   3.534   3.705 -1.1541 -0.7087  1.9250
   77ccc     C7 2725   4.434   3.722   3.682  0.4309  1.1972  0.4702
   77ccc    H10 2726   4.440   3.559   3.547  0.0126 -1.4428 -0.3612
   77ccc    H11 2727   4.514   3.768   3.622  2.3153 -1.0752  1.1164
   77ccc    H12 2728   4.446   3.746   3.788 -2.1490 -0.7248  1.2828
   77ccc     C8 2729   4.296   3.780   3.647 -0.3068 -0.1247  0.5129
   77ccc     O2 2730   4.217   3.740   3.561 -0.4289 -0.2730 -0.4192
   77ccc    H13 2731   4.266   3.270   3.715  0.6144  0.0284  0.0731
   77ccc    H14 2732   4.436   3.312   3.737  1.4694  1.3239 -1.2397
   77ccc     C9 2733   4.377   3.295   3.528 -1.2389 -0.0307 -0.2046
   77ccc    H15 2734   4.464   3.350   3.491 -1.3369 -0.6528 -1.4248
   77ccc    H16 2735   4.296   3.314   3.456  0.3800  0.2636 -2.0366
   77ccc    C10 2736   4.419   3.151   3.500  0.0585 -0.0371 -0.1525
   77ccc     O4 2737   4.367   3.055   3.552  0.0634 -0.0407 -0.2515
   77ccc    C11 2738   3.941   4.129   3.831  0.9725 -0.4231 -0.6902
   77ccc    C12 2739   4.024   4.203   3.724  0.4971 -0.3197 -0.3879
   77ccc    H17 2740   3.990   4.133   3.929  0.5736 -1.1533 -0.4538
   77ccc    C13 2741   4.159   4.129   3.711  0.2785  0.5205 -0.0718
   77ccc    C14 2742   4.147   3.977   3.698 -0.0432  1.3679 -0.0230
   77ccc    C15 2743   4.047   3.911   3.800  0.1931 -0.7017 -1.1641
   77ccc    H18 2744   4.087   3.964   3.607 -1.2316  2.0466  0.6450
   77ccc    H19 2745   4.209   4.164   3.802 -0.0525  0.4038  0.1532
   77ccc    H20 2746   4.088   3.924   3.901 -3.1565  0.4653  0.1637
   77ccc     O1 2747   4.024   3.776   3.778  0.5582  0.3060  0.1199
   77ccc     O6 2748   4.246   4.178   3.601  1.0124 -0.3138 -0.0413
   77ccc    C16 2749   3.800   4.194   3.858  0.5268  0.6293  0.7604
   77ccc    H21 2750   4.185   4.214   3.534  0.5262 -1.9951 -0.5692
   77ccc    H22 2751   4.333   3.928   3.782  0.3101  2.8528 -0.9333
   77ccc    H23 2752   3.724   4.173   3.782  0.3120 -0.9487  1.3603
   77ccc    H24 2753   3.801   4.303   3.860 -1.5896  0.6819  2.0166
   77ccc     O7 2754   3.751   4.143   3.975  0.3396 -0.0174 -0.0143
   77ccc    H25 2755   3.673   4.197   3.999 -0.1536 -1.1712  1.1313
   77ccc     O8 2756   3.924   3.988   3.791  0.8331 -0.5465 -0.4988
   77ccc    H26 2757   3.947   3.771   3.718  1.7994 -0.2903 -1.4999
   77ccc    H27 2758   3.966   4.202   3.631 -0.1245 -1.9737 -0.0110
   77ccc     O9 2759   4.049   4.336   3.762  0.0100 -0.6017  0.2728
   77ccc    H28 2760   4.044   4.380   3.676  0.1589 -0.0226  0.5546
   77ccc     N3 2761   4.271   3.898   3.706 -0.2364  0.0018  0.4984
   77ccc    C17 2762   4.790   2.839   3.236 -0.4874  0.2874  0.3595
   77ccc    C18 2763   4.811   2.880   3.380 -0.2200  0.2500  0.1329
   77ccc    H29 2764   4.844   2.908   3.170  0.4597 -0.6745  0.1017
   77ccc    C19 2765   4.736   3.009   3.414  0.1161 -0.1823 -1.0733
   77ccc    C20 2766   4.591   3.006   3.371 -0.2895 -0.6501 -0.0875
   77ccc    C21 2767   4.584   2.966   3.221  0.4055 -0.1250 -0.5143
   77ccc    H30 2768   4.542   2.929   3.432  0.5081 -0.0597  1.3391
   77ccc    H31 2769   4.783   3.096   3.365 -1.9798  0.4609 -2.0975
   77ccc    H32 2770   4.635   3.041   3.159 -2.1592  1.8814 -0.3755
   77ccc    O10 2771   4.446   2.953   3.188 -0.6402  0.9929 -0.0830
   77ccc    O11 2772   4.756   3.030   3.558 -0.3866 -0.1038  0.6570
   77ccc    C22 2773   4.851   2.697   3.203 -0.7003 -0.1295 -0.4672
   77ccc    H33 2774   4.802   2.953   3.597  0.5106  0.3923  0.6181
   77ccc    H34 2775   4.548   3.214   3.354 -1.0215 -0.8726 -1.6047
   77ccc    H35 2776   4.795   2.616   3.251  2.0673 -2.0691 -0.2508
   77ccc    H36 2777   4.947   2.698   3.257 -0.6627  0.3460 -0.5358
   77ccc    O12 2778   4.862   2.678   3.064 -0.1572 -0.6144  0.1409
   77ccc    H37 2779   4.958   2.695   3.058 -0.1249 -1.2050 -1.4335
   77ccc    O13 2780   4.647   2.838   3.208  0.7683 -0.1648 -0.1053
   77ccc    H38 2781   4.398   3.037   3.198 -0.5891  0.9692  0.4007
   77ccc    H39 2782   4.775   2.802   3.448  2.5232 -1.0211  0.2899
   77ccc     O5 2783   4.944   2.905   3.393 -0.2212  0.2139 -0.3899
   77ccc    H40 2784   4.965   2.903   3.488  0.6493  1.3185 -0.5358
   77ccc     N4 2785   4.515   3.133   3.405  0.2501 -0.3202  0.1996
   77ccc    H41 2786   4.238   3.512   3.652  0.0861 -1.1412 -1.0293
   78ccc     N1 2787   3.982  -1.381   5.844 -0.4998  0.0484 -0.3465
   78ccc     H4 2788   3.908  -1.443   5.875  0.8797 -0.6548  1.6782
   78ccc     C3 2789   4.110  -1.372   5.909 -0.3437 -0.4997 -0.2206
   78ccc     H5 2790   4.149  -1.475   5.909 -0.3840 -0.5511 -2.4476
   78ccc     C4 2791   4.100  -1.319   6.056 -0.7072 -0.3581 -0.4582
   78ccc     H6 2792   4.172  -1.306   5.848  0.9411 -1.0979  0.3893
   78ccc     H7 2793   4.021  -1.376   6.107  0.8102 -1.5930  0.5949
   78ccc     H8 2794   4.076  -1.212   6.055 -0.0296 -0.1800  0.6251
   78ccc     N2 2795   4.226  -1.332   6.141  1.0397  0.2625 -0.6151
   78ccc     C5 2796   4.341  -1.274   6.068 -0.3119 -0.1684  0.0669
   78ccc     C6 2797   4.259  -1.473   6.181  0.0104  0.2471 -0.3804
   78ccc     H9 2798   4.192  -1.527   6.114 -0.2144 -1.4440  1.1157
   78ccc     C7 2799   4.224  -1.515   6.327  0.0725 -0.1017 -0.8306
   78ccc    H10 2800   4.364  -1.505   6.170 -0.2041 -1.7712  2.3988
   78ccc    H11 2801   4.271  -1.608   6.361 -1.4471 -0.7638 -0.4611
   78ccc    H12 2802   4.115  -1.519   6.341  0.2062  2.5418  2.3078
   78ccc     C8 2803   4.270  -1.399   6.417  0.0100  0.2584 -0.4192
   78ccc     O2 2804   4.385  -1.362   6.441  0.0065  0.4175 -0.3707
   78ccc    H13 2805   4.313  -1.180   6.019 -1.0013 -0.7622 -0.6981
   78ccc    H14 2806   4.367  -1.351   5.994 -1.5078 -2.1946  1.6475
   78ccc     C9 2807   4.458  -1.231   6.161  0.0230  0.2472 -1.0581
   78ccc    H15 2808   4.510  -1.316   6.208 -0.7016 -0.0675 -0.8200
   78ccc    H16 2809   4.411  -1.164   6.234  1.6163  1.1779 -0.8410
   78ccc    C10 2810   4.568  -1.145   6.106  0.5117  0.4152 -0.0405
   78ccc     O4 2811   4.576  -1.032   6.143 -0.1854 -0.2796  0.3868
   78ccc    C11 2812   4.045  -0.954   6.630  0.2267 -0.5166  0.0017
   78ccc    C12 2813   4.115  -1.048   6.733  0.0166  0.9169 -0.4361
   78ccc    H17 2814   3.937  -0.973   6.633  0.0639  0.3327 -0.2618
   78ccc    C13 2815   4.123  -1.199   6.688  0.1688  0.2627  0.6760
   78ccc    C14 2816   4.166  -1.209   6.537  0.7096  0.4070 -0.0011
   78ccc    C15 2817   4.083  -1.121   6.450  0.5579  0.0771 -0.1091
   78ccc    H18 2818   4.268  -1.169   6.534  0.3559  1.7143  2.5632
   78ccc    H19 2819   4.018  -1.233   6.691  0.6609 -1.8404 -1.9586
   78ccc    H20 2820   3.977  -1.147   6.452  0.4808  0.2739  3.1632
   78ccc     O1 2821   4.139  -1.120   6.324 -0.0558 -0.1681 -0.0140
   78ccc     O6 2822   4.206  -1.279   6.770 -0.2884  0.7618 -0.5138
   78ccc    C16 2823   4.080  -0.799   6.657  0.5366 -0.0862 -0.1746
   78ccc    H21 2824   4.296  -1.244   6.765  0.5479 -0.9780  1.1734
   78ccc    H22 2825   4.073  -1.371   6.449  1.2350 -2.6994 -1.5961
   78ccc    H23 2826   4.177  -0.775   6.612  0.8892  0.9867  1.0704
   78ccc    H24 2827   4.096  -0.793   6.765  1.0753 -0.6186 -0.2202
   78ccc     O7 2828   3.974  -0.707   6.620 -0.3966 -0.0536 -0.1412
   78ccc    H25 2829   3.894  -0.745   6.661 -0.4336 -2.0253 -1.8904
   78ccc     O8 2830   4.093  -0.986   6.492  0.4250 -0.2215  0.3990
   78ccc    H26 2831   4.078  -1.073   6.264  0.8372 -0.8706 -1.5251
   78ccc    H27 2832   4.217  -1.010   6.721  0.8859 -1.5406 -1.6075
   78ccc     O9 2833   4.052  -1.048   6.865 -0.2681  0.6109  0.3759
   78ccc    H28 2834   3.974  -1.105   6.867  0.6756 -0.7906 -0.9379
   78ccc     N3 2835   4.166  -1.341   6.478 -0.0709  0.4059 -0.1819
   78ccc    C17 2836   4.883  -0.941   5.757 -0.5310  0.6817  0.4246
   78ccc    C18 2837   4.952  -1.032   5.859 -0.2182  0.6777 -0.0113
   78ccc    H29 2838   4.887  -0.840   5.798  0.1370  0.0884  1.8734
   78ccc    C19 2839   4.861  -1.077   5.970  0.5659 -0.0675  0.2596
   78ccc    C20 2840   4.731  -1.142   5.915 -0.5091 -0.0261  0.1455
   78ccc    C21 2841   4.653  -1.032   5.829 -0.5481  0.2649 -0.2356
   78ccc    H30 2842   4.757  -1.226   5.848 -1.5597 -0.8121  0.6807
   78ccc    H31 2843   4.825  -0.987   6.022 -0.4576 -0.2076 -0.1804
   78ccc    H32 2844   4.612  -0.957   5.898 -2.9631 -2.2008  1.2441
   78ccc    O10 2845   4.549  -1.089   5.751 -0.2103  0.1953  0.3278
   78ccc    O11 2846   4.927  -1.180   6.050  0.3702  0.7579 -0.0317
   78ccc    C22 2847   4.964  -0.940   5.621 -0.9827  0.9652 -0.3889
   78ccc    H33 2848   4.868  -1.186   6.128  1.8782 -0.2992  1.1015
   78ccc    H34 2849   4.631  -1.300   5.981 -1.9459 -0.3090  1.6536
   78ccc    H35 2850   4.960  -1.041   5.580  0.6699  0.6374  0.1621
   78ccc    H36 2851   5.068  -0.922   5.650 -0.9986  0.2238  0.1393
   78ccc    O12 2852   4.916  -0.845   5.529 -0.1655  0.2773  0.1144
   78ccc    H37 2853   4.987  -0.823   5.467  0.0113 -1.2456 -0.2720
   78ccc    O13 2854   4.749  -0.981   5.728  0.3012  0.1172  0.4782
   78ccc    H38 2855   4.576  -1.165   5.697 -0.0699  2.0762 -2.4621
   78ccc    H39 2856   4.988  -1.125   5.811 -1.6280 -0.5766  1.2807
   78ccc     O5 2857   5.070  -0.968   5.911  0.5445  0.6208 -0.1261
   78ccc    H40 2858   5.141  -0.999   5.854 -0.2952 -1.0456 -0.3331
   78ccc     N4 2859   4.641  -1.203   6.012 -0.0563  0.1016 -0.0401
   78ccc    H41 2860   4.217  -1.276   6.227  0.8545 -1.7766  0.7901
   79ccc     N1 2861   3.827  -1.831   5.455 -0.3964  0.3749  0.2393
   79ccc     H4 2862   3.880  -1.801   5.535 -1.2273 -3.1612  2.2874
   79ccc     C3 2863   3.793  -1.972   5.463 -0.0485  0.5117 -1.2204
   79ccc     H5 2864   3.777  -1.994   5.570  2.2612  0.6447 -0.7998
   79ccc     C4 2865   3.915  -2.060   5.415 -0.2234 -0.1305 -0.1321
   79ccc     H6 2866   3.698  -1.997   5.415 -0.8485 -0.3169  0.6603
   79ccc     H7 2867   3.888  -2.165   5.432  1.3530 -0.3295  1.4637
   79ccc     H8 2868   4.005  -2.048   5.477  0.5328 -1.6520 -0.8906
   79ccc     N2 2869   3.952  -2.044   5.268  0.1020  0.5173  0.4618
   79ccc     C5 2870   3.912  -2.167   5.179 -0.7054 -0.3798 -0.4637
   79ccc     C6 2871   4.105  -2.008   5.251 -0.0471 -0.4077 -0.7898
   79ccc     H9 2872   4.134  -1.934   5.326  0.9980 -2.2040  0.6637
   79ccc     C7 2873   4.141  -1.947   5.113 -0.4855 -0.4245  0.3982
   79ccc    H10 2874   4.162  -2.099   5.274 -1.0065 -0.5528  1.2166
   79ccc    H11 2875   4.119  -2.013   5.029  2.3866 -2.2340  0.8866
   79ccc    H12 2876   4.249  -1.928   5.117 -0.8065  1.5294  0.9511
   79ccc     C8 2877   4.063  -1.824   5.081 -0.2080 -0.0832  0.8466
   79ccc     O2 2878   3.982  -1.777   5.159 -0.3887  0.2902  0.1673
   79ccc    H13 2879   3.940  -2.259   5.231  1.9556 -0.4169 -1.8194
   79ccc    H14 2880   3.975  -2.164   5.089  4.4877  1.4110  2.7960
   79ccc     C9 2881   3.757  -2.169   5.153 -0.5148  0.1187  0.3147
   79ccc    H15 2882   3.702  -2.161   5.247  0.6054 -0.7880  1.0813
   79ccc    H16 2883   3.725  -2.265   5.112  1.6119 -0.1433 -0.8669
   79ccc    C10 2884   3.705  -2.059   5.061 -0.4919 -0.2537 -0.0782
   79ccc     O4 2885   3.785  -1.973   5.026 -0.1628  0.2858  0.0756
   79ccc    C11 2886   3.864  -1.412   4.968  0.5192  0.2157 -0.6842
   79ccc    C12 2887   4.008  -1.394   4.925  0.3612  0.2709 -0.2854
   79ccc    H17 2888   3.871  -1.430   5.076 -1.0795  0.9040 -0.4339
   79ccc    C13 2889   4.088  -1.520   4.960 -0.5920  0.4276  0.3292
   79ccc    C14 2890   4.017  -1.653   4.911  0.3335 -0.5149 -0.6483
   79ccc    C15 2891   3.861  -1.644   4.944 -0.3452 -0.3374  0.3054
   79ccc    H18 2892   4.016  -1.661   4.801  0.2468 -1.4329 -0.5932
   79ccc    H19 2893   4.087  -1.514   5.069 -2.2922 -2.4159  0.5762
   79ccc    H20 2894   3.839  -1.643   5.051 -5.5087 -1.9502 -0.4372
   79ccc     O1 2895   3.785  -1.740   4.887 -0.3088  0.3799 -0.6107
   79ccc     O6 2896   4.228  -1.505   4.904  0.0804  0.2718  0.4274
   79ccc    C16 2897   3.775  -1.281   4.937  0.5508  0.1138  0.7551
   79ccc    H21 2898   4.278  -1.588   4.899 -0.6078 -0.1226 -2.9287
   79ccc    H22 2899   4.130  -1.820   4.887 -0.7592  0.8032 -0.5134
   79ccc    H23 2900   3.798  -1.252   4.834  0.9302 -1.0868  0.4800
   79ccc    H24 2901   3.813  -1.199   4.999 -2.1801  1.9798  0.1652
   79ccc     O7 2902   3.635  -1.310   4.972 -0.6082 -0.0439  0.0112
   79ccc    H25 2903   3.585  -1.243   4.922 -0.7458 -1.3945 -1.7845
   79ccc     O8 2904   3.811  -1.523   4.898 -0.0841  0.0340  0.0317
   79ccc    H26 2905   3.778  -1.812   4.953  0.0284 -0.3565 -1.3626
   79ccc    H27 2906   4.010  -1.371   4.818 -0.1407  0.3391 -0.2815
   79ccc     O9 2907   4.054  -1.276   4.999  0.0903  0.1389 -0.2915
   79ccc    H28 2908   4.132  -1.242   4.952  1.4595  0.1068  1.8293
   79ccc     N3 2909   4.078  -1.771   4.959 -0.3363 -0.1618  0.4723
   79ccc    C17 2910   3.165  -2.180   5.043 -0.6265  0.2163  0.1688
   79ccc    C18 2911   3.257  -2.268   4.949  0.3919 -0.2801  0.5804
   79ccc    H29 2912   3.134  -2.083   5.001 -0.6524  0.0061 -0.3079
   79ccc    C19 2913   3.388  -2.195   4.914 -0.3905  0.1637 -0.3382
   79ccc    C20 2914   3.465  -2.149   5.041  0.0136  0.1467  0.5359
   79ccc    C21 2915   3.368  -2.069   5.130 -0.6746 -0.6071  0.3245
   79ccc    H30 2916   3.504  -2.233   5.099 -0.0119  0.5183  1.0985
   79ccc    H31 2917   3.368  -2.106   4.853  0.6920  1.7823  1.5687
   79ccc    H32 2918   3.358  -1.973   5.077 -0.7808 -0.4243  0.6691
   79ccc    O10 2919   3.428  -2.054   5.257  0.2659 -1.2161 -0.4694
   79ccc    O11 2920   3.480  -2.277   4.848  0.1606 -0.8391 -0.1348
   79ccc    C22 2921   3.041  -2.257   5.087 -0.3965  0.2057  0.6371
   79ccc    H33 2922   3.559  -2.231   4.815  1.3524 -2.7491 -0.1394
   79ccc    H34 2923   3.559  -1.992   4.933 -0.4092  1.6041  1.5204
   79ccc    H35 2924   3.073  -2.342   5.148 -1.0714  0.1575  0.9292
   79ccc    H36 2925   2.994  -2.305   5.000 -1.3460 -0.0016  1.2476
   79ccc    O12 2926   2.956  -2.169   5.158  0.5342 -0.5010 -0.0960
   79ccc    H37 2927   3.006  -2.112   5.219 -0.1797 -2.0064  2.0199
   79ccc    O13 2928   3.246  -2.139   5.155  0.3451 -0.1624  0.0170
   79ccc    H38 2929   3.429  -2.147   5.287 -0.5766 -1.1458 -0.1784
   79ccc    H39 2930   3.285  -2.357   5.007  0.7489 -0.5060  0.0645
   79ccc     O5 2931   3.197  -2.301   4.821 -0.0071  0.1569 -0.0229
   79ccc    H40 2932   3.256  -2.366   4.779 -0.7271  0.4597 -1.5773
   79ccc     N4 2933   3.584  -2.061   5.003  0.2227  0.0714 -0.1185
   79ccc    H41 2934   3.894  -1.970   5.226  1.2469  1.1199 -0.1011
   80ccc     N1 2935   1.896  -0.969   5.553  0.3266 -0.1231  0.0299
   80ccc     H4 2936   1.957  -0.896   5.587 -0.6147  1.5386 -1.6200
   80ccc     C3 2937   1.755  -0.931   5.525 -0.5170  0.1892 -0.0689
   80ccc     H5 2938   1.693  -1.014   5.560 -1.8201  0.6465 -1.2088
   80ccc     C4 2939   1.727  -0.913   5.376  0.4298 -0.2800 -0.1024
   80ccc     H6 2940   1.735  -0.837   5.580  1.8730  0.3853  0.5561
   80ccc     H7 2941   1.783  -0.992   5.323  1.1091 -0.2719  0.5938
   80ccc     H8 2942   1.774  -0.822   5.337  0.9209  0.2243  1.6157
   80ccc     N2 2943   1.576  -0.914   5.319 -0.3940  0.1000 -0.1224
   80ccc     C5 2944   1.587  -0.874   5.174  0.3801 -0.0727 -0.0558
   80ccc     C6 2945   1.486  -0.815   5.392 -0.1171 -0.3125 -0.2801
   80ccc     H9 2946   1.533  -0.717   5.405 -1.0372  0.0577  0.4051
   80ccc     C7 2947   1.443  -0.862   5.530  0.0512  0.1356 -0.2924
   80ccc    H10 2948   1.394  -0.801   5.334 -0.0153 -1.1424 -0.6627
   80ccc    H11 2949   1.521  -0.877   5.605 -0.8597 -0.6417  0.5401
   80ccc    H12 2950   1.406  -0.966   5.532 -1.6536  0.6150  3.7315
   80ccc     C8 2951   1.334  -0.783   5.598  0.3017  0.7061  0.1404
   80ccc     O2 2952   1.211  -0.805   5.584 -0.2381 -0.3874 -0.1580
   80ccc    H13 2953   1.647  -0.784   5.155 -0.5207  0.6461  0.4080
   80ccc    H14 2954   1.486  -0.851   5.137  0.0866  0.4123  1.0047
   80ccc     C9 2955   1.651  -0.978   5.079  0.3440  0.4903 -0.3237
   80ccc    H15 2956   1.583  -0.970   4.994  0.8012  0.3660 -0.7033
   80ccc    H16 2957   1.635  -1.081   5.115 -1.8860  0.9462  0.1571
   80ccc    C10 2958   1.789  -0.949   5.019  0.0222  0.6659  0.3203
   80ccc     O4 2959   1.870  -0.865   5.054  0.5583 -0.4351 -0.4939
   80ccc    C11 2960   1.043  -0.477   5.836  0.2230 -0.5806 -0.6221
   80ccc    C12 2961   1.156  -0.513   5.940 -0.9651  0.6737 -1.4604
   80ccc    H17 2962   0.982  -0.565   5.811 -0.6570 -0.7644  1.9429
   80ccc    C13 2963   1.243  -0.619   5.870  0.0552  0.4350  0.6892
   80ccc    C14 2964   1.292  -0.571   5.728 -0.6286  0.0343 -0.8846
   80ccc    C15 2965   1.177  -0.513   5.641 -0.1290  0.2335 -0.0333
   80ccc    H18 2966   1.354  -0.483   5.750  0.9673 -1.9762  4.6817
   80ccc    H19 2967   1.182  -0.706   5.846  0.6388  0.0929  0.4151
   80ccc    H20 2968   1.106  -0.592   5.617 -1.0872  0.0720  2.8660
   80ccc     O1 2969   1.226  -0.437   5.526 -0.5949  0.0476  0.2243
   80ccc     O6 2970   1.346  -0.653   5.961 -0.0461  1.4155  0.9137
   80ccc    C16 2971   0.952  -0.364   5.898 -0.4001  0.1445 -0.4119
   80ccc    H21 2972   1.310  -0.660   6.051 -1.4245 -0.0643  0.2958
   80ccc    H22 2973   1.478  -0.650   5.668  0.7258 -3.1492 -0.2719
   80ccc    H23 2974   0.912  -0.401   5.993  0.5184  1.1942  0.4106
   80ccc    H24 2975   0.872  -0.336   5.829  0.3260  1.9694 -0.5684
   80ccc     O7 2976   1.039  -0.252   5.930 -0.0622  0.8104  0.3183
   80ccc    H25 2977   1.129  -0.278   5.902 -0.4379  0.6550 -0.8019
   80ccc     O8 2978   1.104  -0.419   5.722 -0.3497 -0.0231  0.2154
   80ccc    H26 2979   1.201  -0.346   5.549  1.1252  0.9794 -1.3582
   80ccc    H27 2980   1.220  -0.425   5.956  0.6439 -0.6108 -0.5188
   80ccc     O9 2981   1.090  -0.558   6.056  0.3724  0.3890  0.6718
   80ccc    H28 2982   1.084  -0.480   6.114 -0.4111  0.0043  1.1278
   80ccc     N3 2983   1.379  -0.672   5.662 -0.0401 -0.1680  0.0801
   80ccc    C17 2984   1.776  -1.192   4.541  0.3950 -0.2275  0.3332
   80ccc    C18 2985   1.749  -1.293   4.662  0.4062  0.0436 -0.1764
   80ccc    H29 2986   1.880  -1.207   4.509 -0.2064  1.0218 -2.4305
   80ccc    C19 2987   1.811  -1.233   4.795  0.0674 -0.1272  0.1488
   80ccc    C20 2988   1.788  -1.084   4.821 -0.9080  0.1997  0.5755
   80ccc    C21 2989   1.828  -1.007   4.692  0.0986 -0.7475 -0.3569
   80ccc    H30 2990   1.679  -1.073   4.834 -0.8637 -0.2347  1.3888
   80ccc    H31 2991   1.918  -1.254   4.786  0.1032  0.5435 -1.4080
   80ccc    H32 2992   1.935  -1.008   4.668  0.2812  2.1476  0.0588
   80ccc    O10 2993   1.806  -0.874   4.708 -0.6574 -0.4776  0.2441
   80ccc    O11 2994   1.757  -1.301   4.912 -0.3274  0.3103 -0.4091
   80ccc    C22 2995   1.686  -1.220   4.419 -0.0540 -0.5743  0.3055
   80ccc    H33 2996   1.818  -1.268   4.981  1.3709  0.1120 -1.7656
   80ccc    H34 2997   1.947  -1.024   4.910  0.2066 -0.8755  0.0093
   80ccc    H35 2998   1.704  -1.322   4.384  1.5820  0.3882 -1.8286
   80ccc    H36 2999   1.734  -1.161   4.340  1.0929 -0.6933  0.8971
   80ccc    O12 3000   1.552  -1.183   4.447 -0.6561  0.5722 -0.1521
   80ccc    H37 3001   1.551  -1.086   4.435 -0.7827  0.4329 -1.3822
   80ccc    O13 3002   1.743  -1.055   4.588  0.0134 -0.1465  0.7094
   80ccc    H38 3003   1.805  -0.840   4.616 -0.1004 -0.1215  0.3670
   80ccc    H39 3004   1.644  -1.322   4.675  0.7413 -0.2430  2.3846
   80ccc     O5 3005   1.821  -1.424   4.649  0.4335 -0.0449 -0.5146
   80ccc    H40 3006   1.794  -1.478   4.725 -1.2520  0.7233 -0.5179
   80ccc     N4 3007   1.851  -1.041   4.940 -0.0780  0.2127 -0.2626
   80ccc    H41 3008   1.532  -1.007   5.325 -1.6852  0.6145 -1.1338
   81ccc     N1 3009   2.127  -1.531   5.977  0.1007  0.2001  0.1707
   81ccc     H4 3010   2.039  -1.485   5.955 -0.1602 -0.3955 -0.0438
   81ccc     C3 3011   2.142  -1.612   6.099  0.2590 -0.0781 -0.4339
   81ccc     H5 3012   2.055  -1.678   6.107  1.1170 -1.1121  0.6604
   81ccc     C4 3013   2.141  -1.510   6.218 -0.2367 -0.1940 -0.3691
   81ccc     H6 3014   2.235  -1.669   6.110  0.6873  0.6253 -0.3169
   81ccc     H7 3015   2.171  -1.562   6.309 -0.5583  1.7132  0.8790
   81ccc     H8 3016   2.041  -1.466   6.231  0.0868  0.5184 -0.2497
   81ccc     N2 3017   2.235  -1.387   6.208  0.0731 -0.1978 -0.7607
   81ccc     C5 3018   2.374  -1.443   6.247  0.0067  0.1546  0.0380
   81ccc     C6 3019   2.179  -1.279   6.304  0.1829  0.4473  0.3104
   81ccc     H9 3020   2.244  -1.192   6.294 -0.2080  0.6308 -0.7058
   81ccc     C7 3021   2.152  -1.317   6.454 -0.3677  0.2561 -0.1693
   81ccc    H10 3022   2.082  -1.255   6.260 -0.1119 -0.7182  0.2709
   81ccc    H11 3023   2.246  -1.344   6.503 -0.9544 -1.0995  0.2525
   81ccc    H12 3024   2.083  -1.401   6.463  0.5749 -0.5629 -0.3893
   81ccc     C8 3025   2.108  -1.196   6.537  0.5223  0.1996  0.2933
   81ccc     O2 3026   2.093  -1.090   6.484 -0.3490  0.4347 -0.1212
   81ccc    H13 3027   2.413  -1.502   6.163  1.7610  1.1482  0.1023
   81ccc    H14 3028   2.364  -1.508   6.335  0.8664  0.1012  0.1084
   81ccc     C9 3029   2.481  -1.337   6.281 -0.6557 -0.7243  0.4349
   81ccc    H15 3030   2.578  -1.368   6.321 -0.6249 -0.3973  0.6154
   81ccc    H16 3031   2.438  -1.272   6.358  1.3708 -0.3877  1.3602
   81ccc    C10 3032   2.511  -1.235   6.166  0.1057  0.2356  0.4458
   81ccc     O4 3033   2.465  -1.246   6.054 -0.0612  0.4222 -0.3257
   81ccc    C11 3034   1.847  -1.089   7.006  0.2826 -0.1132  0.4912
   81ccc    C12 3035   1.998  -1.058   7.010  0.0981 -0.6169 -0.0967
   81ccc    H17 3036   1.826  -1.188   7.048 -1.0484  0.2247  0.6663
   81ccc    C13 3037   2.084  -1.136   6.901  0.0237  0.1620 -0.1340
   81ccc    C14 3038   2.020  -1.129   6.759 -0.2391  0.1189 -0.3884
   81ccc    C15 3039   1.869  -1.158   6.770  0.1396  0.3176  0.0008
   81ccc    H18 3040   2.028  -1.025   6.725 -2.1152 -0.2638 -2.2626
   81ccc    H19 3041   2.086  -1.243   6.925 -0.7576 -0.0374 -0.9117
   81ccc    H20 3042   1.860  -1.255   6.821  2.9860 -0.5409 -0.9383
   81ccc     O1 3043   1.794  -1.139   6.650 -0.1967  0.0033 -0.3477
   81ccc     O6 3044   2.224  -1.082   6.896  0.4144 -0.1205  0.7101
   81ccc    C16 3045   1.762  -0.999   7.100 -0.2462 -0.2745  0.2274
   81ccc    H21 3046   2.260  -1.111   6.982 -0.1258  0.0143  0.9885
   81ccc    H22 3047   2.094  -1.322   6.695 -1.8642 -2.0190 -3.7519
   81ccc    H23 3048   1.812  -0.984   7.197  0.4575 -0.3699 -0.1151
   81ccc    H24 3049   1.658  -1.033   7.112 -0.2322 -1.1578 -1.8133
   81ccc     O7 3050   1.757  -0.870   7.051 -0.6214 -0.7221 -0.2651
   81ccc    H25 3051   1.668  -0.831   7.054 -1.0231 -1.5465 -1.1569
   81ccc     O8 3052   1.792  -1.084   6.866  0.1479 -0.6934  0.2965
   81ccc    H26 3053   1.781  -1.223   6.604  0.3946  0.4271 -1.3325
   81ccc    H27 3054   2.020  -0.952   6.993  0.7271 -0.6096  0.7294
   81ccc     O9 3055   2.041  -1.085   7.142  0.0955  0.0105  0.0645
   81ccc    H28 3056   1.977  -1.127   7.203 -1.0007  0.1566 -0.9401
   81ccc     N3 3057   2.081  -1.226   6.664 -0.3794 -0.3776  0.0670
   81ccc    C17 3058   2.776  -0.906   6.505 -0.7608  0.5090  0.6206
   81ccc    C18 3059   2.618  -0.897   6.521 -0.1525  0.2026 -0.1071
   81ccc    H29 3060   2.809  -0.818   6.449 -1.5345 -0.3638 -1.2825
   81ccc    C19 3061   2.555  -0.955   6.391 -0.1968  0.5372  0.2242
   81ccc    C20 3062   2.634  -1.077   6.324  0.5114  0.1120  0.1523
   81ccc    C21 3063   2.778  -1.047   6.307  0.3580  0.2044  0.3035
   81ccc    H30 3064   2.616  -1.161   6.392 -1.5897  0.0890 -0.3605
   81ccc    H31 3065   2.563  -0.868   6.326 -2.9648 -0.2309 -1.2984
   81ccc    H32 3066   2.783  -0.964   6.235 -1.6998 -0.6448 -0.9210
   81ccc    O10 3067   2.850  -1.160   6.253  0.3377  0.2678 -0.0032
   81ccc    O11 3068   2.421  -0.988   6.422 -0.4122 -0.0567 -0.0855
   81ccc    C22 3069   2.847  -0.877   6.635 -0.1962  0.4922 -0.4358
   81ccc    H33 3070   2.415  -1.044   6.501  2.2975 -0.4189 -0.0202
   81ccc    H34 3071   2.591  -1.045   6.122 -0.0029  0.3174 -0.0107
   81ccc    H35 3072   2.801  -0.792   6.688 -1.4347 -0.3936 -0.0266
   81ccc    H36 3073   2.946  -0.837   6.610 -0.5864  1.6356 -0.1824
   81ccc    O12 3074   2.858  -0.998   6.715 -0.0925 -0.1525  0.1650
   81ccc    H37 3075   2.902  -1.064   6.658 -1.0449  0.2263 -1.0380
   81ccc    O13 3076   2.825  -1.027   6.439 -0.2176 -0.4766 -0.8173
   81ccc    H38 3077   2.919  -1.173   6.321  1.6542 -1.7174 -1.5850
   81ccc    H39 3078   2.574  -0.958   6.601 -1.3296 -1.7448 -2.1550
   81ccc     O5 3079   2.574  -0.764   6.541 -0.5500  0.1763 -0.1768
   81ccc    H40 3080   2.562  -0.749   6.636 -2.5496 -3.4099  0.3409
   81ccc     N4 3081   2.570  -1.114   6.194 -0.4112  0.7290  0.2690
   81ccc    H41 3082   2.227  -1.348   6.113  1.2814  0.6939 -0.5180
   82ccc     N1 3083   2.523  -1.810   4.267 -0.2398 -0.1864 -0.3635
   82ccc     H4 3084   2.504  -1.711   4.254  2.2609  0.6875  1.7654
   82ccc     C3 3085   2.600  -1.882   4.160  0.1653  0.6436  0.1036
   82ccc     H5 3086   2.583  -1.990   4.173  0.0397  0.7485  0.8438
   82ccc     C4 3087   2.755  -1.847   4.142  0.0208  0.5198  0.3003
   82ccc     H6 3088   2.537  -1.841   4.080 -0.0482 -0.3381 -0.2456
   82ccc     H7 3089   2.772  -1.744   4.175  1.8085 -0.1495  1.6196
   82ccc     H8 3090   2.776  -1.858   4.035  1.4871  1.4106  0.4747
   82ccc     N2 3091   2.865  -1.925   4.208  0.4596  0.8973 -0.3291
   82ccc     C5 3092   2.842  -2.078   4.178 -0.4447 -0.3345  0.0676
   82ccc     C6 3093   2.862  -1.893   4.353 -0.4613 -0.2741 -0.2001
   82ccc     H9 3094   2.867  -1.784   4.364  0.6917 -0.2262 -0.9551
   82ccc     C7 3095   2.975  -1.952   4.429 -0.2385 -1.0757  0.2434
   82ccc    H10 3096   2.767  -1.930   4.392 -0.2376 -1.3822 -0.6672
   82ccc    H11 3097   2.982  -2.060   4.413  1.2300 -0.8958 -0.4166
   82ccc    H12 3098   2.948  -1.939   4.534 -0.6838  0.4679 -0.0348
   82ccc     C8 3099   3.115  -1.897   4.403  0.3118  0.6093 -0.4282
   82ccc     O2 3100   3.151  -1.813   4.322 -0.0769  0.3804  0.3043
   82ccc    H13 3101   2.752  -2.106   4.234  0.0978 -0.8766  0.6884
   82ccc    H14 3102   2.930  -2.128   4.221  0.5531 -0.7144 -2.2766
   82ccc     C9 3103   2.820  -2.118   4.032  0.8956  0.3732  0.2877
   82ccc    H15 3104   2.905  -2.089   3.969  2.2019 -1.5705  1.0666
   82ccc    H16 3105   2.726  -2.076   3.994 -0.0829 -0.8033  1.2997
   82ccc    C10 3106   2.801  -2.273   4.012 -0.2031 -0.6508  0.4039
   82ccc     O4 3107   2.762  -2.354   4.097  0.0954 -0.1802  0.0699
   82ccc    C11 3108   3.625  -1.836   4.595  0.0532  0.9572 -0.3279
   82ccc    C12 3109   3.578  -1.989   4.593 -0.0577  0.1959  0.6805
   82ccc    H17 3110   3.600  -1.803   4.697  3.9496  0.2573  0.9956
   82ccc    C13 3111   3.425  -2.008   4.588  0.3434  0.1945 -0.0870
   82ccc    C14 3112   3.357  -1.913   4.489  0.0131 -0.5336 -0.0269
   82ccc    C15 3113   3.408  -1.766   4.508 -0.6761  0.1654 -0.1262
   82ccc    H18 3114   3.391  -1.941   4.389 -0.5477  0.4310 -0.4944
   82ccc    H19 3115   3.390  -1.984   4.689 -1.0058 -0.5293 -0.3532
   82ccc    H20 3116   3.388  -1.719   4.604 -0.2833  0.2466 -0.0824
   82ccc     O1 3117   3.367  -1.684   4.401 -0.1671 -0.4647 -0.1856
   82ccc     O6 3118   3.397  -2.144   4.559 -0.7436  0.4384  0.5101
   82ccc    C16 3119   3.776  -1.816   4.582  0.3061  0.3978  0.8860
   82ccc    H21 3120   3.452  -2.198   4.618  1.9153  0.5902 -1.5993
   82ccc    H22 3121   3.180  -1.995   4.566  1.1676 -0.9559  0.1199
   82ccc    H23 3122   3.803  -1.839   4.478  0.0106  2.0191  0.4303
   82ccc    H24 3123   3.830  -1.888   4.645 -0.7671 -0.2119  1.1253
   82ccc     O7 3124   3.818  -1.683   4.621  0.5160 -0.3241 -0.0553
   82ccc    H25 3125   3.817  -1.694   4.718  0.6585 -3.0442 -0.2876
   82ccc     O8 3126   3.552  -1.770   4.498 -0.4541  0.4822  0.3896
   82ccc    H26 3127   3.277  -1.714   4.377  0.4503 -0.6524 -2.4561
   82ccc    H27 3128   3.613  -2.034   4.500 -1.1315 -2.3538  1.4422
   82ccc     O9 3129   3.637  -2.059   4.706 -0.2824 -0.2176 -0.0716
   82ccc    H28 3130   3.712  -2.115   4.678 -1.0421 -0.2622 -2.2363
   82ccc     N3 3131   3.207  -1.932   4.491 -1.0245  0.1886  0.1950
   82ccc    C17 3132   2.997  -2.638   3.655  0.3374 -0.3461 -0.8049
   82ccc    C18 3133   3.076  -2.603   3.781 -0.1614  0.7860 -0.4267
   82ccc    H29 3134   3.049  -2.591   3.571  0.4140  0.9018 -0.0911
   82ccc    C19 3135   3.029  -2.471   3.860 -0.8134 -0.1310  0.1658
   82ccc    C20 3136   2.876  -2.440   3.849  0.4477  0.3169  0.5915
   82ccc    C21 3137   2.835  -2.462   3.697  0.3784  0.0132 -0.1035
   82ccc    H30 3138   2.819  -2.515   3.905  1.5890 -1.1977 -0.1970
   82ccc    H31 3139   3.072  -2.386   3.806 -0.4140 -1.0573 -1.0192
   82ccc    H32 3140   2.880  -2.390   3.628 -2.1194  1.3736 -0.4488
   82ccc    O10 3141   2.700  -2.431   3.683 -0.4388  0.3954 -0.1803
   82ccc    O11 3142   3.080  -2.472   3.993  0.0511 -0.7275  0.7499
   82ccc    C22 3143   2.996  -2.787   3.615  0.2481 -0.1732 -0.3165
   82ccc    H33 3144   3.055  -2.557   4.031 -1.0379 -0.9661 -0.4297
   82ccc    H34 3145   2.871  -2.238   3.818  0.9378  0.7173  1.2553
   82ccc    H35 3146   2.918  -2.842   3.669  1.2642 -0.0707  1.3131
   82ccc    H36 3147   3.085  -2.841   3.648 -0.3289  0.0884  1.8032
   82ccc    O12 3148   2.973  -2.813   3.475  0.0704  0.5445 -0.2922
   82ccc    H37 3149   2.969  -2.910   3.468 -0.2965  0.5835 -0.6911
   82ccc    O13 3150   2.864  -2.593   3.665  0.5941  0.0720 -0.0273
   82ccc    H38 3151   2.709  -2.336   3.702  1.9336  0.1407  0.2428
   82ccc    H39 3152   3.077  -2.686   3.852  4.4168  1.5015  0.6818
   82ccc     O5 3153   3.212  -2.596   3.737 -0.4713 -0.5365  0.2713
   82ccc    H40 3154   3.238  -2.684   3.770 -1.4305  0.1505  3.1926
   82ccc     N4 3155   2.839  -2.308   3.884  0.3085 -0.7604 -0.5392
   82ccc    H41 3156   2.954  -1.904   4.160  0.1523 -0.9737 -1.8239
   83ccc     N1 3157   2.330  -2.077   4.720 -0.2749 -0.4576 -0.4427
   83ccc     H4 3158   2.378  -2.029   4.796  1.4862 -1.3420 -0.9322
   83ccc     C3 3159   2.351  -2.221   4.726  0.0907  0.3226 -0.1863
   83ccc     H5 3160   2.336  -2.258   4.828  1.0720  2.6226  0.8714
   83ccc     C4 3161   2.482  -2.264   4.669 -0.1883 -0.1966  0.2879
   83ccc     H6 3162   2.267  -2.268   4.673 -0.7043  0.8613  0.5460
   83ccc     H7 3163   2.509  -2.368   4.690  1.5044  0.1133 -0.2106
   83ccc     H8 3164   2.562  -2.205   4.715 -0.8313  0.5000  0.5381
   83ccc     N2 3165   2.501  -2.248   4.516  0.5899 -0.6592  0.0902
   83ccc     C5 3166   2.421  -2.361   4.441  0.6472  0.1113 -0.8643
   83ccc     C6 3167   2.654  -2.252   4.483  0.1493  0.0216 -0.3166
   83ccc     H9 3168   2.666  -2.243   4.374 -0.5202  1.3826 -0.2983
   83ccc     C7 3169   2.734  -2.378   4.529 -0.0495  0.3955  0.4008
   83ccc    H10 3170   2.702  -2.168   4.535 -0.7593  1.0020 -1.0171
   83ccc    H11 3171   2.685  -2.465   4.483  2.3544 -1.0436  0.4082
   83ccc    H12 3172   2.723  -2.393   4.637 -1.0386 -0.6460  0.1846
   83ccc     C8 3173   2.890  -2.376   4.502  0.1180  0.1939 -0.1191
   83ccc     O2 3174   2.961  -2.283   4.522  0.1998 -0.2677 -0.0910
   83ccc    H13 3175   2.384  -2.421   4.525  0.2966 -0.9624 -1.7615
   83ccc    H14 3176   2.489  -2.422   4.380  1.5272 -1.2502  1.3595
   83ccc     C9 3177   2.318  -2.307   4.343  0.4278 -0.6290  0.4593
   83ccc    H15 3178   2.250  -2.235   4.389 -1.2669 -1.0326 -1.3086
   83ccc    H16 3179   2.264  -2.394   4.305  0.4534  1.2327 -4.5133
   83ccc    C10 3180   2.378  -2.240   4.226 -0.0718  0.5447  0.2968
   83ccc     O4 3181   2.496  -2.229   4.201 -0.0629 -0.1471 -0.0367
   83ccc    C11 3182   3.431  -2.643   4.349  0.0709  0.1043  0.0241
   83ccc    C12 3183   3.278  -2.748   4.270  0.5383 -0.4088  0.0015
   83ccc    H17 3184   3.456  -2.697   4.440  0.4081  1.6747  0.8994
   83ccc    C13 3185   3.096  -2.676   4.283 -0.1140  0.1454  0.3882
   83ccc    C14 3186   3.065  -2.490   4.348 -0.3499  0.0729  0.3006
   83ccc    C15 3187   3.216  -2.384   4.427 -0.3159  0.5173 -0.8297
   83ccc    H18 3188   3.030  -2.437   4.258 -1.0734 -3.2609 -1.5522
   83ccc    H19 3189   3.033  -2.734   4.351 -2.0701  1.4476 -0.2062
   83ccc    H20 3190   3.191  -2.360   4.531  1.7318 -2.0371  0.3807
   83ccc     O1 3191   3.215  -2.253   4.381  0.0905 -0.5104 -0.0202
   83ccc     O6 3192   3.034  -2.702   4.155 -0.1889  0.0672  0.3352
   83ccc    C16 3193   3.566  -2.666   4.280  0.2652  0.2488  0.6053
   83ccc    H21 3194   3.009  -2.796   4.166  0.7742 -0.2730 -0.2817
   83ccc    H22 3195   2.864  -2.533   4.375  1.9479 -2.0757 -0.4549
   83ccc    H23 3196   3.552  -2.711   4.182  0.5545  1.7742 -0.1639
   83ccc    H24 3197   3.617  -2.748   4.333 -2.3736 -1.7453  0.2419
   83ccc     O7 3198   3.638  -2.547   4.283 -0.1373 -0.0785  0.4579
   83ccc    H25 3199   3.733  -2.568   4.282  0.1330  1.0033 -0.9763
   83ccc     O8 3200   3.392  -2.466   4.416  0.2539  0.4005  0.1436
   83ccc    H26 3201   3.296  -2.213   4.418  0.1124 -0.0360 -0.5727
   83ccc    H27 3202   3.298  -2.757   4.163 -1.6903  0.6604 -0.5827
   83ccc     O9 3203   3.281  -2.882   4.316  0.7115  0.5335  0.4632
   83ccc    H28 3204   3.310  -2.950   4.252 -2.1906  0.4030 -0.9144
   83ccc     N3 3205   2.935  -2.481   4.426  0.5433 -0.1344 -0.3956
   83ccc    C17 3206   2.258  -2.057   3.744  0.9712  0.2730 -0.5595
   83ccc    C18 3207   2.213  -1.951   3.849  0.4674 -0.0236 -0.0849
   83ccc    H29 3208   2.187  -2.140   3.731  0.3797  0.7945 -0.7235
   83ccc    C19 3209   2.191  -2.021   3.985  0.4390  0.4735 -0.1165
   83ccc    C20 3210   2.313  -2.114   4.025  0.1336 -0.5572  0.5483
   83ccc    C21 3211   2.361  -2.204   3.909  0.0961  0.1420  0.2256
   83ccc    H30 3212   2.403  -2.052   4.032  0.5707 -0.8350 -1.8812
   83ccc    H31 3213   2.099  -2.078   3.975  0.9216 -0.2133 -0.7890
   83ccc    H32 3214   2.288  -2.284   3.891  2.7257 -1.8728 -2.2514
   83ccc    O10 3215   2.488  -2.259   3.937  0.6932 -0.8144  0.1591
   83ccc    O11 3216   2.183  -1.919   4.080 -0.4140  0.5045 -0.6726
   83ccc    C22 3217   2.295  -2.004   3.604 -0.0433  0.5089  0.3533
   83ccc    H33 3218   2.124  -1.948   4.152 -0.5476 -0.7153 -1.2409
   83ccc    H34 3219   2.189  -2.203   4.165  1.0364 -0.1858 -0.2629
   83ccc    H35 3220   2.373  -1.928   3.611  1.3385 -0.9191  1.0339
   83ccc    H36 3221   2.210  -1.945   3.568 -1.4067 -0.1781  2.2826
   83ccc    O12 3222   2.329  -2.107   3.508 -0.2836 -0.5031  0.2217
   83ccc    H37 3223   2.251  -2.162   3.491 -0.1705  0.2366 -3.4205
   83ccc    O13 3224   2.378  -2.116   3.797 -0.0841  0.2680  0.1966
   83ccc    H38 3225   2.489  -2.231   4.030 -5.5503  1.8828 -0.0972
   83ccc    H39 3226   2.289  -1.872   3.858  2.2989 -1.5318 -1.4105
   83ccc     O5 3227   2.088  -1.893   3.800  0.4547  0.6620 -0.1851
   83ccc    H40 3228   2.017  -1.960   3.799  0.2420  0.8658  0.7078
   83ccc     N4 3229   2.287  -2.184   4.146  0.8189  0.5182 -0.7379
   83ccc    H41 3230   2.463  -2.156   4.488  1.2620  0.4465  2.5004
   84ccc     N1 3231   3.664  -1.490   4.186  0.7443 -0.1291 -0.0339
   84ccc     H4 3232   3.729  -1.521   4.115  0.0164 -0.9609 -0.3545
   84ccc     C3 3233   3.700  -1.537   4.323  0.6847 -0.2961  0.7156
   84ccc     H5 3234   3.615  -1.583   4.376  1.1874 -0.7731  1.1229
   84ccc     C4 3235   3.749  -1.415   4.405 -0.0332  0.6484  0.1448
   84ccc     H6 3236   3.777  -1.615   4.321  0.1019 -0.8629 -0.9027
   84ccc     H7 3237   3.822  -1.366   4.340  0.4394  0.9102  0.8688
   84ccc     H8 3238   3.808  -1.450   4.491 -0.1953  2.3663  0.9953
   84ccc     N2 3239   3.645  -1.305   4.442  1.0112 -0.3920 -0.1956
   84ccc     C5 3240   3.721  -1.183   4.503  1.1639  0.2789  0.6774
   84ccc     C6 3241   3.531  -1.363   4.522  0.4851  0.3379 -0.1629
   84ccc     H9 3242   3.453  -1.288   4.539  1.5003  1.7276 -1.3106
   84ccc     C7 3243   3.566  -1.419   4.660 -0.3260 -0.1249  0.0832
   84ccc    H10 3244   3.475  -1.446   4.477 -3.2216  1.8751  1.2181
   84ccc    H11 3245   3.608  -1.339   4.723  0.7519  0.1125 -0.9107
   84ccc    H12 3246   3.647  -1.493   4.652 -1.1408 -1.1770  1.1229
   84ccc     C8 3247   3.449  -1.481   4.732  0.4798 -0.3229  0.8101
   84ccc     O2 3248   3.338  -1.498   4.685 -0.0891 -0.4358 -0.2283
   84ccc    H13 3249   3.759  -1.209   4.603  1.6062  0.9833  0.6958
   84ccc    H14 3250   3.638  -1.114   4.524  1.4696  0.0772  2.7975
   84ccc     C9 3251   3.828  -1.115   4.418  0.5198  0.3910 -0.4700
   84ccc    H15 3252   3.798  -1.117   4.312  1.2378 -0.2843 -0.6711
   84ccc    H16 3253   3.914  -1.182   4.425  0.1365 -0.1091 -0.5158
   84ccc    C10 3254   3.866  -0.977   4.466  0.1820  0.5683 -0.1025
   84ccc     O4 3255   3.802  -0.918   4.549 -0.8091  0.4720 -0.3823
   84ccc    C11 3256   3.363  -1.681   5.222  0.2825  0.0728 -0.2086
   84ccc    C12 3257   3.315  -1.542   5.198 -0.3383 -0.4783  0.0175
   84ccc    H17 3258   3.467  -1.674   5.256  1.3782  0.5426 -3.2701
   84ccc    C13 3259   3.393  -1.477   5.079 -0.5722  0.3926 -0.5061
   84ccc    C14 3260   3.395  -1.577   4.959 -0.9456 -0.4988 -0.3772
   84ccc    C15 3261   3.450  -1.715   5.004 -0.1044  0.5221 -0.6638
   84ccc    H18 3262   3.290  -1.586   4.928 -1.0895  0.5696 -0.2232
   84ccc    H19 3263   3.492  -1.445   5.113 -1.3445  1.5194  0.7385
   84ccc    H20 3264   3.551  -1.710   5.047 -0.9329  1.9080  1.2626
   84ccc     O1 3265   3.439  -1.809   4.904 -0.5637 -0.3568  0.3581
   84ccc     O6 3266   3.323  -1.361   5.033  0.4112  0.3982 -0.5714
   84ccc    C16 3267   3.272  -1.761   5.321 -0.0847 -0.0843  0.6425
   84ccc    H21 3268   3.366  -1.284   5.074  0.0876  1.6810 -2.5603
   84ccc    H22 3269   3.581  -1.510   4.888  0.4337  1.9380 -1.2012
   84ccc    H23 3270   3.185  -1.805   5.270 -1.5959  2.8812  0.4102
   84ccc    H24 3271   3.210  -1.692   5.380 -0.5888 -0.7693  0.9220
   84ccc     O7 3272   3.345  -1.835   5.413 -0.0003 -0.1296  0.9931
   84ccc    H25 3273   3.390  -1.899   5.355 -0.5334  1.0333 -0.7832
   84ccc     O8 3274   3.352  -1.756   5.099 -0.1833  0.4396 -0.0513
   84ccc    H26 3275   3.348  -1.815   4.868  0.2723 -0.9954 -1.8015
   84ccc    H27 3276   3.205  -1.542   5.194 -0.4117 -0.0381  1.3973
   84ccc     O9 3277   3.358  -1.459   5.308 -0.7438  0.3057 -0.4854
   84ccc    H28 3278   3.276  -1.419   5.342  0.4418  1.8130  0.7068
   84ccc     N3 3279   3.486  -1.528   4.853  0.3065  0.2761 -0.1237
   84ccc    C17 3280   4.021  -0.528   4.579  0.2099 -0.3527  0.1719
   84ccc    C18 3281   4.134  -0.627   4.623 -0.2209  0.8039 -0.1410
   84ccc    H29 3282   3.926  -0.551   4.628  0.3306 -2.5709 -0.5304
   84ccc    C19 3283   4.090  -0.772   4.581 -0.3641 -0.1719  0.0145
   84ccc    C20 3284   4.038  -0.792   4.440 -0.0264 -0.2932  0.1954
   84ccc    C21 3285   3.946  -0.678   4.396  0.2160  0.0114 -0.8370
   84ccc    H30 3286   4.119  -0.775   4.369 -1.1453  1.4316 -0.7497
   84ccc    H31 3287   4.006  -0.787   4.649 -0.8218 -1.3900 -0.7790
   84ccc    H32 3288   3.843  -0.688   4.435  0.4609  2.1294  0.5391
   84ccc    O10 3289   3.941  -0.678   4.254 -0.3107  0.1854 -0.7295
   84ccc    O11 3290   4.194  -0.865   4.620  0.2238  0.2870  0.3744
   84ccc    C22 3291   4.038  -0.375   4.603 -0.2508  0.3337 -0.2011
   84ccc    H33 3292   4.144  -0.942   4.652 -0.9938 -0.2775 -2.5958
   84ccc    H34 3293   4.038  -0.987   4.359  1.0107 -0.9172  2.2324
   84ccc    H35 3294   4.041  -0.347   4.709 -0.6514  0.4367 -0.2178
   84ccc    H36 3295   3.954  -0.317   4.564 -0.6641 -0.9281 -1.2782
   84ccc    O12 3296   4.163  -0.323   4.539 -0.3264 -0.1952 -0.0825
   84ccc    H37 3297   4.138  -0.284   4.453 -1.1332  0.4881  0.4474
   84ccc    O13 3298   3.993  -0.548   4.436 -0.7368  0.2563 -0.0539
   84ccc    H38 3299   3.886  -0.751   4.220 -2.8267  2.7978 -2.8292
   84ccc    H39 3300   4.222  -0.595   4.565 -1.5496  0.0165 -2.7605
   84ccc     O5 3301   4.151  -0.625   4.768 -0.1201 -0.4286  0.3294
   84ccc    H40 3302   4.141  -0.714   4.804 -0.8033  0.1121  1.5137
   84ccc     N4 3303   3.977  -0.926   4.413 -0.3295 -0.2125  0.0488
   84ccc    H41 3304   3.605  -1.277   4.351 -1.3174  0.2466  0.9810
   85ccc     N1 3305   3.358  -2.088   4.057  0.1532  0.2195  0.2041
   85ccc     H4 3306   3.457  -2.067   4.046  0.8462 -2.6989  0.0635
   85ccc     C3 3307   3.314  -2.229   4.073  0.8990 -0.3707 -0.4606
   85ccc     H5 3308   3.216  -2.240   4.121  0.7843 -0.4435 -0.7094
   85ccc     C4 3309   3.421  -2.307   4.154  0.4813 -0.4644  0.4430
   85ccc     H6 3310   3.297  -2.268   3.971 -0.3487 -0.2380 -0.3102
   85ccc     H7 3311   3.432  -2.266   4.256  1.4282  1.2284 -0.3037
   85ccc     H8 3312   3.521  -2.289   4.113 -0.2371 -0.8719 -1.5717
   85ccc     N2 3313   3.399  -2.463   4.157 -0.1791 -0.0413 -0.0049
   85ccc     C5 3314   3.412  -2.521   4.013  0.1083 -0.7334  0.6432
   85ccc     C6 3315   3.268  -2.513   4.230  0.1804  0.3708  0.4911
   85ccc     H9 3316   3.217  -2.420   4.205 -2.2635 -0.8867  0.4757
   85ccc     C7 3317   3.229  -2.618   4.472 -0.1171 -0.2670 -0.0519
   85ccc    H10 3318   3.234  -2.574   4.145  0.7912 -2.2386  1.9839
   85ccc    H11 3319   3.210  -2.725   4.483 -0.8883 -0.1999 -0.6385
   85ccc    H12 3320   3.131  -2.605   4.519 -0.5943 -0.5021 -0.9478
   85ccc     C8 3321   3.307  -2.606   4.615  1.1170 -0.0520  0.1385
   85ccc     O2 3322   3.310  -2.504   4.679  0.5926 -0.3289 -0.7299
   85ccc    H13 3323   3.321  -2.488   3.962  1.5807  0.7614 -1.1959
   85ccc    H14 3324   3.408  -2.630   4.019 -1.7827 -0.9864 -2.7794
   85ccc     C9 3325   3.538  -2.487   3.930 -0.3515  0.0827 -0.1268
   85ccc    H15 3326   3.634  -2.500   3.982 -0.5237 -0.0306  0.1673
   85ccc    H16 3327   3.532  -2.383   3.895  0.4948 -0.0735 -0.7537
   85ccc    C10 3328   3.554  -2.583   3.812 -0.0953  0.5078 -0.9229
   85ccc     O4 3329   3.480  -2.675   3.780 -0.2126 -0.2712 -0.0518
   85ccc    C11 3330   3.617  -2.618   5.014  0.4448 -0.8422 -0.7127
   85ccc    C12 3331   3.504  -2.712   5.034  0.0494 -0.6609 -0.4250
   85ccc    H17 3332   3.576  -2.519   5.037 -1.0065 -1.6830  0.4953
   85ccc    C13 3333   3.397  -2.698   4.918  0.1050 -0.4975 -0.1912
   85ccc    C14 3334   3.468  -2.707   4.778  0.3527 -0.0376  0.0536
   85ccc    C15 3335   3.578  -2.596   4.768  0.0345 -0.3506  0.9071
   85ccc    H18 3336   3.516  -2.806   4.778  0.9887  0.2613 -0.8883
   85ccc    H19 3337   3.352  -2.599   4.911  1.1568 -0.1298 -2.3637
   85ccc    H20 3338   3.530  -2.499   4.787 -0.1026  0.0880 -1.3465
   85ccc     O1 3339   3.660  -2.603   4.651  0.3694  0.4694 -0.0139
   85ccc     O6 3340   3.287  -2.791   4.935 -0.2028 -0.7248  0.6730
   85ccc    C16 3341   3.738  -2.634   5.108 -0.7702 -0.1883  0.4424
   85ccc    H21 3342   3.257  -2.799   5.027  1.8083  2.3324  1.7429
   85ccc    H22 3343   3.378  -2.795   4.608  2.1650  1.5523 -1.9484
   85ccc    H23 3344   3.790  -2.728   5.085 -0.7381 -1.0765  3.6770
   85ccc    H24 3345   3.695  -2.656   5.207 -1.8685 -1.3217 -0.2465
   85ccc     O7 3346   3.814  -2.510   5.108 -0.3684  1.1195  0.4978
   85ccc    H25 3347   3.896  -2.532   5.156  0.1232 -2.8900 -1.7425
   85ccc     O8 3348   3.669  -2.621   4.878 -0.0079  0.1593 -0.0943
   85ccc    H26 3349   3.669  -2.698   4.635 -0.8073  0.4817 -0.9215
   85ccc    H27 3350   3.555  -2.809   5.034  2.5601  0.5194  1.9035
   85ccc     O9 3351   3.441  -2.674   5.154 -0.2796 -0.0896 -0.1431
   85ccc    H28 3352   3.444  -2.758   5.203 -0.5546  0.5676  1.0169
   85ccc     N3 3353   3.370  -2.713   4.668 -0.2477 -0.5540  0.8911
   85ccc    C17 3354   3.968  -2.706   3.498 -0.1978  0.3222  0.0835
   85ccc    C18 3355   3.883  -2.825   3.555  0.2166  0.6567 -0.0288
   85ccc    H29 3356   4.024  -2.654   3.577 -1.4382 -0.0090  1.1935
   85ccc    C19 3357   3.790  -2.773   3.665 -0.6878 -0.5681  0.1770
   85ccc    C20 3358   3.714  -2.638   3.631 -0.1548  0.1844 -1.1363
   85ccc    C21 3359   3.795  -2.544   3.549 -0.3451  0.1197  0.2036
   85ccc    H30 3360   3.622  -2.663   3.577 -0.0860  1.2269 -1.7530
   85ccc    H31 3361   3.863  -2.740   3.741 -0.3840  1.4138 -0.9178
   85ccc    H32 3362   3.867  -2.486   3.608  0.2041  0.3831 -0.7091
   85ccc    O10 3363   3.709  -2.451   3.483 -0.2940  0.0823 -0.2751
   85ccc    O11 3364   3.709  -2.880   3.720  0.0385 -0.0939  0.1535
   85ccc    C22 3365   4.058  -2.743   3.384 -0.0932 -0.3463  0.9504
   85ccc    H33 3366   3.769  -2.955   3.732  1.8015  1.2171 -0.0148
   85ccc    H34 3367   3.741  -2.490   3.770  1.9314 -2.6733  1.4261
   85ccc    H35 3368   3.994  -2.789   3.308 -0.8861  0.2660  1.2370
   85ccc    H36 3369   4.124  -2.822   3.421 -0.5480 -0.7388  0.9223
   85ccc    O12 3370   4.137  -2.633   3.328 -0.6004  0.1665 -0.2585
   85ccc    H37 3371   4.199  -2.618   3.402 -1.6281  0.7514  0.5102
   85ccc    O13 3372   3.868  -2.614   3.446 -0.2777  1.1343  0.1488
   85ccc    H38 3373   3.652  -2.399   3.542 -0.1072  1.0983 -0.9602
   85ccc    H39 3374   3.820  -2.864   3.475  0.6860  1.2841 -0.7146
   85ccc     O5 3375   3.960  -2.934   3.613 -0.3487  0.5773  0.1147
   85ccc    H40 3376   4.005  -2.985   3.543  0.2932 -0.6739  1.3861
   85ccc     N4 3377   3.674  -2.563   3.748  0.0244 -0.6197 -0.0391
   85ccc    H41 3378   3.477  -2.492   4.218 -1.0601 -1.6001  0.4455
   86ccc     N1 3379  -0.154   0.074   4.506 -0.2601  0.8881 -0.1122
   86ccc     H4 3380  -0.119   0.072   4.411  1.0755  2.7353  0.2685
   86ccc     C3 3381  -0.295   0.049   4.546  0.4824 -0.1400 -0.3637
   86ccc     H5 3382  -0.338  -0.035   4.490  1.0707  0.1261 -1.2383
   86ccc     C4 3383  -0.378   0.174   4.529 -0.0308  0.0601  0.0774
   86ccc     H6 3384  -0.304   0.013   4.648  0.4474 -2.0959 -1.0263
   86ccc     H7 3385  -0.316   0.249   4.579  1.0433  0.1035 -1.2832
   86ccc     H8 3386  -0.476   0.158   4.576  0.3093 -0.8658  0.4962
   86ccc     N2 3387  -0.398   0.215   4.383 -0.0368 -0.0173 -0.6866
   86ccc     C5 3388  -0.441   0.361   4.375 -0.1956 -0.6846  0.3223
   86ccc     C6 3389  -0.504   0.133   4.313  0.0413 -0.0459  0.6322
   86ccc     H9 3390  -0.505   0.032   4.356  1.9885 -1.1859 -1.7028
   86ccc     C7 3391  -0.485   0.113   4.158 -0.3998 -0.6213 -0.3470
   86ccc    H10 3392  -0.601   0.175   4.339 -0.5811 -1.1392  0.1695
   86ccc    H11 3393  -0.518   0.208   4.115  0.3933 -0.5371 -0.7896
   86ccc    H12 3394  -0.551   0.033   4.122 -0.6966 -0.8753  0.7426
   86ccc     C8 3395  -0.339   0.073   4.116  0.5314  0.0292 -0.3211
   86ccc     O2 3396  -0.251   0.050   4.194 -0.1911 -0.5976 -0.4496
   86ccc    H13 3397  -0.536   0.383   4.424 -0.1718  0.0949  0.0302
   86ccc    H14 3398  -0.467   0.374   4.269  1.2200 -4.1298 -0.5869
   86ccc     C9 3399  -0.339   0.469   4.432  0.0393  0.3776 -0.2856
   86ccc    H15 3400  -0.321   0.458   4.539  1.6422 -0.4632 -0.6142
   86ccc    H16 3401  -0.379   0.571   4.426  1.2747  0.8211 -1.6529
   86ccc    C10 3402  -0.196   0.462   4.378  0.1352 -0.3435 -0.7588
   86ccc     O4 3403  -0.114   0.390   4.430  0.4321  0.1562  0.3527
   86ccc    C11 3404  -0.022  -0.021   3.682 -0.6044  0.1008  0.8538
   86ccc    C12 3405  -0.058   0.122   3.697 -0.0352 -0.2145 -0.4001
   86ccc    H17 3406  -0.100  -0.063   3.617 -1.6368  0.6514  1.6924
   86ccc    C13 3407  -0.191   0.142   3.772  0.1695  0.3925 -0.5264
   86ccc    C14 3408  -0.187   0.064   3.909  0.6204 -0.0772  0.7239
   86ccc    C15 3409  -0.140  -0.086   3.890 -0.4934 -1.3673  0.1900
   86ccc    H18 3410  -0.122   0.124   3.974  0.3688  1.9123 -0.7676
   86ccc    H19 3411  -0.274   0.093   3.719 -0.3504 -1.3101  1.7005
   86ccc    H20 3412  -0.214  -0.132   3.823  0.4789  0.2082 -2.1083
   86ccc     O1 3413  -0.124  -0.152   4.012 -0.3499  0.4265 -0.0653
   86ccc     O6 3414  -0.219   0.282   3.797 -0.2362 -0.0688  0.0743
   86ccc    C16 3415   0.115  -0.034   3.613 -0.7284 -0.7966  0.1868
   86ccc    H21 3416  -0.267   0.308   3.716 -1.0388  0.6915  0.7678
   86ccc    H22 3417  -0.400   0.072   3.925 -0.6268 -0.5355  1.2799
   86ccc    H23 3418   0.101  -0.002   3.509  0.2074 -2.4279 -0.4885
   86ccc    H24 3419   0.152  -0.137   3.607 -0.9845 -0.9545  1.1455
   86ccc     O7 3420   0.216   0.048   3.679  0.6878 -0.0551  0.0033
   86ccc    H25 3421   0.237   0.006   3.764 -0.9367 -0.3661  0.3003
   86ccc     O8 3422  -0.016  -0.085   3.814  0.1593  0.2932 -0.0150
   86ccc    H26 3423  -0.163  -0.240   3.999 -1.0625  0.4879  1.4634
   86ccc    H27 3424   0.017   0.172   3.759  0.5005 -0.9404 -0.4513
   86ccc     O9 3425  -0.070   0.184   3.570  0.2435  0.6089  0.2482
   86ccc    H28 3426  -0.102   0.275   3.579 -1.1470  0.0411  1.4000
   86ccc     N3 3427  -0.316   0.077   3.982  0.4329 -0.3318 -0.2489
   86ccc    C17 3428  -0.336   0.745   3.939 -0.0622  0.2722  0.4042
   86ccc    C18 3429  -0.376   0.596   3.944  0.0508  0.4230 -0.2158
   86ccc    H29 3430  -0.238   0.731   3.891 -1.1484  0.3185 -1.9706
   86ccc    C19 3431  -0.277   0.519   4.031 -0.9441  0.6738 -0.6024
   86ccc    C20 3432  -0.252   0.582   4.169  0.4636 -0.4359  0.2428
   86ccc    C21 3433  -0.207   0.734   4.147  0.6462  0.1666 -0.2930
   86ccc    H30 3434  -0.351   0.596   4.214  0.9144 -0.4633  1.2626
   86ccc    H31 3435  -0.180   0.516   3.980 -0.7592 -1.9879 -0.2287
   86ccc    H32 3436  -0.110   0.721   4.098  0.0434 -0.6877 -1.3079
   86ccc    O10 3437  -0.194   0.809   4.271 -0.3228 -0.5535  0.3227
   86ccc    O11 3438  -0.322   0.381   4.040  0.3943  0.1204 -0.0419
   86ccc    C22 3439  -0.438   0.834   3.870 -0.3450  0.8292 -0.4364
   86ccc    H33 3440  -0.288   0.325   3.968  1.1543 -3.5736  2.8600
   86ccc    H34 3441  -0.069   0.501   4.228  0.3233  0.8307 -0.0620
   86ccc    H35 3442  -0.457   0.819   3.763  1.2771 -0.4123 -0.5813
   86ccc    H36 3443  -0.403   0.937   3.890  1.3111  0.7476 -2.5840
   86ccc    O12 3444  -0.563   0.815   3.938  0.0185 -0.4014  0.2872
   86ccc    H37 3445  -0.545   0.828   4.033  1.7825 -1.4600  0.1647
   86ccc    O13 3446  -0.309   0.795   4.066  0.0461 -0.1082 -0.2468
   86ccc    H38 3447  -0.139   0.886   4.251 -1.5525 -0.1672 -1.7826
   86ccc    H39 3448  -0.474   0.592   3.993  1.5394  0.4186  3.1111
   86ccc     O5 3449  -0.372   0.542   3.813 -0.4287 -0.3815  0.4052
   86ccc    H40 3450  -0.428   0.463   3.814 -0.1844 -0.5653  0.0309
   86ccc     N4 3451  -0.166   0.507   4.261  0.2900 -0.4176  0.0983
   86ccc    H41 3452  -0.303   0.217   4.342  0.3431  0.3968  0.1777
   87ccc     N1 3453   0.345   0.650   4.872  0.2014  0.0874 -0.0118
   87ccc     H4 3454   0.299   0.704   4.799  2.9810  1.3826 -0.9356
   87ccc     C3 3455   0.370   0.721   4.993 -0.4223  0.0507  0.0484
   87ccc     H5 3456   0.278   0.759   5.038 -0.7279 -1.0146  0.3526
   87ccc     C4 3457   0.488   0.823   4.973 -0.4656 -0.0349 -0.2800
   87ccc     H6 3458   0.392   0.645   5.069 -0.5520 -0.8997 -0.8517
   87ccc     H7 3459   0.516   0.884   5.059  0.6400  1.1794 -1.4518
   87ccc     H8 3460   0.456   0.895   4.896  1.4903  0.0830 -1.0322
   87ccc     N2 3461   0.615   0.748   4.924 -0.0558 -0.1608  1.1572
   87ccc     C5 3462   0.687   0.678   5.041 -0.1001  0.0798 -0.7428
   87ccc     C6 3463   0.704   0.850   4.849 -0.0526  0.9153 -0.4976
   87ccc     H9 3464   0.738   0.932   4.915  0.7937  0.8188 -0.7984
   87ccc     C7 3465   0.646   0.902   4.717 -0.1321 -0.4328 -0.8063
   87ccc    H10 3466   0.788   0.792   4.811  0.5657  2.4691 -1.6059
   87ccc    H11 3467   0.712   0.985   4.687 -2.9577  2.1266 -0.4376
   87ccc    H12 3468   0.551   0.955   4.731  0.1394 -0.6151  2.4942
   87ccc     C8 3469   0.640   0.801   4.605 -0.0610 -0.3391  0.2417
   87ccc     O2 3470   0.639   0.683   4.622 -0.1152  0.3897 -0.2103
   87ccc    H13 3471   0.615   0.627   5.106  0.6667  0.8019  0.7242
   87ccc    H14 3472   0.723   0.762   5.102  0.0202  0.1812 -0.9519
   87ccc     C9 3473   0.801   0.585   5.009  0.1627 -0.5141  0.4491
   87ccc    H15 3474   0.856   0.622   4.922 -0.1231 -1.4941 -0.1676
   87ccc    H16 3475   0.755   0.487   4.988 -2.6213  0.8501 -0.3117
   87ccc    C10 3476   0.896   0.579   5.126 -0.4569  0.2447  0.5172
   87ccc     O4 3477   0.896   0.502   5.215  0.0918  0.0596  0.7466
   87ccc    C11 3478   0.528   0.791   4.078 -0.7396  0.5791  0.3907
   87ccc    C12 3479   0.666   0.727   4.118 -0.1330  0.4136 -0.4817
   87ccc    H17 3480   0.543   0.898   4.060 -3.8614  0.9725 -0.5036
   87ccc    C13 3481   0.720   0.774   4.250  0.0840  0.1910 -0.5395
   87ccc    C14 3482   0.618   0.773   4.364  0.1402 -0.0985  0.2616
   87ccc    C15 3483   0.475   0.822   4.319  0.6991 -0.3147  0.1614
   87ccc    H18 3484   0.598   0.669   4.394 -1.6916  0.2921  0.5456
   87ccc    H19 3485   0.752   0.879   4.240 -0.6966  0.3931 -0.9561
   87ccc    H20 3486   0.402   0.785   4.392  2.2661 -0.6959  1.5940
   87ccc     O1 3487   0.473   0.965   4.311  0.1669 -0.5245 -0.3508
   87ccc     O6 3488   0.838   0.696   4.283  0.2918  0.0206 -0.1468
   87ccc    C16 3489   0.461   0.734   3.947 -0.0194 -0.4105 -0.2108
   87ccc    H21 3490   0.805   0.606   4.299  0.2392 -0.4301 -2.4079
   87ccc    H22 3491   0.650   0.949   4.455 -0.1042 -0.7399 -1.0381
   87ccc    H23 3492   0.425   0.631   3.962  0.3731 -0.6667 -0.9684
   87ccc    H24 3493   0.530   0.740   3.862 -1.4057  1.9476 -1.2550
   87ccc     O7 3494   0.353   0.819   3.920 -0.0696 -0.2685  0.1166
   87ccc    H25 3495   0.374   0.907   3.956 -0.1676  0.5574 -1.7815
   87ccc     O8 3496   0.442   0.768   4.191 -0.2895 -0.1522  0.0773
   87ccc    H26 3497   0.421   0.969   4.230 -0.4674 -0.5226  0.0489
   87ccc    H27 3498   0.648   0.619   4.128 -1.3848  0.6072 -0.5465
   87ccc     O9 3499   0.765   0.753   4.020  0.4758 -0.6304 -0.1379
   87ccc    H28 3500   0.845   0.698   4.023 -0.7724 -3.1456 -4.3088
   87ccc     N3 3501   0.650   0.850   4.481  0.5204 -0.3567  0.5143
   87ccc    C17 3502   1.136   1.068   5.063  0.3860  0.7640 -0.4832
   87ccc    C18 3503   1.157   0.964   4.949  0.1359  0.3494 -0.1687
   87ccc    H29 3504   1.227   1.067   5.126 -0.8915  0.3970  1.4523
   87ccc    C19 3505   1.132   0.818   4.994 -0.0110 -0.2497  0.3463
   87ccc    C20 3506   1.003   0.797   5.081 -0.5470  0.5824  0.2340
   87ccc    C21 3507   0.999   0.902   5.195  0.1164  0.1171 -0.2162
   87ccc    H30 3508   0.915   0.810   5.016 -0.7422  0.7426  0.5291
   87ccc    H31 3509   1.213   0.781   5.058 -1.2315 -1.9519  0.9838
   87ccc    H32 3510   1.079   0.883   5.267 -0.0562  0.9590  0.2135
   87ccc    O10 3511   0.879   0.903   5.258  0.5919 -0.6384 -0.1748
   87ccc    O11 3512   1.127   0.741   4.876  0.1490  0.3938 -0.0485
   87ccc    C22 3513   1.119   1.206   5.008 -1.0086  0.2577  0.6424
   87ccc    H33 3514   1.104   0.650   4.900 -0.2151  0.2616 -0.8822
   87ccc    H34 3515   1.069   0.638   5.208 -0.3993 -0.6236  0.2411
   87ccc    H35 3516   1.011   1.218   4.992 -0.7321  0.2730 -1.5008
   87ccc    H36 3517   1.153   1.213   4.904 -0.4649  3.2500  0.9440
   87ccc    O12 3518   1.175   1.307   5.088  0.4188 -0.2516  0.3133
   87ccc    H37 3519   1.133   1.389   5.057  0.8126  0.4309  1.5122
   87ccc    O13 3520   1.016   1.032   5.142 -0.2276 -0.6422  0.0945
   87ccc    H38 3521   0.826   0.971   5.213  3.1736  1.5669 -0.1444
   87ccc    H39 3522   1.096   0.991   4.862  0.7772  0.7961 -0.4938
   87ccc     O5 3523   1.297   0.974   4.911 -0.3857 -0.2549  0.0827
   87ccc    H40 3524   1.309   0.919   4.832 -1.6002 -1.6219  0.7960
   87ccc     N4 3525   1.002   0.658   5.135  0.3030 -0.5811 -0.4015
   87ccc    H41 3526   0.586   0.674   4.858  1.6051  0.5669 -0.4688
   88ccc     N1 3527   0.240  -0.225   3.314 -0.1382 -0.6263 -0.2414
   88ccc     H4 3528   0.198  -0.198   3.226  1.8316  1.9815 -0.5161
   88ccc     C3 3529   0.232  -0.359   3.365 -0.0540  0.4522 -0.1879
   88ccc     H5 3530   0.185  -0.355   3.464  0.2058  0.7079 -0.0720
   88ccc     C4 3531   0.364  -0.442   3.375  0.4169 -0.1627 -0.2050
   88ccc     H6 3532   0.163  -0.416   3.301 -0.7056  0.5132  0.4464
   88ccc     H7 3533   0.404  -0.449   3.273 -1.8645  0.2920 -1.1685
   88ccc     H8 3534   0.345  -0.543   3.414  0.2774 -0.2109 -0.3973
   88ccc     N2 3535   0.478  -0.396   3.458 -0.4103 -0.2858  0.6473
   88ccc     C5 3536   0.602  -0.461   3.407 -0.5200 -0.0385 -0.0597
   88ccc     C6 3537   0.449  -0.410   3.608 -0.0440 -0.0367 -0.3431
   88ccc     H9 3538   0.344  -0.377   3.614  0.0407  0.5559 -1.7591
   88ccc     C7 3539   0.521  -0.319   3.708  0.7526 -0.4261  0.0219
   88ccc    H10 3540   0.463  -0.517   3.630 -0.4258  0.0633  0.4108
   88ccc    H11 3541   0.500  -0.214   3.687  1.9861  0.1529  1.5154
   88ccc    H12 3542   0.630  -0.330   3.702  0.8650  0.3659  0.4117
   88ccc     C8 3543   0.472  -0.343   3.849 -0.8726  0.6986  0.3923
   88ccc     O2 3544   0.407  -0.439   3.886  0.3775 -0.0045  0.3889
   88ccc    H13 3545   0.613  -0.463   3.298 -0.9757  0.7663 -0.1363
   88ccc    H14 3546   0.600  -0.566   3.439  1.8807 -0.0230  0.3474
   88ccc     C9 3547   0.742  -0.402   3.451 -0.2876 -0.0220 -0.6393
   88ccc    H15 3548   0.818  -0.453   3.391 -1.0988 -0.6706 -1.1335
   88ccc    H16 3549   0.762  -0.429   3.555 -1.1321 -1.9950 -0.9610
   88ccc    C10 3550   0.754  -0.251   3.438  0.6522 -0.6789 -0.5281
   88ccc     O4 3551   0.670  -0.186   3.379  0.3933  0.0679  0.5351
   88ccc    C11 3552   0.570  -0.455   4.325 -0.6984  0.5042  0.0807
   88ccc    C12 3553   0.694  -0.390   4.260 -0.2155 -0.4175  0.5185
   88ccc    H17 3554   0.560  -0.556   4.283  0.1357  0.9181 -1.1495
   88ccc    C13 3555   0.677  -0.356   4.109 -0.1952 -0.2087 -0.0536
   88ccc    C14 3556   0.539  -0.290   4.084 -0.3926 -0.4444  0.4309
   88ccc    C15 3557   0.431  -0.379   4.151 -0.4466  0.1669  0.4950
   88ccc    H18 3558   0.535  -0.195   4.138  1.1036  0.1591 -0.4466
   88ccc    H19 3559   0.679  -0.446   4.045  0.5774  0.4054 -0.9211
   88ccc    H20 3560   0.440  -0.480   4.111 -2.6603 -0.3522  1.1773
   88ccc     O1 3561   0.299  -0.332   4.126  0.6894 -0.0426 -0.2201
   88ccc     O6 3562   0.790  -0.278   4.073  0.2745  0.5935  0.1192
   88ccc    C16 3563   0.572  -0.466   4.476  0.0091 -0.1880 -0.5952
   88ccc    H21 3564   0.862  -0.337   4.101 -1.8647 -2.2307  0.1685
   88ccc    H22 3565   0.577  -0.177   3.913  0.0783 -1.0278 -0.7809
   88ccc    H23 3566   0.638  -0.550   4.503  2.3744  0.8980 -2.6673
   88ccc    H24 3567   0.470  -0.486   4.509  0.1371  0.5195  0.2683
   88ccc     O7 3568   0.606  -0.339   4.539  0.3902  0.0856 -0.1060
   88ccc    H25 3569   0.593  -0.347   4.635  3.6900  0.7856  0.5109
   88ccc     O8 3570   0.450  -0.380   4.294  0.1256  0.0620 -0.0029
   88ccc    H26 3571   0.275  -0.349   4.034 -2.2868 -0.7432  0.5775
   88ccc    H27 3572   0.729  -0.303   4.317  0.5985 -0.4518  0.0827
   88ccc     O9 3573   0.795  -0.491   4.271 -0.1330  0.6319 -0.4427
   88ccc    H28 3574   0.842  -0.462   4.351  0.7860  1.9367 -1.4088
   88ccc     N3 3575   0.517  -0.255   3.940 -0.7311 -0.1120  0.1794
   88ccc    C17 3576   1.241  -0.234   3.683 -0.3996  0.0968 -0.1981
   88ccc    C18 3577   1.113  -0.281   3.758  0.1966  0.1780 -0.2136
   88ccc    H29 3578   1.266  -0.130   3.706  2.1726 -0.6897  0.8620
   88ccc    C19 3579   0.987  -0.224   3.704 -0.2267 -0.1537  0.0208
   88ccc    C20 3580   0.984  -0.246   3.549  0.1003  0.7294  0.0811
   88ccc    C21 3581   1.118  -0.204   3.473  0.0224  0.6151 -0.0350
   88ccc    H30 3582   0.976  -0.355   3.536  0.1341  0.9201 -1.9839
   88ccc    H31 3583   0.995  -0.115   3.718  1.3713 -0.1526 -0.6424
   88ccc    H32 3584   1.126  -0.096   3.455  1.2161  1.0030  2.3775
   88ccc    O10 3585   1.129  -0.275   3.353 -0.6017  0.4501 -0.2023
   88ccc    O11 3586   0.890  -0.290   3.778  0.1878 -0.3606 -1.0506
   88ccc    C22 3587   1.368  -0.305   3.720  0.4422  0.4893 -0.3961
   88ccc    H33 3588   0.880  -0.234   3.857  2.3471 -1.5719  0.2174
   88ccc    H34 3589   0.861  -0.087   3.494 -1.7484 -0.5228 -2.8139
   88ccc    H35 3590   1.377  -0.405   3.676  1.3838  1.4603 -2.5186
   88ccc    H36 3591   1.371  -0.322   3.829 -0.1764  0.2491 -0.4099
   88ccc    O12 3592   1.477  -0.226   3.665 -0.0008 -0.0145  0.9777
   88ccc    H37 3593   1.560  -0.276   3.666 -0.5769 -1.0884 -0.7971
   88ccc    O13 3594   1.231  -0.258   3.542  0.5387  0.5229  0.0972
   88ccc    H38 3595   1.156  -0.365   3.377  0.9295  0.3896 -1.9318
   88ccc    H39 3596   1.118  -0.390   3.755 -1.3190  0.0585  0.4476
   88ccc     O5 3597   1.139  -0.222   3.884 -0.1315  0.3753  0.4576
   88ccc    H40 3598   1.129  -0.293   3.950  1.4778 -0.6384 -0.3418
   88ccc     N4 3599   0.863  -0.188   3.494  0.7401 -0.6421  0.2014
   88ccc    H41 3600   0.490  -0.295   3.448 -0.8361 -0.3738 -0.9152
   89ccc     N1 3601  -0.003   0.457   3.221  0.1154 -0.4474  0.2333
   89ccc     H4 3602  -0.045   0.368   3.200 -0.2609 -0.2332  0.0679
   89ccc     C3 3603  -0.074   0.584   3.183  0.8034  0.0061  0.2088
   89ccc     H5 3604  -0.027   0.673   3.225 -1.4383  0.1870  2.5953
   89ccc     C4 3605  -0.226   0.594   3.224 -0.2362  0.3266  0.4283
   89ccc     H6 3606  -0.075   0.600   3.074 -0.9516 -2.1936 -0.1614
   89ccc     H7 3607  -0.276   0.511   3.171  0.2629  0.3857 -0.1455
   89ccc     H8 3608  -0.260   0.691   3.185 -0.9258  0.4997  1.4197
   89ccc     N2 3609  -0.247   0.588   3.379 -0.2160  0.0179 -0.0610
   89ccc     C5 3610  -0.396   0.591   3.422 -0.6908  0.3542  0.6390
   89ccc     C6 3611  -0.167   0.696   3.454 -0.2504 -0.4109  0.3313
   89ccc     H9 3612  -0.223   0.790   3.441  1.9887  0.9415 -0.1224
   89ccc     C7 3613  -0.147   0.677   3.603  0.5966  0.1782  0.0553
   89ccc    H10 3614  -0.067   0.711   3.412 -1.1312 -0.3020 -1.8740
   89ccc    H11 3615  -0.240   0.673   3.661  1.1386 -0.0093  0.9181
   89ccc    H12 3616  -0.080   0.751   3.646  2.6787 -0.9502 -1.0756
   89ccc     C8 3617  -0.063   0.551   3.629  0.0148 -0.7343 -0.1551
   89ccc     O2 3618  -0.047   0.457   3.550  0.8791  0.4423 -0.1935
   89ccc    H13 3619  -0.446   0.663   3.357  0.3647 -0.4899 -1.2006
   89ccc    H14 3620  -0.404   0.625   3.526 -1.9579 -3.0658  1.8311
   89ccc     C9 3621  -0.479   0.461   3.416  0.7685  0.2639 -0.6465
   89ccc    H15 3622  -0.518   0.450   3.314 -2.4213 -2.6515  0.6791
   89ccc    H16 3623  -0.572   0.470   3.474  0.0779 -0.8116 -1.5402
   89ccc    C10 3624  -0.412   0.341   3.477 -0.8381  0.1595  0.3297
   89ccc     O4 3625  -0.314   0.353   3.554 -0.1989  0.4476  0.6695
   89ccc    C11 3626   0.345   0.375   3.951 -0.2337  0.3573 -0.1466
   89ccc    C12 3627   0.207   0.295   3.971 -0.0284  0.2942 -0.1037
   89ccc    H17 3628   0.355   0.456   4.025 -1.2535  0.0850  0.3131
   89ccc    C13 3629   0.086   0.386   3.935  0.0772  0.0744  0.3880
   89ccc    C14 3630   0.101   0.451   3.787 -0.2877 -0.2178 -0.7765
   89ccc    C15 3631   0.242   0.521   3.776  0.3534  0.5395 -0.0483
   89ccc    H18 3632   0.107   0.368   3.716 -1.1604 -1.5855  0.6812
   89ccc    H19 3633  -0.005   0.325   3.931 -0.3246  0.7220 -2.0125
   89ccc    H20 3634   0.238   0.612   3.836  0.5706  1.1074 -0.8841
   89ccc     O1 3635   0.276   0.541   3.641  0.2276 -0.4827  0.5748
   89ccc     O6 3636   0.067   0.489   4.033 -0.2927 -0.0268  0.4165
   89ccc    C16 3637   0.470   0.286   3.955 -0.4716  0.1020  0.1323
   89ccc    H21 3638   0.136   0.483   4.101  1.9775 -0.0890 -1.7414
   89ccc    H22 3639  -0.007   0.621   3.812 -3.2669  1.4196 -1.9571
   89ccc    H23 3640   0.463   0.209   3.878 -2.2601  1.5943 -1.2644
   89ccc    H24 3641   0.482   0.226   4.046 -2.9406  2.2317  2.0434
   89ccc     O7 3642   0.589   0.367   3.933 -0.3591 -0.2456  0.4175
   89ccc    H25 3643   0.581   0.392   3.839  0.9878 -1.6836 -0.1359
   89ccc     O8 3644   0.343   0.427   3.818 -0.3263 -0.6807 -0.4606
   89ccc    H26 3645   0.370   0.567   3.650 -0.0552  0.3736  1.1627
   89ccc    H27 3646   0.203   0.212   3.899  0.9955  0.3266 -0.2177
   89ccc     O9 3647   0.193   0.239   4.100 -0.3567 -0.4336 -0.4238
   89ccc    H28 3648   0.140   0.157   4.099  1.4248 -1.6398 -0.8170
   89ccc     N3 3649  -0.015   0.537   3.756 -0.1847 -0.1537 -0.3240
   89ccc    C17 3650  -0.764  -0.001   3.260 -0.2183  0.0188  0.2508
   89ccc    C18 3651  -0.792   0.045   3.403  0.0959 -0.0662  0.0701
   89ccc    H29 3652  -0.715  -0.099   3.258 -0.1968  0.0428 -0.3571
   89ccc    C19 3653  -0.653   0.074   3.472  0.6764 -0.1199  0.1793
   89ccc    C20 3654  -0.576   0.179   3.388 -0.2944  0.2394 -0.2884
   89ccc    C21 3655  -0.552   0.131   3.243 -0.2476 -0.1666 -0.0424
   89ccc    H30 3656  -0.638   0.270   3.385 -0.2165  0.3338  0.7306
   89ccc    H31 3657  -0.594  -0.019   3.480  1.0812  0.2856  3.0248
   89ccc    H32 3658  -0.496   0.037   3.237  2.2719  1.2523 -0.0320
   89ccc    O10 3659  -0.493   0.226   3.167 -0.2195  0.5977  0.2553
   89ccc    O11 3660  -0.668   0.123   3.607 -0.8430 -0.4728 -0.1974
   89ccc    C22 3661  -0.897  -0.024   3.190 -0.2098  0.2684  0.2208
   89ccc    H33 3662  -0.743   0.185   3.603 -0.2866  0.3126  1.0339
   89ccc    H34 3663  -0.392   0.137   3.473 -0.8401 -1.0067 -2.2375
   89ccc    H35 3664  -0.964   0.054   3.228 -1.4899 -0.5164 -0.3571
   89ccc    H36 3665  -0.940  -0.123   3.212  2.3210 -0.9712 -0.0158
   89ccc    O12 3666  -0.870  -0.015   3.051 -0.0662 -0.2633  0.6747
   89ccc    H37 3667  -0.782   0.021   3.028 -1.4373  2.0672 -1.3669
   89ccc    O13 3668  -0.682   0.096   3.187 -0.3954  0.4762  0.1274
   89ccc    H38 3669  -0.548   0.229   3.088  1.1911 -0.4321 -0.8276
   89ccc    H39 3670  -0.852   0.136   3.403 -2.3229 -1.4690 -3.0711
   89ccc     O5 3671  -0.857  -0.063   3.472 -0.0619  0.3004  0.2282
   89ccc    H40 3672  -0.799  -0.115   3.531 -1.7625 -2.4657 -0.3821
   89ccc     N4 3673  -0.449   0.218   3.452  0.1058  0.3630  0.0590
   89ccc    H41 3674  -0.206   0.499   3.412 -1.1308  0.0265  1.1258
   90ccc     N1 3675   1.195   0.484   2.401  0.2782 -0.1714 -0.0209
   90ccc     H4 3676   1.140   0.472   2.485  1.7852  0.1452  1.0398
   90ccc     C3 3677   1.130   0.449   2.272  0.0538 -0.3942  0.0470
   90ccc     H5 3678   1.109   0.547   2.227 -0.9190 -0.1517  0.9699
   90ccc     C4 3679   1.005   0.362   2.281 -0.0561  0.0877  0.0065
   90ccc     H6 3680   1.206   0.394   2.215  0.5931  0.1612  0.2213
   90ccc     H7 3681   0.939   0.413   2.352 -1.0589  1.1907 -1.6612
   90ccc     H8 3682   1.040   0.268   2.326  0.1504  0.3825  0.4653
   90ccc     N2 3683   0.921   0.319   2.150  0.0599 -0.4371  0.4773
   90ccc     C5 3684   0.989   0.232   2.056 -0.9633  0.0787  0.5521
   90ccc     C6 3685   0.901   0.450   2.069  0.1816 -0.8607 -0.2992
   90ccc     H9 3686   0.997   0.482   2.027  0.4816  0.4076  1.2835
   90ccc     C7 3687   0.810   0.558   2.138  0.2501  0.7255  0.0117
   90ccc    H10 3688   0.840   0.416   1.984 -1.7748  1.0529  0.2396
   90ccc    H11 3689   0.852   0.597   2.231 -2.2631 -1.2721  2.1618
   90ccc    H12 3690   0.710   0.522   2.166 -0.9032  2.8445 -1.1162
   90ccc     C8 3691   0.792   0.680   2.046 -0.0975  0.2385 -0.1311
   90ccc     O2 3692   0.803   0.670   1.926 -0.8234 -0.3763  0.1615
   90ccc    H13 3693   1.083   0.277   2.022  0.0484 -2.7388 -0.7103
   90ccc    H14 3694   0.930   0.226   1.964  3.7714  0.1542 -2.8770
   90ccc     C9 3695   1.023   0.089   2.094 -0.0519 -0.4167  0.6244
   90ccc    H15 3696   1.036   0.024   2.006 -0.6948 -0.2561  0.4110
   90ccc    H16 3697   0.933   0.051   2.144 -1.3435 -0.4775 -1.6006
   90ccc    C10 3698   1.153   0.071   2.181 -0.0419 -0.4177  0.0649
   90ccc     O4 3699   1.240   0.156   2.185 -0.9440 -0.1846 -0.0417
   90ccc    C11 3700   0.571   1.175   1.995 -0.3252  0.4084 -0.5637
   90ccc    C12 3701   0.725   1.181   2.022 -0.3972 -0.1264 -0.2103
   90ccc    H17 3702   0.515   1.191   2.088 -0.9970  2.3703 -1.2724
   90ccc    C13 3703   0.767   1.053   2.101  0.1143 -0.1852 -0.0547
   90ccc    C14 3704   0.721   0.925   2.031  0.3609 -0.0444  0.4803
   90ccc    C15 3705   0.566   0.936   2.011 -0.2510  0.5207 -0.5846
   90ccc    H18 3706   0.765   0.929   1.930  0.2595  0.3816  0.4507
   90ccc    H19 3707   0.726   1.057   2.203  1.1460  2.1817  0.3465
   90ccc    H20 3708   0.509   0.945   2.104  1.3009  1.2444  0.3308
   90ccc     O1 3709   0.520   0.825   1.931 -0.2167 -0.0000 -0.4503
   90ccc     O6 3710   0.914   1.047   2.107  0.3309 -0.5210 -0.3139
   90ccc    C16 3711   0.515   1.291   1.908 -0.2477  0.5221  0.1623
   90ccc    H21 3712   0.941   1.106   2.180  1.3430 -1.0694 -0.2347
   90ccc    H22 3713   0.769   0.808   2.205  0.8220 -0.0293 -0.0187
   90ccc    H23 3714   0.589   1.314   1.830  0.6089  1.4232  1.2076
   90ccc    H24 3715   0.523   1.377   1.974  0.2252 -0.1769  1.0342
   90ccc     O7 3716   0.382   1.263   1.877  0.0815  0.4874  0.0402
   90ccc    H25 3717   0.383   1.176   1.834 -2.1000  0.3247  0.2017
   90ccc     O8 3718   0.529   1.050   1.932  0.4202 -0.0661  0.1070
   90ccc    H26 3719   0.572   0.842   1.850 -0.2593  0.4227 -0.3943
   90ccc    H27 3720   0.772   1.195   1.924  0.7563  2.0384  0.5766
   90ccc     O9 3721   0.754   1.297   2.101  0.2555  0.3800 -0.9377
   90ccc    H28 3722   0.843   1.326   2.073 -0.0822  1.7848 -0.6637
   90ccc     N3 3723   0.770   0.799   2.103  0.2432  0.0119 -0.0338
   90ccc    C17 3724   1.318  -0.138   2.647 -0.1283 -0.0213 -0.0462
   90ccc    C18 3725   1.353  -0.231   2.527  0.1995  0.6700 -0.4113
   90ccc    H29 3726   1.222  -0.175   2.685 -0.1482 -1.9369 -1.8003
   90ccc    C19 3727   1.258  -0.211   2.412 -0.3031  0.0923  0.0422
   90ccc    C20 3728   1.246  -0.055   2.385  0.4597  0.0460  0.5469
   90ccc    C21 3729   1.197   0.028   2.514 -0.1770  0.3535  0.1130
   90ccc    H30 3730   1.343  -0.012   2.356  0.1124 -0.5265 -1.6874
   90ccc    H31 3731   1.159  -0.253   2.435 -1.0399  2.0115  0.5000
   90ccc    H32 3732   1.100  -0.000   2.555  0.1181  0.7369  1.1196
   90ccc    O10 3733   1.200   0.165   2.489  0.0669 -0.0630  0.3171
   90ccc    O11 3734   1.290  -0.282   2.287  0.4879  0.1902 -0.0653
   90ccc    C22 3735   1.408  -0.146   2.773 -0.1358 -0.0748 -0.1306
   90ccc    H33 3736   1.213  -0.274   2.228 -1.4490  0.3674  2.2868
   90ccc    H34 3737   1.106  -0.115   2.242 -2.0369  0.7341  0.4565
   90ccc    H35 3738   1.411  -0.249   2.810 -0.8204 -1.7333 -4.1517
   90ccc    H36 3739   1.371  -0.079   2.851  1.7996  1.3507 -0.3501
   90ccc    O12 3740   1.540  -0.096   2.740  0.4638  0.1621 -0.3942
   90ccc    H37 3741   1.595  -0.126   2.814  1.1647 -1.8248 -1.6490
   90ccc    O13 3742   1.310   0.006   2.609 -0.4817 -0.8405  0.3193
   90ccc    H38 3743   1.291   0.178   2.458  0.1736 -1.4025  0.0241
   90ccc    H39 3744   1.452  -0.203   2.488  0.0602 -0.1927 -1.4053
   90ccc     O5 3745   1.360  -0.368   2.569  0.6470  0.6053 -0.1787
   90ccc    H40 3746   1.270  -0.395   2.594 -0.4748  0.4013 -3.8264
   90ccc     N4 3747   1.148  -0.027   2.273  0.1366  0.0284 -0.3269
   90ccc    H41 3748   0.834   0.276   2.183  0.7310 -1.3801  1.0522
   91ccc     N1 3749   1.040   0.655   3.024  0.6511 -0.5242  0.0529
   91ccc     H4 3750   0.970   0.723   2.998  0.5119 -0.7395 -0.1354
   91ccc     C3 3751   0.995   0.535   3.101  0.1481 -0.2257  0.5039
   91ccc     H5 3752   1.079   0.469   3.126 -0.1284 -0.3415  1.1374
   91ccc     C4 3753   0.893   0.457   3.013  0.3510  0.0211  0.2133
   91ccc     H6 3754   0.945   0.567   3.193 -1.0310 -0.2194 -0.1148
   91ccc     H7 3755   0.811   0.523   2.981 -2.3745 -2.3525  1.8607
   91ccc     H8 3756   0.843   0.373   3.062 -2.7710  0.1683 -2.3681
   91ccc     N2 3757   0.955   0.392   2.886 -0.6228  0.0755 -1.1972
   91ccc     C5 3758   0.848   0.364   2.777  0.0056 -0.4943 -0.4433
   91ccc     C6 3759   1.020   0.252   2.920  0.3509 -0.4026 -0.1080
   91ccc     H9 3760   1.072   0.264   3.016  0.7489  1.3049 -0.5023
   91ccc     C7 3761   1.126   0.202   2.820 -0.3041 -0.1873 -0.2533
   91ccc    H10 3762   0.944   0.175   2.941  1.7732 -1.7608  0.2974
   91ccc    H11 3763   1.088   0.198   2.717 -0.7772 -1.1157 -0.0538
   91ccc    H12 3764   1.161   0.103   2.852  0.0367 -0.1250 -0.4336
   91ccc     C8 3765   1.247   0.292   2.831  0.2817 -0.3843 -0.1575
   91ccc     O2 3766   1.250   0.395   2.895  0.4009 -0.3807  0.0882
   91ccc    H13 3767   0.773   0.293   2.814 -2.1672  3.1901  3.1760
   91ccc    H14 3768   0.912   0.315   2.703  2.8947  0.7267  1.0782
   91ccc     C9 3769   0.783   0.489   2.710 -0.1219  0.3361  0.4390
   91ccc    H15 3770   0.712   0.537   2.779 -0.6517 -1.1675  0.9918
   91ccc    H16 3771   0.711   0.449   2.637 -0.8674 -0.1468  1.4100
   91ccc    C10 3772   0.890   0.580   2.643 -0.2931  0.3883  0.1314
   91ccc     O4 3773   1.010   0.553   2.640 -0.0252 -0.5118  0.3967
   91ccc    C11 3774   1.785   0.243   2.745 -0.4353 -0.5314 -0.1788
   91ccc    C12 3775   1.702   0.285   2.624 -0.1817  0.2538  0.0436
   91ccc    H17 3776   1.796   0.134   2.750  0.0080 -0.5608 -1.3615
   91ccc    C13 3777   1.562   0.229   2.630 -0.3613  0.4300  0.5919
   91ccc    C14 3778   1.489   0.290   2.753 -0.0992  0.3470  0.9797
   91ccc    C15 3779   1.576   0.247   2.874 -0.7462  0.2268  0.4645
   91ccc    H18 3780   1.491   0.399   2.741 -0.7968  0.3242  0.6295
   91ccc    H19 3781   1.573   0.121   2.648  3.1464  0.4187 -0.8650
   91ccc    H20 3782   1.573   0.138   2.886 -1.3586 -0.0171 -1.5120
   91ccc     O1 3783   1.522   0.292   2.992 -0.1596 -0.0962 -0.0023
   91ccc     O6 3784   1.493   0.257   2.513  0.2124 -0.4206  0.0902
   91ccc    C16 3785   1.925   0.305   2.754 -0.4438  0.3992 -0.4423
   91ccc    H21 3786   1.539   0.205   2.445 -1.8852 -0.5812 -1.3207
   91ccc    H22 3787   1.336   0.158   2.704  2.1673  0.6992 -0.5836
   91ccc    H23 3788   1.913   0.405   2.798 -1.3034  0.0488  0.1521
   91ccc    H24 3789   1.973   0.304   2.656  0.5284  1.5763 -0.0075
   91ccc     O7 3790   2.009   0.222   2.843 -0.0128  0.5241  0.1619
   91ccc    H25 3791   2.100   0.242   2.815 -0.1918  0.0721 -0.7767
   91ccc     O8 3792   1.711   0.300   2.851 -0.3599 -0.7696 -0.2665
   91ccc    H26 3793   1.448   0.232   3.010 -0.4574  0.2863  0.0794
   91ccc    H27 3794   1.691   0.394   2.634 -0.0239  0.2552  0.2076
   91ccc     O9 3795   1.763   0.241   2.504  0.0959  0.1814 -0.3894
   91ccc    H28 3796   1.746   0.303   2.431  1.8005  0.0016 -0.9845
   91ccc     N3 3797   1.347   0.245   2.756  0.1235  0.5085  0.2687
   91ccc    C17 3798   0.691   1.072   2.655 -0.3890 -0.2967 -0.5263
   91ccc    C18 3799   0.627   0.991   2.537 -0.0573  0.0217  0.0383
   91ccc    H29 3800   0.789   1.110   2.624  0.1880 -1.2809  0.0518
   91ccc    C19 3801   0.720   0.874   2.488  0.1462 -0.7356  0.1412
   91ccc    C20 3802   0.755   0.781   2.612  0.2854 -0.1701 -0.5075
   91ccc    C21 3803   0.813   0.874   2.721  0.5125  0.4640 -0.1137
   91ccc    H30 3804   0.658   0.745   2.646  1.1638  0.1736  2.7352
   91ccc    H31 3805   0.815   0.920   2.460  0.9200 -1.0812  2.0731
   91ccc    H32 3806   0.914   0.900   2.689  1.1623 -1.0795  0.5653
   91ccc    O10 3807   0.826   0.811   2.851 -0.4012 -0.3180  0.1266
   91ccc    O11 3808   0.661   0.811   2.372 -0.1939  0.2901  0.7996
   91ccc    C22 3809   0.600   1.191   2.715  0.0011  0.6635  0.5717
   91ccc    H33 3810   0.581   0.767   2.407  0.2209 -0.5589  0.6886
   91ccc    H34 3811   0.925   0.715   2.505  0.6093  0.1240 -0.0623
   91ccc    H35 3812   0.619   1.275   2.647 -1.6220 -1.1556 -2.3317
   91ccc    H36 3813   0.638   1.220   2.813  2.4047  0.9754 -0.3856
   91ccc    O12 3814   0.459   1.152   2.725 -0.3941  0.2494 -0.3450
   91ccc    H37 3815   0.409   1.182   2.647 -3.3766 -2.0432  0.4821
   91ccc    O13 3816   0.722   0.975   2.755 -0.3622  0.0705  0.4216
   91ccc    H38 3817   0.751   0.853   2.898 -0.4650  0.5745 -0.7389
   91ccc    H39 3818   0.537   0.941   2.575  0.6209 -1.3288 -0.0716
   91ccc     O5 3819   0.589   1.091   2.435  0.0650 -0.4208  0.3191
   91ccc    H40 3820   0.517   1.048   2.386 -2.0464  1.9475  1.1458
   91ccc     N4 3821   0.852   0.681   2.567  0.3903  0.3757 -0.1818
   91ccc    H41 3822   1.026   0.455   2.846 -1.5048  2.5404  0.8356
   92ccc     N1 3823   1.593  -0.013   2.090 -0.0850 -0.2229 -0.2399
   92ccc     H4 3824   1.622  -0.100   2.047 -1.4239 -1.2629  0.8823
   92ccc     C3 3825   1.539   0.082   2.001 -0.0628 -0.2469 -0.7228
   92ccc     H5 3826   1.515   0.022   1.913 -0.1981 -1.6290  0.2324
   92ccc     C4 3827   1.631   0.194   1.953  0.1751  0.0993 -0.3168
   92ccc     H6 3828   1.438   0.114   2.031  0.5203  0.3915  0.6467
   92ccc     H7 3829   1.601   0.214   1.849 -1.6741 -1.0616 -0.0579
   92ccc     H8 3830   1.733   0.155   1.955 -0.2072 -0.9412  1.6035
   92ccc     N2 3831   1.636   0.318   2.040  0.0149 -0.0505 -0.3005
   92ccc     C5 3832   1.501   0.393   2.033 -0.2926 -0.1319 -0.1356
   92ccc     C6 3833   1.761   0.400   2.006 -1.2355 -0.2446 -0.0941
   92ccc     H9 3834   1.848   0.334   2.017 -0.3639  0.9724  0.4387
   92ccc     C7 3835   1.777   0.529   2.085 -0.0252  0.2387  0.2098
   92ccc    H10 3836   1.754   0.422   1.899 -0.2651 -1.0714 -0.3454
   92ccc    H11 3837   1.705   0.608   2.063 -1.3149 -1.0141 -0.2284
   92ccc    H12 3838   1.872   0.575   2.055 -0.1643  1.0342  0.9446
   92ccc     C8 3839   1.790   0.501   2.238  0.4756 -0.0961  0.3558
   92ccc     O2 3840   1.764   0.394   2.287  0.4873 -0.4853  0.5793
   92ccc    H13 3841   1.514   0.487   2.087 -2.8755  0.6534 -0.7562
   92ccc    H14 3842   1.418   0.346   2.087  0.2308  1.1098  1.8546
   92ccc     C9 3843   1.449   0.427   1.890  0.1888  0.1613  0.0829
   92ccc    H15 3844   1.435   0.342   1.823  0.8259  1.0498 -1.2187
   92ccc    H16 3845   1.526   0.496   1.853  0.3671  0.1936  0.5057
   92ccc    C10 3846   1.324   0.510   1.912  0.4337  0.0601  0.1335
   92ccc     O4 3847   1.254   0.508   2.014 -0.4337 -0.3427  0.1565
   92ccc    C11 3848   1.999   0.737   2.684 -0.3518 -0.6266  0.4154
   92ccc    C12 3849   1.848   0.753   2.681  0.0221  0.3595  0.3665
   92ccc    H17 3850   2.040   0.815   2.618 -0.4143 -1.1391 -0.2303
   92ccc    C13 3851   1.800   0.736   2.537  0.2643  0.0795  0.1881
   92ccc    C14 3852   1.849   0.605   2.462  0.3385 -0.0301  0.2202
   92ccc    C15 3853   1.994   0.591   2.490  0.7509 -0.4571  0.2665
   92ccc    H18 3854   1.794   0.519   2.503 -1.8817  1.3613  0.3232
   92ccc    H19 3855   1.842   0.824   2.487  1.6938  1.1086  2.9699
   92ccc    H20 3856   2.048   0.662   2.426  1.3864 -0.2367  1.0217
   92ccc     O1 3857   2.047   0.468   2.454 -0.0705  0.1463 -0.1819
   92ccc     O6 3858   1.663   0.736   2.525  0.0242 -0.4075 -0.2998
   92ccc    C16 3859   2.057   0.765   2.831 -0.1575  0.4210  0.5714
   92ccc    H21 3860   1.647   0.751   2.430  1.4522  0.6773 -0.4076
   92ccc    H22 3861   1.877   0.681   2.266 -1.4500  1.6484 -0.4360
   92ccc    H23 3862   2.057   0.675   2.895  0.1498  1.4927  2.1466
   92ccc    H24 3863   1.995   0.837   2.886  0.9385  1.6537  0.2130
   92ccc     O7 3864   2.191   0.813   2.822  0.2970 -0.3426  0.0705
   92ccc    H25 3865   2.254   0.748   2.786  1.0150  0.0397  0.5947
   92ccc     O8 3866   2.027   0.605   2.630 -0.2922 -0.0351 -0.0076
   92ccc    H26 3867   2.135   0.476   2.494  0.7174  0.5356 -1.9340
   92ccc    H27 3868   1.803   0.668   2.734 -1.3163  0.5431 -0.4245
   92ccc     O9 3869   1.809   0.881   2.734  0.0838  0.1940  0.4623
   92ccc    H28 3870   1.726   0.901   2.688 -0.3651 -1.7231  0.3652
   92ccc     N3 3871   1.819   0.612   2.314  0.2697  0.2961 -0.2267
   92ccc    C17 3872   0.933   0.672   1.595  0.5019 -0.4989  0.4563
   92ccc    C18 3873   0.947   0.517   1.637 -0.0789 -0.3166  0.4921
   92ccc    H29 3874   0.901   0.729   1.683 -0.1215 -0.3295  0.1224
   92ccc    C19 3875   1.086   0.490   1.702  0.6432 -0.5008  0.0728
   92ccc    C20 3876   1.148   0.615   1.760  0.3598 -0.2348 -0.2168
   92ccc    C21 3877   1.156   0.728   1.649 -0.4143  0.1648  0.4432
   92ccc    H30 3878   1.092   0.651   1.847  3.2497  0.4892  1.4434
   92ccc    H31 3879   1.155   0.465   1.621 -0.9128 -1.6059 -0.9890
   92ccc    H32 3880   1.254   0.721   1.599  2.5069  1.0867  5.3918
   92ccc    O10 3881   1.139   0.861   1.694 -0.4834  0.7157  0.6354
   92ccc    O11 3882   1.076   0.380   1.799  0.0216  0.1815  0.4060
   92ccc    C22 3883   0.820   0.713   1.499 -0.4111  0.6226 -0.1005
   92ccc    H33 3884   1.048   0.296   1.758 -0.0210 -1.0325  2.7728
   92ccc    H34 3885   1.351   0.587   1.731  0.0792  1.2020  0.7413
   92ccc    H35 3886   0.732   0.665   1.545  1.2533 -1.6910  0.8861
   92ccc    H36 3887   0.829   0.665   1.401  0.8751 -0.2814  0.4351
   92ccc    O12 3888   0.819   0.857   1.493 -0.1381  0.1070 -0.0609
   92ccc    H37 3889   0.909   0.881   1.465 -0.3069 -1.1963 -1.9321
   92ccc    O13 3890   1.057   0.715   1.547 -0.2833 -0.1757  0.7333
   92ccc    H38 3891   1.193   0.909   1.629 -0.1250  0.8965  1.0574
   92ccc    H39 3892   0.863   0.503   1.706 -1.3079 -2.6086 -1.3028
   92ccc     O5 3893   0.931   0.429   1.518 -0.1807 -0.7169 -0.5466
   92ccc    H40 3894   0.959   0.340   1.546  2.5493 -0.3558 -1.7481
   92ccc     N4 3895   1.285   0.584   1.808 -0.4556 -0.1160  0.2687
   92ccc    H41 3896   1.640   0.287   2.138 -1.1186  0.2472 -0.1468
   93ccc     N1 3897   2.046  -0.535   2.354 -0.6550 -0.2509 -0.6867
   93ccc     H4 3898   2.056  -0.599   2.432  3.6445  1.1766  0.2265
   93ccc     C3 3899   2.109  -0.585   2.236  0.2477  1.2656  0.0982
   93ccc     H5 3900   2.106  -0.694   2.248 -0.3320  1.3224  0.5272
   93ccc     C4 3901   2.257  -0.543   2.233 -0.1454 -0.6213  0.7408
   93ccc     H6 3902   2.056  -0.555   2.144  2.0399  1.1211 -1.0251
   93ccc     H7 3903   2.302  -0.583   2.141 -2.6245 -0.6663 -0.5319
   93ccc     H8 3904   2.305  -0.588   2.321 -0.2711  0.7171  1.5217
   93ccc     N2 3905   2.289  -0.395   2.227  0.1242  0.1515  0.4505
   93ccc     C5 3906   2.212  -0.319   2.118 -0.4174 -0.0972  0.2413
   93ccc     C6 3907   2.437  -0.369   2.213  0.6004  0.6803  0.2795
   93ccc     H9 3908   2.496  -0.457   2.242  0.0590 -0.3823 -1.6482
   93ccc     C7 3909   2.482  -0.252   2.298 -0.6149 -0.1814  0.4579
   93ccc    H10 3910   2.460  -0.353   2.107  0.3363 -0.8400 -0.0273
   93ccc    H11 3911   2.458  -0.158   2.248 -1.7631 -1.0972 -0.7698
   93ccc    H12 3912   2.591  -0.259   2.303 -0.2866  0.5604 -3.2879
   93ccc     C8 3913   2.437  -0.245   2.442 -0.3185 -0.4550  0.0779
   93ccc     O2 3914   2.395  -0.338   2.503 -0.0944 -0.1112  0.5969
   93ccc    H13 3915   2.114  -0.367   2.104 -0.4547 -0.0219  0.2430
   93ccc    H14 3916   2.268  -0.329   2.025  1.2025 -0.4219  1.2130
   93ccc     C9 3917   2.207  -0.167   2.149  0.0533  0.6181 -0.3975
   93ccc    H15 3918   2.137  -0.116   2.082  1.3659 -1.1888 -3.3656
   93ccc    H16 3919   2.300  -0.110   2.132  0.1842  0.6491  0.3863
   93ccc    C10 3920   2.159  -0.130   2.292 -0.4371 -0.2666  0.2903
   93ccc     O4 3921   2.138  -0.207   2.383  0.1486 -0.0967  0.6641
   93ccc    C11 3922   2.335  -0.184   2.913  0.3993  0.1416  0.0688
   93ccc    C12 3923   2.485  -0.141   2.892 -0.1494  0.2994 -0.3070
   93ccc    H17 3924   2.332  -0.293   2.899  0.5856 -0.0096  1.1341
   93ccc    C13 3925   2.514  -0.155   2.742 -0.2904 -0.0874  0.3744
   93ccc    C14 3926   2.411  -0.085   2.649  0.2167 -0.3320 -0.2782
   93ccc    C15 3927   2.266  -0.115   2.677  0.8291 -0.5240 -0.2359
   93ccc    H18 3928   2.430   0.023   2.654 -0.5960 -0.2427  1.7054
   93ccc    H19 3929   2.513  -0.258   2.702  0.6240 -0.1650  0.5090
   93ccc    H20 3930   2.227  -0.214   2.653 -2.2771  0.7982 -1.0797
   93ccc     O1 3931   2.186  -0.009   2.623  0.2123 -0.7032 -0.1538
   93ccc     O6 3932   2.639  -0.094   2.716  0.0319  0.1046 -0.2420
   93ccc    C16 3933   2.291  -0.160   3.062 -0.0367 -0.0619  0.4723
   93ccc    H21 3934   2.712  -0.150   2.685  0.0771  0.0541 -0.0433
   93ccc    H22 3935   2.520  -0.065   2.457 -0.5456  0.9020 -0.3656
   93ccc    H23 3936   2.266  -0.056   3.084 -2.3780 -0.5333  0.2493
   93ccc    H24 3937   2.378  -0.187   3.124 -0.4360 -0.4544  0.8716
   93ccc     O7 3938   2.183  -0.244   3.091  0.0053 -0.0782 -0.2445
   93ccc    H25 3939   2.167  -0.220   3.184  4.3745 -0.2058  0.7505
   93ccc     O8 3940   2.263  -0.097   2.821  0.8659  0.5559 -0.4578
   93ccc    H26 3941   2.202   0.052   2.697  0.4789 -1.7678  0.6872
   93ccc    H27 3942   2.503  -0.035   2.916  2.3020  0.0044 -0.5684
   93ccc     O9 3943   2.572  -0.219   2.975  0.2076 -0.5130 -0.3338
   93ccc    H28 3944   2.652  -0.228   2.921 -0.0273  0.2694 -0.8302
   93ccc     N3 3945   2.447  -0.120   2.501 -0.0465  0.3970 -0.1608
   93ccc    C17 3946   2.194   0.403   2.168 -0.4409 -0.1318 -0.3951
   93ccc    C18 3947   2.314   0.319   2.199 -1.0704 -0.2400  0.1506
   93ccc    H29 3948   2.166   0.464   2.255  0.0658  0.0712 -0.3701
   93ccc    C19 3949   2.282   0.194   2.293 -0.3137  0.5673  0.2008
   93ccc    C20 3950   2.168   0.114   2.232 -0.0110  0.3895 -0.4698
   93ccc    C21 3951   2.047   0.206   2.211 -0.1336  0.7864 -0.5671
   93ccc    H30 3952   2.205   0.078   2.135  0.9832  0.7890 -0.2546
   93ccc    H31 3953   2.247   0.225   2.392  1.8199  3.2531  0.2267
   93ccc    H32 3954   2.010   0.241   2.308 -1.7960  0.9115 -1.2059
   93ccc    O10 3955   1.942   0.133   2.138  0.5019  0.1424 -0.4566
   93ccc    O11 3956   2.398   0.115   2.290 -0.3776 -0.4659  0.8800
   93ccc    C22 3957   2.221   0.495   2.044 -0.3045 -0.4064  0.2495
   93ccc    H33 3958   2.475   0.175   2.291  0.4847 -1.5147 -0.3237
   93ccc    H34 3959   2.127   0.019   2.416  1.3782 -0.8278  0.6703
   93ccc    H35 3960   2.306   0.562   2.062 -1.0872  0.6189  0.2024
   93ccc    H36 3961   2.142   0.568   2.028  1.0739  1.3615  1.1686
   93ccc    O12 3962   2.239   0.422   1.918  0.0912  0.1313  0.2851
   93ccc    H37 3963   2.227   0.491   1.850  0.6578 -1.3344 -1.3852
   93ccc    O13 3964   2.088   0.316   2.126  0.7219 -0.3286 -0.1714
   93ccc    H38 3965   1.965   0.140   2.043  0.5312 -1.4617 -0.5953
   93ccc    H39 3966   2.359   0.279   2.107 -1.0738  1.1200 -0.4644
   93ccc     O5 3967   2.410   0.407   2.271  0.0461  0.3284 -0.0129
   93ccc    H40 3968   2.493   0.364   2.297 -0.4253 -0.2967  0.5207
   93ccc     N4 3969   2.127  -0.006   2.317  0.2846  0.4590  0.3069
   93ccc    H41 3970   2.267  -0.353   2.319  1.2156  0.6537  0.4968
   94ccc     N1 3971   5.078  -0.179   7.020 -0.3904 -0.5508 -0.5549
   94ccc     H4 3972   5.030  -0.096   6.987  2.9675  1.3402 -1.0988
   94ccc     C3 3973   5.004  -0.252   7.126 -0.5958 -0.0083 -0.1245
   94ccc     H5 3974   5.028  -0.222   7.229 -3.4672  1.1928  0.3029
   94ccc     C4 3975   5.001  -0.408   7.119 -0.1564 -0.1384  0.1816
   94ccc     H6 3976   4.901  -0.212   7.122 -0.1811  0.9725 -2.1240
   94ccc     H7 3977   4.920  -0.447   7.181 -1.5142  0.8080 -0.9106
   94ccc     H8 3978   5.096  -0.455   7.144  0.4055 -0.5784 -2.4761
   94ccc     N2 3979   4.962  -0.462   6.985  0.0682  0.7234 -0.5935
   94ccc     C5 3980   4.806  -0.462   6.976 -0.7450 -0.2256  0.2522
   94ccc     C6 3981   5.016  -0.601   6.976  0.6501  0.6873  0.1229
   94ccc     H9 3982   4.986  -0.647   7.070  0.6707  0.7991  0.1849
   94ccc     C7 3983   5.168  -0.626   6.945  0.6034 -0.8108  0.1772
   94ccc    H10 3984   4.964  -0.651   6.894  0.1874  2.0816 -0.4789
   94ccc    H11 3985   5.184  -0.735   6.937 -1.5873 -1.0969 -0.7735
   94ccc    H12 3986   5.220  -0.586   7.033 -1.9127  1.1987  0.8418
   94ccc     C8 3987   5.220  -0.543   6.821 -0.1472 -0.4369 -0.3902
   94ccc     O2 3988   5.155  -0.461   6.762 -0.5785 -0.4635 -0.0399
   94ccc    H13 3989   4.781  -0.356   6.991  1.2880  0.7062 -2.2463
   94ccc    H14 3990   4.754  -0.521   7.052  0.5527 -2.0330 -0.2072
   94ccc     C9 3991   4.748  -0.493   6.840 -0.2387  0.7652  0.4537
   94ccc    H15 3992   4.638  -0.490   6.845 -0.2302 -0.1002  1.3833
   94ccc    H16 3993   4.779  -0.589   6.798  2.0000  1.6813 -0.1304
   94ccc    C10 3994   4.793  -0.386   6.739  0.4400 -0.0173 -0.1457
   94ccc     O4 3995   4.895  -0.318   6.744  0.1228 -0.6638 -0.1313
   94ccc    C11 3996   5.594  -0.386   6.490 -0.0026  0.4297  1.0911
   94ccc    C12 3997   5.540  -0.532   6.450 -0.7001  0.4925  0.5599
   94ccc    H17 3998   5.689  -0.405   6.542 -0.0275  0.8768  1.3023
   94ccc    C13 3999   5.481  -0.607   6.568  1.3739 -0.3170 -0.5240
   94ccc    C14 4000   5.397  -0.514   6.658  0.4459  0.2134 -0.0909
   94ccc    C15 4001   5.467  -0.384   6.699  0.5181  0.0873  0.0549
   94ccc    H18 4002   5.319  -0.471   6.595 -0.7364  0.5880  1.5503
   94ccc    H19 4003   5.563  -0.650   6.628  2.1756 -1.2217 -2.1817
   94ccc    H20 4004   5.557  -0.408   6.757  0.3102  0.0296  0.3572
   94ccc     O1 4005   5.392  -0.289   6.773  0.2562  0.1064  0.4653
   94ccc     O6 4006   5.396  -0.721   6.522  0.9507 -0.0832 -0.3200
   94ccc    C16 4007   5.633  -0.308   6.360  0.5485  0.4137  0.1601
   94ccc    H21 4008   5.352  -0.760   6.600 -2.0418  4.5764  0.7533
   94ccc    H22 4009   5.393  -0.652   6.819 -1.5503 -1.2045  0.5050
   94ccc    H23 4010   5.534  -0.290   6.315  0.3218 -3.9518 -1.6481
   94ccc    H24 4011   5.699  -0.366   6.295 -0.2204  0.6134 -0.8271
   94ccc     O7 4012   5.698  -0.183   6.389  0.4483  0.5060 -0.9492
   94ccc    H25 4013   5.661  -0.114   6.331 -1.7362  1.0396  0.8889
   94ccc     O8 4014   5.502  -0.312   6.579 -0.3264 -0.3001  0.1792
   94ccc    H26 4015   5.304  -0.329   6.771  0.8495 -1.2724  0.4728
   94ccc    H27 4016   5.454  -0.505   6.387 -1.2143  0.0846  1.0789
   94ccc     O9 4017   5.641  -0.611   6.387 -0.0621  0.5204  0.0981
   94ccc    H28 4018   5.606  -0.682   6.330  0.6783  0.9994 -0.9839
   94ccc     N3 4019   5.338  -0.579   6.773  0.4969  0.2448  0.2053
   94ccc    C17 4020   4.590  -0.111   6.310 -0.2578  0.4490  0.2356
   94ccc    C18 4021   4.686  -0.041   6.413 -0.0862  0.1625  0.3004
   94ccc    H29 4022   4.492  -0.128   6.357 -1.3398  0.7247 -1.7833
   94ccc    C19 4023   4.691  -0.124   6.543  0.2989  0.2115 -0.6702
   94ccc    C20 4024   4.734  -0.272   6.514 -0.5258  0.1904 -0.3725
   94ccc    C21 4025   4.654  -0.331   6.399  0.4440 -0.3369  0.5262
   94ccc    H30 4026   4.835  -0.267   6.471 -0.2211 -0.7039  0.2212
   94ccc    H31 4027   4.589  -0.125   6.583  0.4583 -1.3653 -0.2253
   94ccc    H32 4028   4.551  -0.349   6.432  0.0267 -3.6077 -2.0299
   94ccc    O10 4029   4.714  -0.451   6.351 -0.2158 -0.4358  0.0381
   94ccc    O11 4030   4.776  -0.064   6.641  0.0181 -0.6003 -0.5501
   94ccc    C22 4031   4.567  -0.030   6.182 -0.4448 -1.3991  0.6856
   94ccc    H33 4032   4.744  -0.094   6.728 -1.3098 -1.0919 -1.1786
   94ccc    H34 4033   4.613  -0.397   6.655  0.2712 -1.8319 -0.3675
   94ccc    H35 4034   4.502   0.058   6.189  1.3485  0.0831 -0.4653
   94ccc    H36 4035   4.508  -0.085   6.107 -0.5618 -0.6118  0.1807
   94ccc    O12 4036   4.690   0.015   6.130  0.4694  0.5743  0.4393
   94ccc    H37 4037   4.692   0.112   6.145  0.5287  0.9685 -1.8280
   94ccc    O13 4038   4.647  -0.237   6.284  0.0797 -0.5480 -0.4237
   94ccc    H38 4039   4.644  -0.498   6.302 -0.7542  1.9928 -1.7219
   94ccc    H39 4040   4.787  -0.034   6.371  0.8019 -2.5202  1.7569
   94ccc     O5 4041   4.635   0.088   6.440 -0.7587  0.8351 -0.4520
   94ccc    H40 4042   4.644   0.094   6.537  0.0605 -2.2441 -0.2435
   94ccc     N4 4043   4.707  -0.365   6.631 -0.3294  0.0784 -0.2993
   94ccc    H41 4044   4.996  -0.405   6.906  2.8175  0.4527  0.3050
   95ccc     N1 4045   5.924  -0.096   6.588 -0.2257 -0.5935  0.5502
   95ccc     H4 4046   5.897  -0.021   6.525 -0.3451 -0.6249  0.5641
   95ccc     C3 4047   6.056  -0.156   6.569  0.0804 -0.6539  0.0881
   95ccc     H5 4048   6.131  -0.078   6.582  0.8107 -1.3300  0.0281
   95ccc     C4 4049   6.078  -0.214   6.433  0.4930 -0.1947 -0.5142
   95ccc     H6 4050   6.079  -0.239   6.637 -0.4398  0.5564  1.8192
   95ccc     H7 4051   6.165  -0.280   6.450  0.3713  0.2639  2.4189
   95ccc     H8 4052   6.108  -0.138   6.360 -0.1641  0.0160 -0.5641
   95ccc     N2 4053   5.966  -0.297   6.366 -0.1996  0.5325 -0.1427
   95ccc     C5 4054   5.948  -0.424   6.445 -0.0124  0.4558 -0.3901
   95ccc     C6 4055   6.001  -0.309   6.220 -0.1972 -0.2707 -0.4969
   95ccc     H9 4056   6.105  -0.345   6.223  0.9344  2.7901  1.7096
   95ccc     C7 4057   5.970  -0.196   6.121  0.3217 -0.1861  1.0128
   95ccc    H10 4058   5.955  -0.403   6.187 -1.3269 -0.5698  1.7930
   95ccc    H11 4059   6.023  -0.103   6.144 -1.4588  1.0228  0.4933
   95ccc    H12 4060   5.861  -0.180   6.121 -0.0439 -1.9559 -1.8965
   95ccc     C8 4061   6.021  -0.235   5.979  0.4364  0.4171  0.1358
   95ccc     O2 4062   6.076  -0.345   5.956  0.3378  0.2170  0.0549
   95ccc    H13 4063   5.849  -0.464   6.421  0.2151  0.5854 -1.5829
   95ccc    H14 4064   5.947  -0.410   6.554  0.1922  1.7595 -0.5361
   95ccc     C9 4065   6.052  -0.531   6.415  0.4306  0.5432 -0.0985
   95ccc    H15 4066   6.148  -0.506   6.463  0.8278 -2.0551  0.5700
   95ccc    H16 4067   6.070  -0.543   6.308  1.6514 -2.6310  0.3678
   95ccc    C10 4068   6.022  -0.663   6.495 -0.9663 -0.4246  0.3294
   95ccc     O4 4069   5.913  -0.684   6.544 -0.4156  0.4739  0.0582
   95ccc    C11 4070   5.694  -0.232   5.556  0.2425 -0.8382 -0.1292
   95ccc    C12 4071   5.832  -0.160   5.523  0.2349 -0.1405 -1.1526
   95ccc    H17 4072   5.632  -0.149   5.591 -0.0885 -0.9128 -0.5306
   95ccc    C13 4073   5.907  -0.106   5.651  0.3713  0.4603 -0.7221
   95ccc    C14 4074   5.918  -0.215   5.759 -0.5040 -0.1366 -0.1018
   95ccc    C15 4075   5.792  -0.298   5.780  0.6512  0.3871 -0.6447
   95ccc    H18 4076   5.992  -0.283   5.715  0.2642  0.0281  0.9004
   95ccc    H19 4077   5.847  -0.032   5.706 -0.4949 -2.3796  2.5356
   95ccc    H20 4078   5.726  -0.233   5.837  1.3862  0.8864 -0.3540
   95ccc     O1 4079   5.818  -0.416   5.855  0.7042 -0.2218 -0.3713
   95ccc     O6 4080   6.035  -0.061   5.609 -0.0046  0.5027 -0.2112
   95ccc    C16 4081   5.614  -0.283   5.434 -0.3352 -0.1984  0.2470
   95ccc    H21 4082   6.062   0.001   5.679  1.5351  0.2123 -0.5012
   95ccc    H22 4083   5.920  -0.078   5.910  0.6689  0.9530 -0.0410
   95ccc    H23 4084   5.673  -0.353   5.374 -2.0620 -0.2907 -1.4032
   95ccc    H24 4085   5.576  -0.207   5.365  2.3979  1.0644  0.0146
   95ccc     O7 4086   5.495  -0.352   5.479 -0.5355 -0.0324 -0.1006
   95ccc    H25 4087   5.519  -0.388   5.567  0.6786 -1.2842 -0.8932
   95ccc     O8 4088   5.726  -0.341   5.652  0.2135  0.8450  0.2937
   95ccc    H26 4089   5.885  -0.456   5.797  1.8562  2.4420 -1.0299
   95ccc    H27 4090   5.894  -0.244   5.491 -0.4748 -0.5084 -1.5818
   95ccc     O9 4091   5.818  -0.065   5.424  0.0612 -0.0548  0.7335
   95ccc    H28 4092   5.910  -0.041   5.404 -0.2067  0.1400 -0.3244
   95ccc     N3 4093   5.970  -0.164   5.885 -0.5470  0.1819  0.0871
   95ccc    C17 4094   6.309  -1.108   6.651 -0.3239  0.4083 -0.0702
   95ccc    C18 4095   6.277  -0.995   6.753 -0.4717 -1.0439  0.1189
   95ccc    H29 4096   6.396  -1.089   6.587 -0.5949  0.8338 -0.3161
   95ccc    C19 4097   6.245  -0.862   6.682 -0.0357  0.0905 -0.3403
   95ccc    C20 4098   6.133  -0.879   6.580 -0.1564  0.1546  1.1074
   95ccc    C21 4099   6.161  -1.003   6.492 -0.4839  0.3110 -0.1673
   95ccc    H30 4100   6.041  -0.899   6.635  0.4463  1.4174  2.6602
   95ccc    H31 4101   6.331  -0.825   6.624  0.6072  2.0310  1.7086
   95ccc    H32 4102   6.241  -0.993   6.417  0.4647 -1.5283  0.5253
   95ccc    O10 4103   6.045  -1.045   6.423  0.2878 -0.1594 -0.5689
   95ccc    O11 4104   6.207  -0.762   6.781 -0.2070  0.0121 -0.0647
   95ccc    C22 4105   6.320  -1.248   6.714 -0.0438 -0.1418  0.0062
   95ccc    H33 4106   6.133  -0.792   6.836 -0.9277 -0.6436 -1.3392
   95ccc    H34 4107   6.221  -0.734   6.460 -0.8191 -0.7314 -2.7173
   95ccc    H35 4108   6.411  -1.249   6.775  0.0961 -0.9707 -0.2032
   95ccc    H36 4109   6.328  -1.322   6.633 -0.0038  0.6392 -0.7225
   95ccc    O12 4110   6.211  -1.285   6.792  0.4476  0.0409  0.2625
   95ccc    H37 4111   6.229  -1.377   6.820  0.0570  0.4940  2.1587
   95ccc    O13 4112   6.186  -1.118   6.572 -0.3337  0.5057 -0.5348
   95ccc    H38 4113   5.971  -1.051   6.485 -0.3032  0.9755 -1.1305
   95ccc    H39 4114   6.201  -1.035   6.821 -1.2752  0.7179  0.3019
   95ccc     O5 4115   6.395  -0.964   6.833  0.0568  0.1889  0.1492
   95ccc    H40 4116   6.389  -1.013   6.916  0.0736 -0.1053 -0.0236
   95ccc     N4 4117   6.131  -0.747   6.506  0.3100  0.5296  0.1264
   95ccc    H41 4118   5.877  -0.247   6.364  1.0644  2.9289 -2.4553
   96ccc     N1 4119   4.759  -0.631   5.835  0.0753  0.4055  0.8467
   96ccc     H4 4120   4.835  -0.580   5.790  0.4642 -1.1007 -0.3352
   96ccc     C3 4121   4.627  -0.636   5.774  0.4460  0.8187 -0.2990
   96ccc     H5 4122   4.587  -0.737   5.787  2.0574  0.0256 -1.1562
   96ccc     C4 4123   4.622  -0.600   5.623  0.0263 -0.3262 -0.3894
   96ccc     H6 4124   4.565  -0.570   5.836 -0.5763 -2.2005  2.1430
   96ccc     H7 4125   4.693  -0.660   5.565  0.3358  1.4215 -1.9085
   96ccc     H8 4126   4.654  -0.496   5.612 -0.4420  0.0089  1.2297
   96ccc     N2 4127   4.478  -0.606   5.556 -0.1973 -0.9936  0.1756
   96ccc     C5 4128   4.410  -0.740   5.572  0.1371 -0.1967 -0.0264
   96ccc     C6 4129   4.494  -0.582   5.407 -0.3701 -0.3775 -0.6858
   96ccc     H9 4130   4.562  -0.658   5.365 -0.7446 -1.1257  0.0461
   96ccc     C7 4131   4.546  -0.435   5.376  0.8349  0.5227 -0.8169
   96ccc    H10 4132   4.396  -0.594   5.359 -0.5323 -0.1032 -0.4242
   96ccc    H11 4133   4.556  -0.387   5.474 -0.0601 -2.6058  0.9549
   96ccc    H12 4134   4.461  -0.393   5.322 -2.1831 -2.4355  1.2533
   96ccc     C8 4135   4.668  -0.420   5.285 -0.0172  0.0957  0.5555
   96ccc     O2 4136   4.729  -0.509   5.232  0.4613  0.1417 -0.0839
   96ccc    H13 4137   4.307  -0.729   5.536 -0.4189  1.0242  1.7824
   96ccc    H14 4138   4.403  -0.763   5.679 -2.3680 -1.5925 -0.4305
   96ccc     C9 4139   4.473  -0.860   5.497  0.5295 -0.3123 -0.2785
   96ccc    H15 4140   4.575  -0.888   5.528  0.1601 -0.1732  1.1134
   96ccc    H16 4141   4.477  -0.845   5.388  3.3318 -1.8306 -0.4986
   96ccc    C10 4142   4.393  -0.982   5.523 -0.3258 -0.0508  0.1294
   96ccc     O4 4143   4.289  -0.992   5.588 -0.2113 -0.1856  0.2984
   96ccc    C11 4144   4.753   0.155   5.110 -0.3400 -0.0049 -0.5325
   96ccc    C12 4145   4.534  -0.004   5.058 -0.1415 -0.0346  0.7186
   96ccc    H17 4146   4.833   0.147   5.035 -0.7923 -1.3084 -0.8903
   96ccc    C13 4147   4.533  -0.148   5.167  0.0146  0.0560  0.5831
   96ccc    C14 4148   4.657  -0.172   5.298 -0.5859 -0.2021  0.0603
   96ccc    C15 4149   4.801  -0.063   5.327 -0.0608  0.1040 -0.7675
   96ccc    H18 4150   4.599  -0.177   5.391 -2.5302 -0.5875 -1.1039
   96ccc    H19 4151   4.560  -0.231   5.100 -0.2347  1.5213 -1.4102
   96ccc    H20 4152   4.888  -0.120   5.292 -0.3440  0.0152 -1.3302
   96ccc     O1 4153   4.811  -0.032   5.465 -0.2880  0.2816 -0.1713
   96ccc     O6 4154   4.393  -0.188   5.203  0.2230  0.2063 -0.6488
   96ccc    C16 4155   4.779   0.311   5.141  0.3204 -0.0602  0.2636
   96ccc    H21 4156   4.347  -0.190   5.117  0.6220  0.5474 -0.8769
   96ccc    H22 4157   4.808  -0.297   5.214  0.9276 -1.4178  0.6741
   96ccc    H23 4158   4.756   0.332   5.246 -1.0877 -0.2344  0.0108
   96ccc    H24 4159   4.726   0.389   5.086  0.0336 -0.2556  0.2583
   96ccc     O7 4160   4.911   0.350   5.100  0.0467  0.3256 -0.1806
   96ccc    H25 4161   4.920   0.439   5.139  1.7866 -1.1740  3.3220
   96ccc     O8 4162   4.844   0.085   5.244  0.3304  0.2407  0.1643
   96ccc    H26 4163   4.904  -0.005   5.471 -0.2894  0.1775  0.3253
   96ccc    H27 4164   4.433   0.029   5.086 -0.9655 -1.4608 -0.3849
   96ccc     O9 4165   4.481  -0.058   4.926  0.1058  0.2738 -0.0964
   96ccc    H28 4166   4.555  -0.103   4.881  0.4804  1.1839 -0.4180
   96ccc     N3 4167   4.729  -0.302   5.278 -0.2757  0.7990 -0.5332
   96ccc    C17 4168   4.216  -1.453   5.445 -0.3787 -0.1843 -0.0157
   96ccc    C18 4169   4.201  -1.358   5.320 -0.0417 -0.3559 -0.3643
   96ccc    H29 4170   4.142  -1.415   5.517 -0.9414  0.3185 -0.8470
   96ccc    C19 4171   4.252  -1.217   5.353  0.8036 -0.6285  0.3642
   96ccc    C20 4172   4.393  -1.219   5.424 -0.2627  0.4876 -0.2543
   96ccc    C21 4173   4.395  -1.321   5.542  0.2566  0.2481 -0.4701
   96ccc    H30 4174   4.461  -1.269   5.353  0.5076  0.3793  0.5442
   96ccc    H31 4175   4.187  -1.173   5.430  0.3747  0.2289 -0.4690
   96ccc    H32 4176   4.324  -1.281   5.616  1.0121 -0.1655  0.5102
   96ccc    O10 4177   4.526  -1.327   5.599 -0.3525 -0.0928  0.0065
   96ccc    O11 4178   4.252  -1.131   5.235  0.2055  0.2051  0.2761
   96ccc    C22 4179   4.200  -1.603   5.413  0.5160 -0.0550 -0.4425
   96ccc    H33 4180   4.197  -1.053   5.251  0.4823  0.0403  2.2291
   96ccc    H34 4181   4.522  -1.058   5.390  1.3336  1.0890  2.5774
   96ccc    H35 4182   4.099  -1.622   5.377 -0.3460  2.2948  0.5339
   96ccc    H36 4183   4.214  -1.658   5.506 -0.4296 -1.4297 -1.0878
   96ccc    O12 4184   4.282  -1.647   5.305 -0.3606 -0.3187 -0.2004
   96ccc    H37 4185   4.341  -1.716   5.339  0.8213  0.3406 -0.8529
   96ccc    O13 4186   4.354  -1.446   5.494 -0.1611  0.5735  0.4525
   96ccc    H38 4187   4.569  -1.405   5.559  1.4203  0.9868 -0.3381
   96ccc    H39 4188   4.269  -1.394   5.241  0.1164 -0.5287 -0.1501
   96ccc     O5 4189   4.066  -1.356   5.267 -0.4465  0.3592 -0.3699
   96ccc    H40 4190   4.090  -1.302   5.190 -0.0828  1.0745  0.2351
   96ccc     N4 4191   4.445  -1.083   5.452 -0.7301 -0.4961 -0.3570
   96ccc    H41 4192   4.418  -0.535   5.600  2.7026  0.9197  1.3939
   97ccc     N1 4193   5.199  -1.065   6.185 -0.5584  0.0756  0.2279
   97ccc     H4 4194   5.102  -1.070   6.153 -0.9073 -0.0892  1.2924
   97ccc     C3 4195   5.286  -1.183   6.174 -0.1149  0.9429 -0.2866
   97ccc     H5 4196   5.277  -1.224   6.072 -1.2398  0.3783  0.0230
   97ccc     C4 4197   5.249  -1.285   6.278  0.4581 -0.3079  0.4190
   97ccc     H6 4198   5.388  -1.144   6.184  0.7808 -1.2630 -0.3892
   97ccc     H7 4199   5.141  -1.300   6.283  0.5379 -0.6119  1.5153
   97ccc     H8 4200   5.273  -1.240   6.375 -0.8871 -0.5746  0.9010
   97ccc     N2 4201   5.317  -1.418   6.280 -0.3978 -0.2135  0.4438
   97ccc     C5 4202   5.227  -1.519   6.355 -0.4723  0.8219  0.9372
   97ccc     C6 4203   5.460  -1.421   6.340  0.3762 -0.3777 -0.4001
   97ccc     H9 4204   5.511  -1.331   6.304 -1.9939  2.7616  3.2857
   97ccc     C7 4205   5.551  -1.544   6.305  1.0166  0.7633  0.4149
   97ccc    H10 4206   5.452  -1.417   6.449  3.9028 -1.3371  0.0341
   97ccc    H11 4207   5.549  -1.572   6.199  1.9330 -1.6090  0.9471
   97ccc    H12 4208   5.520  -1.630   6.367 -0.5497  0.2089 -1.0450
   97ccc     C8 4209   5.700  -1.513   6.324 -0.3855 -0.9181 -0.5373
   97ccc     O2 4210   5.753  -1.400   6.326 -0.3803 -0.0541  0.0985
   97ccc    H13 4211   5.276  -1.617   6.364 -0.7047  0.6757  0.6556
   97ccc    H14 4212   5.140  -1.527   6.289  2.0666 -1.2098 -2.4695
   97ccc     C9 4213   5.178  -1.488   6.491 -0.3608 -0.9066  0.1319
   97ccc    H15 4214   5.115  -1.399   6.481  0.7940 -0.1977 -1.0366
   97ccc    H16 4215   5.262  -1.446   6.547 -0.5093 -0.7105  0.2085
   97ccc    C10 4216   5.104  -1.606   6.564 -0.3263 -0.3331  0.4237
   97ccc     O4 4217   4.988  -1.606   6.580  0.3680  0.1936  0.1501
   97ccc    C11 4218   6.138  -1.767   6.521  0.5149  0.1322  0.1343
   97ccc    C12 4219   6.128  -1.758   6.366  0.1777 -0.0347  0.1731
   97ccc    H17 4220   6.076  -1.852   6.553 -0.7678  1.5440  1.5917
   97ccc    C13 4221   5.978  -1.758   6.316 -0.7733 -0.3586 -0.3623
   97ccc    C14 4222   5.909  -1.634   6.381 -0.3868 -0.1799 -0.4991
   97ccc    C15 4223   5.927  -1.640   6.534 -0.3947 -0.2132 -0.8829
   97ccc    H18 4224   5.964  -1.543   6.353 -0.9742  1.3179  2.7792
   97ccc    H19 4225   5.925  -1.842   6.362  0.6303 -1.7770 -1.2437
   97ccc    H20 4226   5.877  -1.726   6.580  1.6311  0.9022  4.1612
   97ccc     O1 4227   5.874  -1.518   6.594 -0.3777 -0.2083  0.8285
   97ccc     O6 4228   5.986  -1.768   6.174  0.2510 -0.2855 -0.0355
   97ccc    C16 4229   6.282  -1.765   6.571 -0.0610  0.3283  0.7761
   97ccc    H21 4230   6.013  -1.857   6.147  0.3171 -0.6153  1.0685
   97ccc    H22 4231   5.718  -1.708   6.345  0.4986 -0.2708  0.9359
   97ccc    H23 4232   6.333  -1.828   6.497 -0.1730  2.0643 -0.8448
   97ccc    H24 4233   6.334  -1.670   6.554  0.3725  0.3059  1.9035
   97ccc     O7 4234   6.312  -1.809   6.709  0.8507 -0.6152  0.1046
   97ccc    H25 4235   6.376  -1.881   6.696  0.8030 -0.8623  1.1238
   97ccc     O8 4236   6.066  -1.654   6.576  0.3089  0.5763  0.0603
   97ccc    H26 4237   5.936  -1.499   6.667  1.4330  0.0987 -0.7045
   97ccc    H27 4238   6.182  -1.671   6.328  1.0126 -0.9593 -0.8132
   97ccc     O9 4239   6.186  -1.879   6.314  0.5344 -0.3501  0.5713
   97ccc    H28 4240   6.208  -1.870   6.220 -0.8284  2.5083  0.4249
   97ccc     N3 4241   5.772  -1.623   6.331  0.0413 -0.1122  0.0444
   97ccc    C17 4242   5.499  -1.826   6.859  1.0609 -0.4359 -0.2902
   97ccc    C18 4243   5.503  -1.883   6.716 -0.3010 -0.0176  0.5598
   97ccc    H29 4244   5.426  -1.879   6.921 -0.4453 -0.0306 -1.6181
   97ccc    C19 4245   5.365  -1.864   6.639  0.1082  0.0951 -0.4966
   97ccc    C20 4246   5.315  -1.719   6.649  0.2401 -0.2817 -0.2154
   97ccc    C21 4247   5.330  -1.671   6.798  0.1745 -0.2453 -0.1304
   97ccc    H30 4248   5.377  -1.655   6.586 -0.9090  1.2180  0.1209
   97ccc    H31 4249   5.292  -1.929   6.689  1.9534  0.0923  2.4693
   97ccc    H32 4250   5.262  -1.727   6.863  0.4956 -2.3981 -1.5371
   97ccc    O10 4251   5.303  -1.534   6.794  0.5555 -0.3463 -0.1474
   97ccc    O11 4252   5.378  -1.887   6.495 -0.4046  0.1066  0.5637
   97ccc    C22 4253   5.632  -1.826   6.938 -0.3197 -0.0985 -0.1707
   97ccc    H33 4254   5.471  -1.914   6.487 -0.1586  1.2180 -0.6951
   97ccc    H34 4255   5.114  -1.770   6.673  0.2290 -0.7517  0.1069
   97ccc    H35 4256   5.695  -1.753   6.886 -0.6083  0.3029  0.0345
   97ccc    H36 4257   5.689  -1.919   6.934  1.6897  1.1056 -2.3151
   97ccc    O12 4258   5.614  -1.781   7.080 -0.2273 -0.0664  0.4319
   97ccc    H37 4259   5.649  -1.690   7.086  2.0570 -0.7785 -0.7210
   97ccc    O13 4260   5.461  -1.690   6.852  0.3008  0.0900 -0.6357
   97ccc    H38 4261   5.341  -1.502   6.878 -1.6059 -0.1561  0.8194
   97ccc    H39 4262   5.579  -1.823   6.664 -0.2240 -1.6189 -1.2657
   97ccc     O5 4263   5.532  -2.021   6.717  0.6620 -0.2469  0.1979
   97ccc    H40 4264   5.620  -2.037   6.756  1.2718 -0.0215 -1.0302
   97ccc     N4 4265   5.170  -1.712   6.611 -0.8036  0.0277 -0.1328
   97ccc    H41 4266   5.325  -1.448   6.182 -0.9804 -0.3633  0.4343
   98ccc     N1 4267   5.276   1.378   7.257 -0.3902 -0.1065  0.3751
   98ccc     H4 4268   5.253   1.296   7.311  0.4341 -0.9916 -0.5791
   98ccc     C3 4269   5.279   1.509   7.321 -0.4232  0.0339 -0.0099
   98ccc     H5 4270   5.378   1.555   7.309  0.3815 -1.1676  1.5788
   98ccc     C4 4271   5.244   1.499   7.473 -0.5270  0.0962  0.4603
   98ccc     H6 4272   5.205   1.574   7.274 -0.8815 -1.1986 -1.0499
   98ccc     H7 4273   5.236   1.602   7.512  0.1332  0.2820  0.1226
   98ccc     H8 4274   5.312   1.439   7.534 -0.4053 -0.6546 -0.3959
   98ccc     N2 4275   5.099   1.446   7.498 -0.9439  1.1530  0.0550
   98ccc     C5 4276   4.997   1.538   7.436  0.3158  0.1898 -0.8628
   98ccc     C6 4277   5.064   1.427   7.644  0.1045  0.7006 -0.6417
   98ccc     H9 4278   5.070   1.521   7.700  0.1171 -0.3390  1.1836
   98ccc     C7 4279   5.159   1.332   7.721  0.2592  0.1256 -0.2631
   98ccc    H10 4280   4.965   1.382   7.646 -0.2909  1.5784  0.5668
   98ccc    H11 4281   5.262   1.369   7.728  0.7957 -1.4873  1.0848
   98ccc    H12 4282   5.156   1.232   7.676  0.0707 -0.3356  0.7517
   98ccc     C8 4283   5.117   1.315   7.869 -0.5883  0.7110  0.4880
   98ccc     O2 4284   5.058   1.401   7.929  0.1662  0.4198 -0.3539
   98ccc    H13 4285   5.036   1.587   7.346  1.6239 -0.1924 -0.5286
   98ccc    H14 4286   4.981   1.623   7.504  0.0254 -0.6638  0.1674
   98ccc     C9 4287   4.857   1.493   7.399 -0.2912  0.1753 -0.0018
   98ccc    H15 4288   4.786   1.572   7.372 -0.5954 -0.2880 -0.5973
   98ccc    H16 4289   4.816   1.445   7.489  0.7875  0.9758  0.9336
   98ccc    C10 4290   4.852   1.383   7.295  0.8686  1.0690 -0.2181
   98ccc     O4 4291   4.944   1.324   7.243 -0.3220 -0.1907 -0.3977
   98ccc    C11 4292   5.007   1.208   8.330  0.0842  0.2422  0.4888
   98ccc    C12 4293   4.952   1.093   8.239  0.4527 -0.8759  0.2685
   98ccc    H17 4294   4.954   1.304   8.318  1.1092  0.6376 -1.1702
   98ccc    C13 4295   4.982   1.130   8.094 -0.1152 -0.2254 -0.6005
   98ccc    C14 4296   5.136   1.161   8.069 -0.1504  0.2542  0.1710
   98ccc    C15 4297   5.179   1.265   8.174  0.0707 -0.2247  0.5890
   98ccc    H18 4298   5.192   1.067   8.077 -3.2734 -1.8436 -0.8822
   98ccc    H19 4299   4.912   1.206   8.059 -2.2673 -1.9922 -0.3368
   98ccc    H20 4300   5.121   1.358   8.166 -0.5512 -0.5007  1.6793
   98ccc     O1 4301   5.322   1.286   8.163 -0.6776 -0.1344  0.0055
   98ccc     O6 4302   4.949   1.010   8.026  0.0794  0.5998  0.0667
   98ccc    C16 4303   4.970   1.170   8.476 -0.3397  0.2574  0.1479
   98ccc    H21 4304   4.852   1.002   8.032 -0.3815  3.3097 -2.0393
   98ccc    H22 4305   5.221   1.136   7.879 -0.0242  0.4913 -0.3523
   98ccc    H23 4306   5.031   1.091   8.522 -0.8742 -0.7839 -0.8845
   98ccc    H24 4307   4.866   1.136   8.483 -0.9841  1.8085 -1.3150
   98ccc     O7 4308   4.981   1.282   8.570 -0.0494 -0.1161  0.3789
   98ccc    H25 4309   5.070   1.320   8.557 -0.9025  1.5954 -0.9383
   98ccc     O8 4310   5.151   1.219   8.307  0.1977  0.1257 -0.1656
   98ccc    H26 4311   5.363   1.264   8.248 -1.6461  0.0823  0.5480
   98ccc    H27 4312   5.004   0.998   8.258 -0.9117 -1.6294  0.3240
   98ccc     O9 4313   4.814   1.076   8.256  0.0452 -0.3701 -0.0867
   98ccc    H28 4314   4.809   1.013   8.330 -0.3202  0.8108  0.9438
   98ccc     N3 4315   5.164   1.202   7.932  0.0013  0.0757  0.1972
   98ccc    C17 4316   4.531   0.988   7.129  0.4680 -0.3430  0.5275
   98ccc    C18 4317   4.463   1.126   7.100  0.2747  0.0278  1.0718
   98ccc    H29 4318   4.512   0.961   7.234  2.2001 -1.3674  0.6125
   98ccc    C19 4319   4.531   1.233   7.184 -0.1942  0.6787  0.1442
   98ccc    C20 4320   4.681   1.237   7.170  0.1069 -0.5913  0.3223
   98ccc    C21 4321   4.733   1.092   7.193 -0.6309 -0.5948 -0.4627
   98ccc    H30 4322   4.711   1.276   7.072 -0.0304  1.0895  0.9188
   98ccc    H31 4323   4.504   1.222   7.290 -0.4262 -0.9317 -0.0635
   98ccc    H32 4324   4.723   1.055   7.296  1.5715  1.1213  0.4408
   98ccc    O10 4325   4.867   1.093   7.153  0.1121 -0.3580 -0.6731
   98ccc    O11 4326   4.490   1.361   7.135  0.0547 -0.3594  0.8572
   98ccc    C22 4327   4.476   0.873   7.035 -0.2835 -0.1153 -1.0842
   98ccc    H33 4328   4.396   1.353   7.112  0.0858  2.8278 -0.9592
   98ccc    H34 4329   4.642   1.388   7.300 -0.3801  0.1941 -1.7155
   98ccc    H35 4330   4.373   0.866   7.072 -0.3621 -0.6810 -1.4035
   98ccc    H36 4331   4.533   0.783   7.060  0.5031  0.6690  0.0377
   98ccc    O12 4332   4.490   0.899   6.895  0.0673  0.0597 -0.0642
   98ccc    H37 4333   4.469   0.813   6.856 -0.6324 -1.1176  2.6398
   98ccc    O13 4334   4.671   1.009   7.097  0.1782  0.4442 -0.3545
   98ccc    H38 4335   4.904   1.174   7.192 -2.2683  0.6219 -0.2869
   98ccc    H39 4336   4.477   1.161   6.997 -3.4012  2.1442  1.1291
   98ccc     O5 4337   4.327   1.130   7.116 -0.2200 -0.0150 -0.4725
   98ccc    H40 4338   4.282   1.052   7.078 -1.7894  0.9558 -0.6998
   98ccc     N4 4339   4.723   1.334   7.271  0.5897  0.2141  0.7397
   98ccc    H41 4340   5.104   1.354   7.454  1.9360  1.6265 -0.7683
   99ccc     N1 4341   5.787   1.048   6.962 -0.3538  0.2096  0.0549
   99ccc     H4 4342   5.789   1.106   7.045 -0.1942  1.9884 -1.1350
   99ccc     C3 4343   5.900   1.069   6.871 -0.9748  0.1673  0.4668
   99ccc     H5 4344   5.964   0.980   6.875 -1.8532 -0.5205 -0.3063
   99ccc     C4 4345   5.982   1.200   6.907 -0.8930  0.3338  0.6709
   99ccc     H6 4346   5.857   1.087   6.772  0.5596  0.7876 -0.1202
   99ccc     H7 4347   6.060   1.205   6.831 -0.1967  1.2858  1.4272
   99ccc     H8 4348   6.025   1.180   7.006 -1.1952 -2.1219  0.3814
   99ccc     N2 4349   5.898   1.323   6.900  0.5933 -0.6007 -0.6167
   99ccc     C5 4350   5.881   1.372   6.757 -0.0490 -0.3405 -0.2350
   99ccc     C6 4351   5.959   1.439   6.986  0.1861  0.5341 -0.0193
   99ccc     H9 4352   6.065   1.451   6.962  0.5939 -1.5744  0.5066
   99ccc     C7 4353   5.930   1.425   7.134  0.6849  0.1881 -0.3512
   99ccc    H10 4354   5.905   1.530   6.957 -1.4474 -1.2850 -3.2309
   99ccc    H11 4355   5.951   1.517   7.189  1.7957  0.5037 -1.2627
   99ccc    H12 4356   5.998   1.346   7.168 -1.4156 -1.3446  0.5123
   99ccc     C8 4357   5.784   1.382   7.167 -0.2222 -0.2904 -0.1785
   99ccc     O2 4358   5.694   1.349   7.095  0.4452  0.1130 -0.3686
   99ccc    H13 4359   5.843   1.289   6.696 -0.6797 -0.0495 -0.2454
   99ccc    H14 4360   5.976   1.408   6.715 -0.5913 -0.8482 -1.9913
   99ccc     C9 4361   5.764   1.470   6.739 -0.0054 -0.3076 -0.2290
   99ccc    H15 4362   5.764   1.484   6.630  0.2577  0.4033 -0.1432
   99ccc    H16 4363   5.795   1.564   6.787  0.8124 -1.4806  1.6324
   99ccc    C10 4364   5.627   1.423   6.790 -0.3398 -0.2679  0.0798
   99ccc     O4 4365   5.601   1.305   6.809 -1.0168 -0.0891 -0.0692
   99ccc    C11 4366   5.820   1.524   7.688 -0.1003 -0.2649 -0.2036
   99ccc    C12 4367   5.880   1.386   7.660 -0.1812  0.1581  0.5557
   99ccc    H17 4368   5.718   1.507   7.723  0.3635 -0.9253  0.8922
   99ccc    C13 4369   5.835   1.331   7.530  0.5586  0.3218  0.8582
   99ccc    C14 4370   5.830   1.427   7.408  0.1808  0.1916 -0.4260
   99ccc    C15 4371   5.753   1.553   7.455 -0.5338 -0.5522 -0.4794
   99ccc    H18 4372   5.935   1.449   7.387  0.9198 -0.2608  2.3883
   99ccc    H19 4373   5.739   1.278   7.538  0.2794  0.6659 -0.0064
   99ccc    H20 4374   5.646   1.549   7.479 -0.4261  1.0014  0.4534
   99ccc     O1 4375   5.771   1.657   7.354  1.0415  0.7831  0.5240
   99ccc     O6 4376   5.931   1.235   7.491  0.3107  0.1285 -0.5904
   99ccc    C16 4377   5.894   1.597   7.800  0.0307 -0.1458 -0.4155
   99ccc    H21 4378   5.953   1.176   7.565  3.5852  0.1439 -1.3851
   99ccc    H22 4379   5.662   1.332   7.321  1.0728 -1.6425  0.7884
   99ccc    H23 4380   5.998   1.627   7.778 -1.2484  4.7992 -0.7710
   99ccc    H24 4381   5.887   1.541   7.893 -2.7599  2.0776  0.8622
   99ccc     O7 4382   5.820   1.721   7.828  0.0356 -0.1780  0.5098
   99ccc    H25 4383   5.834   1.789   7.760 -2.2134 -0.9794 -0.8788
   99ccc     O8 4384   5.823   1.607   7.565  0.1559 -0.0698  0.6864
   99ccc    H26 4385   5.724   1.739   7.375 -1.1572  0.8618 -3.5509
   99ccc    H27 4386   5.989   1.399   7.661 -0.0015 -1.0441 -0.6159
   99ccc     O9 4387   5.844   1.301   7.767 -0.0203 -0.1064 -0.2022
   99ccc    H28 4388   5.747   1.305   7.762 -0.0411 -0.0052  0.1862
   99ccc     N3 4389   5.751   1.375   7.298  0.3029  0.0360  0.7968
   99ccc    C17 4390   5.369   1.871   6.956 -0.2188  0.1644  0.8257
   99ccc    C18 4391   5.509   1.826   7.006 -0.0646 -0.2034  0.3846
   99ccc    H29 4392   5.297   1.819   7.021  2.0173 -0.6511  2.7711
   99ccc    C19 4393   5.544   1.680   6.977 -0.1047 -0.1938  1.2506
   99ccc    C20 4394   5.515   1.638   6.828  0.9589  0.6188  0.2331
   99ccc    C21 4395   5.367   1.689   6.785 -0.6195  0.7906  0.0094
   99ccc    H30 4396   5.583   1.684   6.756  1.5098 -0.6001 -0.0561
   99ccc    H31 4397   5.470   1.626   7.037 -1.5945  1.3951  0.9250
   99ccc    H32 4398   5.288   1.638   6.842  0.2207  0.4563  0.9017
   99ccc    O10 4399   5.350   1.681   6.646  0.7247 -0.6075  0.0336
   99ccc    O11 4400   5.685   1.657   7.008 -0.5495  0.6134  0.0533
   99ccc    C22 4401   5.338   2.026   6.961 -0.2358 -0.2972 -0.4979
   99ccc    H33 4402   5.715   1.714   7.082  0.6382  0.9479 -0.6675
   99ccc    H34 4403   5.444   1.449   6.859  0.8221 -1.4188 -0.9598
   99ccc    H35 4404   5.350   2.057   7.066 -0.8997 -1.3705 -0.0896
   99ccc    H36 4405   5.232   2.052   6.944 -0.2078 -0.9000 -1.6917
   99ccc    O12 4406   5.419   2.089   6.865 -0.0601  0.1665  0.2977
   99ccc    H37 4407   5.439   2.025   6.795 -2.2746 -1.8186  1.3405
   99ccc    O13 4408   5.362   1.833   6.811  0.4632  0.3598  0.0978
   99ccc    H38 4409   5.275   1.622   6.632 -0.0483  0.1936  0.6309
   99ccc    H39 4410   5.577   1.892   6.950 -1.8737 -0.3076 -2.1531
   99ccc     O5 4411   5.514   1.844   7.148  0.2525  0.4428 -0.6412
   99ccc    H40 4412   5.604   1.870   7.171  0.0620 -0.0764  0.7462
   99ccc     N4 4413   5.518   1.495   6.806  0.3145  0.0347 -0.4580
   99ccc    H41 4414   5.803   1.301   6.935  1.2778 -1.1215  1.0090
  100ccc     N1 4415   4.880   2.317   6.913  0.7481 -0.4253  0.3692
  100ccc     H4 4416   4.906   2.231   6.959  1.3084  0.4268  1.6815
  100ccc     C3 4417   4.957   2.430   6.947  0.6666 -0.1601 -0.2446
  100ccc     H5 4418   4.984   2.487   6.858 -2.9345 -0.0092 -1.3741
  100ccc     C4 4419   5.075   2.399   7.044  0.0116 -0.5104  0.1622
  100ccc     H6 4420   4.895   2.495   7.010  0.8063 -1.3385  1.1724
  100ccc     H7 4421   5.131   2.314   7.003  0.1607 -0.1068 -0.5022
  100ccc     H8 4422   5.038   2.363   7.140 -3.1189 -0.2523 -0.8188
  100ccc     N2 4423   5.181   2.507   7.064  0.3519  0.2281 -0.5948
  100ccc     C5 4424   5.301   2.474   6.977  0.4957 -0.1638 -0.1556
  100ccc     C6 4425   5.224   2.513   7.211  0.0838 -0.0142  0.6491
  100ccc     H9 4426   5.128   2.523   7.264 -0.3573  0.6168 -0.2351
  100ccc     C7 4427   5.319   2.624   7.263 -0.2784 -0.1885 -0.0686
  100ccc    H10 4428   5.264   2.413   7.231  0.9454  0.3955  1.0257
  100ccc    H11 4429   5.274   2.723   7.270  0.4793  0.1645 -0.0288
  100ccc    H12 4430   5.408   2.647   7.202  2.6500 -1.2997  3.3921
  100ccc     C8 4431   5.368   2.582   7.402 -0.3554 -0.5908  0.8465
  100ccc     O2 4432   5.351   2.480   7.461  0.3641 -0.1963  0.2125
  100ccc    H13 4433   5.341   2.377   7.010 -1.0921  0.1014  2.8970
  100ccc    H14 4434   5.385   2.543   6.991  1.5514 -0.6820 -3.1227
  100ccc     C9 4435   5.275   2.476   6.824  0.1618 -0.3590 -0.1474
  100ccc    H15 4436   5.185   2.423   6.793 -0.6141  0.7433  0.1775
  100ccc    H16 4437   5.355   2.427   6.767  1.1341 -0.6305  1.3887
  100ccc    C10 4438   5.280   2.621   6.775  0.3889  0.4590  0.5307
  100ccc     O4 4439   5.308   2.717   6.840  0.3575  0.6089 -0.0330
  100ccc    C11 4440   5.690   3.027   7.442  0.5376 -0.4223  0.1000
  100ccc    C12 4441   5.751   2.893   7.400 -0.2524 -0.8818 -0.9551
  100ccc    H17 4442   5.701   3.043   7.550 -2.4063 -2.5010  0.8156
  100ccc    C13 4443   5.668   2.769   7.432 -0.2094 -0.3718  0.3187
  100ccc    C14 4444   5.516   2.787   7.408  0.0800  0.4099 -0.1427
  100ccc    C15 4445   5.474   2.924   7.474 -0.8705  0.3578  0.4363
  100ccc    H18 4446   5.490   2.794   7.301  0.1264 -1.8114 -0.3448
  100ccc    H19 4447   5.681   2.738   7.536 -1.8143  0.2857  0.7418
  100ccc    H20 4448   5.498   2.921   7.581 -1.6782 -3.6337  0.6741
  100ccc     O1 4449   5.334   2.947   7.466  0.3042  0.4367  0.1491
  100ccc     O6 4450   5.714   2.662   7.343  0.2231  0.4204 -0.1517
  100ccc    C16 4451   5.754   3.147   7.372 -0.0437  0.0684  0.9863
  100ccc    H21 4452   5.809   2.666   7.321 -0.4398  0.2140 -3.7770
  100ccc    H22 4453   5.497   2.631   7.545  0.5307 -2.7706 -1.8238
  100ccc    H23 4454   5.861   3.148   7.398  0.2708  1.2216 -0.1931
  100ccc    H24 4455   5.712   3.247   7.393  1.6943  1.5304 -1.8198
  100ccc     O7 4456   5.750   3.135   7.226  0.5976  0.6762  0.3844
  100ccc    H25 4457   5.657   3.124   7.201  1.1603 -0.9264 -1.1810
  100ccc     O8 4458   5.552   3.034   7.410  0.0377  0.4427  0.0634
  100ccc    H26 4459   5.319   2.980   7.376  0.1496 -0.4221 -0.1453
  100ccc    H27 4460   5.771   2.901   7.292  2.0836  1.6441 -0.4584
  100ccc     O9 4461   5.881   2.883   7.465  0.7505  0.0292 -0.1031
  100ccc    H28 4462   5.927   2.799   7.448  0.8619  0.2214 -0.8329
  100ccc     N3 4463   5.447   2.664   7.463 -0.6187 -0.4431 -0.2746
  100ccc    C17 4464   5.165   2.459   6.263  0.3705  0.5346  0.0743
  100ccc    C18 4465   5.303   2.436   6.324  0.8422  0.1069  0.0652
  100ccc    H29 4466   5.160   2.551   6.203  2.0437 -0.5670 -1.8604
  100ccc    C19 4467   5.333   2.543   6.429  0.2013  0.0460  0.2720
  100ccc    C20 4468   5.224   2.547   6.536  0.7655 -0.0743 -0.4944
  100ccc    C21 4469   5.085   2.566   6.476 -0.2547  0.1998  0.3414
  100ccc    H30 4470   5.223   2.441   6.565  0.7153 -0.1496 -0.7688
  100ccc    H31 4471   5.331   2.643   6.383 -2.2780  0.7157  1.6240
  100ccc    H32 4472   5.069   2.674   6.462 -1.6625  0.0046  0.2914
  100ccc    O10 4473   4.987   2.529   6.573 -0.1842 -0.2265  0.1524
  100ccc    O11 4474   5.460   2.523   6.485 -0.0122 -0.1471 -0.0956
  100ccc    C22 4475   5.125   2.350   6.160  0.0959  0.5286 -0.6569
  100ccc    H33 4476   5.477   2.602   6.540 -1.5855  0.1494  0.0215
  100ccc    H34 4477   5.259   2.745   6.615 -0.8731 -0.1762 -0.4404
  100ccc    H35 4478   5.125   2.249   6.203 -0.6268  0.3742 -1.0064
  100ccc    H36 4479   5.206   2.355   6.087  0.7609 -1.0757 -0.0869
  100ccc    O12 4480   4.996   2.375   6.095 -0.1541  0.2593  0.0407
  100ccc    H37 4481   4.999   2.430   6.015 -3.0695 -2.5260 -2.2872
  100ccc    O13 4482   5.071   2.470   6.371  0.6314  0.1056 -0.5388
  100ccc    H38 4483   4.900   2.520   6.530  0.4695  0.5679 -1.3884
  100ccc    H39 4484   5.303   2.335   6.367 -0.0675 -0.6797 -1.6669
  100ccc     O5 4485   5.406   2.444   6.223  0.0131 -0.5492 -0.0668
  100ccc    H40 4486   5.413   2.539   6.200 -0.4183 -0.8326 -1.4562
  100ccc     N4 4487   5.248   2.648   6.645 -1.2540 -0.1806 -0.5913
  100ccc    H41 4488   5.140   2.600   7.046  1.9492  2.2641  4.5468
  101ccc     N1 4489   4.950   1.819   5.934  0.4517  0.0085 -0.1496
  101ccc     H4 4490   5.044   1.842   5.961  0.4361  0.4349 -0.4506
  101ccc     C3 4491   4.933   1.758   5.805 -0.5838 -0.7497  0.0313
  101ccc     H5 4492   4.826   1.765   5.783 -0.5890 -0.9089  0.0086
  101ccc     C4 4493   4.961   1.604   5.809 -0.0166 -0.3533  0.5374
  101ccc     H6 4494   4.975   1.818   5.724 -3.4882  0.3321 -0.7845
  101ccc     H7 4495   5.066   1.589   5.838  1.0455 -2.8449 -3.6778
  101ccc     H8 4496   4.948   1.564   5.708  0.2907  1.5097 -0.2794
  101ccc     N2 4497   4.887   1.517   5.906 -0.1768  0.0137  0.1072
  101ccc     C5 4498   4.928   1.368   5.891  0.1611 -0.3035  0.1444
  101ccc     C6 4499   4.732   1.531   5.873 -0.1578  0.4018 -0.6119
  101ccc     H9 4500   4.704   1.634   5.847  0.9750  0.8267 -0.2218
  101ccc     C7 4501   4.634   1.471   5.970 -0.5609  0.1363 -0.0391
  101ccc    H10 4502   4.717   1.469   5.784 -0.0108 -0.2236 -0.2131
  101ccc    H11 4503   4.642   1.361   5.967 -0.8239  0.0948  0.6262
  101ccc    H12 4504   4.537   1.496   5.925  0.8830  0.9868 -2.8802
  101ccc     C8 4505   4.641   1.528   6.113  0.7381  0.0284  0.1878
  101ccc     O2 4506   4.738   1.582   6.165 -0.2941 -0.4472 -0.1038
  101ccc    H13 4507   4.920   1.342   5.785  1.4472  0.1208 -0.0710
  101ccc    H14 4508   4.848   1.307   5.934 -0.3954  0.3285  0.0333
  101ccc     C9 4509   5.064   1.322   5.951 -0.2495  0.6292  0.2250
  101ccc    H15 4510   5.150   1.356   5.891  0.3699 -0.6772  0.3251
  101ccc    H16 4511   5.066   1.213   5.939 -1.3042  0.6831 -0.6059
  101ccc    C10 4512   5.085   1.369   6.092 -0.2743  0.1984  0.3167
  101ccc     O4 4513   5.040   1.460   6.154  0.2596 -0.4346  0.6594
  101ccc    C11 4514   4.357   1.637   6.555  0.6275 -0.5249  0.1340
  101ccc    C12 4515   4.406   1.491   6.546  0.1190  0.2630  0.1949
  101ccc    H17 4516   4.261   1.650   6.503  0.9290  0.7402 -0.1474
  101ccc    C13 4517   4.419   1.451   6.398  0.1292  0.5490 -0.1504
  101ccc    C14 4518   4.518   1.546   6.324 -0.1235 -0.1246 -0.0069
  101ccc    C15 4519   4.449   1.686   6.341 -0.0542 -0.7723 -0.1825
  101ccc    H18 4520   4.615   1.552   6.374  0.8061 -0.3225 -1.7168
  101ccc    H19 4521   4.318   1.448   6.356 -0.3146  2.5556  0.6762
  101ccc    H20 4522   4.346   1.681   6.304  0.0392 -1.7818 -0.3348
  101ccc     O1 4523   4.514   1.791   6.273  0.1616  0.1996 -0.0112
  101ccc     O6 4524   4.483   1.324   6.399  0.3743  0.1925 -0.4769
  101ccc    C16 4525   4.358   1.698   6.701  0.3820 -0.8258  0.2328
  101ccc    H21 4526   4.470   1.281   6.312  0.5107 -1.6516  0.3554
  101ccc    H22 4527   4.445   1.482   6.137  1.1227 -2.4229  0.6702
  101ccc    H23 4528   4.462   1.701   6.737  0.1546  0.4743  0.8506
  101ccc    H24 4529   4.297   1.643   6.774 -1.7085 -0.0616 -0.8543
  101ccc     O7 4530   4.302   1.829   6.716  0.0322 -0.4173 -0.4661
  101ccc    H25 4531   4.350   1.885   6.652  1.4305 -0.1804  0.7443
  101ccc     O8 4532   4.447   1.720   6.479 -0.1838 -0.1546 -1.0926
  101ccc    H26 4533   4.483   1.774   6.182 -2.7176  0.0090  0.8938
  101ccc    H27 4534   4.499   1.488   6.604 -1.3271 -1.5240  2.6108
  101ccc     O9 4535   4.306   1.404   6.595 -0.2179  0.0931 -0.9725
  101ccc    H28 4536   4.350   1.336   6.648  1.0092  1.1124 -0.6379
  101ccc     N3 4537   4.530   1.507   6.187  0.3651  0.1790  0.7941
  101ccc    C17 4538   5.559   1.110   6.093  0.0663 -0.4579 -0.4841
  101ccc    C18 4539   5.440   1.021   6.128  0.3202 -0.3447 -0.6158
  101ccc    H29 4540   5.599   1.144   6.189 -3.6149  0.0543  0.9985
  101ccc    C19 4541   5.320   1.094   6.192  0.3644  0.4003  0.4585
  101ccc    C20 4542   5.293   1.225   6.111 -0.0421  0.3837  0.5386
  101ccc    C21 4543   5.424   1.311   6.098  0.9144 -0.6739  0.1134
  101ccc    H30 4544   5.281   1.195   6.006 -2.2269 -1.4599  1.2276
  101ccc    H31 4545   5.342   1.123   6.295  0.7822  2.1404 -0.0896
  101ccc    H32 4546   5.467   1.345   6.193  1.3138 -1.8241  0.3580
  101ccc    O10 4547   5.406   1.430   6.024  0.2866 -0.0879 -0.6758
  101ccc    O11 4548   5.206   1.007   6.185 -0.4566  0.0237  0.8698
  101ccc    C22 4549   5.666   1.038   6.014 -0.3835 -0.3459 -0.0867
  101ccc    H33 4550   5.215   0.960   6.270 -1.0288  0.3153  1.1034
  101ccc    H34 4551   5.199   1.338   6.254  1.8946 -0.7338 -0.4322
  101ccc    H35 4552   5.619   1.014   5.918  0.3219  0.2383 -0.5855
  101ccc    H36 4553   5.691   0.945   6.068  3.0607  0.1159 -0.6607
  101ccc    O12 4554   5.776   1.115   6.007  0.1008  0.1324  0.6272
  101ccc    H37 4555   5.777   1.171   5.928  0.7428  2.3466  2.1155
  101ccc    O13 4556   5.520   1.226   6.022  0.4197 -0.7086 -0.3265
  101ccc    H38 4557   5.491   1.441   5.978  0.2237  0.5919 -0.6476
  101ccc    H39 4558   5.411   0.976   6.032 -1.5894 -0.7946  0.1369
  101ccc     O5 4559   5.482   0.923   6.221 -0.6624 -0.0091  0.3346
  101ccc    H40 4560   5.427   0.844   6.207 -1.2395  0.2076  1.2211
  101ccc     N4 4561   5.174   1.297   6.164  0.4790  0.7571 -0.7530
  101ccc    H41 4562   4.909   1.547   6.002  0.4606 -2.2415  0.7347
  102ccc     N1 4563   4.253   0.085   3.268 -0.6228  0.6430 -0.6570
  102ccc     H4 4564   4.220  -0.002   3.309 -0.9894  0.8613 -0.4829
  102ccc     C3 4565   4.165   0.140   3.171 -0.0850  0.1414 -0.3106
  102ccc     H5 4566   4.218   0.172   3.080 -0.8314  0.6501 -0.5783
  102ccc     C4 4567   4.085   0.255   3.248 -0.2163  0.3914  0.3373
  102ccc     H6 4568   4.093   0.062   3.144 -1.2121  1.3285 -0.8540
  102ccc     H7 4569   4.146   0.344   3.267 -0.9177  0.4291  2.8089
  102ccc     H8 4570   4.072   0.214   3.349  1.1481  0.4766  0.5672
  102ccc     N2 4571   3.947   0.296   3.193 -1.4342 -0.4854  0.2595
  102ccc     C5 4572   3.962   0.405   3.091  0.1079  0.3987 -0.0426
  102ccc     C6 4573   3.847   0.345   3.305  0.6420  0.0663  0.4393
  102ccc     H9 4574   3.747   0.350   3.260  1.2334 -0.5964 -1.0014
  102ccc     C7 4575   3.861   0.488   3.374 -0.1752  0.5134  0.1845
  102ccc    H10 4576   3.852   0.269   3.385  2.2685  0.2776  0.5801
  102ccc    H11 4577   3.790   0.494   3.457 -0.2396 -2.6683  0.4907
  102ccc    H12 4578   3.831   0.564   3.300  0.0700  0.1523 -0.2881
  102ccc     C8 4579   4.003   0.528   3.414  0.3939  0.1780 -0.6811
  102ccc     O2 4580   4.084   0.582   3.338 -0.0927  0.5453  0.2211
  102ccc    H13 4581   4.026   0.487   3.128 -0.4265  2.6744 -3.7065
  102ccc    H14 4582   3.858   0.438   3.081  0.1269  0.1622 -1.1218
  102ccc     C9 4583   4.023   0.361   2.948  0.1905  0.1344 -0.4240
  102ccc    H15 4584   4.126   0.324   2.963  0.8927  2.6472  1.6975
  102ccc    H16 4585   4.033   0.444   2.877  0.4236 -0.4892 -1.1424
  102ccc    C10 4586   3.944   0.242   2.881  0.3429 -0.0512  0.6193
  102ccc     O4 4587   3.982   0.132   2.859 -0.0413  0.3086  0.4471
  102ccc    C11 4588   4.447   0.616   3.606 -0.0117 -0.1280 -0.6593
  102ccc    C12 4589   4.338   0.706   3.667 -0.2854 -1.0359  0.0859
  102ccc    H17 4590   4.465   0.645   3.501 -0.0448 -2.0440 -1.2406
  102ccc    C13 4591   4.201   0.679   3.603 -0.5837  0.4539  0.0425
  102ccc    C14 4592   4.171   0.529   3.593 -0.2127  0.1295 -0.3080
  102ccc    C15 4593   4.285   0.457   3.515 -0.7444  0.4863 -1.3197
  102ccc    H18 4594   4.184   0.505   3.699 -1.2207  1.3260  0.1075
  102ccc    H19 4595   4.203   0.731   3.506  0.6647  0.8820  0.2756
  102ccc    H20 4596   4.306   0.498   3.416  2.0500  1.6949 -0.3351
  102ccc     O1 4597   4.262   0.318   3.518 -0.0406 -0.6241  0.3398
  102ccc     O6 4598   4.103   0.744   3.681  0.1855 -0.3336  0.0997
  102ccc    C16 4599   4.567   0.613   3.704  0.6966 -0.0109  0.1743
  102ccc    H21 4600   4.022   0.759   3.630 -0.2351  0.7047  1.0150
  102ccc    H22 4601   3.971   0.483   3.611  3.2791 -1.1226  2.2571
  102ccc    H23 4602   4.551   0.532   3.775 -0.0900  0.0626  0.0877
  102ccc    H24 4603   4.577   0.705   3.764 -1.4665  0.0259  0.5360
  102ccc     O7 4604   4.690   0.579   3.639  0.3409 -0.7000 -0.5033
  102ccc    H25 4605   4.738   0.660   3.612  2.1048 -1.9531 -1.3738
  102ccc     O8 4606   4.400   0.485   3.600 -0.5836 -0.0239  0.3592
  102ccc    H26 4607   4.216   0.293   3.600 -0.3736  0.0488  0.3654
  102ccc    H27 4608   4.336   0.689   3.776  1.0586  1.1521  0.5294
  102ccc     O9 4609   4.365   0.850   3.663  0.7351 -0.2868 -0.2173
  102ccc    H28 4610   4.302   0.900   3.718  0.5121  0.1460 -0.8627
  102ccc     N3 4611   4.039   0.505   3.539  0.8655  0.0917  0.2022
  102ccc    C17 4612   3.579   0.590   2.684 -0.2174  0.1793  0.1158
  102ccc    C18 4613   3.561   0.551   2.828 -0.4045 -0.5134  0.3976
  102ccc    H29 4614   3.530   0.527   2.609  1.5439 -1.4737  0.2706
  102ccc    C19 4615   3.609   0.404   2.853 -0.1766 -0.3481 -0.1402
  102ccc    C20 4616   3.759   0.401   2.813 -0.3049  0.3137  0.1146
  102ccc    C21 4617   3.770   0.440   2.666  0.4188 -0.2011 -0.2450
  102ccc    H30 4618   3.802   0.482   2.873 -1.4576  2.2120 -1.4974
  102ccc    H31 4619   3.545   0.344   2.787 -0.7948 -0.0723  0.1979
  102ccc    H32 4620   3.711   0.378   2.599 -0.5976  1.4141 -0.9133
  102ccc    O10 4621   3.902   0.453   2.628 -0.4831 -0.4319  0.4235
  102ccc    O11 4622   3.592   0.356   2.993  0.1647  0.1786  0.5270
  102ccc    C22 4623   3.554   0.738   2.652  0.0793  0.3363  0.2144
  102ccc    H33 4624   3.653   0.284   3.013 -0.9068 -1.0355 -0.3985
  102ccc    H34 4625   3.774   0.194   2.795  2.1922 -1.3003 -0.5644
  102ccc    H35 4626   3.447   0.758   2.668 -0.0353 -0.6319  0.7473
  102ccc    H36 4627   3.563   0.748   2.543 -2.8711  1.7610  0.0047
  102ccc    O12 4628   3.633   0.823   2.733  0.8250 -0.2437  0.2686
  102ccc    H37 4629   3.725   0.819   2.701  1.8984  2.1898  2.6810
  102ccc    O13 4630   3.722   0.572   2.656  0.2086  0.2765 -0.3270
  102ccc    H38 4631   3.923   0.548   2.625  0.9526 -0.7072  0.9494
  102ccc    H39 4632   3.629   0.617   2.882  1.2320 -2.0437  0.2832
  102ccc     O5 4633   3.422   0.560   2.860  0.1226 -0.2587 -0.1074
  102ccc    H40 4634   3.425   0.611   2.943  0.2269 -0.0365 -0.2452
  102ccc     N4 4635   3.821   0.271   2.843  0.0917 -0.3754  0.1414
  102ccc    H41 4636   3.898   0.220   3.144 -0.8246 -0.6968 -0.0204
  103ccc     N1 4637   4.882   0.542   3.335 -0.2837 -0.6827 -0.3155
  103ccc     H4 4638   4.798   0.598   3.324  0.9617  1.3189 -0.1058
  103ccc     C3 4639   5.002   0.604   3.265  0.3383 -0.2153 -0.7237
  103ccc     H5 4640   5.098   0.576   3.310  0.5062  1.0215 -0.2729
  103ccc     C4 4641   4.996   0.756   3.235 -0.1450  0.3419 -0.0176
  103ccc     H6 4642   5.017   0.555   3.168  0.5904  0.8088 -1.2146
  103ccc     H7 4643   4.901   0.756   3.181  0.2184 -3.5091 -0.9687
  103ccc     H8 4644   5.070   0.780   3.158 -0.0826 -0.9932 -0.3971
  103ccc     N2 4645   4.992   0.846   3.362  0.9021  0.1655  0.8803
  103ccc     C5 4646   4.914   0.973   3.342 -0.3807  0.3011 -0.0899
  103ccc     C6 4647   5.134   0.872   3.409 -0.4373 -0.3319  0.1990
  103ccc     H9 4648   5.189   0.784   3.372 -1.2431 -0.3179 -1.0621
  103ccc     C7 4649   5.170   0.865   3.560 -0.6147 -0.5875  0.7356
  103ccc    H10 4650   5.180   0.961   3.365 -1.0775 -0.1564 -0.1281
  103ccc    H11 4651   5.133   0.956   3.610  0.5562  0.6750 -0.5945
  103ccc    H12 4652   5.279   0.862   3.574 -0.4112 -0.4497 -0.6858
  103ccc     C8 4653   5.109   0.734   3.616  0.4208  0.1871  0.5548
  103ccc     O2 4654   4.996   0.697   3.588 -0.2334  0.1691  0.1781
  103ccc    H13 4655   4.977   1.036   3.278 -1.2749  1.6606  0.3092
  103ccc    H14 4656   4.916   1.021   3.440  4.0733 -0.0983  0.1806
  103ccc     C9 4657   4.773   0.971   3.287 -0.2239  0.4375  0.1098
  103ccc    H15 4658   4.767   0.925   3.188  0.1148  0.3176  0.1417
  103ccc    H16 4659   4.741   1.075   3.272 -1.7858 -0.2575 -1.8328
  103ccc    C10 4660   4.670   0.885   3.364 -0.1312  0.8851 -0.3321
  103ccc     O4 4661   4.647   0.769   3.341  0.2663  0.1157 -0.2435
  103ccc    C11 4662   4.939   0.364   3.870 -0.6494  0.1667  0.5877
  103ccc    C12 4663   5.050   0.307   3.776 -0.3874  0.6337 -0.4889
  103ccc    H17 4664   4.851   0.398   3.813  0.5643 -0.5430 -1.8354
  103ccc    C13 4665   5.122   0.429   3.700  0.1978  0.5035 -0.0972
  103ccc    C14 4666   5.130   0.558   3.784 -0.3243  0.4190  0.1960
  103ccc    C15 4667   5.006   0.590   3.875  0.6131  0.5323  0.9195
  103ccc    H18 4668   5.204   0.531   3.861 -0.0089 -1.4720 -0.7083
  103ccc    H19 4669   5.060   0.456   3.613 -0.7769  1.8416  0.9697
  103ccc    H20 4670   4.920   0.612   3.811  2.0129 -0.7690 -1.5440
  103ccc     O1 4671   5.023   0.695   3.973  0.0364  0.0265 -0.2581
  103ccc     O6 4672   5.254   0.380   3.660 -0.6515  0.0059 -0.2372
  103ccc    C16 4673   4.881   0.257   3.968  0.4780 -0.5704 -0.2325
  103ccc    H21 4674   5.303   0.446   3.608  0.8901 -0.3753  0.6611
  103ccc    H22 4675   5.277   0.702   3.724  0.1594  0.9414  2.7046
  103ccc    H23 4676   4.961   0.223   4.034  0.2242 -1.7811 -0.5368
  103ccc    H24 4677   4.845   0.169   3.914  0.3553  0.0705 -1.2316
  103ccc     O7 4678   4.767   0.305   4.040  0.1903 -0.1244  0.2170
  103ccc    H25 4679   4.737   0.230   4.094  0.4278  1.2990  2.4487
  103ccc     O8 4680   4.982   0.471   3.948  0.5882 -0.2765  0.0510
  103ccc    H26 4681   5.082   0.672   4.047  1.7365  2.7037 -0.6464
  103ccc    H27 4682   5.126   0.261   3.841  0.2665  1.6471 -0.5026
  103ccc     O9 4683   4.986   0.209   3.692 -0.0150 -0.2958 -0.1622
  103ccc    H28 4684   5.048   0.148   3.650  1.2540  1.0151 -0.3000
  103ccc     N3 4685   5.179   0.676   3.708  0.9562 -0.6590 -0.1608
  103ccc    C17 4686   4.586   1.221   3.778 -0.8144  0.7435 -0.0446
  103ccc    C18 4687   4.714   1.125   3.777 -0.0383 -0.0083  0.9270
  103ccc    H29 4688   4.511   1.157   3.826  1.2113 -1.0166  0.9398
  103ccc    C19 4689   4.685   1.006   3.676  0.7509 -0.0232  0.5939
  103ccc    C20 4690   4.634   1.057   3.541  0.6272 -0.7025  0.3551
  103ccc    C21 4691   4.514   1.144   3.559  1.0487 -0.9367  0.4930
  103ccc    H30 4692   4.714   1.111   3.487 -0.1511  2.0872  1.8157
  103ccc    H31 4693   4.605   0.950   3.726  1.6174 -0.7242  1.2138
  103ccc    H32 4694   4.435   1.085   3.608  1.8251 -1.4151  1.2195
  103ccc    O10 4695   4.461   1.193   3.434 -0.0228  0.7128  0.5360
  103ccc    O11 4696   4.797   0.923   3.660 -0.2072 -0.2236  0.3956
  103ccc    C22 4697   4.603   1.355   3.853 -0.0458 -0.3407 -0.0933
  103ccc    H33 4698   4.840   0.915   3.747  0.2612 -0.1209  0.1781
  103ccc    H34 4699   4.515   0.889   3.490  1.4031 -0.8220  0.9904
  103ccc    H35 4700   4.685   1.420   3.820  1.4029 -0.6200  2.7382
  103ccc    H36 4701   4.633   1.325   3.954  0.6367 -1.1989 -0.5455
  103ccc    O12 4702   4.474   1.427   3.851 -0.0769  0.8697  0.1913
  103ccc    H37 4703   4.457   1.456   3.760  0.2606 -0.7178 -0.4117
  103ccc    O13 4704   4.548   1.252   3.648  0.2177 -0.2335  0.3874
  103ccc    H38 4705   4.531   1.220   3.372 -0.1386  0.7046  0.4017
  103ccc    H39 4706   4.801   1.179   3.738 -0.3889  0.0105  0.1557
  103ccc     O5 4707   4.746   1.084   3.906  0.2096  0.1051 -0.4773
  103ccc    H40 4708   4.829   1.033   3.902  0.5611  0.3652  1.9339
  103ccc     N4 4709   4.591   0.944   3.449  0.1246  0.2130 -0.0925
  103ccc    H41 4710   4.945   0.781   3.426  0.2378 -0.2726 -0.0370
  104ccc     N1 4711   3.109   0.936   4.247 -0.1036 -0.3646  0.1544
  104ccc     H4 4712   3.150   0.853   4.288  1.1609  0.3197  0.3362
  104ccc     C3 4713   2.996   0.988   4.333 -0.3207 -0.0001  0.0273
  104ccc     H5 4714   3.003   0.977   4.442  2.1134 -1.3998 -0.2031
  104ccc     C4 4715   2.862   0.918   4.298  0.7551 -0.0411  0.4765
  104ccc     H6 4716   2.995   1.096   4.314  0.0148 -0.3539 -2.2729
  104ccc     H7 4717   2.799   0.945   4.383  0.4440 -0.2364  0.3078
  104ccc     H8 4718   2.874   0.810   4.308  1.6966  0.2003  2.3964
  104ccc     N2 4719   2.793   0.952   4.166 -0.1182  0.0660  0.3237
  104ccc     C5 4720   2.777   1.103   4.137 -0.8167 -0.4578 -0.3610
  104ccc     C6 4721   2.657   0.884   4.160  0.1003 -0.0319 -0.5223
  104ccc     H9 4722   2.610   0.915   4.253 -0.0438 -0.1037 -0.5714
  104ccc     C7 4723   2.658   0.734   4.132  0.0284 -0.1936  0.5490
  104ccc    H10 4724   2.604   0.927   4.074 -2.8536 -3.0533 -0.3960
  104ccc    H11 4725   2.705   0.668   4.206  1.0489  0.8628  0.8735
  104ccc    H12 4726   2.705   0.732   4.032 -0.6668 -0.5108  0.2225
  104ccc     C8 4727   2.517   0.682   4.107 -0.1763  0.1845 -0.4581
  104ccc     O2 4728   2.422   0.754   4.115  0.0972 -0.2668 -0.0007
  104ccc    H13 4729   2.719   1.120   4.045 -1.3252 -0.4294 -0.0375
  104ccc    H14 4730   2.878   1.145   4.130 -1.0966  0.5682  1.1584
  104ccc     C9 4731   2.704   1.188   4.249  0.4519  0.2688  0.4088
  104ccc    H15 4732   2.772   1.196   4.335  0.6137  2.3719  0.1275
  104ccc    H16 4733   2.626   1.120   4.288 -0.3140  1.3520  0.8049
  104ccc    C10 4734   2.664   1.329   4.216 -0.0275  0.0299  0.0785
  104ccc     O4 4735   2.642   1.375   4.106  0.1439  0.5879 -0.4078
  104ccc    C11 4736   2.284   0.268   3.875  0.5247 -0.3607 -0.4220
  104ccc    C12 4737   2.308   0.232   4.023  0.0988 -0.0551 -1.1319
  104ccc    H17 4738   2.358   0.232   3.803 -0.0228  1.5676 -2.0236
  104ccc    C13 4739   2.419   0.312   4.092 -0.3911 -0.5348 -0.7187
  104ccc    C14 4740   2.393   0.473   4.060  0.1370  0.0087 -0.0561
  104ccc    C15 4741   2.375   0.495   3.908 -0.2928  0.1344 -0.2649
  104ccc    H18 4742   2.300   0.512   4.103  0.4177  0.4094  0.1978
  104ccc    H19 4743   2.512   0.285   4.040 -0.1956 -0.9732 -0.1446
  104ccc    H20 4744   2.466   0.470   3.852 -0.5592 -0.8638 -0.2803
  104ccc     O1 4745   2.343   0.630   3.876 -0.0250  0.3098  0.4050
  104ccc     O6 4746   2.425   0.281   4.229  0.2025  0.2596  0.0226
  104ccc    C16 4747   2.153   0.201   3.828  0.1662  0.3444  0.1801
  104ccc    H21 4748   2.514   0.312   4.252  0.4290 -1.2588  1.3765
  104ccc    H22 4749   2.587   0.496   4.149 -1.3743 -0.5220  0.6905
  104ccc    H23 4750   2.067   0.243   3.881 -2.3092 -0.5795 -2.7801
  104ccc    H24 4751   2.159   0.092   3.840  0.2229  0.5079  2.0416
  104ccc     O7 4752   2.132   0.225   3.690 -0.1374 -0.3739  0.6620
  104ccc    H25 4753   2.143   0.321   3.684 -0.6322 -0.2637  1.3766
  104ccc     O8 4754   2.265   0.412   3.865  0.2940  0.4270 -0.0032
  104ccc    H26 4755   2.412   0.677   3.826 -0.5702  1.7750  0.9393
  104ccc    H27 4756   2.215   0.247   4.080  0.3377  1.6440 -1.1492
  104ccc     O9 4757   2.354   0.101   4.024 -0.3012  0.0622 -0.1696
  104ccc    H28 4758   2.401   0.090   4.109 -0.4011 -1.3651 -0.2754
  104ccc     N3 4759   2.507   0.549   4.115 -0.6007  0.1125 -0.1897
  104ccc    C17 4760   2.711   1.528   4.738  0.4042  0.3732  0.3298
  104ccc    C18 4761   2.623   1.403   4.720  0.6369  0.4683  0.4374
  104ccc    H29 4762   2.655   1.619   4.711 -1.7563 -0.8242  0.5246
  104ccc    C19 4763   2.572   1.394   4.567  0.8012 -0.0858  0.2106
  104ccc    C20 4764   2.698   1.406   4.468  0.0716 -0.4793  0.1236
  104ccc    C21 4765   2.778   1.540   4.505 -0.1355  0.5083  0.1757
  104ccc    H30 4766   2.761   1.318   4.485 -0.0920 -0.3110  1.7388
  104ccc    H31 4767   2.504   1.479   4.559 -0.2533 -0.9596 -0.4540
  104ccc    H32 4768   2.703   1.619   4.488 -2.5164 -1.6079  0.1822
  104ccc    O10 4769   2.891   1.557   4.420  0.3483 -0.5398  0.3491
  104ccc    O11 4770   2.509   1.269   4.543 -0.3154  0.3446  0.3256
  104ccc    C22 4771   2.773   1.544   4.881  1.2089 -0.2580  0.2170
  104ccc    H33 4772   2.465   1.271   4.456 -1.6019  1.5760  0.9563
  104ccc    H34 4773   2.635   1.511   4.296  3.5895  0.3360 -1.1024
  104ccc    H35 4774   2.868   1.493   4.898  1.2192  0.6703  3.6212
  104ccc    H36 4775   2.703   1.500   4.954 -2.0961 -0.4199 -2.7858
  104ccc    O12 4776   2.778   1.682   4.901  0.0373 -0.3350 -0.4288
  104ccc    H37 4777   2.795   1.696   4.996  1.4025 -1.3464 -0.4985
  104ccc    O13 4778   2.822   1.534   4.644  0.0252  0.3893  0.0881
  104ccc    H38 4779   2.878   1.634   4.363  0.8996 -0.2135  0.6557
  104ccc    H39 4780   2.678   1.310   4.736  0.2488 -0.2329 -1.8230
  104ccc     O5 4781   2.508   1.409   4.804 -0.3143 -0.2544 -0.0822
  104ccc    H40 4782   2.529   1.448   4.891 -0.4439 -1.3861  0.4830
  104ccc     N4 4783   2.664   1.417   4.320  0.3375 -0.3705  0.5574
  104ccc    H41 4784   2.857   0.925   4.091  0.4819 -1.1420  1.2366
  105ccc     N1 4785   3.778   1.091   3.597  0.4070  0.2677  0.1023
  105ccc     H4 4786   3.718   1.160   3.553  0.3666  0.4614  0.4572
  105ccc     C3 4787   3.923   1.113   3.577  0.1421 -0.3275 -0.1347
  105ccc     H5 4788   3.964   1.179   3.654  0.6124 -1.5391  0.6895
  105ccc     C4 4789   3.959   1.170   3.435 -0.2258  0.2564 -0.5526
  105ccc     H6 4790   3.975   1.017   3.585  0.7465 -0.1370 -1.4975
  105ccc     H7 4791   3.924   1.274   3.433 -1.4385 -0.0763  1.5335
  105ccc     H8 4792   3.902   1.125   3.352 -0.6014 -0.8886  0.3057
  105ccc     N2 4793   4.110   1.173   3.399 -0.5936 -0.1376  0.4620
  105ccc     C5 4794   4.135   1.261   3.272 -0.0495 -0.0859 -0.4694
  105ccc     C6 4795   4.169   1.036   3.381  0.3934  0.0130  0.1750
  105ccc     H9 4796   4.275   1.062   3.367  0.9427 -1.2316  1.6846
  105ccc     C7 4797   4.118   0.930   3.286  0.6166 -0.2208  0.5998
  105ccc    H10 4798   4.151   0.997   3.482 -3.3670 -0.5800 -0.5780
  105ccc    H11 4799   4.076   0.972   3.194 -0.2125  0.6719  1.3754
  105ccc    H12 4800   4.041   0.869   3.334 -1.7173  0.9368 -1.4302
  105ccc     C8 4801   4.236   0.841   3.242 -0.7583  0.0088 -0.6561
  105ccc     O2 4802   4.342   0.840   3.308 -0.3052  0.4183 -0.0585
  105ccc    H13 4803   4.046   1.239   3.211 -0.3401 -1.2277  0.3237
  105ccc    H14 4804   4.224   1.233   3.213  0.9642  0.9326  0.5384
  105ccc     C9 4805   4.146   1.412   3.304 -0.3504  0.5321 -0.0111
  105ccc    H15 4806   4.231   1.432   3.370 -0.3426 -1.3468  0.5926
  105ccc    H16 4807   4.053   1.450   3.348  0.9684  2.2116  1.4625
  105ccc    C10 4808   4.177   1.492   3.179 -0.1607  0.1334  0.3719
  105ccc     O4 4809   4.250   1.448   3.094 -0.4471 -0.3416  0.0838
  105ccc    C11 4810   4.629   0.646   3.028  0.1116  0.4861 -1.2941
  105ccc    C12 4811   4.527   0.535   3.061  0.2250 -0.8136 -0.2241
  105ccc    H17 4812   4.654   0.682   3.128 -2.6345 -0.3688 -0.1955
  105ccc    C13 4813   4.407   0.599   3.147 -0.4412 -0.3959 -0.0991
  105ccc    C14 4814   4.343   0.708   3.059 -0.0087 -0.1758  0.4293
  105ccc    C15 4815   4.455   0.812   3.019  0.1034 -0.4838 -0.3984
  105ccc    H18 4816   4.306   0.669   2.963 -3.4382 -0.1857  1.6573
  105ccc    H19 4817   4.442   0.643   3.241 -1.4967 -1.0415  0.6188
  105ccc    H20 4818   4.494   0.867   3.106  1.1643  1.8864 -2.2450
  105ccc     O1 4819   4.403   0.906   2.932  0.0404 -0.2973  0.2745
  105ccc     O6 4820   4.316   0.494   3.184  0.2973  0.1342  0.2948
  105ccc    C16 4821   4.754   0.610   2.952 -0.8007  0.9013 -0.3347
  105ccc    H21 4822   4.231   0.533   3.212  0.6891  0.9467  0.3801
  105ccc    H22 4823   4.152   0.783   3.063  0.4746  0.2525 -1.2854
  105ccc    H23 4824   4.729   0.576   2.851  0.2638 -1.2006  0.0667
  105ccc    H24 4825   4.801   0.528   3.008  0.3407  1.3578 -0.5851
  105ccc     O7 4826   4.846   0.724   2.951 -0.3775 -0.3347  0.3497
  105ccc    H25 4827   4.918   0.713   2.887  0.3004  1.9603  0.6328
  105ccc     O8 4828   4.567   0.745   2.954 -0.2716 -1.0646 -0.0943
  105ccc    H26 4829   4.470   0.976   2.942  1.5013 -1.5107 -0.5617
  105ccc    H27 4830   4.487   0.517   2.961 -2.2039  3.0169 -0.1871
  105ccc     O9 4831   4.581   0.417   3.127  0.1208 -0.1269 -0.1495
  105ccc    H28 4832   4.509   0.390   3.186  0.2535  0.0478  0.0917
  105ccc     N3 4833   4.232   0.771   3.124 -0.3870  0.1001 -0.1422
  105ccc    C17 4834   4.251   1.798   2.801  0.1708  0.2162  0.0103
  105ccc    C18 4835   4.103   1.762   2.827 -0.2935  0.0694  0.6761
  105ccc    H29 4836   4.308   1.710   2.769  0.0702 -0.2432  1.0411
  105ccc    C19 4837   4.082   1.662   2.941 -0.0322  0.9524 -0.0989
  105ccc    C20 4838   4.155   1.714   3.062 -0.2373  0.5838 -0.3655
  105ccc    C21 4839   4.302   1.750   3.036  0.6494  0.4595 -0.5557
  105ccc    H30 4840   4.100   1.804   3.093  0.0461 -0.0261  2.1392
  105ccc    H31 4841   4.117   1.563   2.908 -3.0783 -0.6641  1.1778
  105ccc    H32 4842   4.359   1.657   3.022  1.6963  1.0001  0.0006
  105ccc    O10 4843   4.362   1.815   3.151  0.5856 -0.0544  0.2746
  105ccc    O11 4844   3.937   1.646   2.966 -0.6759 -0.1695  0.0199
  105ccc    C22 4845   4.282   1.912   2.699 -0.1875  0.2067  0.3857
  105ccc    H33 4846   3.897   1.734   2.971 -1.9344 -0.7348  0.3000
  105ccc    H34 4847   4.067   1.654   3.238 -0.7697  0.3319 -1.6420
  105ccc    H35 4848   4.224   1.879   2.612 -1.8712  1.5979  0.9274
  105ccc    H36 4849   4.389   1.909   2.673  0.1536 -0.3760  1.7246
  105ccc    O12 4850   4.229   2.035   2.748 -0.0971 -0.2040  0.3876
  105ccc    H37 4851   4.269   2.036   2.837  1.6568  0.7072 -0.3725
  105ccc    O13 4852   4.303   1.848   2.930  0.3111  0.0513  0.0028
  105ccc    H38 4853   4.432   1.873   3.116  0.4557 -0.2003 -0.2405
  105ccc    H39 4854   4.060   1.855   2.867 -1.2988 -0.3240  0.5457
  105ccc     O5 4855   4.053   1.727   2.706  0.1414 -0.4372  0.2512
  105ccc    H40 4856   3.959   1.706   2.720  0.4142 -1.1415  1.2079
  105ccc     N4 4857   4.140   1.621   3.176  0.2719 -0.5984  0.0046
  105ccc    H41 4858   4.163   1.221   3.474 -2.2686  0.4278  1.3292
  106ccc     N1 4859   4.941  -0.933   4.137  0.8740 -0.0456  0.1942
  106ccc     H4 4860   4.912  -0.872   4.061 -0.8033  0.0088  0.8546
  106ccc     C3 4861   5.081  -0.973   4.143  0.7272  0.5429 -0.1355
  106ccc     H5 4862   5.084  -1.068   4.197 -2.3411  0.6644  0.4516
  106ccc     C4 4863   5.187  -0.876   4.213 -0.0426  0.1207 -0.0604
  106ccc     H6 4864   5.109  -0.998   4.041 -0.1319 -2.1501  0.2215
  106ccc     H7 4865   5.177  -0.773   4.175  0.7100 -0.4116 -1.7659
  106ccc     H8 4866   5.291  -0.904   4.189  0.4242  1.2513  0.5385
  106ccc     N2 4867   5.182  -0.872   4.369 -0.1961 -0.2082  0.0616
  106ccc     C5 4868   5.270  -0.765   4.431 -0.2988  0.5995 -0.5027
  106ccc     C6 4869   5.199  -1.011   4.431 -0.5528 -0.5572 -0.0648
  106ccc     H9 4870   5.108  -1.069   4.408 -1.1079 -0.1928  1.1364
  106ccc     C7 4871   5.210  -1.017   4.584  1.1113  0.4894  0.2545
  106ccc    H10 4872   5.287  -1.059   4.387  0.7130 -1.0409  2.7686
  106ccc    H11 4873   5.304  -0.976   4.622  0.4474  0.7815  1.6662
  106ccc    H12 4874   5.216  -1.123   4.612 -2.1729  0.5082  1.5252
  106ccc     C8 4875   5.092  -0.952   4.656 -0.4092  0.2275 -0.4541
  106ccc     O2 4876   4.996  -0.900   4.603 -0.3544  0.0163 -0.5206
  106ccc    H13 4877   5.242  -0.763   4.537 -1.6909 -0.0917 -0.8428
  106ccc    H14 4878   5.241  -0.664   4.398 -0.6069  0.6144 -0.1917
  106ccc     C9 4879   5.427  -0.780   4.427  0.2247 -0.5216 -0.5235
  106ccc    H15 4880   5.462  -0.774   4.323  0.3012  1.1001 -0.4300
  106ccc    H16 4881   5.450  -0.886   4.444 -1.0233 -1.2222 -2.8208
  106ccc    C10 4882   5.506  -0.677   4.511  1.0737  0.4814 -0.8106
  106ccc     O4 4883   5.455  -0.605   4.594  0.5750 -0.1438  0.1668
  106ccc    C11 4884   4.842  -0.948   5.123  0.1137 -0.3721  0.6799
  106ccc    C12 4885   4.940  -0.829   5.117  0.0840  0.7501  0.0371
  106ccc    H17 4886   4.885  -1.042   5.160  0.0651 -0.1825  1.2297
  106ccc    C13 4887   5.048  -0.860   5.019 -0.8241 -0.2017  0.2510
  106ccc    C14 4888   4.990  -0.900   4.882  0.4584  0.2789 -0.3377
  106ccc    C15 4889   4.886  -1.013   4.893  0.5216 -0.4526  0.3160
  106ccc    H18 4890   4.935  -0.817   4.838 -0.0989 -0.4273 -0.9949
  106ccc    H19 4891   5.116  -0.937   5.057  2.5399  1.5377 -1.7707
  106ccc    H20 4892   4.928  -1.107   4.928 -1.4524 -1.0922  1.1371
  106ccc     O1 4893   4.812  -1.030   4.771  0.1194  0.0780 -0.3509
  106ccc     O6 4894   5.123  -0.738   4.992 -1.1346  0.4830 -0.0568
  106ccc    C16 4895   4.725  -0.909   5.215 -0.4411 -0.5141  0.7578
  106ccc    H21 4896   5.181  -0.749   4.915 -0.8161  2.3956 -0.1465
  106ccc    H22 4897   5.185  -0.985   4.838  0.8171  0.0821 -0.8529
  106ccc    H23 4898   4.656  -0.841   5.164  1.3138  0.4579 -0.4035
  106ccc    H24 4899   4.763  -0.853   5.301  1.6305  0.0628 -0.4457
  106ccc     O7 4900   4.666  -1.026   5.264 -0.0054 -0.2311  0.3044
  106ccc    H25 4901   4.739  -1.049   5.325  0.0070  1.4124  0.9722
  106ccc     O8 4902   4.789  -0.971   4.993  0.0851  0.2758 -0.4485
  106ccc    H26 4903   4.867  -1.087   4.715  0.4160  0.3281 -0.3176
  106ccc    H27 4904   4.893  -0.735   5.083 -0.2012  0.6411  0.1243
  106ccc     O9 4905   5.009  -0.806   5.239 -0.9347 -0.0052 -0.5672
  106ccc    H28 4906   5.053  -0.720   5.229 -1.2794  0.2964  0.4675
  106ccc     N3 4907   5.103  -0.949   4.789  0.2508 -0.1257 -0.0661
  106ccc    C17 4908   5.900  -0.469   4.241 -0.2440  0.6367  0.3653
  106ccc    C18 4909   5.936  -0.614   4.291  0.2963  0.0014  0.0602
  106ccc    H29 4910   5.929  -0.393   4.314 -1.6544  0.7311  0.8665
  106ccc    C19 4911   5.855  -0.654   4.415  0.1797 -0.4945 -0.1624
  106ccc    C20 4912   5.703  -0.642   4.386 -0.2614  0.2193  0.3487
  106ccc    C21 4913   5.673  -0.496   4.345 -0.1281 -1.2703  0.5990
  106ccc    H30 4914   5.682  -0.712   4.304 -1.6456 -1.9451  2.4119
  106ccc    H31 4915   5.883  -0.578   4.490  2.3506  1.3917 -2.6776
  106ccc    H32 4916   5.695  -0.419   4.420 -1.5205 -1.2585  1.0314
  106ccc    O10 4917   5.541  -0.490   4.304 -0.0768 -0.2097 -0.2055
  106ccc    O11 4918   5.885  -0.788   4.461 -0.0713  0.4954  0.1254
  106ccc    C22 4919   5.952  -0.429   4.106 -0.4352 -0.1967 -0.3103
  106ccc    H33 4920   5.966  -0.826   4.424 -1.8991 -3.5193 -0.3472
  106ccc    H34 4921   5.689  -0.628   4.587 -0.6113 -0.6735  1.7727
  106ccc    H35 4922   6.061  -0.423   4.119 -0.6212  1.0597  0.8251
  106ccc    H36 4923   5.905  -0.336   4.074 -2.0513 -1.3824 -1.5491
  106ccc    O12 4924   5.922  -0.528   3.999 -0.3293  0.2416 -0.3302
  106ccc    H37 4925   5.826  -0.528   3.979 -0.2687 -0.4879 -0.6735
  106ccc    O13 4926   5.753  -0.464   4.230  0.9051  0.0131 -0.3544
  106ccc    H38 4927   5.535  -0.547   4.226 -1.4084 -1.5345  0.7942
  106ccc    H39 4928   5.925  -0.688   4.211 -0.4784 -2.1122  2.0213
  106ccc     O5 4929   6.070  -0.616   4.332 -0.1997  0.5240  0.8867
  106ccc    H40 4930   6.107  -0.694   4.287  2.8352  1.7212  1.0680
  106ccc     N4 4931   5.637  -0.672   4.511  0.8642  0.2287  0.1517
  106ccc    H41 4932   5.081  -0.852   4.383 -0.8633 -2.2181 -1.4694
  107ccc     N1 4933   4.665  -1.378   4.626 -0.1707 -0.6391 -0.1082
  107ccc     H4 4934   4.744  -1.392   4.564  2.2963 -1.0564  2.8974
  107ccc     C3 4935   4.649  -1.459   4.743 -0.4603 -0.5946  0.1556
  107ccc     H5 4936   4.545  -1.490   4.757 -0.4249 -1.7591 -1.7423
  107ccc     C4 4937   4.706  -1.387   4.867  0.4194  0.0857 -0.0439
  107ccc     H6 4938   4.716  -1.546   4.738  0.6768  0.1534  1.6041
  107ccc     H7 4939   4.740  -1.286   4.839  1.6712 -0.2425  0.2305
  107ccc     H8 4940   4.796  -1.444   4.894  1.1568  1.3700  0.3051
  107ccc     N2 4941   4.628  -1.384   5.000 -0.1769 -0.0101  0.1405
  107ccc     C5 4942   4.501  -1.301   4.991  0.0678 -0.6392 -0.5168
  107ccc     C6 4943   4.720  -1.336   5.114 -0.3729  0.0827  0.5176
  107ccc     H9 4944   4.742  -1.231   5.092  1.1476 -0.1200  0.9688
  107ccc     C7 4945   4.847  -1.419   5.145 -0.9255  0.0402  0.2829
  107ccc    H10 4946   4.662  -1.339   5.208 -1.2890  2.4981  0.0759
  107ccc    H11 4947   4.840  -1.518   5.099 -1.6468  0.8055 -1.2975
  107ccc    H12 4948   4.860  -1.426   5.254  2.3092  0.3009  0.0209
  107ccc     C8 4949   4.984  -1.360   5.103 -0.1742 -0.0839 -0.1243
  107ccc     O2 4950   5.015  -1.307   5.002  0.3880  0.3681  0.2032
  107ccc    H13 4951   4.456  -1.302   5.091 -0.0117  1.5453 -0.4873
  107ccc    H14 4952   4.424  -1.350   4.931 -3.2825  2.7396  0.6069
  107ccc     C9 4953   4.509  -1.150   4.946  0.0796  0.0292 -0.3704
  107ccc    H15 4954   4.584  -1.148   4.867  4.1133 -2.7791  2.9485
  107ccc    H16 4955   4.545  -1.089   5.029  0.2162 -0.2324 -0.2344
  107ccc    C10 4956   4.363  -1.099   4.912 -0.6483 -0.0504  1.0215
  107ccc     O4 4957   4.277  -1.173   4.875 -1.0586 -0.3654 -0.1548
  107ccc    C11 4958   5.486  -1.295   5.310  0.3175 -0.3951 -0.1077
  107ccc    C12 4959   5.460  -1.389   5.187 -0.2032 -0.0742 -0.8940
  107ccc    H17 4960   5.469  -1.356   5.400 -2.5709  2.0252  1.1616
  107ccc    C13 4961   5.316  -1.442   5.193 -0.1470  0.1004  0.5167
  107ccc    C14 4962   5.217  -1.320   5.201 -0.3356  0.1069  0.6314
  107ccc    C15 4963   5.247  -1.234   5.320  0.6459 -0.3346 -0.0144
  107ccc    H18 4964   5.230  -1.262   5.109 -2.0695  0.7496  0.7609
  107ccc    H19 4965   5.309  -1.490   5.292  0.9544  1.8844  1.5125
  107ccc    H20 4966   5.226  -1.291   5.411 -0.8039 -0.0785 -0.1713
  107ccc     O1 4967   5.166  -1.124   5.324  0.5357 -0.7548 -0.0404
  107ccc     O6 4968   5.292  -1.536   5.090 -0.6879  0.5232  0.7464
  107ccc    C16 4969   5.635  -1.242   5.314  0.4046  0.7159  0.3513
  107ccc    H21 4970   5.202  -1.571   5.102 -0.1735 -1.3484 -0.4298
  107ccc    H22 4971   5.040  -1.414   5.286 -1.1137  0.7225  0.1985
  107ccc    H23 4972   5.649  -1.167   5.235  1.4716  0.5891  0.4048
  107ccc    H24 4973   5.713  -1.316   5.294 -1.2100 -0.9347 -0.1433
  107ccc     O7 4974   5.653  -1.180   5.436 -0.0430  0.0273 -0.4007
  107ccc    H25 4975   5.749  -1.167   5.449  0.1295 -0.1029 -1.4584
  107ccc     O8 4976   5.384  -1.188   5.316 -0.4136  0.2023 -0.0525
  107ccc    H26 4977   5.212  -1.061   5.381 -1.2371  0.0600  0.5596
  107ccc    H27 4978   5.454  -1.336   5.091 -1.6014  0.5180 -0.5128
  107ccc     O9 4979   5.546  -1.500   5.183  0.3141 -0.6724 -0.3903
  107ccc    H28 4980   5.497  -1.571   5.138  1.3957 -0.7594 -1.4788
  107ccc     N3 4981   5.074  -1.370   5.201  0.2000  0.2586  0.4523
  107ccc    C17 4982   4.512  -0.594   4.886  0.3788 -0.8392 -0.4080
  107ccc    C18 4983   4.461  -0.626   5.029  0.5369  0.5693 -0.0442
  107ccc    H29 4984   4.438  -0.572   4.809  2.7258 -1.1840 -2.9487
  107ccc    C19 4985   4.359  -0.745   5.026  0.2489  0.2747 -0.6935
  107ccc    C20 4986   4.412  -0.857   4.939  0.7273  0.2706 -0.8383
  107ccc    C21 4987   4.467  -0.811   4.803 -0.0143 -0.4015 -0.7973
  107ccc    H30 4988   4.501  -0.889   4.995 -0.1855  0.2713  0.6594
  107ccc    H31 4989   4.261  -0.713   4.990 -0.3549 -0.6514  0.0641
  107ccc    H32 4990   4.387  -0.779   4.736 -0.3953 -0.3214 -0.3115
  107ccc    O10 4991   4.551  -0.905   4.745 -0.6827  0.7582  0.3806
  107ccc    O11 4992   4.346  -0.772   5.169  0.0263 -0.2488  0.0777
  107ccc    C22 4993   4.622  -0.480   4.880  0.4670 -0.0728 -0.3716
  107ccc    H33 4994   4.265  -0.823   5.188 -0.1544  0.2969  0.8175
  107ccc    H34 4995   4.223  -0.951   4.908  0.1913  2.5093 -0.7049
  107ccc    H35 4996   4.681  -0.481   4.972  0.2739  2.5633 -0.1534
  107ccc    H36 4997   4.578  -0.380   4.874 -0.6405 -0.5452 -0.4430
  107ccc    O12 4998   4.699  -0.494   4.760 -0.3521  0.0413  0.6113
  107ccc    H37 4999   4.663  -0.577   4.725 -1.6758  0.9640 -0.2858
  107ccc    O13 5000   4.564  -0.707   4.827  0.5527  0.2140  0.1330
  107ccc    H38 5001   4.628  -0.913   4.803  1.4033 -0.2172 -2.3118
  107ccc    H39 5002   4.549  -0.662   5.083  0.4062  1.2210  0.6111
  107ccc     O5 5003   4.389  -0.511   5.080 -0.2609  0.4792  0.0600
  107ccc    H40 5004   4.338  -0.538   5.159  1.4475  1.7939  1.6927
  107ccc     N4 5005   4.319  -0.976   4.934 -0.4024  0.4812 -0.2867
  107ccc    H41 5006   4.591  -1.480   5.004 -1.2442  0.1032 -3.6031
  108ccc     N1 5007   5.401   0.235   4.561  0.9267 -0.1981  0.6138
  108ccc     H4 5008   5.479   0.287   4.522  1.0084 -1.0489 -0.3998
  108ccc     C3 5009   5.311   0.312   4.650 -0.2292  0.3935 -0.6024
  108ccc     H5 5010   5.253   0.242   4.712  0.5270 -1.8675 -2.3484
  108ccc     C4 5011   5.208   0.403   4.584 -0.2683 -0.4763 -0.0626
  108ccc     H6 5012   5.374   0.363   4.724 -0.2186  0.3007 -0.5479
  108ccc     H7 5013   5.277   0.472   4.534 -1.1455 -0.1254 -0.8162
  108ccc     H8 5014   5.154   0.461   4.659 -1.6572 -0.1792 -1.2468
  108ccc     N2 5015   5.108   0.360   4.478  0.2862  0.2481 -0.8090
  108ccc     C5 5016   5.034   0.485   4.421 -0.8493 -0.0284 -0.0677
  108ccc     C6 5017   5.012   0.257   4.544  0.6458  0.3043 -0.0553
  108ccc     H9 5018   4.955   0.213   4.461  1.8075 -2.2683  0.4167
  108ccc     C7 5019   4.910   0.297   4.654  0.0619 -0.6085  0.6308
  108ccc    H10 5020   5.070   0.169   4.574  0.9896  0.0133 -1.4730
  108ccc    H11 5021   4.851   0.382   4.616  0.6078  0.1524  1.4349
  108ccc    H12 5022   4.963   0.338   4.741 -1.6187 -1.6627  2.2181
  108ccc     C8 5023   4.816   0.185   4.699  0.1802 -0.5833  0.3295
  108ccc     O2 5024   4.832   0.072   4.660 -0.2493 -0.1336  0.4304
  108ccc    H13 5025   5.115   0.545   4.377  0.3311 -0.5089  1.3445
  108ccc    H14 5026   4.981   0.537   4.501  1.9368 -0.5714  2.2856
  108ccc     C9 5027   4.931   0.460   4.302  0.4310 -0.1797 -1.0418
  108ccc    H15 5028   4.867   0.384   4.348  0.5684  0.4396  0.1915
  108ccc    H16 5029   4.984   0.435   4.209  2.8502  1.4280 -0.1769
  108ccc    C10 5030   4.840   0.576   4.279  0.0398 -1.0268 -0.1776
  108ccc     O4 5031   4.815   0.671   4.347 -0.4692  0.0715  0.5380
  108ccc    C11 5032   4.599   0.079   5.260 -0.1166 -0.1195  0.9322
  108ccc    C12 5033   4.519   0.216   5.162  0.5819  0.2948 -0.6953
  108ccc    H17 5034   4.662   0.138   5.328  1.0591 -1.6181  1.1790
  108ccc    C13 5035   4.552   0.237   4.987  0.3414  0.6118  1.3488
  108ccc    C14 5036   4.656   0.129   4.879  0.4431 -0.3280  0.3770
  108ccc    C15 5037   4.745  -0.019   4.938 -0.3818  0.2351 -0.2261
  108ccc    H18 5038   4.594   0.094   4.795  0.8703 -2.1942  0.8102
  108ccc    H19 5039   4.586   0.339   4.966  1.8464 -0.3601 -1.6152
  108ccc    H20 5040   4.853  -0.005   4.925 -0.4216  0.4212 -0.3706
  108ccc     O1 5041   4.733  -0.135   4.855  0.0311 -0.5403  0.5013
  108ccc     O6 5042   4.423   0.249   4.927  0.0314 -0.5143  0.5487
  108ccc    C16 5043   4.502   0.047   5.376  0.1894  0.0687  0.3690
  108ccc    H21 5044   4.438   0.298   4.845 -2.2131 -3.0586 -1.5932
  108ccc    H22 5045   4.729   0.320   4.828  2.0997  1.2728 -1.8488
  108ccc    H23 5046   4.551  -0.012   5.454 -0.7414  0.6994  1.4671
  108ccc    H24 5047   4.412  -0.008   5.345 -0.1190 -0.2031  1.6882
  108ccc     O7 5048   4.459   0.161   5.451 -0.5401  0.1612 -0.6367
  108ccc    H25 5049   4.423   0.130   5.536  0.0882  3.3339  0.9289
  108ccc     O8 5050   4.735  -0.059   5.108 -0.2394 -0.1573 -0.2028
  108ccc    H26 5051   4.799  -0.198   4.887 -1.1296 -1.0445  2.0533
  108ccc    H27 5052   4.416   0.185   5.181  1.7679 -2.9801  1.4892
  108ccc     O9 5053   4.513   0.343   5.226  0.4528  0.3835 -0.4805
  108ccc    H28 5054   4.476   0.333   5.315 -1.8808  1.6581 -1.2386
  108ccc     N3 5055   4.740   0.222   4.804 -0.1284  0.3742  0.3655
  108ccc    C17 5056   4.401   0.807   4.166 -0.0118  0.5806 -0.2551
  108ccc    C18 5057   4.507   0.836   4.054 -0.2108 -0.1423  0.1270
  108ccc    H29 5058   4.433   0.862   4.255  0.0345  0.3832 -0.1502
  108ccc    C19 5059   4.645   0.775   4.083 -0.1847  0.4232 -0.3773
  108ccc    C20 5060   4.633   0.627   4.143 -0.4469 -0.9794  0.6517
  108ccc    C21 5061   4.531   0.620   4.255  0.0427  0.1899  0.1788
  108ccc    H30 5062   4.593   0.571   4.058  0.2498 -0.7334  0.1586
  108ccc    H31 5063   4.696   0.835   4.160  0.9066 -1.4731  0.4546
  108ccc    H32 5064   4.567   0.684   4.337  1.3096  0.7690 -0.7955
  108ccc    O10 5065   4.507   0.490   4.300 -0.4108 -0.0950 -0.2228
  108ccc    O11 5066   4.727   0.766   3.971 -0.0177 -0.0970  0.2917
  108ccc    C22 5067   4.263   0.855   4.125 -0.1695  0.2123  0.7086
  108ccc    H33 5068   4.804   0.714   4.000  0.3238  0.4627  0.4035
  108ccc    H34 5069   4.760   0.468   4.121  1.9454 -0.0528 -0.0174
  108ccc    H35 5070   4.264   0.961   4.097 -1.9011  1.0457  3.4476
  108ccc    H36 5071   4.206   0.850   4.219  3.9463  2.1511  3.6244
  108ccc    O12 5072   4.207   0.773   4.022  0.0215  0.0627  0.3543
  108ccc    H37 5073   4.154   0.836   3.970 -1.0215 -1.0050  0.0896
  108ccc    O13 5074   4.402   0.669   4.200  0.1327  0.2011  0.6638
  108ccc    H38 5075   4.471   0.432   4.231 -0.6535  0.2085 -0.3536
  108ccc    H39 5076   4.481   0.795   3.956 -1.2007  0.2906  0.2023
  108ccc     O5 5077   4.523   0.978   4.045  0.4290 -0.0145 -1.1620
  108ccc    H40 5078   4.605   1.009   4.000  0.6686  1.8996  0.4658
  108ccc     N4 5079   4.759   0.555   4.175  0.2402  0.0521 -0.1568
  108ccc    H41 5080   5.163   0.304   4.411 -1.8600 -3.5488  0.2925
  109ccc     N1 5081   5.501  -0.409   5.046 -0.0757 -0.1231 -0.4072
  109ccc     H4 5082   5.419  -0.354   5.069 -0.0548 -0.3522  0.2444
  109ccc     C3 5083   5.545  -0.510   5.143 -0.2956 -0.3373 -0.2495
  109ccc     H5 5084   5.654  -0.512   5.149 -0.1862 -0.1676 -1.7759
  109ccc     C4 5085   5.482  -0.644   5.112  0.3057  0.2115 -0.0408
  109ccc     H6 5086   5.506  -0.471   5.238  1.5746 -0.8659  0.7881
  109ccc     H7 5087   5.525  -0.670   5.015 -1.7246 -0.0624 -0.9047
  109ccc     H8 5088   5.373  -0.633   5.111  0.0194 -1.7754  1.7666
  109ccc     N2 5089   5.513  -0.761   5.205 -0.2519  0.1751  0.5056
  109ccc     C5 5090   5.456  -0.893   5.155  0.2012 -0.1737  0.0569
  109ccc     C6 5091   5.471  -0.716   5.350 -0.2149 -0.5753  0.5155
  109ccc     H9 5092   5.503  -0.791   5.424 -2.2280 -1.3643  0.6522
  109ccc     C7 5093   5.318  -0.698   5.371  0.3238 -0.2406 -0.1574
  109ccc    H10 5094   5.522  -0.624   5.381  0.2152 -0.8750  0.7013
  109ccc    H11 5095   5.267  -0.795   5.377 -0.2117 -0.0048 -0.7702
  109ccc    H12 5096   5.270  -0.641   5.291 -0.3989 -1.3653 -0.5414
  109ccc     C8 5097   5.282  -0.630   5.504  0.2197  0.5620  0.4604
  109ccc     O2 5098   5.318  -0.663   5.617 -0.1220 -0.2008  1.0875
  109ccc    H13 5099   5.348  -0.877   5.163  0.3843  0.5352  1.4694
  109ccc    H14 5100   5.474  -0.968   5.234 -0.3210 -1.2725 -0.8486
  109ccc     C9 5101   5.505  -0.940   5.015 -0.4417 -0.4183  0.0438
  109ccc    H15 5102   5.608  -0.977   5.024  0.2628  1.7010  1.3478
  109ccc    H16 5103   5.503  -0.857   4.943 -0.3940 -0.6046 -0.1725
  109ccc    C10 5104   5.416  -1.045   4.953  0.2811  0.8051 -0.2656
  109ccc     O4 5105   5.294  -1.059   4.973  0.2150 -0.0777  0.4560
  109ccc    C11 5106   4.928  -0.292   5.758  0.5603 -0.4309  0.2605
  109ccc    C12 5107   5.051  -0.223   5.686 -1.0075  0.0952 -0.3095
  109ccc    H17 5108   4.939  -0.258   5.862  1.8438 -2.4189  0.8445
  109ccc    C13 5109   5.119  -0.302   5.571 -0.2656 -0.1760  0.5038
  109ccc    C14 5110   5.137  -0.451   5.600 -0.8511 -0.0399  0.5448
  109ccc    C15 5111   5.001  -0.515   5.641 -0.0748  0.0082 -0.3092
  109ccc    H18 5112   5.201  -0.452   5.688 -0.6895  0.1611  0.4304
  109ccc    H19 5113   5.218  -0.254   5.567 -1.3143  2.6054  3.4374
  109ccc    H20 5114   5.007  -0.618   5.675 -1.3927  0.3627  1.1278
  109ccc     O1 5115   4.902  -0.508   5.541 -0.5776 -0.0025  0.0028
  109ccc     O6 5116   5.041  -0.289   5.451 -0.4845  0.0622  0.4549
  109ccc    C16 5117   4.784  -0.252   5.711  0.2659  1.5245  0.1503
  109ccc    H21 5118   5.093  -0.235   5.389  0.7724 -0.2943  1.1605
  109ccc    H22 5119   5.165  -0.493   5.396  0.7528  2.1212  0.4497
  109ccc    H23 5120   4.779  -0.275   5.604  3.8150  1.5101 -0.1470
  109ccc    H24 5121   4.775  -0.143   5.705  4.4125  1.9752 -1.8611
  109ccc     O7 5122   4.682  -0.313   5.788  0.1980  0.2748 -0.7051
  109ccc    H25 5123   4.711  -0.311   5.881  2.2435  0.4117 -1.3108
  109ccc     O8 5124   4.949  -0.438   5.758  0.7145 -0.0546  0.5569
  109ccc    H26 5125   4.947  -0.436   5.493  2.5245 -1.8412 -0.1154
  109ccc    H27 5126   5.028  -0.124   5.646  2.4843  1.8154  1.4578
  109ccc     O9 5127   5.157  -0.205   5.790  0.5950 -0.5348  0.5748
  109ccc    H28 5128   5.139  -0.117   5.825 -0.0933 -1.2592  2.1451
  109ccc     N3 5129   5.198  -0.529   5.485 -0.4084 -0.3572 -0.0523
  109ccc    C17 5130   5.782  -1.192   4.573 -0.0529 -0.1404 -0.2319
  109ccc    C18 5131   5.716  -1.061   4.598  0.5277  0.5871  0.4558
  109ccc    H29 5132   5.728  -1.236   4.488  0.8789 -1.5883 -0.1171
  109ccc    C19 5133   5.583  -1.060   4.674  1.2365  0.2580 -0.4312
  109ccc    C20 5134   5.596  -1.142   4.804 -0.3700  1.0026  0.0822
  109ccc    C21 5135   5.642  -1.287   4.762 -0.1965  0.4946 -0.0315
  109ccc    H30 5136   5.675  -1.100   4.868 -1.6078  1.5479  1.3170
  109ccc    H31 5137   5.506  -1.109   4.613  1.4292 -0.4807 -0.1043
  109ccc    H32 5138   5.572  -1.342   4.698  1.1072 -4.1919  2.1375
  109ccc    O10 5139   5.656  -1.373   4.882  0.1812  0.3186 -0.1071
  109ccc    O11 5140   5.536  -0.937   4.707  0.0438 -0.7191  0.4867
  109ccc    C22 5141   5.933  -1.172   4.531  0.0014 -0.1174 -0.0475
  109ccc    H33 5142   5.608  -0.876   4.729 -0.6057  0.0898  0.4198
  109ccc    H34 5143   5.410  -1.219   4.850  0.1889 -0.8001  0.1808
  109ccc    H35 5144   5.942  -1.110   4.442 -1.5170  0.0517 -0.0984
  109ccc    H36 5145   5.970  -1.274   4.514 -1.1456 -0.4306 -0.7528
  109ccc    O12 5146   6.012  -1.110   4.641  0.4351 -0.4496  0.1291
  109ccc    H37 5147   6.098  -1.078   4.607  0.6215 -0.0874  0.9124
  109ccc    O13 5148   5.773  -1.284   4.693 -0.0198 -0.0444 -0.2174
  109ccc    H38 5149   5.722  -1.333   4.941  2.8385  0.8520 -3.1453
  109ccc    H39 5150   5.789  -0.999   4.651  1.3123  0.7780 -0.8105
  109ccc     O5 5151   5.703  -0.988   4.474  0.1676  0.0990 -0.1638
  109ccc    H40 5152   5.759  -0.908   4.476 -0.1708  0.3919  2.4947
  109ccc     N4 5153   5.471  -1.147   4.887  0.4381 -0.5037 -0.7708
  109ccc    H41 5154   5.614  -0.778   5.214 -0.1312 -0.3660 -1.4676
  110ccc     N1 5155   3.957   2.031   6.853 -0.3747  0.4010 -0.5637
  110ccc     H4 5156   3.963   1.955   6.786  1.0245 -0.2146  0.2202
  110ccc     C3 5157   4.074   2.038   6.942  0.7310  0.1275  0.2510
  110ccc     H5 5158   4.038   2.083   7.035 -1.9174  0.9241 -1.0683
  110ccc     C4 5159   4.184   2.128   6.880  0.1520  0.0785  0.2145
  110ccc     H6 5160   4.101   1.936   6.974  0.4155 -0.9523 -2.6732
  110ccc     H7 5161   4.130   2.213   6.836 -0.4030 -1.0498 -1.3555
  110ccc     H8 5162   4.227   2.068   6.799 -1.0992 -0.9066  0.2415
  110ccc     N2 5163   4.297   2.175   6.978 -0.2371 -0.3106  0.6115
  110ccc     C5 5164   4.321   2.330   6.956 -0.1621 -0.8123  0.4294
  110ccc     C6 5165   4.423   2.094   6.957  0.0674 -0.3091 -0.4277
  110ccc     H9 5166   4.454   2.115   6.854 -0.0340 -1.0113 -0.6099
  110ccc     C7 5167   4.415   1.955   7.012 -0.5626 -0.3774  0.3513
  110ccc    H10 5168   4.503   2.142   7.016  0.7600 -2.1671  0.2536
  110ccc    H11 5169   4.335   1.891   6.973 -0.8616  0.7831 -0.9739
  110ccc    H12 5170   4.408   1.956   7.122  2.1581 -1.2446  0.6132
  110ccc     C8 5171   4.544   1.878   6.987 -0.3455  0.6977 -0.0885
  110ccc     O2 5172   4.623   1.901   6.895 -0.6348  0.3245 -0.5529
  110ccc    H13 5173   4.344   2.361   6.853 -1.8667 -0.2148  0.1965
  110ccc    H14 5174   4.405   2.364   7.018 -1.3043  0.2942  1.4229
  110ccc     C9 5175   4.192   2.410   7.006 -0.7416  0.2978  0.1029
  110ccc    H15 5176   4.187   2.378   7.111  0.5340 -0.9788 -0.1946
  110ccc    H16 5177   4.102   2.379   6.951 -0.0608 -2.0754  0.2414
  110ccc    C10 5178   4.199   2.563   6.999 -0.3889  0.4775 -0.2484
  110ccc     O4 5179   4.296   2.623   6.958 -0.4743  0.1651 -0.2363
  110ccc    C11 5180   4.905   1.557   6.915 -1.2703 -0.4460 -0.2300
  110ccc    C12 5181   4.920   1.635   7.049  0.8440 -0.8633 -0.5642
  110ccc    H17 5182   4.915   1.629   6.833  2.5817  1.7321  1.8463
  110ccc    C13 5183   4.802   1.731   7.083 -0.3937  0.2874 -0.0713
  110ccc    C14 5184   4.666   1.656   7.056 -0.0082  0.1319 -0.9698
  110ccc    C15 5185   4.667   1.585   6.922  0.1168  0.5132 -0.1973
  110ccc    H18 5186   4.649   1.585   7.139 -1.6671  0.9030 -0.6280
  110ccc    H19 5187   4.805   1.827   7.030 -3.1891  1.2172  1.2542
  110ccc    H20 5188   4.672   1.656   6.839 -0.5601  0.5932 -0.1744
  110ccc     O1 5189   4.561   1.496   6.896  0.3550  0.1429  0.2287
  110ccc     O6 5190   4.799   1.763   7.221 -0.3822  0.3053  0.2142
  110ccc    C16 5191   5.013   1.451   6.894  0.0883  0.2607 -0.9504
  110ccc    H21 5192   4.878   1.821   7.226 -0.6127  0.6225  0.1855
  110ccc    H22 5193   4.521   1.778   7.156  0.7810  1.4844  0.3746
  110ccc    H23 5194   5.031   1.385   6.980  1.2351  0.9544 -0.6498
  110ccc    H24 5195   5.113   1.492   6.878  0.1392 -0.4437 -2.7023
  110ccc     O7 5196   4.985   1.370   6.777 -0.2471  0.0072  0.4429
  110ccc    H25 5197   4.895   1.334   6.786 -0.7217  1.3656  1.5358
  110ccc     O8 5198   4.776   1.498   6.919 -0.3038  0.3189 -0.2330
  110ccc    H26 5199   4.542   1.469   6.988 -1.4331  1.0403  0.1851
  110ccc    H27 5200   4.930   1.562   7.130  1.8314  1.5550  1.6565
  110ccc     O9 5201   5.039   1.715   7.043 -0.2977 -0.3804 -0.1345
  110ccc    H28 5202   5.055   1.768   7.123  4.2793 -0.2246 -0.9107
  110ccc     N3 5203   4.555   1.763   7.061 -0.4412 -0.6837  0.2157
  110ccc    C17 5204   3.758   2.646   7.319  0.0797 -0.0382  0.0924
  110ccc    C18 5205   3.739   2.679   7.174 -0.3072  0.5945  0.4854
  110ccc    H29 5206   3.767   2.740   7.376  0.8197 -2.2861  4.0308
  110ccc    C19 5207   3.877   2.710   7.109  0.3533 -0.1233  0.0395
  110ccc    C20 5208   3.987   2.604   7.134 -0.0697 -0.4357  0.0958
  110ccc    C21 5209   4.001   2.593   7.287 -0.3456 -0.3871  0.2949
  110ccc    H30 5210   3.950   2.506   7.102 -0.2262 -0.5531  0.6297
  110ccc    H31 5211   3.920   2.803   7.148 -1.7668  1.1595 -0.5533
  110ccc    H32 5212   4.027   2.692   7.325  0.7095 -0.8674  0.8926
  110ccc    O10 5213   4.099   2.501   7.327  0.1950  0.0158 -0.2276
  110ccc    O11 5214   3.862   2.731   6.970  0.5191  0.0964  0.3023
  110ccc    C22 5215   3.632   2.583   7.379 -0.0654  0.0520 -0.5894
  110ccc    H33 5216   3.767   2.717   6.952  1.2802 -2.6189 -2.7295
  110ccc    H34 5217   4.139   2.740   7.078  0.5980 -0.3537  0.2803
  110ccc    H35 5218   3.633   2.474   7.364 -0.4813 -0.0295 -0.0358
  110ccc    H36 5219   3.542   2.612   7.325  0.2022 -0.4753 -1.3349
  110ccc    O12 5220   3.619   2.610   7.521  0.3162  0.3389 -0.1749
  110ccc    H37 5221   3.629   2.524   7.566 -1.1292  1.8842  3.5663
  110ccc    O13 5222   3.877   2.559   7.348  0.4403 -0.7006 -0.4050
  110ccc    H38 5223   4.182   2.547   7.305 -0.9635  1.9735 -0.7489
  110ccc    H39 5224   3.692   2.603   7.111  1.5839 -0.8043  0.6644
  110ccc     O5 5225   3.664   2.800   7.170  0.0568 -0.0405  0.4351
  110ccc    H40 5226   3.584   2.793   7.114  0.0804  0.6785  0.3114
  110ccc     N4 5227   4.111   2.644   7.062  0.6492 -0.3749  0.3166
  110ccc    H41 5228   4.271   2.161   7.077  1.9327 -1.6181  1.0906
  111ccc     N1 5229   3.169   2.379   6.535  0.1661  0.5596  0.4245
  111ccc     H4 5230   3.177   2.327   6.448  0.4049 -1.1089  1.3906
  111ccc     C3 5231   3.081   2.496   6.551 -0.2250 -0.2211 -0.3234
  111ccc     H5 5232   3.128   2.568   6.620 -0.2951 -2.0622  1.7777
  111ccc     C4 5233   2.945   2.455   6.603  0.6422  0.5098  0.2738
  111ccc     H6 5234   3.071   2.551   6.457 -0.1148 -0.5712 -0.5420
  111ccc     H7 5235   2.896   2.412   6.514 -0.8687  2.4005  0.1043
  111ccc     H8 5236   2.886   2.546   6.621  0.9583  0.5593  1.0826
  111ccc     N2 5237   2.930   2.363   6.724 -0.6622  0.1027 -0.0852
  111ccc     C5 5238   2.784   2.307   6.724 -0.0455  0.4284 -0.5121
  111ccc     C6 5239   2.971   2.445   6.854 -0.0443  0.6567  0.0260
  111ccc     H9 5240   3.070   2.488   6.834  0.3437 -0.5030 -0.6375
  111ccc     C7 5241   2.975   2.367   6.985  0.0613  0.4659  0.0900
  111ccc    H10 5242   2.902   2.530   6.862  2.3087  2.5052  2.0773
  111ccc    H11 5243   2.877   2.327   7.014 -0.3544  1.7081  0.4572
  111ccc    H12 5244   3.020   2.417   7.071  2.0663 -3.6457  1.6809
  111ccc     C8 5245   3.067   2.242   6.974  0.0754  0.2404 -0.2116
  111ccc     O2 5246   3.094   2.173   6.875 -0.6963 -0.8010 -0.3479
  111ccc    H13 5247   2.749   2.308   6.620  1.4706 -2.6106 -1.1566
  111ccc    H14 5248   2.726   2.385   6.776 -1.3965 -0.3255 -0.8265
  111ccc     C9 5249   2.752   2.174   6.796 -0.0656  0.0872 -0.3636
  111ccc    H15 5250   2.780   2.176   6.902  0.4750  1.2351 -0.5175
  111ccc    H16 5251   2.813   2.095   6.751 -1.3493  0.3758 -2.8117
  111ccc    C10 5252   2.606   2.130   6.781 -0.1449  0.0256 -1.0408
  111ccc     O4 5253   2.516   2.203   6.746 -0.5393  0.2198  1.0915
  111ccc    C11 5254   3.104   1.886   7.374 -0.2109 -0.1170 -0.2564
  111ccc    C12 5255   2.987   1.894   7.276  0.0603  0.0891  0.0572
  111ccc    H17 5256   3.092   1.952   7.461 -0.5708 -1.6017  0.8626
  111ccc    C13 5257   2.985   2.036   7.216  0.3118 -0.4268 -0.0762
  111ccc    C14 5258   3.125   2.075   7.150  0.3379 -0.1685 -0.0344
  111ccc    C15 5259   3.236   2.044   7.251  0.0849 -0.0222  0.3557
  111ccc    H18 5260   3.147   2.009   7.065 -0.3411 -1.7568  0.9881
  111ccc    H19 5261   2.960   2.108   7.295 -1.9855 -1.0040 -0.2192
  111ccc    H20 5262   3.234   2.112   7.336 -1.0464 -1.2152  1.3259
  111ccc     O1 5263   3.357   2.042   7.177 -0.0783  0.1375  0.6210
  111ccc     O6 5264   2.890   2.041   7.112  0.0412  0.3737 -0.2139
  111ccc    C16 5265   3.115   1.746   7.440  0.1140  0.5532  0.9114
  111ccc    H21 5266   2.807   2.005   7.150  0.0350 -2.7096 -2.7723
  111ccc    H22 5267   3.109   2.281   7.168 -0.9243  0.9940  0.0548
  111ccc    H23 5268   3.025   1.735   7.502 -0.9308 -0.0832 -0.6370
  111ccc    H24 5269   3.206   1.737   7.500  0.3793 -1.4793  0.2655
  111ccc     O7 5270   3.123   1.629   7.346 -0.2494 -0.2388  0.0959
  111ccc    H25 5271   3.092   1.555   7.400 -0.7159 -2.4315 -2.9150
  111ccc     O8 5272   3.219   1.919   7.301 -0.2218 -0.0504  0.0174
  111ccc    H26 5273   3.377   2.137   7.173 -0.3379  0.1966  0.7737
  111ccc    H27 5274   3.005   1.829   7.189 -0.4421 -0.1700  0.1466
  111ccc     O9 5275   2.868   1.859   7.333 -0.0072 -0.2354  0.1015
  111ccc    H28 5276   2.834   1.775   7.296 -1.7483  1.1220 -1.6090
  111ccc     N3 5277   3.119   2.213   7.093 -0.0612  0.7863  0.3375
  111ccc    C17 5278   2.632   1.669   7.073 -0.4790  0.2217 -0.2694
  111ccc    C18 5279   2.739   1.678   6.963  0.5612 -0.3942 -0.1743
  111ccc    H29 5280   2.537   1.640   7.028 -0.4357  1.6651 -1.3535
  111ccc    C19 5281   2.689   1.781   6.852  0.0876  0.4093  0.2935
  111ccc    C20 5282   2.643   1.921   6.905  0.0129  0.1224  0.5084
  111ccc    C21 5283   2.556   1.889   7.032 -0.1819  0.1044  0.1226
  111ccc    H30 5284   2.740   1.958   6.941 -0.3967  0.3040  1.4426
  111ccc    H31 5285   2.608   1.731   6.798  0.1190  0.2716  0.3730
  111ccc    H32 5286   2.458   1.852   6.999 -0.7485 -0.1636  2.0297
  111ccc    O10 5287   2.540   2.003   7.120 -0.3372 -0.1675  0.9946
  111ccc    O11 5288   2.794   1.798   6.752  0.4369  0.4550  0.0122
  111ccc    C22 5289   2.661   1.579   7.193  0.0371  0.0803 -0.3457
  111ccc    H33 5290   2.875   1.814   6.804 -0.5294 -0.9435  2.0947
  111ccc    H34 5291   2.479   1.978   6.811  0.2839 -0.4368  0.1602
  111ccc    H35 5292   2.658   1.472   7.167 -0.3548  0.5814 -2.5441
  111ccc    H36 5293   2.581   1.594   7.267 -0.5485 -2.5867 -0.3395
  111ccc    O12 5294   2.786   1.611   7.254  0.7356  0.1377  0.3372
  111ccc    H37 5295   2.776   1.570   7.341 -0.0035  0.3010  0.3409
  111ccc    O13 5296   2.623   1.804   7.120 -0.4780 -0.5301  0.0489
  111ccc    H38 5297   2.520   1.958   7.203 -0.7742 -1.0281  0.4411
  111ccc    H39 5298   2.827   1.714   7.017  0.4169 -0.8905  0.4042
  111ccc     O5 5299   2.760   1.547   6.911 -0.1097 -0.4868  0.4456
  111ccc    H40 5300   2.677   1.517   6.871  1.5309 -2.1958 -1.9465
  111ccc     N4 5301   2.578   2.000   6.801  0.1391  0.0580 -0.2145
  111ccc    H41 5302   3.001   2.291   6.703  0.7192  1.9402 -2.1833
  112ccc     N1 5303   3.922   0.885   7.771 -0.2277  0.0559 -0.2378
  112ccc     H4 5304   3.880   0.878   7.863 -1.0963 -0.9175 -0.6919
  112ccc     C3 5305   4.025   0.786   7.733 -0.1094  0.2061  0.0946
  112ccc     H5 5306   4.036   0.707   7.809 -0.2666 -1.7240 -1.7820
  112ccc     C4 5307   4.162   0.844   7.705  0.3377 -0.1249  0.1271
  112ccc     H6 5308   3.987   0.729   7.646  1.1778 -3.1418  1.5633
  112ccc     H7 5309   4.226   0.757   7.722  0.9155  0.6366  2.1885
  112ccc     H8 5310   4.181   0.932   7.768 -0.9246 -0.2943  0.7807
  112ccc     N2 5311   4.191   0.892   7.561  0.1730  0.1256  0.2932
  112ccc     C5 5312   4.334   0.854   7.529 -0.5105 -0.6437  0.8852
  112ccc     C6 5313   4.171   1.036   7.528 -0.2731  0.2815  0.4392
  112ccc     H9 5314   4.078   1.074   7.573 -1.1171 -0.0735 -0.9544
  112ccc     C7 5315   4.142   1.072   7.383  0.3818 -0.2270 -0.5082
  112ccc    H10 5316   4.248   1.099   7.573 -0.5487  0.4670  0.6548
  112ccc    H11 5317   4.063   1.000   7.357  1.7316 -1.3654 -1.5712
  112ccc    H12 5318   4.235   1.065   7.325  1.0386 -0.2877  0.5237
  112ccc     C8 5319   4.102   1.222   7.371  0.0738 -0.1854 -0.2663
  112ccc     O2 5320   4.125   1.300   7.459  0.0464  0.2629  0.2381
  112ccc    H13 5321   4.351   0.892   7.427  1.1673 -2.9664  0.2174
  112ccc    H14 5322   4.321   0.746   7.515 -3.8246 -0.1557 -0.7029
  112ccc     C9 5323   4.460   0.897   7.623 -0.2088 -0.3881  0.2390
  112ccc    H15 5324   4.471   0.847   7.720  0.4774 -0.6530  0.0298
  112ccc    H16 5325   4.446   1.004   7.643 -0.8658 -0.3827 -0.1984
  112ccc    C10 5326   4.593   0.892   7.549 -0.8017 -0.7292  0.0506
  112ccc     O4 5327   4.618   0.862   7.435  0.1640  0.1589 -0.0611
  112ccc    C11 5328   3.968   1.664   7.209  0.1259 -0.4336 -0.9422
  112ccc    C12 5329   4.059   1.601   7.103  0.0904 -0.2930  0.3548
  112ccc    H17 5330   4.027   1.695   7.296 -0.7203  0.2186 -0.5891
  112ccc    C13 5331   4.123   1.475   7.170 -0.4584  0.0945 -0.1407
  112ccc    C14 5332   4.005   1.380   7.204  0.0502 -0.7475  0.0346
  112ccc    C15 5333   3.903   1.450   7.297  0.0065  0.0209 -0.6064
  112ccc    H18 5334   3.964   1.368   7.102  0.5142  2.0444 -0.5624
  112ccc    H19 5335   4.175   1.497   7.264  2.0994  0.4610 -1.5408
  112ccc    H20 5336   3.941   1.477   7.397 -0.6982 -1.1881  0.0076
  112ccc     O1 5337   3.787   1.372   7.321  0.5750  0.3371  0.5067
  112ccc     O6 5338   4.220   1.424   7.078 -0.0414 -0.1986  0.2681
  112ccc    C16 5339   3.899   1.790   7.140  1.0096  0.1773 -0.3657
  112ccc    H21 5340   4.175   1.417   6.992  0.3613 -1.8546  0.1551
  112ccc    H22 5341   4.004   1.176   7.194  0.7700  1.2291 -1.5898
  112ccc    H23 5342   3.969   1.872   7.122  0.5556  0.5349 -0.5016
  112ccc    H24 5343   3.823   1.823   7.212 -1.0926 -3.4409 -0.6483
  112ccc     O7 5344   3.831   1.759   7.025 -0.0248  0.1158 -0.3801
  112ccc    H25 5345   3.762   1.698   7.058  1.2961 -1.0217  0.3980
  112ccc     O8 5346   3.855   1.574   7.234 -0.6315 -0.1163  0.0545
  112ccc    H26 5347   3.738   1.371   7.238  0.8235  1.1435  0.3411
  112ccc    H27 5348   4.009   1.578   7.008  2.0350  0.3935 -0.9020
  112ccc     O9 5349   4.168   1.688   7.072 -0.0790  0.2323  0.2299
  112ccc    H28 5350   4.251   1.637   7.069  1.3162  2.1868  2.2338
  112ccc     N3 5351   4.041   1.248   7.255  1.1793 -0.2265 -0.0556
  112ccc    C17 5352   5.109   0.914   7.684  0.5559 -0.9222  0.9090
  112ccc    C18 5353   5.043   0.776   7.677  0.0857 -0.0971  0.0994
  112ccc    H29 5354   5.106   0.956   7.785 -0.1311  3.3103 -0.6324
  112ccc    C19 5355   4.896   0.782   7.691  0.6348 -0.2848  0.1509
  112ccc    C20 5356   4.841   0.890   7.597 -0.8390 -0.5796 -0.1414
  112ccc    C21 5357   4.912   1.029   7.612 -0.9470  0.4620  1.2299
  112ccc    H30 5358   4.859   0.864   7.492  0.2883 -2.7893  0.5469
  112ccc    H31 5359   4.875   0.807   7.795  1.5470  1.9576 -0.1450
  112ccc    H32 5360   4.898   1.075   7.710 -2.9078  2.1876  0.2259
  112ccc    O10 5361   4.875   1.121   7.515 -0.2054  0.4377 -0.2989
  112ccc    O11 5362   4.840   0.655   7.667  0.4512 -0.0651 -0.2961
  112ccc    C22 5363   5.266   0.918   7.647  0.2627 -0.4739 -0.5845
  112ccc    H33 5364   4.748   0.661   7.699 -0.3810  2.7879 -2.8150
  112ccc    H34 5365   4.675   0.937   7.726 -0.0211  0.0606 -0.0872
  112ccc    H35 5366   5.280   0.885   7.544  2.3092 -0.6246 -0.3123
  112ccc    H36 5367   5.317   0.847   7.714  0.3993  0.0154 -0.1670
  112ccc    O12 5368   5.323   1.051   7.653  0.1930 -0.3511 -0.6068
  112ccc    H37 5369   5.418   1.029   7.646  0.2780 -2.0262  3.1985
  112ccc    O13 5370   5.051   1.004   7.595  0.2031 -0.2419 -0.2590
  112ccc    H38 5371   4.784   1.143   7.541 -0.5733 -2.0998  0.9165
  112ccc    H39 5372   5.057   0.725   7.580  0.7273 -1.9503  1.1085
  112ccc     O5 5373   5.092   0.699   7.785 -0.8292 -0.2823 -0.3538
  112ccc    H40 5374   5.034   0.621   7.779  0.1128 -1.0049 -0.1831
  112ccc     N4 5375   4.698   0.918   7.629 -0.2100 -0.5425 -0.0177
  112ccc    H41 5376   4.133   0.832   7.501 -0.5034 -0.8287  1.8429
  113ccc     N1 5377   3.561   1.515   7.453 -0.2622 -0.9292  0.1116
  113ccc     H4 5378   3.636   1.479   7.510  0.2265  0.7342  0.5807
  113ccc     C3 5379   3.587   1.652   7.404 -0.3582 -0.6285 -0.1099
  113ccc     H5 5380   3.639   1.641   7.309  1.6693  1.5539  0.6476
  113ccc     C4 5381   3.668   1.741   7.503  0.3088 -0.0369  0.3274
  113ccc     H6 5382   3.486   1.693   7.388 -1.0075 -2.5185 -1.0891
  113ccc     H7 5383   3.696   1.835   7.453 -1.1598  1.3635  1.9938
  113ccc     H8 5384   3.754   1.683   7.539  1.8435  2.1079  0.3238
  113ccc     N2 5385   3.596   1.797   7.625 -0.2306  0.5827 -0.3060
  113ccc     C5 5386   3.499   1.910   7.579  0.1169 -0.2300 -0.3523
  113ccc     C6 5387   3.704   1.847   7.726 -0.1070  0.1922  0.6717
  113ccc     H9 5388   3.662   1.891   7.817  0.1339 -0.2687  1.0057
  113ccc     C7 5389   3.813   1.948   7.674  0.3703  0.1724 -0.0232
  113ccc    H10 5390   3.759   1.761   7.765 -0.5377  0.7589  2.6426
  113ccc    H11 5391   3.860   1.989   7.764 -2.5422  0.6630  1.4207
  113ccc    H12 5392   3.768   2.032   7.620  3.1360  1.5626 -0.3139
  113ccc     C8 5393   3.925   1.885   7.587  0.3967  0.2928 -0.0191
  113ccc     O2 5394   3.929   1.887   7.467  0.1408 -0.3954 -0.6959
  113ccc    H13 5395   3.436   1.879   7.495 -1.7857 -1.5969  1.4777
  113ccc    H14 5396   3.560   1.993   7.540  1.0071 -0.3120  0.7816
  113ccc     C9 5397   3.397   1.965   7.683  0.5585 -0.4060  0.2568
  113ccc    H15 5398   3.314   2.021   7.639 -0.9004 -1.8295  1.0651
  113ccc    H16 5399   3.444   2.030   7.757 -1.1207 -0.1964  1.1880
  113ccc    C10 5400   3.325   1.852   7.759 -0.4176 -0.2781 -0.1819
  113ccc     O4 5401   3.340   1.731   7.741  0.3093 -0.5115  0.7204
  113ccc    C11 5402   4.377   1.598   7.669  0.7331 -0.8031  0.4820
  113ccc    C12 5403   4.254   1.501   7.650 -0.8646 -0.2015 -0.7170
  113ccc    H17 5404   4.379   1.625   7.775  0.0816 -1.0322  0.5608
  113ccc    C13 5405   4.128   1.587   7.683  0.6702  0.1382  0.1375
  113ccc    C14 5406   4.117   1.723   7.609  0.8914 -0.5869  0.4761
  113ccc    C15 5407   4.257   1.794   7.605  1.2973 -0.4505  0.3936
  113ccc    H18 5408   4.095   1.696   7.505  1.2851  2.1931 -0.3894
  113ccc    H19 5409   4.127   1.614   7.789  1.8761  1.9227 -0.2728
  113ccc    H20 5410   4.278   1.846   7.700  3.7548 -0.4520 -0.0878
  113ccc     O1 5411   4.258   1.877   7.490 -0.3605  0.4913 -0.7154
  113ccc     O6 5412   4.013   1.511   7.644 -0.4555  0.0436 -0.1302
  113ccc    C16 5413   4.520   1.538   7.638  0.0541 -0.1066 -0.5502
  113ccc    H21 5414   4.045   1.433   7.596  0.7149  0.1380  0.4747
  113ccc    H22 5415   4.003   1.808   7.757 -0.5712 -0.7823 -0.5819
  113ccc    H23 5416   4.534   1.453   7.706 -2.4525  0.6627  1.0769
  113ccc    H24 5417   4.588   1.620   7.660 -1.0287  0.9335 -0.9655
  113ccc     O7 5418   4.535   1.498   7.507 -0.0164 -0.2512  0.1860
  113ccc    H25 5419   4.484   1.571   7.467 -1.1242  0.7453  3.1469
  113ccc     O8 5420   4.366   1.703   7.573 -0.5301 -0.2101 -0.3100
  113ccc    H26 5421   4.241   1.965   7.526  0.6467 -0.1976  1.6047
  113ccc    H27 5422   4.256   1.473   7.544 -0.4620  1.3520 -1.1348
  113ccc     O9 5423   4.268   1.385   7.735 -0.1089  0.1971 -0.3676
  113ccc    H28 5424   4.287   1.416   7.825  0.7637 -2.3856  0.4251
  113ccc     N3 5425   4.014   1.816   7.656 -0.1688  0.3872 -0.4655
  113ccc    C17 5426   2.947   2.165   7.988  0.0505 -0.1303  0.3570
  113ccc    C18 5427   3.078   2.173   8.064 -0.3908  0.3136  0.4929
  113ccc    H29 5428   2.893   2.093   8.051  0.4657 -0.3032  0.5238
  113ccc    C19 5429   3.168   2.045   8.044  0.0114 -0.8669  0.4333
  113ccc    C20 5430   3.176   2.002   7.894 -0.1234  0.6555 -0.5509
  113ccc    C21 5431   3.032   1.985   7.843 -0.0399 -0.4774 -0.7213
  113ccc    H30 5432   3.223   2.084   7.839 -0.9734  1.4275 -0.1551
  113ccc    H31 5433   3.121   1.961   8.097 -0.0517  0.4302  2.5572
  113ccc    H32 5434   2.981   1.911   7.905 -0.5806 -0.0825 -0.6903
  113ccc    O10 5435   3.027   1.970   7.706 -0.4248 -0.0828  0.0467
  113ccc    O11 5436   3.302   2.069   8.087  0.3814 -0.2355  0.2779
  113ccc    C22 5437   2.865   2.300   7.975  0.1529 -0.0872  0.3504
  113ccc    H33 5438   3.342   2.111   8.008 -1.3494  0.8075 -0.0929
  113ccc    H34 5439   3.223   1.796   7.927  0.4347 -0.4338  0.1525
  113ccc    H35 5440   2.822   2.318   8.074 -2.7295  2.5622 -1.1791
  113ccc    H36 5441   2.781   2.282   7.907 -0.8054  0.2416  1.4089
  113ccc    O12 5442   2.942   2.413   7.922 -0.4093  0.1700 -0.2601
  113ccc    H37 5443   2.884   2.488   7.899  0.3102  0.5644 -0.8305
  113ccc    O13 5444   2.968   2.113   7.855  0.3198 -0.3251 -0.9748
  113ccc    H38 5445   2.969   2.047   7.695  1.3540  1.4086  0.5268
  113ccc    H39 5446   3.131   2.259   8.021 -0.4123  1.0843  1.9439
  113ccc     O5 5447   3.037   2.187   8.200 -0.2713 -0.0172 -0.2652
  113ccc    H40 5448   3.022   2.282   8.216 -2.3125 -0.1992 -0.7785
  113ccc     N4 5449   3.252   1.875   7.870 -0.0609  0.3287  0.9317
  113ccc    H41 5450   3.548   1.715   7.664 -1.0223  0.7533 -0.8844
  114ccc     N1 5451   1.456  -0.061   5.819 -1.0816 -0.0275 -0.2135
  114ccc     H4 5452   1.497   0.029   5.837 -4.3744  1.3973  0.9474
  114ccc     C3 5453   1.465  -0.131   5.686 -0.9380  0.3000  0.2011
  114ccc     H5 5454   1.434  -0.236   5.696 -0.9509  0.3179  0.3498
  114ccc     C4 5455   1.608  -0.124   5.628 -0.0116  0.2384  1.0213
  114ccc     H6 5456   1.394  -0.079   5.621  1.0695  0.7305 -1.7431
  114ccc     H7 5457   1.637  -0.019   5.612  2.4858 -0.2432  1.8227
  114ccc     H8 5458   1.587  -0.171   5.532  1.0407  1.0903  0.3532
  114ccc     N2 5459   1.711  -0.188   5.722 -0.0793  0.0520  0.1952
  114ccc     C5 5460   1.848  -0.138   5.680  0.2290  0.1210  0.1698
  114ccc     C6 5461   1.695  -0.341   5.714  0.3813  0.2906 -0.3794
  114ccc     H9 5462   1.591  -0.355   5.745  0.7352  1.1205  1.3269
  114ccc     C7 5463   1.790  -0.419   5.810  0.8252 -0.3190 -0.8034
  114ccc    H10 5464   1.709  -0.366   5.608  1.6723  0.9357 -0.3852
  114ccc    H11 5465   1.766  -0.375   5.908 -1.1391 -0.1347 -1.3280
  114ccc    H12 5466   1.897  -0.415   5.787  0.5646  0.6553 -1.9634
  114ccc     C8 5467   1.758  -0.568   5.819 -0.4487 -0.5469  0.2679
  114ccc     O2 5468   1.677  -0.622   5.757 -0.0471  0.5537  0.3817
  114ccc    H13 5469   1.915  -0.161   5.764  0.2750 -1.7405 -0.3498
  114ccc    H14 5470   1.832  -0.029   5.687 -2.1107 -0.2301  1.6194
  114ccc     C9 5471   1.895  -0.176   5.537 -0.2926  0.3395 -0.4694
  114ccc    H15 5472   1.811  -0.176   5.466 -1.1308 -0.9253  0.4831
  114ccc    H16 5473   1.934  -0.278   5.529 -0.9081 -0.1418  1.8962
  114ccc    C10 5474   2.000  -0.081   5.480 -0.6554 -0.1700  0.7569
  114ccc     O4 5475   2.096  -0.044   5.541 -0.4526  0.4306  0.2244
  114ccc    C11 5476   1.809  -1.038   6.265 -0.3524  0.8470 -0.2561
  114ccc    C12 5477   1.633  -0.941   6.209 -0.1839 -0.3353 -0.1268
  114ccc    H17 5478   1.833  -1.002   6.366  0.3511 -0.5810  0.1111
  114ccc    C13 5479   1.638  -0.805   6.038  0.1193  0.0841  0.4923
  114ccc    C14 5480   1.822  -0.773   5.938 -0.6517  0.2724  0.0372
  114ccc    C15 5481   2.002  -0.871   6.008  1.0248  0.3849 -0.3588
  114ccc    H18 5482   1.813  -0.823   5.841  2.1159 -2.6048  1.0747
  114ccc    H19 5483   1.602  -0.706   6.068  0.4704  1.1100 -2.2349
  114ccc    H20 5484   2.068  -0.798   6.057 -0.1767 -0.0566  2.0969
  114ccc     O1 5485   2.087  -0.919   5.904 -0.3533 -0.6802 -0.2321
  114ccc     O6 5486   1.540  -0.843   5.945  0.5466  0.0752  0.7124
  114ccc    C16 5487   1.785  -1.183   6.306 -0.3439 -0.8849  0.3598
  114ccc    H21 5488   1.481  -0.767   5.928 -1.4331 -1.0313  2.2673
  114ccc    H22 5489   1.897  -0.585   5.971  0.2505 -0.3631  0.5270
  114ccc    H23 5490   1.731  -1.177   6.401  1.7315  0.3288  1.5474
  114ccc    H24 5491   1.883  -1.228   6.324  0.1845  0.0238 -0.1724
  114ccc     O7 5492   1.706  -1.258   6.216 -0.3717 -0.4380  0.3342
  114ccc    H25 5493   1.659  -1.334   6.254 -3.1223  0.7811 -0.3512
  114ccc     O8 5494   1.977  -1.012   6.155  0.0387 -0.0232 -0.4544
  114ccc    H26 5495   2.100  -0.838   5.852 -2.6053  0.6705  1.1373
  114ccc    H27 5496   1.560  -1.020   6.186  1.5259 -1.6056 -1.4325
  114ccc     O9 5497   1.591  -0.860   6.321 -0.3858  0.1189 -0.0622
  114ccc    H28 5498   1.596  -0.923   6.395  1.0316 -0.5898 -0.7098
  114ccc     N3 5499   1.839  -0.630   5.901  0.4967  0.1156  0.0105
  114ccc    C17 5500   1.739   0.017   5.007  0.3261  0.7015  1.0607
  114ccc    C18 5501   1.848  -0.087   4.988 -0.4436  0.0471 -0.3631
  114ccc    H29 5502   1.778   0.119   4.999 -0.0300  0.8974  1.7764
  114ccc    C19 5503   1.947  -0.087   5.105 -1.0898  0.5917  0.6624
  114ccc    C20 5504   1.885  -0.074   5.247  0.3160  0.6542 -0.1787
  114ccc    C21 5505   1.765   0.025   5.245 -0.3477 -0.5309  0.1070
  114ccc    H30 5506   1.840  -0.174   5.260 -0.6107  0.5871 -3.0988
  114ccc    H31 5507   1.999   0.008   5.086 -1.2137  0.6597  0.6634
  114ccc    H32 5508   1.800   0.127   5.223  0.5423 -0.3594  2.0990
  114ccc    O10 5509   1.691   0.031   5.365 -0.0517 -0.4022 -0.1281
  114ccc    O11 5510   2.038  -0.199   5.100  0.1433 -0.0718  0.0422
  114ccc    C22 5511   1.627   0.007   4.896 -0.1395 -0.4783 -0.6390
  114ccc    H33 5512   2.122  -0.173   5.141 -0.2675  0.6808  0.4338
  114ccc    H34 5513   2.057   0.028   5.317  1.0879 -0.9889  0.3201
  114ccc    H35 5514   1.561  -0.077   4.919 -1.5360  0.8995  0.5874
  114ccc    H36 5515   1.669  -0.000   4.794  0.8900  3.9963 -0.7509
  114ccc    O12 5516   1.545   0.128   4.901  0.1235 -0.0294 -0.4757
  114ccc    H37 5517   1.473   0.103   4.840  0.2931 -0.4842 -0.4893
  114ccc    O13 5518   1.673  -0.007   5.137  0.5786  0.1847 -0.3014
  114ccc    H38 5519   1.750   0.071   5.432 -0.2223 -0.7940  0.2603
  114ccc    H39 5520   1.792  -0.182   4.978 -1.5811  0.2854  2.8421
  114ccc     O5 5521   1.923  -0.062   4.866  0.0510  0.4769  0.4495
  114ccc    H40 5522   1.982  -0.137   4.849  0.2246  0.8923 -0.8707
  114ccc     N4 5523   1.990  -0.042   5.350 -0.0210  0.2505  0.8157
  114ccc    H41 5524   1.689  -0.158   5.818 -2.1589 -1.5795  0.2779
  115ccc     N1 5525   0.848  -0.192   6.517 -0.2875  0.1665  0.1526
  115ccc     H4 5526   0.799  -0.139   6.445  0.7760 -1.5241 -1.9465
  115ccc     C3 5527   0.778  -0.278   6.622 -0.1487  0.0261 -0.7644
  115ccc     H5 5528   0.856  -0.294   6.699 -1.0784 -1.0402 -0.0182
  115ccc     C4 5529   0.728  -0.418   6.576  0.5113 -0.1291 -0.1552
  115ccc     H6 5530   0.699  -0.215   6.664  1.8582  3.7010 -2.0277
  115ccc     H7 5531   0.680  -0.403   6.479  0.8103  0.3431 -0.2328
  115ccc     H8 5532   0.658  -0.456   6.652  1.6587 -1.0570  0.4645
  115ccc     N2 5533   0.835  -0.524   6.548 -0.5137 -0.7108 -0.4262
  115ccc     C5 5534   0.769  -0.651   6.480 -0.7690  0.0122  0.0735
  115ccc     C6 5535   0.914  -0.557   6.670  0.0240  0.3293  0.2682
  115ccc     H9 5536   0.956  -0.465   6.713  0.3352 -0.4545  1.7257
  115ccc     C7 5537   1.044  -0.649   6.651  0.2598  0.1838 -0.5859
  115ccc    H10 5538   0.851  -0.609   6.743  1.4900  1.3117  2.3418
  115ccc    H11 5539   1.024  -0.755   6.631  1.0694 -0.1648  0.3827
  115ccc    H12 5540   1.105  -0.645   6.742  1.1055  3.5771 -1.1688
  115ccc     C8 5541   1.132  -0.599   6.532 -0.4483 -0.6863  0.6159
  115ccc     O2 5542   1.091  -0.542   6.431  0.3681 -0.1318  0.3348
  115ccc    H13 5543   0.688  -0.624   6.411  0.5628 -1.8051 -2.3430
  115ccc    H14 5544   0.733  -0.721   6.557 -0.7228 -0.4477 -0.3187
  115ccc     C9 5545   0.850  -0.742   6.378  0.6014  0.4838  0.3516
  115ccc    H15 5546   0.931  -0.796   6.428  0.7159 -0.0207 -0.3515
  115ccc    H16 5547   0.893  -0.676   6.300 -1.2830  0.8785 -0.3981
  115ccc    C10 5548   0.753  -0.834   6.302  0.7047 -0.2957  0.7055
  115ccc     O4 5549   0.638  -0.847   6.330  0.5554 -0.3657 -0.2057
  115ccc    C11 5550   1.456  -0.431   6.207 -0.1865 -0.3031 -0.0194
  115ccc    C12 5551   1.495  -0.389   6.354  0.3139 -0.5539 -0.6952
  115ccc    H17 5552   1.363  -0.382   6.176 -0.2599  0.3277  1.1379
  115ccc    C13 5553   1.389  -0.437   6.459  0.2792  0.0216  0.0508
  115ccc    C14 5554   1.364  -0.588   6.439  0.1758  0.6441  0.1206
  115ccc    C15 5555   1.335  -0.620   6.286  0.1965 -0.0505 -0.4184
  115ccc    H18 5556   1.461  -0.633   6.464  0.4675  0.9553 -0.4410
  115ccc    H19 5557   1.303  -0.370   6.454  0.6740  0.6680  1.2904
  115ccc    H20 5558   1.241  -0.582   6.245  0.4017 -0.9368 -1.8074
  115ccc     O1 5559   1.346  -0.759   6.258 -0.3515 -0.6863  0.2395
  115ccc     O6 5560   1.443  -0.417   6.587 -0.2864 -0.3222 -0.1417
  115ccc    C16 5561   1.558  -0.398   6.099  0.3137 -0.3749 -0.2812
  115ccc    H21 5562   1.511  -0.486   6.588  1.2184  1.0974 -0.1622
  115ccc    H22 5563   1.309  -0.644   6.630 -0.9903  0.4956 -0.1759
  115ccc    H23 5564   1.640  -0.469   6.119 -0.1957 -0.8372  0.2360
  115ccc    H24 5565   1.596  -0.296   6.111  1.1015 -0.3824 -2.2899
  115ccc     O7 5566   1.513  -0.438   5.971  0.3751  0.2594 -0.0129
  115ccc    H25 5567   1.461  -0.520   5.978  2.6935 -1.1636  2.2072
  115ccc     O8 5568   1.445  -0.572   6.214 -0.2144 -0.2200 -0.9053
  115ccc    H26 5569   1.436  -0.787   6.280 -1.4494 -2.9426  2.2379
  115ccc    H27 5570   1.585  -0.443   6.385  0.3936  1.0302  2.1486
  115ccc     O9 5571   1.514  -0.253   6.362  0.0870  0.2067 -0.7535
  115ccc    H28 5572   1.591  -0.237   6.420  1.3481 -2.9640 -1.3480
  115ccc     N3 5573   1.262  -0.631   6.541  0.3155 -0.3005 -1.0164
  115ccc    C17 5574   1.146  -1.102   6.054 -0.3788 -0.3931 -0.1215
  115ccc    C18 5575   1.116  -0.973   5.981 -0.3108 -1.0071 -0.0473
  115ccc    H29 5576   1.099  -1.190   6.008 -0.6159 -1.3951  1.9315
  115ccc    C19 5577   0.971  -0.927   6.012  0.6760 -0.1910 -0.2455
  115ccc    C20 5578   0.935  -0.918   6.164  0.8988  0.5659 -0.4752
  115ccc    C21 5579   0.986  -1.058   6.223  0.0764  0.1100 -0.0208
  115ccc    H30 5580   0.996  -0.839   6.209 -0.2594  0.1936  1.9212
  115ccc    H31 5581   0.903  -0.996   5.960  1.6108  0.3461 -2.2895
  115ccc    H32 5582   0.917  -1.135   6.188 -1.4094  1.9969 -1.4767
  115ccc    O10 5583   0.977  -1.052   6.364 -0.4868 -0.5984  0.0606
  115ccc    O11 5584   0.951  -0.803   5.942 -0.5933  0.2426 -0.1334
  115ccc    C22 5585   1.297  -1.118   6.039  0.2153  0.1113 -0.2931
  115ccc    H33 5586   0.925  -0.823   5.850  0.4338 -0.4598 -0.2871
  115ccc    H34 5587   0.745  -0.969   6.145  3.2990 -1.1884 -2.3838
  115ccc    H35 5588   1.345  -1.025   6.006  0.3129 -0.0275 -0.5475
  115ccc    H36 5589   1.308  -1.187   5.954 -0.1188  0.7780 -0.8842
  115ccc    O12 5590   1.358  -1.162   6.162 -0.6632 -0.3194  0.1692
  115ccc    H37 5591   1.318  -1.113   6.236 -1.2519  0.3894 -0.6016
  115ccc    O13 5592   1.124  -1.080   6.201 -0.4346  0.4660  0.2197
  115ccc    H38 5593   1.065  -1.018   6.389 -1.1317  0.3668  1.1288
  115ccc    H39 5594   1.178  -0.901   6.034  0.1980 -0.9397 -0.7230
  115ccc     O5 5595   1.149  -0.982   5.840 -0.2003  0.0825 -0.4087
  115ccc    H40 5596   1.069  -0.969   5.787  0.1072  1.0674 -0.6375
  115ccc     N4 5597   0.800  -0.898   6.193  0.9326 -0.5804 -0.3472
  115ccc    H41 5598   0.908  -0.489   6.484  0.2867 -1.5317  0.0226
  116ccc     N1 5599   2.199  -0.730   7.397 -0.0548  0.9986 -0.0999
  116ccc     H4 5600   2.208  -0.800   7.325 -1.2886  0.1010  0.5795
  116ccc     C3 5601   2.152  -0.780   7.529  0.4194  0.3902 -0.9743
  116ccc     H5 5602   2.237  -0.798   7.595 -0.8963 -0.5878  0.5158
  116ccc     C4 5603   2.091  -0.921   7.520 -0.9186 -0.4830 -0.1267
  116ccc     H6 5604   2.079  -0.714   7.578  1.7164  0.4200  0.9925
  116ccc     H7 5605   2.174  -0.985   7.488 -0.5582  1.5435 -3.6761
  116ccc     H8 5606   2.024  -0.928   7.434  0.3227 -1.9205 -1.0371
  116ccc     N2 5607   2.025  -0.975   7.642  0.5076  0.0841  0.2621
  116ccc     C5 5608   2.019  -1.128   7.639  0.4094 -0.1196  0.2047
  116ccc     C6 5609   1.880  -0.919   7.643  0.4510  0.0430  0.9939
  116ccc     H9 5610   1.891  -0.810   7.643 -1.5041  0.3203 -1.7203
  116ccc     C7 5611   1.787  -0.949   7.764  0.3453 -0.6749  0.3506
  116ccc    H10 5612   1.830  -0.927   7.546 -0.0427  3.5075  0.8432
  116ccc    H11 5613   1.750  -1.051   7.774  0.5347 -0.7136  0.7076
  116ccc    H12 5614   1.695  -0.896   7.738  1.7589  0.6508 -2.3493
  116ccc     C8 5615   1.830  -0.915   7.906 -0.5754  0.0040  0.3393
  116ccc     O2 5616   1.952  -0.918   7.931  0.5026  0.9865 -0.7673
  116ccc    H13 5617   1.951  -1.161   7.560  1.5680 -1.8535 -0.1171
  116ccc    H14 5618   1.968  -1.158   7.731 -1.1914  1.9390  0.0761
  116ccc     C9 5619   2.153  -1.202   7.614 -0.2870  0.1302 -0.4981
  116ccc    H15 5620   2.181  -1.199   7.508 -0.6076 -1.9028 -0.6790
  116ccc    H16 5621   2.147  -1.307   7.646  0.7872  0.8505  2.4540
  116ccc    C10 5622   2.270  -1.152   7.695 -0.5765 -0.1243 -0.1075
  116ccc     O4 5623   2.283  -1.035   7.729  0.0312 -0.0783  0.0205
  116ccc    C11 5624   1.929  -0.747   8.366  0.1088  0.4816  0.4741
  116ccc    C12 5625   1.841  -0.645   8.286 -0.2013 -0.9618  0.0990
  116ccc    H17 5626   2.034  -0.748   8.335 -0.2582  2.0599 -1.0147
  116ccc    C13 5627   1.822  -0.702   8.137 -0.2879 -0.0550 -0.7497
  116ccc    C14 5628   1.764  -0.846   8.136  0.0543 -0.1340 -0.0648
  116ccc    C15 5629   1.866  -0.934   8.217  0.2537  0.2752  1.4038
  116ccc    H18 5630   1.673  -0.849   8.198 -0.7223  1.2510 -1.0645
  116ccc    H19 5631   1.923  -0.708   8.095 -0.9107 -0.5850 -2.2419
  116ccc    H20 5632   1.967  -0.930   8.174 -0.1273  2.3531  0.5799
  116ccc     O1 5633   1.826  -1.069   8.231  0.1091 -0.0049  0.3648
  116ccc     O6 5634   1.749  -0.611   8.061  0.4007  0.5709 -0.0494
  116ccc    C16 5635   1.933  -0.720   8.520 -0.0064  0.5768 -0.5362
  116ccc    H21 5636   1.682  -0.577   8.123  0.7586 -0.0245  0.6694
  116ccc    H22 5637   1.656  -0.841   7.955 -0.7824 -1.0777 -1.8573
  116ccc    H23 5638   1.961  -0.617   8.546  1.3537 -0.2222  1.4011
  116ccc    H24 5639   2.012  -0.778   8.569 -1.0097 -2.0583 -1.8208
  116ccc     O7 5640   1.811  -0.739   8.585 -0.4206  0.1879  0.0059
  116ccc    H25 5641   1.775  -0.826   8.561 -0.2008  0.2639 -0.6056
  116ccc     O8 5642   1.870  -0.881   8.347 -0.0389 -0.2105 -0.0711
  116ccc    H26 5643   1.787  -1.073   8.320  0.6484 -1.3432  0.5573
  116ccc    H27 5644   1.746  -0.633   8.340  0.8554  1.4074  1.6239
  116ccc     O9 5645   1.909  -0.518   8.294  0.0056 -0.4287 -0.2248
  116ccc    H28 5646   1.865  -0.467   8.224 -0.3041 -2.0421 -1.2476
  116ccc     N3 5647   1.734  -0.891   7.998 -0.8124 -0.1352 -0.6316
  116ccc    C17 5648   2.615  -1.567   7.624 -0.0551  0.8134  0.1055
  116ccc    C18 5649   2.503  -1.596   7.733 -0.1546  0.0364 -0.0192
  116ccc    H29 5650   2.694  -1.513   7.676  0.5148 -1.5245  1.8322
  116ccc    C19 5651   2.448  -1.465   7.792  0.6340 -0.3864  0.4878
  116ccc    C20 5652   2.398  -1.376   7.678  0.0432 -0.7851  0.2897
  116ccc    C21 5653   2.508  -1.363   7.564  0.1122  0.1937 -0.6236
  116ccc    H30 5654   2.305  -1.417   7.637  0.2783  0.3197 -1.4490
  116ccc    H31 5655   2.520  -1.404   7.848  0.1398 -1.2242  2.1186
  116ccc    H32 5656   2.590  -1.299   7.597  0.0837  0.1917 -0.5510
  116ccc    O10 5657   2.452  -1.303   7.450  0.5444  0.1920  0.2897
  116ccc    O11 5658   2.331  -1.499   7.872 -0.8125  0.1777 -0.0408
  116ccc    C22 5659   2.670  -1.698   7.559 -0.0365  0.2009 -0.3116
  116ccc    H33 5660   2.346  -1.523   7.965  1.9761  2.5083  0.2646
  116ccc    H34 5661   2.445  -1.203   7.776  0.8023 -2.2601  1.0411
  116ccc    H35 5662   2.706  -1.771   7.633  1.0683  0.5367 -0.4920
  116ccc    H36 5663   2.767  -1.667   7.518  0.2691  1.5015  1.2511
  116ccc    O12 5664   2.588  -1.760   7.457 -0.0055  0.5113  0.5091
  116ccc    H37 5665   2.495  -1.740   7.480 -1.3029 -3.1197 -0.7707
  116ccc    O13 5666   2.563  -1.490   7.522 -0.0198 -0.8385  0.2471
  116ccc    H38 5667   2.381  -1.354   7.408 -1.7969  2.0857  1.6902
  116ccc    H39 5668   2.430  -1.655   7.677  0.8245 -0.5751 -0.6670
  116ccc     O5 5669   2.543  -1.681   7.845 -0.2359  0.5049 -0.0722
  116ccc    H40 5670   2.624  -1.651   7.890 -0.3091  0.5051  0.0608
  116ccc     N4 5671   2.359  -1.241   7.738  0.1192 -0.2192  0.4230
  116ccc    H41 5672   2.075  -0.942   7.726 -0.2261  0.4007  0.5906
  117ccc     N1 5673   2.239  -0.617   6.711 -0.7034  0.5580  0.0846
  117ccc     H4 5674   2.217  -0.549   6.639  0.4723  1.4656  0.5394
  117ccc     C3 5675   2.199  -0.756   6.688  0.3408  0.5856 -0.3291
  117ccc     H5 5676   2.284  -0.826   6.686 -0.7382 -0.8551  1.6449
  117ccc     C4 5677   2.099  -0.787   6.575 -0.6231  0.5716 -0.0178
  117ccc     H6 5678   2.142  -0.790   6.775 -1.4210  0.0312 -1.6439
  117ccc     H7 5679   2.060  -0.886   6.600 -0.3849  0.4392 -0.1647
  117ccc     H8 5680   2.160  -0.809   6.486 -3.2569  0.1065 -1.8321
  117ccc     N2 5681   1.995  -0.685   6.529  0.1766  0.6593 -0.0296
  117ccc     C5 5682   1.922  -0.628   6.644 -1.0170 -0.3179 -0.4581
  117ccc     C6 5683   1.900  -0.738   6.418 -0.3764  0.5761 -0.9510
  117ccc     H9 5684   1.829  -0.812   6.459 -0.2211  0.0436 -1.6377
  117ccc     C7 5685   1.954  -0.803   6.291  0.0233 -0.9425 -0.2991
  117ccc    H10 5686   1.831  -0.655   6.399 -1.0090  1.1542  2.8838
  117ccc    H11 5687   2.008  -0.890   6.331  1.0734 -0.0120  0.3378
  117ccc    H12 5688   2.024  -0.727   6.254 -0.6369  0.1493  0.6480
  117ccc     C8 5689   1.842  -0.831   6.168  0.3262  0.0892 -0.8968
  117ccc     O2 5690   1.804  -0.708   6.179  0.2966  0.0654  0.2654
  117ccc    H13 5691   1.868  -0.544   6.598  0.1422  0.8935  0.2883
  117ccc    H14 5692   2.004  -0.582   6.702  1.2616 -2.3469 -1.8724
  117ccc     C9 5693   1.835  -0.724   6.732  0.0980  0.0465  0.5569
  117ccc    H15 5694   1.825  -0.678   6.831 -2.1794  1.1455 -0.1211
  117ccc    H16 5695   1.893  -0.816   6.743 -0.9622 -0.6594  0.3345
  117ccc    C10 5696   1.698  -0.734   6.684  0.3698 -0.3550  0.5265
  117ccc     O4 5697   1.636  -0.642   6.625  0.0386 -0.2964 -0.1264
  117ccc    C11 5698   1.772  -1.380   5.880  0.5049  0.3412  0.2133
  117ccc    C12 5699   1.692  -1.271   5.812  0.2572  0.2137  0.0929
  117ccc    H17 5700   1.727  -1.415   5.973 -0.5639  0.5738 -0.2013
  117ccc    C13 5701   1.691  -1.140   5.894 -0.3679 -0.0915 -0.0574
  117ccc    C14 5702   1.829  -1.094   5.949 -0.4740 -0.7170  0.5878
  117ccc    C15 5703   1.912  -1.220   5.998  0.7607  0.5813  1.4417
  117ccc    H18 5704   1.882  -1.056   5.861  0.3457  0.8201  1.7028
  117ccc    H19 5705   1.618  -1.147   5.976 -1.6943  1.0334 -1.0915
  117ccc    H20 5706   1.876  -1.259   6.094  1.3293 -0.2847  1.3238
  117ccc     O1 5707   2.053  -1.195   6.005  0.3218  0.3793  0.2957
  117ccc     O6 5708   1.637  -1.048   5.793  0.2868  0.1550  0.3374
  117ccc    C16 5709   1.790  -1.509   5.801  0.0534  0.1048  0.4314
  117ccc    H21 5710   1.587  -0.982   5.844 -2.2914 -1.5877  0.2784
  117ccc    H22 5711   1.706  -0.958   5.993 -0.8666 -1.2210  0.4356
  117ccc    H23 5712   1.856  -1.499   5.714  1.1793 -2.7038  0.8379
  117ccc    H24 5713   1.696  -1.554   5.767 -1.3287  2.5801  0.7330
  117ccc     O7 5714   1.858  -1.605   5.877 -0.7755  0.4044 -0.1866
  117ccc    H25 5715   1.835  -1.686   5.828  0.4823  1.3744 -2.5663
  117ccc     O8 5716   1.907  -1.327   5.901 -0.2596 -0.0819  0.5742
  117ccc    H26 5717   2.056  -1.108   6.048 -3.0170  0.4688  0.6175
  117ccc    H27 5718   1.738  -1.261   5.713  0.5855  0.4036  0.2647
  117ccc     O9 5719   1.563  -1.315   5.791 -0.2129  0.5261 -0.4020
  117ccc    H28 5720   1.509  -1.237   5.770  0.4373  1.8201  2.2455
  117ccc     N3 5721   1.791  -0.974   6.046 -0.2247  0.1174 -0.1461
  117ccc    C17 5722   1.287  -1.063   6.775  0.0557 -0.4472  0.7345
  117ccc    C18 5723   1.294  -0.911   6.825  0.0709 -0.0550 -0.7930
  117ccc    H29 5724   1.340  -1.139   6.834  1.3047  0.0298  0.2731
  117ccc    C19 5725   1.427  -0.844   6.818  0.2274 -0.1921  0.2561
  117ccc    C20 5726   1.500  -0.882   6.690 -0.3734  0.5142 -0.7394
  117ccc    C21 5727   1.481  -1.024   6.651 -0.7106 -0.1647 -0.2483
  117ccc    H30 5728   1.457  -0.823   6.609  0.1105  0.9350 -0.6937
  117ccc    H31 5729   1.491  -0.880   6.900 -0.0598  0.5692  0.8256
  117ccc    H32 5730   1.528  -1.096   6.720  1.7831  0.6449 -0.9924
  117ccc    O10 5731   1.526  -1.045   6.515  0.0733 -0.0404  0.2966
  117ccc    O11 5732   1.401  -0.701   6.821 -0.7326 -0.2651 -0.4221
  117ccc    C22 5733   1.135  -1.104   6.765 -0.1079 -0.6180 -0.1810
  117ccc    H33 5734   1.391  -0.672   6.913  0.4119  0.4672 -0.5115
  117ccc    H34 5735   1.696  -0.925   6.739 -2.0184 -1.0583  0.6081
  117ccc    H35 5736   1.087  -1.043   6.688 -0.3103  0.1514  0.5357
  117ccc    H36 5737   1.085  -1.074   6.858 -1.5607 -0.4943 -0.9641
  117ccc    O12 5738   1.125  -1.248   6.747  0.1964 -0.8248  0.1156
  117ccc    H37 5739   1.137  -1.268   6.652  0.6565 -2.6761  0.5343
  117ccc    O13 5740   1.339  -1.047   6.645 -0.2437 -0.0873  0.0244
  117ccc    H38 5741   1.493  -1.135   6.496  0.4986 -0.1241 -0.0826
  117ccc    H39 5742   1.236  -0.853   6.751 -0.3279 -0.9510 -1.2049
  117ccc     O5 5743   1.240  -0.906   6.961 -0.6160  0.4268 -0.6054
  117ccc    H40 5744   1.157  -0.856   6.972 -1.5605 -1.1752 -0.2101
  117ccc     N4 5745   1.646  -0.854   6.685  0.7389  0.4446 -0.1434
  117ccc    H41 5746   2.048  -0.611   6.481  1.4459  0.1349  0.5253
  118ccc     N1 5747   1.172   0.244   4.959  0.1610 -0.0913 -0.4751
  118ccc     H4 5748   1.254   0.185   4.950  0.4199  0.1620  0.1247
  118ccc     C3 5749   1.044   0.218   5.026 -0.3129  0.3946  0.2726
  118ccc     H5 5750   0.989   0.309   5.051 -0.8074  0.1241  0.1899
  118ccc     C4 5751   1.057   0.137   5.157  0.3878 -0.2439 -0.2462
  118ccc     H6 5752   0.981   0.160   4.957  1.7461 -1.2324 -0.3479
  118ccc     H7 5753   1.083   0.033   5.137  2.0959  0.0609  0.2546
  118ccc     H8 5754   0.960   0.133   5.208  1.0030  2.2355  1.3157
  118ccc     N2 5755   1.153   0.180   5.265 -0.0590 -0.1696 -0.1454
  118ccc     C5 5756   1.169   0.069   5.377  0.2875  0.5750  0.5174
  118ccc     C6 5757   1.112   0.317   5.326  0.2146  0.6776 -0.0975
  118ccc     H9 5758   1.076   0.372   5.238  0.1251 -2.7209 -2.3742
  118ccc     C7 5759   1.236   0.388   5.382  0.0550 -0.1669  0.3391
  118ccc    H10 5760   1.034   0.304   5.403  0.7311  0.4454  0.3936
  118ccc    H11 5761   1.299   0.318   5.438  2.6519  1.2038 -0.6591
  118ccc    H12 5762   1.220   0.475   5.446 -0.6034  0.5537 -0.7788
  118ccc     C8 5763   1.317   0.453   5.267  0.2445  0.4890  0.0969
  118ccc     O2 5764   1.271   0.462   5.153  0.4530 -0.2251 -0.0119
  118ccc    H13 5765   1.235   0.104   5.458 -2.1279  2.4496  1.8077
  118ccc    H14 5766   1.218  -0.021   5.338  0.0578  0.4467  0.5281
  118ccc     C9 5767   1.033   0.015   5.440  0.5597 -0.1899  0.4507
  118ccc    H15 5768   0.979  -0.035   5.359  0.0269  2.3804 -0.8764
  118ccc    H16 5769   0.968   0.094   5.481  0.4928 -1.0699  2.1678
  118ccc    C10 5770   1.059  -0.089   5.545 -0.3909 -0.4851  0.2356
  118ccc     O4 5771   1.155  -0.164   5.540  0.2586  0.0328 -0.0120
  118ccc    C11 5772   1.777   0.735   5.269 -0.5094 -0.0047 -0.0838
  118ccc    C12 5773   1.794   0.588   5.238  0.3556  0.0775  0.4595
  118ccc    H17 5774   1.775   0.745   5.378  4.0763 -0.3298  0.2452
  118ccc    C13 5775   1.675   0.499   5.277  0.0972 -0.0979 -0.5014
  118ccc    C14 5776   1.536   0.563   5.240  0.6341  0.0331  0.3207
  118ccc    C15 5777   1.538   0.715   5.272 -0.3077  0.3209 -0.5052
  118ccc    H18 5778   1.524   0.564   5.131  0.2061 -0.8037  0.3557
  118ccc    H19 5779   1.677   0.481   5.385 -1.1132 -0.2458 -0.4848
  118ccc    H20 5780   1.541   0.723   5.381  2.2697 -1.2966 -0.3593
  118ccc     O1 5781   1.424   0.781   5.214  0.0916 -0.1940 -0.4635
  118ccc     O6 5782   1.680   0.372   5.212 -0.1084  0.4043  0.6599
  118ccc    C16 5783   1.880   0.822   5.197 -0.8865 -0.0036  0.6603
  118ccc    H21 5784   1.681   0.390   5.116  1.1912 -1.8480  0.1858
  118ccc    H22 5785   1.445   0.487   5.416  0.1646  0.1921 -0.7458
  118ccc    H23 5786   1.870   0.801   5.090  0.2969 -0.2734  0.5810
  118ccc    H24 5787   1.984   0.797   5.223  0.1087  2.0258 -0.9975
  118ccc     O7 5788   1.862   0.958   5.233 -0.2020 -0.2028  0.2856
  118ccc    H25 5789   1.921   1.017   5.184 -1.4089  1.1087  0.3302
  118ccc     O8 5790   1.649   0.771   5.213  0.3276  0.5393 -0.1462
  118ccc    H26 5791   1.440   0.877   5.225 -0.0146 -0.3259  0.9116
  118ccc    H27 5792   1.813   0.574   5.131  0.1958 -0.5868  0.5123
  118ccc     O9 5793   1.917   0.541   5.292  0.6717 -0.3661 -0.6901
  118ccc    H28 5794   1.921   0.563   5.387 -4.0132 -1.2261 -0.0426
  118ccc     N3 5795   1.428   0.495   5.315  0.0488  0.9901 -0.6724
  118ccc    C17 5796   0.862   0.120   6.012 -0.1843  0.4462 -0.4413
  118ccc    C18 5797   0.987   0.165   5.943 -0.9076 -0.2048  0.2443
  118ccc    H29 5798   0.893   0.038   6.079 -0.6374 -0.3569 -1.1945
  118ccc    C19 5799   1.042   0.060   5.844 -0.2654 -0.2030 -0.7357
  118ccc    C20 5800   0.933   0.002   5.750  0.0221  0.4343  0.7022
  118ccc    C21 5801   0.806  -0.046   5.831  0.4714 -0.2877 -0.0298
  118ccc    H30 5802   0.890   0.088   5.697 -0.7885 -0.4426 -0.1104
  118ccc    H31 5803   1.087  -0.026   5.895 -0.5767 -0.0210 -0.1557
  118ccc    H32 5804   0.823  -0.130   5.900 -1.0962 -0.4875  0.1421
  118ccc    O10 5805   0.696  -0.060   5.743 -0.0586 -0.4427  0.2926
  118ccc    O11 5806   1.148   0.115   5.760  0.0454  0.2501 -0.6594
  118ccc    C22 5807   0.797   0.235   6.100  0.3100 -0.6490  0.7224
  118ccc    H33 5808   1.189   0.184   5.815  0.4409  0.0516 -0.7014
  118ccc    H34 5809   1.031  -0.172   5.720 -0.5084 -0.3936 -1.0877
  118ccc    H35 5810   0.784   0.318   6.030  1.3293  0.2964  1.6380
  118ccc    H36 5811   0.870   0.273   6.172  1.9175 -2.4227  0.1290
  118ccc    O12 5812   0.675   0.189   6.154  0.2095 -0.0638 -0.1585
  118ccc    H37 5813   0.645   0.266   6.205  0.7443  0.3317 -0.4296
  118ccc    O13 5814   0.772   0.070   5.905  0.3335 -0.4261  0.1826
  118ccc    H38 5815   0.727  -0.120   5.674 -1.1427 -2.8248  1.7494
  118ccc    H39 5816   0.959   0.254   5.885  2.3695 -0.4175 -1.9016
  118ccc     O5 5817   1.092   0.200   6.030  0.0895 -0.4468  0.0054
  118ccc    H40 5818   1.132   0.282   5.995  1.9963 -1.1689  0.3668
  118ccc     N4 5819   0.993  -0.098   5.662 -0.0247  0.8966  0.1890
  118ccc    H41 5820   1.243   0.192   5.217 -1.2836 -2.1021 -3.2997
  119ccc     N1 5821   1.641   0.642   4.324 -0.5989 -0.6091 -0.5943
  119ccc     H4 5822   1.643   0.552   4.276 -0.8767 -1.3474  0.7277
  119ccc     C3 5823   1.680   0.763   4.251  0.2350  0.4335  0.6224
  119ccc     H5 5824   1.600   0.838   4.245  0.3891  0.5310 -0.4454
  119ccc     C4 5825   1.726   0.740   4.107 -0.1163  0.1531 -0.6380
  119ccc     H6 5826   1.768   0.803   4.302 -0.0551  1.2494  0.4947
  119ccc     H7 5827   1.784   0.830   4.088  0.9419 -0.3942 -0.1030
  119ccc     H8 5828   1.635   0.736   4.045 -0.7283 -0.3597  0.2647
  119ccc     N2 5829   1.817   0.621   4.089  0.1004 -0.6886  0.0030
  119ccc     C5 5830   1.936   0.598   4.177  0.1269 -0.7335 -0.1824
  119ccc     C6 5831   1.854   0.601   3.942 -0.1620 -0.3718  0.7117
  119ccc     H9 5832   1.758   0.604   3.889  0.1414 -2.0640  0.0268
  119ccc     C7 5833   1.919   0.467   3.894 -0.4237 -0.1946 -0.3077
  119ccc    H10 5834   1.921   0.684   3.916 -1.2006 -0.3577 -2.2565
  119ccc    H11 5835   1.847   0.388   3.917 -0.7171 -0.4399 -1.9772
  119ccc    H12 5836   2.014   0.455   3.948 -1.1493  0.1970  1.1111
  119ccc     C8 5837   1.950   0.473   3.744  0.5789  0.3665 -0.4833
  119ccc     O2 5838   1.873   0.426   3.660  0.0430  0.0609  0.1548
  119ccc    H13 5839   1.973   0.497   4.160 -0.4627 -1.2186  1.2944
  119ccc    H14 5840   1.891   0.589   4.276  0.4076 -1.3924 -0.1147
  119ccc     C9 5841   2.037   0.720   4.199 -1.0765 -0.3290 -0.3404
  119ccc    H15 5842   2.098   0.735   4.109 -1.1564 -0.0053 -0.3422
  119ccc    H16 5843   1.982   0.810   4.230 -0.7911 -0.9662  2.2635
  119ccc    C10 5844   2.123   0.709   4.324  0.8247 -0.2595 -0.5656
  119ccc     O4 5845   2.122   0.620   4.406 -0.2206 -0.5456  0.1003
  119ccc    C11 5846   1.968   0.760   3.355 -0.2334 -0.2214 -0.4447
  119ccc    C12 5847   1.997   0.847   3.487 -0.0538  0.6121  0.1442
  119ccc    H17 5848   1.862   0.733   3.354 -0.4866  0.6985 -0.1120
  119ccc    C13 5849   1.995   0.753   3.607 -0.2333  0.1837 -0.6567
  119ccc    C14 5850   2.078   0.621   3.584 -0.1835  0.5616 -0.3196
  119ccc    C15 5851   2.038   0.555   3.448 -0.1324  0.4987  0.4522
  119ccc    H18 5852   2.184   0.653   3.582  0.0996 -0.3721 -0.8780
  119ccc    H19 5853   1.888   0.734   3.622 -0.3105  0.5731 -0.6858
  119ccc    H20 5854   1.934   0.522   3.452 -1.0035  3.0315  0.8168
  119ccc     O1 5855   2.122   0.444   3.416 -0.2159 -0.4751 -0.3654
  119ccc     O6 5856   2.044   0.819   3.718  0.2168  0.0970  0.2189
  119ccc    C16 5857   1.999   0.832   3.227 -0.4441  0.6526 -0.4796
  119ccc    H21 5858   1.984   0.892   3.738 -0.0449  0.1406 -0.7092
  119ccc    H22 5859   2.132   0.557   3.775 -0.2552 -0.9423 -0.2573
  119ccc    H23 5860   1.916   0.903   3.229 -0.8315  0.2005 -0.1001
  119ccc    H24 5861   2.002   0.765   3.140  0.8528 -0.9472  0.7250
  119ccc     O7 5862   2.126   0.899   3.228  0.4381 -0.6869 -0.2361
  119ccc    H25 5863   2.198   0.835   3.215  1.6155  0.2058  1.5165
  119ccc     O8 5864   2.049   0.640   3.342  0.3285 -0.2913 -0.6033
  119ccc    H26 5865   2.205   0.484   3.385 -0.0257  0.4236  1.1721
  119ccc    H27 5866   2.096   0.894   3.477  0.3807 -0.2703  0.2324
  119ccc     O9 5867   1.898   0.944   3.510 -0.0700 -0.0867 -0.4652
  119ccc    H28 5868   1.931   1.035   3.519 -1.6115  0.3892  1.1276
  119ccc     N3 5869   2.065   0.527   3.704  0.1768 -0.8445 -0.7068
  119ccc    C17 5870   2.168   1.221   4.443 -0.2175  0.0487  0.7367
  119ccc    C18 5871   2.255   1.185   4.319  0.2540 -1.2338  0.8588
  119ccc    H29 5872   2.219   1.188   4.534 -0.6558 -2.9528 -0.0046
  119ccc    C19 5873   2.301   1.043   4.317 -0.0344 -0.2895  0.2566
  119ccc    C20 5874   2.171   0.953   4.330 -0.0046 -0.1341  0.0891
  119ccc    C21 5875   2.069   1.005   4.440  0.0537  0.9392  0.2658
  119ccc    H30 5876   2.134   0.978   4.230 -0.0065 -0.7540 -0.0673
  119ccc    H31 5877   2.357   1.015   4.408  0.6731 -2.2387 -0.7164
  119ccc    H32 5878   2.108   0.976   4.538 -0.7223 -3.7079 -0.5630
  119ccc    O10 5879   1.945   0.939   4.429 -0.2753  0.2940  0.0790
  119ccc    O11 5880   2.381   1.011   4.201  0.4187  0.0467  0.5826
  119ccc    C22 5881   2.125   1.365   4.454  0.0116 -0.2145 -0.6350
  119ccc    H33 5882   2.373   0.916   4.182 -1.9164 -0.1516  2.1456
  119ccc    H34 5883   2.247   0.804   4.437 -0.1979  1.1149 -0.1658
  119ccc    H35 5884   2.207   1.425   4.496 -0.4165  1.6970 -2.3680
  119ccc    H36 5885   2.039   1.369   4.522  1.1578  0.6527  0.8583
  119ccc    O12 5886   2.083   1.420   4.335  0.1802  0.0549  0.1495
  119ccc    H37 5887   2.167   1.461   4.310  1.1346 -0.4132  2.3576
  119ccc    O13 5888   2.052   1.145   4.433 -0.4413 -0.0589  0.5979
  119ccc    H38 5889   1.910   0.969   4.515  1.9825  2.3612  0.3924
  119ccc    H39 5890   2.199   1.192   4.225  1.5377 -0.5694  0.1150
  119ccc     O5 5891   2.367   1.275   4.305 -0.4915  0.0032  0.5533
  119ccc    H40 5892   2.351   1.370   4.287  2.5091  0.4685 -0.2180
  119ccc     N4 5893   2.207   0.811   4.344 -0.2901  0.5807 -0.1667
  119ccc    H41 5894   1.759   0.540   4.115 -0.7720 -0.2957 -0.6583
  120ccc     N1 5895   1.230   1.498   4.598 -0.2047 -0.0728 -0.1377
  120ccc     H4 5896   1.236   1.554   4.513  0.3374  1.1563  0.6844
  120ccc     C3 5897   1.294   1.370   4.611 -0.0064 -0.5033 -0.2577
  120ccc     H5 5898   1.368   1.377   4.692 -0.7930  1.0452  0.3745
  120ccc     C4 5899   1.361   1.324   4.479 -0.8893 -0.3041  1.0767
  120ccc     H6 5900   1.216   1.300   4.645  0.0274  0.3210  1.6671
  120ccc     H7 5901   1.402   1.412   4.428  0.3411 -1.1339  0.5879
  120ccc     H8 5902   1.291   1.282   4.406  0.3126 -0.0724 -0.2572
  120ccc     N2 5903   1.480   1.225   4.497  0.3910  0.3730  0.4291
  120ccc     C5 5904   1.546   1.203   4.360  0.7474 -0.9945 -0.0865
  120ccc     C6 5905   1.434   1.095   4.564  0.0677 -0.5169  0.1193
  120ccc     H9 5906   1.532   1.052   4.590  0.4034  0.5306  0.6606
  120ccc     C7 5907   1.352   0.998   4.471  1.0729 -0.2884 -0.3299
  120ccc    H10 5908   1.385   1.115   4.660  2.7072 -1.7924  1.8839
  120ccc    H11 5909   1.421   0.950   4.401 -1.3855 -1.8435 -1.8347
  120ccc    H12 5910   1.285   1.052   4.403  0.3758  0.3453  0.8411
  120ccc     C8 5911   1.285   0.889   4.551 -0.2891 -0.1065  0.0629
  120ccc     O2 5912   1.293   0.865   4.666  0.0883  0.2019  0.0822
  120ccc    H13 5913   1.561   1.306   4.327 -1.0998 -0.0040  1.9119
  120ccc    H14 5914   1.475   1.160   4.288  0.7112 -0.8178 -0.1565
  120ccc     C9 5915   1.675   1.127   4.357 -0.6883  0.3736 -0.3350
  120ccc    H15 5916   1.661   1.026   4.397 -0.2391 -0.2378 -1.6711
  120ccc    H16 5917   1.742   1.182   4.425 -0.4504 -0.5506  0.2013
  120ccc    C10 5918   1.733   1.101   4.220 -0.1879  0.2681  0.0229
  120ccc     O4 5919   1.674   1.061   4.123  0.6323  0.4659 -0.3643
  120ccc    C11 5920   0.898   0.517   4.561 -0.9058 -0.4952  0.2484
  120ccc    C12 5921   1.033   0.474   4.492 -0.2033 -0.0131 -0.6380
  120ccc    H17 5922   0.834   0.546   4.477 -0.0250 -2.1491 -1.0566
  120ccc    C13 5923   1.119   0.589   4.435  0.4452 -0.0539 -0.9498
  120ccc    C14 5924   1.129   0.702   4.537  0.2845 -0.2064  0.0986
  120ccc    C15 5925   0.982   0.748   4.579 -0.2569 -0.3025  0.0463
  120ccc    H18 5926   1.170   0.665   4.631 -0.4964 -0.0633  0.5119
  120ccc    H19 5927   1.076   0.634   4.345 -0.4018  0.2740 -0.3907
  120ccc    H20 5928   0.917   0.775   4.495  0.0916  0.9969  0.1757
  120ccc     O1 5929   0.983   0.844   4.676 -0.5119  0.5190 -0.2737
  120ccc     O6 5930   1.249   0.537   4.405  0.2430  0.1945 -0.5972
  120ccc    C16 5931   0.832   0.406   4.640  0.1263 -0.0503  0.1059
  120ccc    H21 5932   1.236   0.471   4.334  0.3682 -0.8092  0.2904
  120ccc    H22 5933   1.184   0.834   4.381 -1.5109  1.3812  0.7599
  120ccc    H23 5934   0.883   0.380   4.734 -0.2990  1.4757  0.7863
  120ccc    H24 5935   0.828   0.314   4.580  0.6081 -0.9430  1.3983
  120ccc     O7 5936   0.710   0.438   4.684 -0.0733 -0.5166  0.3976
  120ccc    H25 5937   0.706   0.533   4.665  1.9451 -0.5409 -0.3800
  120ccc     O8 5938   0.923   0.635   4.644 -0.6845  0.3987  0.3334
  120ccc    H26 5939   1.031   0.801   4.748 -0.6718  0.5206 -0.1659
  120ccc    H27 5940   1.090   0.426   4.571 -0.6158 -0.1030 -0.3901
  120ccc     O9 5941   1.008   0.380   4.383  0.1385 -0.2038 -0.1889
  120ccc    H28 5942   1.067   0.305   4.403  1.1577  0.6750  0.1972
  120ccc     N3 5943   1.211   0.810   4.476 -0.5288 -0.0786  0.1402
  120ccc    C17 5944   1.944   1.221   3.786 -0.6392 -0.4416  0.1372
  120ccc    C18 5945   1.926   1.339   3.882  0.1943  0.1021  0.3596
  120ccc    H29 5946   1.841   1.193   3.761 -0.9457 -1.2949  2.2057
  120ccc    C19 5947   1.863   1.293   4.012 -0.0051 -0.2987 -0.0235
  120ccc    C20 5948   1.925   1.162   4.073  0.2412  0.1249 -0.3442
  120ccc    C21 5949   1.920   1.060   3.963  0.6020  0.9351 -0.7274
  120ccc    H30 5950   2.031   1.179   4.091  0.4732 -0.3879 -1.1507
  120ccc    H31 5951   1.755   1.288   3.995  0.4262 -2.6292 -2.6457
  120ccc    H32 5952   1.821   1.025   3.934  0.9560 -0.2480 -0.5461
  120ccc    O10 5953   1.992   0.946   4.004  0.2219 -0.2937  0.2941
  120ccc    O11 5954   1.880   1.392   4.108 -0.1674 -0.1891 -0.0471
  120ccc    C22 5955   2.033   1.263   3.665  0.2252 -0.1877 -0.0049
  120ccc    H33 5956   1.973   1.418   4.094 -0.0038 -1.7657 -2.5143
  120ccc    H34 5957   1.901   1.183   4.281 -1.0025 -0.7328  0.1797
  120ccc    H35 5958   2.123   1.315   3.700  0.8234 -0.1267 -1.5731
  120ccc    H36 5959   1.980   1.345   3.614  3.5742  0.8289 -2.2298
  120ccc    O12 5960   2.036   1.172   3.560  0.7056  0.2446 -0.9168
  120ccc    H37 5961   2.110   1.192   3.500  0.9948  0.8578 -0.3650
  120ccc    O13 5962   1.996   1.107   3.851 -0.1926 -0.2362  0.2023
  120ccc    H38 5963   2.082   0.969   3.974 -0.5709  1.5329 -0.8475
  120ccc    H39 5964   2.026   1.381   3.898 -0.7828  2.1607  1.3167
  120ccc     O5 5965   1.845   1.442   3.821 -0.4609 -0.1481  0.1515
  120ccc    H40 5966   1.791   1.496   3.881 -1.3147  0.0053 -0.7265
  120ccc     N4 5967   1.857   1.131   4.205 -0.6646 -0.3809 -0.2560
  120ccc    H41 5968   1.542   1.280   4.559 -0.2259  2.5878 -0.8067
  121ccc     N1 5969   0.838   1.487   5.196 -0.3465  0.3365 -0.7824
  121ccc     H4 5970   0.762   1.538   5.239 -0.0000  1.6705 -1.6820
  121ccc     C3 5971   0.869   1.358   5.254  0.5034 -0.6519 -0.1758
  121ccc     H5 5972   0.776   1.339   5.310  0.0190  1.9723  0.0327
  121ccc     C4 5973   0.980   1.362   5.357 -0.1855 -0.4109  0.1025
  121ccc     H6 5974   0.885   1.279   5.180  0.1085 -2.2036  1.3141
  121ccc     H7 5975   0.966   1.429   5.443  1.6634  0.8972 -0.5487
  121ccc     H8 5976   1.066   1.393   5.297 -1.3196 -1.1481 -1.9944
  121ccc     N2 5977   1.007   1.225   5.410 -0.6052  0.7124 -0.5845
  121ccc     C5 5978   0.921   1.189   5.532  0.1229  0.1380 -0.5399
  121ccc     C6 5979   1.154   1.227   5.443 -0.3156 -0.4191  1.1695
  121ccc     H9 5980   1.200   1.245   5.344 -2.1644  1.9159  0.6362
  121ccc     C7 5981   1.209   1.088   5.493  0.2390 -0.4514 -0.3827
  121ccc    H10 5982   1.175   1.314   5.506 -1.1304 -0.4019  1.4271
  121ccc    H11 5983   1.152   0.999   5.463 -0.3473  0.0251 -0.6898
  121ccc    H12 5984   1.209   1.088   5.603  0.1934  0.2140 -0.3785
  121ccc     C8 5985   1.349   1.065   5.437 -0.1157  0.2009  0.7144
  121ccc     O2 5986   1.376   1.046   5.318  0.0677  0.6519  0.0589
  121ccc    H13 5987   0.910   1.274   5.600 -0.4390 -1.3171  1.3094
  121ccc    H14 5988   0.963   1.107   5.593 -1.4035 -2.2975 -2.5537
  121ccc     C9 5989   0.769   1.145   5.501 -0.0640  0.5153  0.5211
  121ccc    H15 5990   0.763   1.117   5.395 -0.2010 -0.8998  0.8794
  121ccc    H16 5991   0.693   1.222   5.519 -1.3785 -0.0905 -2.0549
  121ccc    C10 5992   0.732   1.021   5.586  0.1943  0.4592  0.3567
  121ccc     O4 5993   0.782   0.913   5.573 -0.0519 -0.1985  0.3149
  121ccc    C11 5994   1.857   1.131   5.615  0.0834 -0.2950 -0.3719
  121ccc    C12 5995   1.817   0.985   5.578 -0.2902 -0.5893  0.7957
  121ccc    H17 5996   1.837   1.137   5.722 -0.7307 -0.8759 -0.4799
  121ccc    C13 5997   1.663   0.966   5.592  0.3311  0.1626 -0.2965
  121ccc    C14 5998   1.591   1.061   5.495  0.4860  0.5048 -0.3052
  121ccc    C15 5999   1.638   1.206   5.523 -0.2781  0.0341  0.1827
  121ccc    H18 6000   1.622   1.033   5.394  2.7463  0.4231  0.3608
  121ccc    H19 6001   1.646   0.996   5.696 -0.8944 -0.2220 -0.3733
  121ccc    H20 6002   1.601   1.220   5.624 -1.2786  0.0638 -0.1821
  121ccc     O1 6003   1.585   1.304   5.435 -0.1257  0.5459 -0.4634
  121ccc     O6 6004   1.635   0.829   5.589  0.1760 -0.1288  0.6119
  121ccc    C16 6005   2.011   1.152   5.602  0.5625 -0.0730  0.2019
  121ccc    H21 6006   1.702   0.782   5.641 -0.2001 -0.6244  0.6495
  121ccc    H22 6007   1.423   1.074   5.627 -1.4491 -3.3589  0.1694
  121ccc    H23 6008   2.024   1.167   5.495  0.6375  0.0983  0.2343
  121ccc    H24 6009   2.069   1.062   5.625  0.4783 -0.2471 -0.2752
  121ccc     O7 6010   2.061   1.265   5.678 -0.0698 -0.6568 -0.3718
  121ccc    H25 6011   2.149   1.280   5.640  0.4484  0.3048  1.1553
  121ccc     O8 6012   1.778   1.221   5.533 -0.6144 -0.0054 -0.5963
  121ccc    H26 6013   1.567   1.377   5.496 -0.5845  0.6242 -0.6877
  121ccc    H27 6014   1.849   0.965   5.475 -0.7695 -2.9571  1.0486
  121ccc     O9 6015   1.885   0.900   5.664  0.0573 -0.3532 -0.0285
  121ccc    H28 6016   1.859   0.937   5.751  1.9713  0.4053  0.2671
  121ccc     N3 6017   1.445   1.065   5.528  0.5208  0.1960  0.1088
  121ccc    C17 6018   0.593   0.643   5.835  0.8938  0.3198 -0.0466
  121ccc    C18 6019   0.655   0.741   5.936 -0.0937  0.3529 -0.0350
  121ccc    H29 6020   0.670   0.617   5.761  0.8840 -0.5745  0.2455
  121ccc    C19 6021   0.700   0.868   5.867 -0.8358  0.0817 -0.8532
  121ccc    C20 6022   0.590   0.931   5.772 -0.2422  0.3005 -0.3548
  121ccc    C21 6023   0.510   0.823   5.690 -0.1658 -0.2419  0.5832
  121ccc    H30 6024   0.508   0.967   5.836 -1.0786  0.7718 -1.6670
  121ccc    H31 6025   0.790   0.846   5.809  0.5768 -1.5462  1.7284
  121ccc    H32 6026   0.566   0.794   5.600  1.1877  0.3114  1.2258
  121ccc    O10 6027   0.379   0.876   5.642  0.7167  0.1765 -0.4135
  121ccc    O11 6028   0.742   0.967   5.958  0.0251 -0.0868 -0.5576
  121ccc    C22 6029   0.541   0.517   5.912 -0.0232 -0.4218  0.5159
  121ccc    H33 6030   0.818   1.008   5.913 -1.5713  3.8167 -0.0975
  121ccc    H34 6031   0.605   1.133   5.699  1.4661  0.1723 -1.6383
  121ccc    H35 6032   0.489   0.548   6.004  0.2660 -1.1368  0.9283
  121ccc    H36 6033   0.626   0.456   5.943 -0.4916 -2.2679 -1.6181
  121ccc    O12 6034   0.459   0.444   5.826  0.1982 -0.3293  0.2424
  121ccc    H37 6035   0.477   0.487   5.740 -0.1873 -0.0659  0.2932
  121ccc    O13 6036   0.481   0.707   5.768 -0.4819  0.1478  0.0770
  121ccc    H38 6037   0.310   0.817   5.678  0.3966 -0.7085 -2.3496
  121ccc    H39 6038   0.572   0.768   6.002 -1.9017 -1.5508 -1.4240
  121ccc     O5 6039   0.764   0.683   6.011 -0.0165  0.4662 -0.1823
  121ccc    H40 6040   0.798   0.750   6.073 -1.6065  1.0626  0.1119
  121ccc     N4 6041   0.643   1.039   5.683  0.0775 -0.4657 -1.3126
  121ccc    H41 6042   0.989   1.156   5.335 -0.8420  1.0346 -0.8211
  122ccc     N1 6043   1.789   2.996   6.177 -0.4353  0.5617  0.0878
  122ccc     H4 6044   1.721   2.980   6.103 -0.8893 -0.3658  0.6802
  122ccc     C3 6045   1.815   3.139   6.202  0.1328  0.3412  0.0728
  122ccc     H5 6046   1.768   3.201   6.125  0.9275 -0.3386 -0.9792
  122ccc     C4 6047   1.966   3.173   6.216 -0.1574  0.2449 -0.2690
  122ccc     H6 6048   1.760   3.162   6.295 -0.5248  0.1896 -0.2714
  122ccc     H7 6049   1.976   3.282   6.222  1.5596  0.1292 -0.5749
  122ccc     H8 6050   2.017   3.133   6.127 -1.3783 -1.4223 -0.2691
  122ccc     N2 6051   2.039   3.116   6.340  0.2450  0.1273 -0.6402
  122ccc     C5 6052   2.018   3.218   6.458 -0.0430  0.1170  0.7293
  122ccc     C6 6053   2.190   3.106   6.321  0.5425  0.5412 -0.3118
  122ccc     H9 6054   2.231   3.190   6.264  0.7853  1.4668  1.1738
  122ccc     C7 6055   2.232   2.976   6.256 -0.4736  0.1533  0.1148
  122ccc    H10 6056   2.239   3.123   6.418 -0.1751  1.0317 -0.0332
  122ccc    H11 6057   2.341   2.972   6.245 -0.5205 -2.2283 -0.0516
  122ccc    H12 6058   2.187   2.966   6.157  0.7845 -0.7174 -0.3905
  122ccc     C8 6059   2.204   2.850   6.340 -0.2923  0.0723 -0.9349
  122ccc     O2 6060   2.156   2.860   6.456 -0.5380 -0.2935  0.2648
  122ccc    H13 6061   1.912   3.248   6.460 -0.6235 -1.8384  2.7401
  122ccc    H14 6062   2.076   3.309   6.442 -1.4317  1.0356  0.6848
  122ccc     C9 6063   2.042   3.163   6.602 -0.4067 -0.0496 -0.8020
  122ccc    H15 6064   2.044   3.239   6.682 -1.2425  0.6298 -1.3983
  122ccc    H16 6065   2.145   3.127   6.614 -0.0063  1.3080  0.1526
  122ccc    C10 6066   1.940   3.058   6.650 -0.3831  0.2161  0.3963
  122ccc     O4 6067   1.822   3.061   6.618  0.6489 -0.0347 -0.2261
  122ccc    C11 6068   2.519   2.309   6.382  0.3458 -0.1173  0.1821
  122ccc    C12 6069   2.527   2.473   6.515  0.3470  0.0078 -0.4964
  122ccc    H17 6070   2.608   2.312   6.318  0.5244 -2.4227  0.2261
  122ccc    C13 6071   2.388   2.618   6.503 -0.5607 -0.0499 -1.0066
  122ccc    C14 6072   2.229   2.601   6.375 -0.5225 -0.2601  0.0285
  122ccc    C15 6073   2.228   2.442   6.251  0.0888  0.1445  0.1575
  122ccc    H18 6074   2.139   2.592   6.437 -0.6562 -0.4842 -0.1950
  122ccc    H19 6075   2.446   2.694   6.450 -0.7110  0.4458 -0.4764
  122ccc    H20 6076   2.237   2.481   6.149  0.7085  0.9926  0.5285
  122ccc     O1 6077   2.108   2.372   6.251 -0.3496  0.4638 -0.7419
  122ccc     O6 6078   2.363   2.684   6.629  0.5459  0.0689 -0.0924
  122ccc    C16 6079   2.541   2.172   6.445  0.3575  1.0129 -0.4142
  122ccc    H21 6080   2.354   2.781   6.617  2.9294  0.8330  3.0070
  122ccc    H22 6081   2.302   2.730   6.219  1.5162  1.3119  2.4786
  122ccc    H23 6082   2.473   2.164   6.530  4.0323  1.0987  2.8517
  122ccc    H24 6083   2.640   2.158   6.491  0.8174 -0.1746 -1.6780
  122ccc     O7 6084   2.514   2.061   6.359 -0.1626  0.6446 -0.3930
  122ccc    H25 6085   2.539   1.985   6.414  0.7220  0.1891 -1.3826
  122ccc     O8 6086   2.368   2.303   6.265 -0.0231 -0.4311  0.6513
  122ccc    H26 6087   2.124   2.298   6.313 -1.4293 -0.5794 -1.6561
  122ccc    H27 6088   2.521   2.439   6.620 -2.2293  0.3524 -0.4508
  122ccc     O9 6089   2.651   2.533   6.494 -0.2033 -0.4100  0.2903
  122ccc    H28 6090   2.644   2.580   6.409 -0.2410 -0.6824  0.1408
  122ccc     N3 6091   2.227   2.727   6.288 -0.6088  0.5455  0.2937
  122ccc    C17 6092   1.709   2.686   6.871  0.1931 -0.3528  0.8498
  122ccc    C18 6093   1.775   2.627   6.742  0.3380 -0.9913 -0.5092
  122ccc    H29 6094   1.623   2.749   6.842 -0.8460 -2.5428 -1.1610
  122ccc    C19 6095   1.846   2.747   6.672  0.0363 -0.8010  0.2738
  122ccc    C20 6096   1.924   2.835   6.773 -0.4347 -0.4153 -0.1414
  122ccc    C21 6097   1.841   2.881   6.890 -0.3130 -0.9319  0.1694
  122ccc    H30 6098   1.995   2.760   6.811 -1.4416 -0.8142  1.0295
  122ccc    H31 6099   1.765   2.799   6.619  0.4317 -1.4434 -0.9989
  122ccc    H32 6100   1.758   2.947   6.862  1.1023  0.3031 -1.3810
  122ccc    O10 6101   1.922   2.933   6.995 -0.4658 -0.2351  0.2473
  122ccc    O11 6102   1.926   2.685   6.571  0.3668 -0.3322  0.3007
  122ccc    C22 6103   1.661   2.577   6.971  0.1885 -1.0559  0.1059
  122ccc    H33 6104   1.946   2.761   6.515 -1.3744 -1.9538 -2.7981
  122ccc    H34 6105   2.099   2.956   6.714 -0.0646  0.5579 -0.5542
  122ccc    H35 6106   1.579   2.523   6.924 -0.3212  0.8016 -1.2241
  122ccc    H36 6107   1.619   2.623   7.061 -1.8072 -0.0964 -1.2610
  122ccc    O12 6108   1.771   2.486   7.000  0.1692 -0.1882  0.3262
  122ccc    H37 6109   1.847   2.541   7.028 -0.2907  1.4710 -1.5237
  122ccc    O13 6110   1.795   2.766   6.949 -0.5947 -0.0623  0.2778
  122ccc    H38 6111   1.939   3.027   6.978  0.7396 -0.4887 -0.0871
  122ccc    H39 6112   1.848   2.553   6.776 -1.3034 -2.0649  0.8613
  122ccc     O5 6113   1.678   2.561   6.662 -0.4561  0.1869  0.4638
  122ccc    H40 6114   1.661   2.615   6.583 -3.7012 -2.9534 -1.2437
  122ccc     N4 6115   1.997   2.951   6.712 -0.0667  0.1651  0.0479
  122ccc    H41 6116   2.003   3.023   6.365  2.0896 -0.4167  0.2333
  123ccc     N1 6117   1.920   2.734   5.842 -0.1143 -0.3118 -0.2510
  123ccc     H4 6118   1.871   2.657   5.797 -2.3473  0.4291  0.7582
  123ccc     C3 6119   1.876   2.868   5.790  0.1371 -0.0971  0.4268
  123ccc     H5 6120   1.817   2.926   5.862  0.8817  1.1467  0.0631
  123ccc     C4 6121   1.822   2.859   5.650 -0.5223  0.2608  0.4038
  123ccc     H6 6122   1.969   2.925   5.784  0.4292 -0.4172  1.7761
  123ccc     H7 6123   1.789   2.960   5.624  0.9777  0.7682  0.3779
  123ccc     H8 6124   1.735   2.793   5.656 -0.6525  0.4758  1.0009
  123ccc     N2 6125   1.912   2.791   5.545 -0.1261 -0.1936 -0.4957
  123ccc     C5 6126   2.002   2.897   5.477 -0.0630 -0.1534 -0.3072
  123ccc     C6 6127   1.829   2.718   5.439 -0.4728 -0.7432  0.0482
  123ccc     H9 6128   1.901   2.654   5.387  0.5467 -0.4439  1.0447
  123ccc     C7 6129   1.730   2.790   5.342 -0.4830 -0.8218 -0.4271
  123ccc    H10 6130   1.769   2.642   5.491  1.2273 -1.9039  0.4176
  123ccc    H11 6131   1.795   2.846   5.275 -1.6997  0.6004 -0.4635
  123ccc    H12 6132   1.677   2.869   5.396  2.9670  0.7930  0.8434
  123ccc     C8 6133   1.639   2.697   5.264 -0.2163  0.0521  0.1017
  123ccc     O2 6134   1.570   2.608   5.312 -0.8028  0.3639 -0.1392
  123ccc    H13 6135   2.044   2.953   5.562  2.3445 -3.0923  0.6398
  123ccc    H14 6136   1.940   2.967   5.420  2.2692  2.1621 -0.1936
  123ccc     C9 6137   2.119   2.828   5.404  0.0910  0.4886  0.1197
  123ccc    H15 6138   2.076   2.796   5.308 -3.0312  0.2878  1.4620
  123ccc    H16 6139   2.168   2.747   5.460  1.1290 -0.5770 -2.1742
  123ccc    C10 6140   2.233   2.931   5.379  0.2867 -0.3148 -0.0955
  123ccc     O4 6141   2.253   2.985   5.276 -0.1210  0.5505  0.0631
  123ccc    C11 6142   1.430   2.619   4.775  0.5505 -0.2397  0.8299
  123ccc    C12 6143   1.570   2.552   4.788  0.2518 -0.2056  0.6062
  123ccc    H17 6144   1.445   2.716   4.726  2.2712 -1.3099 -0.8867
  123ccc    C13 6145   1.654   2.612   4.903 -0.2585  0.6690  0.2481
  123ccc    C14 6146   1.576   2.640   5.031 -0.3363 -0.5875  0.0889
  123ccc    C15 6147   1.445   2.718   5.001 -0.1268  0.0554  0.4150
  123ccc    H18 6148   1.548   2.541   5.069  0.2585 -1.9065 -2.6633
  123ccc    H19 6149   1.691   2.705   4.858 -1.7060  0.4781 -1.4361
  123ccc    H20 6150   1.459   2.824   4.978  1.7349 -0.5948 -1.8745
  123ccc     O1 6151   1.362   2.714   5.119 -0.1989  0.3348  0.9909
  123ccc     O6 6152   1.765   2.526   4.936 -0.0919  1.1806  0.3309
  123ccc    C16 6153   1.340   2.531   4.685  0.6431 -0.0390 -0.0188
  123ccc    H21 6154   1.783   2.538   5.031 -1.6655  2.8854  0.4890
  123ccc    H22 6155   1.711   2.789   5.106 -0.4654  1.1424  0.9811
  123ccc    H23 6156   1.341   2.425   4.713  3.6918  0.4784  2.3810
  123ccc    H24 6157   1.362   2.528   4.578 -1.4418  0.7021 -0.5197
  123ccc     O7 6158   1.205   2.589   4.695  0.1422  0.2334  0.4481
  123ccc    H25 6159   1.155   2.538   4.629  0.4999 -0.4205  0.6671
  123ccc     O8 6160   1.367   2.644   4.904 -0.5434  0.3752  0.3594
  123ccc    H26 6161   1.274   2.741   5.089  0.5503  2.6164  0.6731
  123ccc    H27 6162   1.556   2.444   4.805  0.2766 -0.7851 -2.4058
  123ccc     O9 6163   1.651   2.565   4.668  0.1282 -0.6912  0.1658
  123ccc    H28 6164   1.619   2.499   4.604  0.6358  0.5030 -1.3677
  123ccc     N3 6165   1.660   2.705   5.134  0.9946 -0.2157 -0.2779
  123ccc    C17 6166   2.465   2.914   5.877 -0.0555  0.1721  0.3688
  123ccc    C18 6167   2.332   2.992   5.863 -0.1255 -0.2036 -0.7886
  123ccc    H29 6168   2.545   2.986   5.857 -1.5128  2.3129  1.7627
  123ccc    C19 6169   2.307   3.044   5.723 -0.1448  0.2467  0.2757
  123ccc    C20 6170   2.309   2.927   5.625 -0.1731  0.1679  0.3069
  123ccc    C21 6171   2.444   2.838   5.650  0.5309 -0.3936  0.0599
  123ccc    H30 6172   2.222   2.863   5.641 -1.3214  1.5629 -0.1997
  123ccc    H31 6173   2.399   3.097   5.693  1.7677 -2.2922  1.2278
  123ccc    H32 6174   2.532   2.890   5.611  0.2862 -0.3819 -0.4925
  123ccc    O10 6175   2.424   2.712   5.587  0.1125  0.3807 -0.1099
  123ccc    O11 6176   2.184   3.113   5.709  0.1318 -0.4888  0.2719
  123ccc    C22 6177   2.479   2.848   6.017 -0.0830 -0.3515 -0.2460
  123ccc    H33 6178   2.180   3.172   5.632  0.4202 -1.2802 -0.3739
  123ccc    H34 6179   2.368   3.057   5.462  1.0731 -0.7028  0.0425
  123ccc    H35 6180   2.467   2.927   6.093 -0.2615  1.1484 -1.7899
  123ccc    H36 6181   2.586   2.826   6.024  0.8149  2.8081 -2.1109
  123ccc    O12 6182   2.396   2.736   6.044 -0.0034  0.5500  0.3425
  123ccc    H37 6183   2.420   2.676   5.971  0.3943  0.2793  0.6937
  123ccc    O13 6184   2.454   2.798   5.791  0.1949 -0.0037 -0.6475
  123ccc    H38 6185   2.415   2.652   5.664 -0.1016  0.9238  0.2937
  123ccc    H39 6186   2.248   2.930   5.897 -1.7376  1.9486 -0.6439
  123ccc     O5 6187   2.346   3.107   5.953 -0.1455 -0.2440  0.5856
  123ccc    H40 6188   2.305   3.187   5.917  1.1937  0.7777  1.2255
  123ccc     N4 6189   2.307   2.977   5.482  0.1297 -0.0447 -0.1242
  123ccc    H41 6190   1.971   2.730   5.605 -0.8172 -1.2903 -0.8964
  124ccc     N1 6191   1.991   2.376   7.330 -0.1146  0.3395  0.1636
  124ccc     H4 6192   2.029   2.283   7.318 -1.4458 -0.0650 -1.2907
  124ccc     C3 6193   2.090   2.482   7.356 -0.2887  0.0559 -1.3739
  124ccc     H5 6194   2.071   2.561   7.282 -0.8033 -0.0223 -1.3284
  124ccc     C4 6195   2.242   2.426   7.346  0.7312 -0.4007  0.1518
  124ccc     H6 6196   2.075   2.520   7.457  0.6385  1.4600 -1.7342
  124ccc     H7 6197   2.252   2.344   7.417  2.6591 -0.8896 -0.6260
  124ccc     H8 6198   2.306   2.512   7.368  2.6977 -0.4290 -4.2805
  124ccc     N2 6199   2.298   2.352   7.223 -0.7914 -0.1684  0.1566
  124ccc     C5 6200   2.446   2.320   7.235  0.1513  0.1571  0.5652
  124ccc     C6 6201   2.273   2.438   7.107 -0.3958 -0.3152  0.6656
  124ccc     H9 6202   2.166   2.459   7.101 -0.6256 -1.5253  0.3314
  124ccc     C7 6203   2.309   2.372   6.971 -0.2600 -0.3353 -0.3822
  124ccc    H10 6204   2.327   2.532   7.121 -0.0889 -0.3552 -0.1730
  124ccc    H11 6205   2.278   2.267   6.968  1.0392 -0.7216 -0.9127
  124ccc    H12 6206   2.418   2.366   6.957  0.0616 -0.2513  1.7423
  124ccc     C8 6207   2.244   2.448   6.857  0.6766 -0.3605 -0.6670
  124ccc     O2 6208   2.170   2.538   6.872 -0.2668 -0.5005 -0.0693
  124ccc    H13 6209   2.499   2.414   7.214 -1.0705  0.6899 -0.2163
  124ccc    H14 6210   2.470   2.246   7.157 -0.6765 -0.7455  1.1352
  124ccc     C9 6211   2.494   2.257   7.367  0.0395 -0.8169 -0.2426
  124ccc    H15 6212   2.410   2.204   7.413 -2.4013  2.6497 -0.2894
  124ccc    H16 6213   2.518   2.335   7.441  0.8856 -1.5319  0.2542
  124ccc    C10 6214   2.638   2.191   7.347 -0.4491  0.5409  0.5218
  124ccc     O4 6215   2.723   2.231   7.269 -0.4365 -0.0196 -0.1043
  124ccc    C11 6216   2.184   2.168   6.537  0.1814  1.0955  0.2515
  124ccc    C12 6217   2.065   2.224   6.613  0.3405 -0.1307  0.1401
  124ccc    H17 6218   2.273   2.152   6.599  1.1026 -1.6459 -1.5624
  124ccc    C13 6219   2.068   2.373   6.613 -0.3955 -0.8712 -0.4953
  124ccc    C14 6220   2.216   2.429   6.609  0.1731 -0.4737  0.7409
  124ccc    C15 6221   2.307   2.389   6.473  0.7220  0.2733  0.5291
  124ccc    H18 6222   2.191   2.536   6.615 -1.0985 -0.6935 -0.2252
  124ccc    H19 6223   2.022   2.413   6.704  0.9430 -0.0473 -0.1609
  124ccc    H20 6224   2.373   2.328   6.535 -0.5737 -3.0165 -1.1041
  124ccc     O1 6225   2.432   2.507   6.311  0.0307 -0.3096 -0.0509
  124ccc     O6 6226   1.990   2.424   6.506 -0.0424  0.0702  0.2008
  124ccc    C16 6227   2.169   2.022   6.466  0.4055 -0.0257  0.1286
  124ccc    H21 6228   1.999   2.520   6.519  0.6582  0.3709 -2.0380
  124ccc    H22 6229   2.314   2.301   6.745  0.3359  0.5042 -0.3908
  124ccc    H23 6230   2.152   1.950   6.547  2.5109 -2.0025 -1.0702
  124ccc    H24 6231   2.265   1.997   6.419  0.3675 -1.7484  0.8674
  124ccc     O7 6232   2.061   2.023   6.369  0.1884  0.1532 -0.4259
  124ccc    H25 6233   2.101   2.038   6.281 -1.3833  0.4292 -1.1382
  124ccc     O8 6234   2.228   2.261   6.445 -0.1903 -0.1718  0.3930
  124ccc    H26 6235   2.446   2.421   6.267  2.1576 -1.0101  1.7932
  124ccc    H27 6236   1.978   2.193   6.554 -0.7707 -1.1215  2.2196
  124ccc     O9 6237   2.059   2.171   6.741 -0.1127  0.2856 -0.3977
  124ccc    H28 6238   1.975   2.201   6.780 -1.3176 -2.0147 -1.0545
  124ccc     N3 6239   2.277   2.396   6.739  0.3563  0.5245 -0.1971
  124ccc    C17 6240   2.519   1.774   7.680 -0.3515 -0.1389  0.0177
  124ccc    C18 6241   2.594   1.898   7.743  0.3361  0.6490  0.5632
  124ccc    H29 6242   2.592   1.697   7.653  0.7487  0.6307  0.7088
  124ccc    C19 6243   2.665   1.985   7.639  1.1247  0.1812 -0.0626
  124ccc    C20 6244   2.576   2.007   7.511  0.0650  0.5158 -0.1984
  124ccc    C21 6245   2.518   1.876   7.461 -0.1024 -0.7824  1.0440
  124ccc    H30 6246   2.502   2.078   7.549  0.1259  0.1806  0.5826
  124ccc    H31 6247   2.759   1.939   7.608  3.1678  1.5776  3.3849
  124ccc    H32 6248   2.600   1.812   7.427 -1.0639 -0.7769 -1.4971
  124ccc    O10 6249   2.426   1.897   7.359 -0.2584  0.1118  0.3432
  124ccc    O11 6250   2.700   2.102   7.705 -0.0942  0.0090 -1.2082
  124ccc    C22 6251   2.433   1.712   7.788  0.3408 -0.3335  0.1657
  124ccc    H33 6252   2.774   2.129   7.648  1.1860  0.1712  0.4718
  124ccc    H34 6253   2.742   2.014   7.384  0.9037 -0.6928  1.8007
  124ccc    H35 6254   2.360   1.784   7.829  1.1275 -1.0144  3.0464
  124ccc    H36 6255   2.500   1.698   7.875 -0.1661 -0.3483  0.5581
  124ccc    O12 6256   2.380   1.591   7.734 -0.4259 -0.0282  0.4633
  124ccc    H37 6257   2.337   1.549   7.810 -1.1135 -1.0386 -0.4346
  124ccc    O13 6258   2.441   1.825   7.570  0.2426  0.2234 -1.0525
  124ccc    H38 6259   2.344   1.917   7.408 -1.9632 -1.1444 -1.7936
  124ccc    H39 6260   2.526   1.964   7.799 -0.9141 -1.0077  1.0731
  124ccc     O5 6261   2.700   1.855   7.830  0.1353 -0.9481 -0.1015
  124ccc    H40 6262   2.743   1.942   7.829 -1.1062 -0.3052  0.6239
  124ccc     N4 6263   2.661   2.072   7.409  0.2627 -0.5052 -0.4846
  124ccc    H41 6264   2.244   2.265   7.204 -3.0917  1.5916 -2.1009
  125ccc     N1 6265   1.252   1.828   7.327  0.3778  0.2525  0.0132
  125ccc     H4 6266   1.187   1.874   7.265 -2.1972  0.5302  2.6840
  125ccc     C3 6267   1.219   1.696   7.379 -0.6230 -0.1195 -0.4410
  125ccc     H5 6268   1.304   1.665   7.441  0.5234  3.0327 -0.2857
  125ccc     C4 6269   1.184   1.594   7.269  0.3681  0.7601  0.1257
  125ccc     H6 6270   1.129   1.711   7.441  0.5790  1.4362  1.0273
  125ccc     H7 6271   1.091   1.634   7.227  0.5321  0.2005 -0.7938
  125ccc     H8 6272   1.164   1.500   7.321 -2.2110  1.2287  0.0836
  125ccc     N2 6273   1.287   1.563   7.156  0.1574  0.1519 -0.2138
  125ccc     C5 6274   1.212   1.498   7.040 -0.0642 -0.6128  0.4967
  125ccc     C6 6275   1.398   1.462   7.192  0.2671  0.5231  0.2184
  125ccc     H9 6276   1.348   1.384   7.251 -0.1004  0.9247  0.4363
  125ccc     C7 6277   1.517   1.507   7.283 -0.0359  0.1674  0.3792
  125ccc    H10 6278   1.446   1.423   7.101  0.1231  1.1558 -0.1284
  125ccc    H11 6279   1.590   1.424   7.282  0.2999  0.4217 -2.0819
  125ccc    H12 6280   1.480   1.517   7.386  2.0062  0.4376  1.1330
  125ccc     C8 6281   1.588   1.638   7.244 -0.5636 -0.4722 -0.5445
  125ccc     O2 6282   1.534   1.740   7.199  0.1128  0.1677 -0.8267
  125ccc    H13 6283   1.128   1.436   7.073 -2.0151  1.2528 -0.6813
  125ccc    H14 6284   1.278   1.427   6.988 -0.1826 -1.1043  1.0038
  125ccc     C9 6285   1.157   1.599   6.945  0.1946 -0.0985 -0.1465
  125ccc    H15 6286   1.075   1.647   7.000 -1.5350 -2.5749 -0.4138
  125ccc    H16 6287   1.105   1.546   6.864 -1.2542  0.0474  0.6560
  125ccc    C10 6288   1.257   1.701   6.896 -0.2685 -0.3823 -0.3352
  125ccc     O4 6289   1.369   1.727   6.934  0.6223  0.3892  0.9209
  125ccc    C11 6290   2.057   1.894   7.211  0.3356 -0.0104 -0.2205
  125ccc    C12 6291   2.019   1.810   7.087  0.1390  0.3664 -0.2170
  125ccc    H17 6292   2.120   1.828   7.272 -1.6376  0.6480  2.7875
  125ccc    C13 6293   1.920   1.690   7.126  0.3840  0.0103  0.3875
  125ccc    C14 6294   1.812   1.743   7.215  1.0830  0.0945 -0.0912
  125ccc    C15 6295   1.858   1.823   7.342  0.4686  0.5302  0.1095
  125ccc    H18 6296   1.763   1.810   7.143  3.2161  0.4630 -1.2983
  125ccc    H19 6297   1.978   1.614   7.180  1.9116  1.6242  1.1186
  125ccc    H20 6298   1.927   1.758   7.397  0.6552  0.0389 -0.6807
  125ccc     O1 6299   1.753   1.862   7.425 -0.0949  0.3020 -0.7609
  125ccc     O6 6300   1.865   1.632   7.014 -0.6987  0.1940 -0.2387
  125ccc    C16 6301   2.136   2.016   7.167  0.1524 -0.4209  1.1555
  125ccc    H21 6302   1.789   1.587   7.054  0.4983 -0.2538  1.6702
  125ccc    H22 6303   1.766   1.552   7.291 -0.2138 -0.4090  1.1063
  125ccc    H23 6304   2.072   2.077   7.102 -1.7174 -1.0161  2.3679
  125ccc    H24 6305   2.226   1.981   7.115 -0.5201 -0.2959 -0.1505
  125ccc     O7 6306   2.176   2.097   7.282  0.0003  0.6459  0.1819
  125ccc    H25 6307   2.147   2.047   7.361 -0.9592 -0.7454 -0.9708
  125ccc     O8 6308   1.937   1.935   7.285  0.1039 -0.1643  0.0019
  125ccc    H26 6309   1.794   1.917   7.494 -0.2096 -2.4849  1.7311
  125ccc    H27 6310   1.958   1.867   7.016 -0.3798 -2.3779 -2.1676
  125ccc     O9 6311   2.133   1.746   7.022 -0.6423  0.1324  0.0562
  125ccc    H28 6312   2.107   1.692   6.945  0.4046  2.2757 -1.9480
  125ccc     N3 6313   1.719   1.628   7.242  0.8907 -0.0945  0.4988
  125ccc    C17 6314   1.251   2.133   6.564  1.1052 -0.5152 -0.1724
  125ccc    C18 6315   1.216   2.157   6.717 -0.3561  0.0481 -0.1152
  125ccc    H29 6316   1.159   2.136   6.504  2.0442  2.2023 -1.6497
  125ccc    C19 6317   1.170   2.032   6.800 -0.5285  1.0269 -0.1914
  125ccc    C20 6318   1.256   1.910   6.764 -0.2444  0.8239  0.3943
  125ccc    C21 6319   1.266   1.887   6.607  0.5296  0.3422 -0.4678
  125ccc    H30 6320   1.355   1.922   6.809  0.4160 -1.4420 -0.2898
  125ccc    H31 6321   1.063   2.022   6.776 -0.6838  2.0132  0.0319
  125ccc    H32 6322   1.164   1.871   6.569  0.8535  1.7874 -2.0631
  125ccc    O10 6323   1.356   1.783   6.571 -0.1880  0.0994 -0.4600
  125ccc    O11 6324   1.188   2.052   6.940 -0.1644 -0.3867  0.1043
  125ccc    C22 6325   1.327   2.253   6.501  0.3047 -0.1460  0.0012
  125ccc    H33 6326   1.168   1.966   6.982  0.3576 -0.6535 -0.1824
  125ccc    H34 6327   1.100   1.775   6.785 -0.9767  3.5375  0.5118
  125ccc    H35 6328   1.435   2.244   6.519  0.1088 -0.5693  1.0172
  125ccc    H36 6329   1.296   2.339   6.562  0.4939 -0.8530  1.1206
  125ccc    O12 6330   1.312   2.250   6.357  0.1376 -0.2282  0.3310
  125ccc    H37 6331   1.371   2.181   6.322  1.1483  2.4136 -3.9697
  125ccc    O13 6332   1.326   2.008   6.554  0.3288 -0.2276 -0.0464
  125ccc    H38 6333   1.379   1.790   6.477  0.4939 -2.8658 -0.6113
  125ccc    H39 6334   1.311   2.178   6.766 -0.2774  0.4665 -0.4522
  125ccc     O5 6335   1.124   2.261   6.741  0.4531  0.3911  0.7090
  125ccc    H40 6336   1.045   2.230   6.789 -0.2535  2.1252  0.7679
  125ccc     N4 6337   1.194   1.787   6.822 -0.2561 -0.2250  0.2391
  125ccc    H41 6338   1.327   1.654   7.131 -0.8216  0.4584 -0.7168
  126SOL     OW 6339   8.136   4.819   5.734 -0.1808 -0.4968  0.5558
  126SOL    HW1 6340   8.183   4.739   5.761  1.3553  0.1094 -0.1976
  126SOL    HW2 6341   8.188   4.854   5.662 -0.7231  1.2913  0.9825
  127SOL     OW 6342   9.073   9.242   2.345  0.0213 -0.0037  0.5927
  127SOL    HW1 6343   9.011   9.312   2.325  0.5156  0.5793  1.0351
  127SOL    HW2 6344   9.128   9.278   2.415  2.0255  0.2434 -0.9846
  128SOL     OW 6345   5.714   5.755   5.560 -0.4170 -0.1260 -0.3868
  128SOL    HW1 6346   5.784   5.802   5.605 -0.6683  0.4059 -0.5383
  128SOL    HW2 6347   5.670   5.705   5.628  1.3304 -2.0414 -0.5976
  129SOL     OW 6348   8.511   7.915   5.676 -0.1667  0.2196 -0.0317
  129SOL    HW1 6349   8.531   7.823   5.693  1.9780  1.1014  2.8848
  129SOL    HW2 6350   8.416   7.922   5.690 -0.3452 -1.4659 -0.1401
  130SOL     OW 6351   5.259   2.757   8.988 -0.5744  0.5085 -0.0433
  130SOL    HW1 6352   5.257   2.848   8.960  0.5468 -0.1735 -2.6391
  130SOL    HW2 6353   5.331   2.752   9.051 -0.5784  1.3764  0.0337
  131SOL     OW 6354   4.787   6.731   7.795  0.0335 -0.0326 -0.8339
  131SOL    HW1 6355   4.704   6.698   7.831  0.4374 -2.3718 -1.8393
  131SOL    HW2 6356   4.834   6.765   7.871 -1.8143  1.3942 -0.2448
  132SOL     OW 6357   3.530   2.577   4.119 -0.2859 -0.5297 -0.1812
  132SOL    HW1 6358   3.585   2.568   4.040  0.3068  1.0606  0.0073
  132SOL    HW2 6359   3.446   2.541   4.093  0.3012 -1.3030 -1.1007
  133SOL     OW 6360   1.703   4.869   0.099  0.7178 -0.0723 -0.1873
  133SOL    HW1 6361   1.700   4.779   0.067 -2.1526 -0.7873  1.7649
  133SOL    HW2 6362   1.640   4.916   0.044 -0.6730 -0.2136  1.2187
  134SOL     OW 6363   6.673   2.876   2.901  0.3039 -0.2372 -0.3514
  134SOL    HW1 6364   6.693   2.783   2.918  0.8876  0.1898  1.6405
  134SOL    HW2 6365   6.609   2.899   2.968 -0.8580  0.5012 -1.6613
  135SOL     OW 6366   5.796   0.448   6.025 -0.4121 -0.3962 -0.3534
  135SOL    HW1 6367   5.846   0.397   5.961 -0.2201  0.8600 -1.2328
  135SOL    HW2 6368   5.855   0.518   6.051 -0.7999 -0.4064  0.5754
  136SOL     OW 6369   5.140   3.727   8.174 -0.4707  0.1558 -0.2104
  136SOL    HW1 6370   5.114   3.812   8.140  0.1872  0.1158 -0.8410
  136SOL    HW2 6371   5.062   3.672   8.162 -0.9301  0.6828  0.2934
  137SOL     OW 6372   4.621   6.309   0.998  0.2528 -0.0958  0.1487
  137SOL    HW1 6373   4.651   6.253   0.926 -1.0019 -2.2305  1.1840
  137SOL    HW2 6374   4.526   6.316   0.985  0.3178  1.4792  0.3116
  138SOL     OW 6375   1.400   5.042   3.164 -0.1904  0.4604  0.1781
  138SOL    HW1 6376   1.364   4.963   3.123 -0.9828  0.6114  0.5549
  138SOL    HW2 6377   1.323   5.088   3.199 -0.0727  2.6657 -2.1729
  139SOL     OW 6378   6.845   0.476   8.068  0.2606 -0.0201 -0.2573
  139SOL    HW1 6379   6.796   0.442   8.143 -2.0385 -0.4602 -1.8626
  139SOL    HW2 6380   6.873   0.397   8.021  0.0400  0.2592 -0.8621
  140SOL     OW 6381   6.269   2.946   2.047 -0.6187 -0.0899 -0.0358
  140SOL    HW1 6382   6.337   2.930   1.982 -1.4594  0.4103 -1.0613
  140SOL    HW2 6383   6.304   3.016   2.102  0.7766 -1.6059  1.1066
  141SOL     OW 6384   8.143   8.752   0.675 -0.0889  0.0826  0.3834
  141SOL    HW1 6385   8.166   8.676   0.622  0.7572  0.4127  0.2762
  141SOL    HW2 6386   8.198   8.746   0.752 -0.4777  0.2504  0.6804
  142SOL     OW 6387   1.053   4.252   1.055 -0.2931 -0.3452  0.2350
  142SOL    HW1 6388   0.989   4.232   1.124 -1.1145  1.2590 -0.0210
  142SOL    HW2 6389   1.043   4.346   1.040  0.1462 -0.5871 -1.8185
  143SOL     OW 6390   0.894   6.730   5.608 -0.0286 -0.0459  0.6820
  143SOL    HW1 6391   0.810   6.684   5.608 -0.7275  1.1419  1.7433
  143SOL    HW2 6392   0.950   6.677   5.665 -0.8961  0.4690  2.0899
  144SOL     OW 6393   6.079   8.964   2.888  0.0198 -0.0079 -0.1780
  144SOL    HW1 6394   6.029   9.032   2.934 -0.6153  0.1787 -1.1212
  144SOL    HW2 6395   6.127   8.919   2.958  0.6965  1.6017  0.4450
  145SOL     OW 6396   2.987   5.475   0.277  0.2187 -0.2017 -0.1914
  145SOL    HW1 6397   2.893   5.462   0.281  0.1580 -0.0043 -0.8507
  145SOL    HW2 6398   3.024   5.401   0.326 -0.2998  0.2598  0.9404
  146SOL     OW 6399   4.667   4.847   1.578  0.1757  0.3749 -0.5196
  146SOL    HW1 6400   4.636   4.935   1.557  0.2631  0.7426  0.7908
  146SOL    HW2 6401   4.714   4.819   1.499  0.5811  1.6995 -0.7800
  147SOL     OW 6402   5.228   6.118   4.444 -0.2118 -0.1383 -0.1139
  147SOL    HW1 6403   5.193   6.184   4.503 -0.0846  0.2611 -0.4763
  147SOL    HW2 6404   5.285   6.065   4.499 -1.4224 -0.8438  0.4965
  148SOL     OW 6405   7.344   7.457   0.336  0.2370 -0.3779 -0.0836
  148SOL    HW1 6406   7.286   7.508   0.393 -1.6634 -2.0033 -0.4738
  148SOL    HW2 6407   7.426   7.508   0.334 -0.8423  1.5407  1.2049
  149SOL     OW 6408   9.186   3.195   5.503  0.1913  0.2766 -0.2131
  149SOL    HW1 6409   9.227   3.238   5.578  0.8189  0.1187 -0.4605
  149SOL    HW2 6410   9.252   3.197   5.434  0.0157 -0.5250 -0.4240
  150SOL     OW 6411   5.409   0.418   4.200 -0.4175 -0.4598  0.1131
  150SOL    HW1 6412   5.350   0.345   4.214 -0.6712 -0.4590 -0.8630
  150SOL    HW2 6413   5.495   0.378   4.188 -0.4173 -0.5409  0.3905
  151SOL     OW 6414   3.739   8.610   8.394 -0.5091 -0.0430  0.1873
  151SOL    HW1 6415   3.814   8.663   8.367 -0.5908  0.3623  0.7434
  151SOL    HW2 6416   3.763   8.578   8.481 -0.6293 -0.6007  0.0223
  152SOL     OW 6417   3.378   2.769   5.177  0.0789  0.3969  0.1676
  152SOL    HW1 6418   3.303   2.760   5.119 -1.4380 -1.5579  2.2620
  152SOL    HW2 6419   3.453   2.736   5.126 -0.9372 -0.0460 -1.0817
  153SOL     OW 6420   2.832   3.177   2.337  0.4252  0.1681  0.5941
  153SOL    HW1 6421   2.844   3.196   2.244 -1.6193  1.2744  0.4857
  153SOL    HW2 6422   2.840   3.263   2.380  1.2989 -0.3219  1.4421
  154SOL     OW 6423   8.393   0.844   9.290  0.2680  0.3801 -0.0717
  154SOL    HW1 6424   8.327   0.827   9.358 -0.4327  0.8286 -0.6210
  154SOL    HW2 6425   8.463   0.891   9.335 -0.1658  0.6322  0.3479
  155SOL     OW 6426   5.222   2.614   5.320 -0.1561 -0.4410  0.0120
  155SOL    HW1 6427   5.301   2.635   5.270  0.3398 -1.6399  0.2681
  155SOL    HW2 6428   5.253   2.561   5.393 -1.1673 -0.6555  0.3017
  156SOL     OW 6429   6.399   0.442   4.972 -0.3797  0.3265 -0.2000
  156SOL    HW1 6430   6.304   0.453   4.979 -0.3284 -0.1387  2.4377
  156SOL    HW2 6431   6.415   0.352   5.002  1.0005  0.9604  1.0768
  157SOL     OW 6432   4.182   2.890   9.100  0.1639 -0.1432  0.2430
  157SOL    HW1 6433   4.254   2.841   9.060  1.4553 -0.7044  2.9701
  157SOL    HW2 6434   4.151   2.949   9.032  2.4025 -0.7487 -1.4076
  158SOL     OW 6435   2.555   1.674   0.184 -0.5876  0.5457 -0.1562
  158SOL    HW1 6436   2.550   1.760   0.141  1.5875  1.0637  0.5132
  158SOL    HW2 6437   2.563   1.695   0.277  2.6592 -0.1643 -0.1482
  159SOL     OW 6438   7.576   8.288   7.775  0.0473  1.1223  0.4862
  159SOL    HW1 6439   7.599   8.217   7.835  0.8777 -0.4945 -1.6567
  159SOL    HW2 6440   7.489   8.315   7.804 -0.2882 -0.7393  1.3815
  160SOL     OW 6441   8.812   2.914   0.850  0.4567 -0.1792 -0.6656
  160SOL    HW1 6442   8.845   2.911   0.939 -0.3837  2.1035 -0.2001
  160SOL    HW2 6443   8.752   2.840   0.843 -0.5904  0.4520  1.1582
  161SOL     OW 6444   7.514   0.409   6.525  0.0608 -0.5416 -0.0714
  161SOL    HW1 6445   7.492   0.426   6.434 -0.5194 -0.0417  0.1514
  161SOL    HW2 6446   7.605   0.380   6.524  0.7194  1.4032 -0.6039
  162SOL     OW 6447   5.280   0.211   7.738 -0.1128  0.1491  0.1878
  162SOL    HW1 6448   5.291   0.116   7.738  0.9819  0.2352  1.4612
  162SOL    HW2 6449   5.190   0.225   7.769  0.0244 -0.4806  0.9059
  163SOL     OW 6450   6.746   7.118   8.302 -0.0931  0.4005 -0.1544
  163SOL    HW1 6451   6.803   7.046   8.273  1.2420  0.6622  1.6245
  163SOL    HW2 6452   6.789   7.197   8.269  0.0494  0.5398  0.3553
  164SOL     OW 6453   9.239   6.035   2.548 -0.3733  0.1094 -0.0048
  164SOL    HW1 6454   9.305   6.100   2.569  0.5538 -0.8465  0.1310
  164SOL    HW2 6455   9.274   5.953   2.583 -1.7566 -0.3713  0.3064
  165SOL     OW 6456   8.697   4.963   7.648  0.4353 -0.4387 -0.2334
  165SOL    HW1 6457   8.763   5.031   7.633  0.7015 -0.6372  0.0505
  165SOL    HW2 6458   8.667   4.939   7.560  1.6816 -1.2884 -0.4444
  166SOL     OW 6459   0.219   6.850   2.115 -0.0944  0.0888  0.5349
  166SOL    HW1 6460   0.140   6.862   2.062  0.5421 -3.4603 -1.5687
  166SOL    HW2 6461   0.186   6.840   2.204 -1.9965 -0.6926 -0.1904
  167SOL     OW 6462   0.053   8.544   7.965 -0.2444  0.4362 -0.0992
  167SOL    HW1 6463   0.124   8.485   7.988 -1.1980 -0.3860  0.8280
  167SOL    HW2 6464   0.096   8.627   7.946  0.9388  0.0072  0.6196
  168SOL     OW 6465   5.266   4.699   9.122 -0.1958 -0.5318 -0.3564
  168SOL    HW1 6466   5.194   4.759   9.143 -0.1960 -0.7145  0.1831
  168SOL    HW2 6467   5.339   4.756   9.098 -0.2947 -0.3239 -0.1670
  169SOL     OW 6468   0.539   3.254   0.537 -0.0277 -0.1323 -0.4162
  169SOL    HW1 6469   0.521   3.286   0.449  0.1317 -0.8594 -0.7222
  169SOL    HW2 6470   0.454   3.252   0.580 -0.3093 -1.0539 -0.9982
  170SOL     OW 6471   9.316   6.582   2.024  0.0176 -0.6929 -0.0845
  170SOL    HW1 6472   9.332   6.551   2.113  1.1645  0.8613  0.2961
  170SOL    HW2 6473   9.268   6.664   2.035 -0.0359 -0.6021 -0.9125
  171SOL     OW 6474   3.411   7.503   2.250 -0.8682  0.2426  0.0604
  171SOL    HW1 6475   3.370   7.588   2.265  0.3052  0.8162  0.1303
  171SOL    HW2 6476   3.469   7.517   2.175  0.7841  0.0370  1.2444
  172SOL     OW 6477   4.155   0.793   0.015 -0.4870  0.5048  0.4639
  172SOL    HW1 6478   4.086   0.748  -0.034 -0.4431  0.6477  0.2708
  172SOL    HW2 6479   4.206   0.722   0.055  0.2570  0.3305 -0.7383
  173SOL     OW 6480   4.584   1.863   4.294 -0.0956  0.0350  0.0627
  173SOL    HW1 6481   4.495   1.835   4.273 -0.3348  0.3508  0.6340
  173SOL    HW2 6482   4.637   1.783   4.287 -0.5667 -0.3200  0.5118
  174SOL     OW 6483   6.602   1.943   1.969 -0.4283 -0.1903  0.1612
  174SOL    HW1 6484   6.619   2.011   1.904  0.2594 -1.7850 -1.4138
  174SOL    HW2 6485   6.574   1.867   1.918  2.4400 -2.2809  1.4106
  175SOL     OW 6486   1.526   3.815   6.674 -0.1110  0.6777 -0.1508
  175SOL    HW1 6487   1.437   3.843   6.651 -0.4874  0.4610  0.9338
  175SOL    HW2 6488   1.540   3.852   6.761  0.7491  0.4474 -0.1872
  176SOL     OW 6489   4.993   6.842   4.255  0.0893 -0.5939  0.1773
  176SOL    HW1 6490   5.026   6.818   4.341 -0.6106  2.0041  1.2767
  176SOL    HW2 6491   4.899   6.856   4.268  0.3910  2.6846 -0.1585
  177SOL     OW 6492   1.342   6.001   3.222  0.0836  0.6461 -0.7732
  177SOL    HW1 6493   1.390   6.081   3.203  1.1070 -0.1286 -1.5734
  177SOL    HW2 6494   1.374   5.937   3.158  1.1185 -1.0936  1.3581
  178SOL     OW 6495   6.714   2.275   9.204  0.3717 -0.0872 -0.0064
  178SOL    HW1 6496   6.732   2.181   9.207 -0.0005 -0.2002 -1.0252
  178SOL    HW2 6497   6.732   2.300   9.114 -3.1106  0.0388 -0.8166
  179SOL     OW 6498   6.571   9.087   2.301  0.1407 -0.0945 -0.1544
  179SOL    HW1 6499   6.619   9.056   2.378  0.1314  0.0344 -0.0959
  179SOL    HW2 6500   6.626   9.061   2.227 -0.1472 -0.7626 -0.1405
  180SOL     OW 6501   4.539   7.605   6.574  0.6879 -0.1274  0.6880
  180SOL    HW1 6502   4.584   7.591   6.657  1.9730  0.4697  0.1288
  180SOL    HW2 6503   4.455   7.644   6.598  0.8712 -0.3370  1.7185
  181SOL     OW 6504   8.373   5.253   2.478 -0.3659 -0.1499  0.1967
  181SOL    HW1 6505   8.374   5.338   2.436  1.1462 -0.0457  0.4026
  181SOL    HW2 6506   8.348   5.272   2.569 -1.6506 -0.1481 -0.1307
  182SOL     OW 6507   7.708   7.539   2.042 -0.3946 -0.8640  0.5688
  182SOL    HW1 6508   7.647   7.536   2.116 -2.0331  1.3548 -0.5726
  182SOL    HW2 6509   7.733   7.631   2.036  1.4385 -1.3752 -0.3472
  183SOL     OW 6510   7.941   3.523   6.574  0.1367 -0.1434 -0.0246
  183SOL    HW1 6511   7.911   3.575   6.499 -0.9573  0.2977  0.6996
  183SOL    HW2 6512   8.021   3.567   6.603 -0.7047  1.0816  0.4951
  184SOL     OW 6513   5.647   0.602   7.992 -0.2765 -0.2189 -1.0570
  184SOL    HW1 6514   5.706   0.671   7.961 -0.9470  1.1801  0.5847
  184SOL    HW2 6515   5.566   0.616   7.941 -0.8792  1.1444  0.1842
  185SOL     OW 6516   2.077   6.404   8.080 -0.5535 -0.1472  0.3706
  185SOL    HW1 6517   1.987   6.393   8.112 -0.5615 -0.6121  0.1904
  185SOL    HW2 6518   2.075   6.368   7.991 -0.2360  0.0301  0.2906
  186SOL     OW 6519   6.520   5.980   5.943  0.0816  0.1877 -0.2164
  186SOL    HW1 6520   6.570   5.901   5.964 -1.3314 -0.1525  2.2446
  186SOL    HW2 6521   6.554   6.047   6.001 -0.1188  0.8510 -0.8523
  187SOL     OW 6522   4.189   6.484   7.358 -0.0265  0.0373 -0.0978
  187SOL    HW1 6523   4.138   6.541   7.416  1.3692 -0.7001  1.9580
  187SOL    HW2 6524   4.273   6.528   7.349  0.8110 -1.2694  0.9274
  188SOL     OW 6525   6.172   8.293   0.006 -0.3817 -0.4134  0.1724
  188SOL    HW1 6526   6.180   8.380   0.045  1.1630 -0.1938 -0.5609
  188SOL    HW2 6527   6.223   8.298  -0.074  0.4478 -2.2391  0.5369
  189SOL     OW 6528   1.937   7.030   4.753 -0.3391  0.0818 -0.0413
  189SOL    HW1 6529   1.862   6.990   4.796 -0.4315 -0.1852 -0.4430
  189SOL    HW2 6530   2.011   7.011   4.811 -0.3764 -0.6996 -0.2360
  190SOL     OW 6531   9.007   4.668   0.120  0.1777  0.4884  0.2253
  190SOL    HW1 6532   9.015   4.659   0.025  0.6017  3.2703 -0.0908
  190SOL    HW2 6533   8.913   4.682   0.135 -0.1183 -1.4458  0.4457
  191SOL     OW 6534   2.901   5.526   6.825 -0.0483  0.4590  0.2602
  191SOL    HW1 6535   2.891   5.535   6.920 -0.2730  0.7142  0.2128
  191SOL    HW2 6536   2.848   5.450   6.802 -2.2528  2.0119 -0.0424
  192SOL     OW 6537   6.696   3.963   2.449  0.7115 -0.5839  0.0906
  192SOL    HW1 6538   6.761   4.031   2.430  0.2190 -0.4343 -1.0827
  192SOL    HW2 6539   6.736   3.882   2.417  1.1736 -0.8235  1.2243
  193SOL     OW 6540   3.380   0.360   9.300 -0.0753  0.2701 -0.6777
  193SOL    HW1 6541   3.396   0.398   9.214  0.0843 -0.2809 -0.8964
  193SOL    HW2 6542   3.459   0.310   9.319 -0.0667  0.4760 -0.1618
  194SOL     OW 6543   1.830   4.886   3.590  0.5210 -0.0622 -0.0013
  194SOL    HW1 6544   1.924   4.895   3.577  0.5161  0.2080  0.1369
  194SOL    HW2 6545   1.819   4.809   3.645  0.7238  0.5031  0.8328
  195SOL     OW 6546   0.072   0.782   1.119 -0.6435  0.0071 -0.0208
  195SOL    HW1 6547   0.139   0.805   1.183  1.0089  1.5330 -2.1742
  195SOL    HW2 6548  -0.011   0.808   1.161  0.4715  2.1857  0.9896
  196SOL     OW 6549   4.804   7.424   0.304  0.5456 -0.2768 -0.0457
  196SOL    HW1 6550   4.737   7.446   0.240  0.5336  2.1751  0.7016
  196SOL    HW2 6551   4.757   7.417   0.387  1.1729  1.8928  0.5628
  197SOL     OW 6552   0.035   7.743   8.462  0.1988  0.4834 -0.1457
  197SOL    HW1 6553   0.095   7.805   8.503  1.5407  0.8907 -2.5112
  197SOL    HW2 6554   0.066   7.657   8.491  1.6987  0.7133 -0.9636
  198SOL     OW 6555   2.213   1.536   0.890  0.0390 -0.7485  0.6536
  198SOL    HW1 6556   2.242   1.621   0.922  0.9028 -1.0464  0.6854
  198SOL    HW2 6557   2.179   1.491   0.967 -1.8491  0.1244  0.3735
  199SOL     OW 6558   1.342   5.951   9.362 -0.0849 -0.0645 -0.0689
  199SOL    HW1 6559   1.343   6.038   9.322  2.5876 -1.2261 -2.9752
  199SOL    HW2 6560   1.279   5.902   9.308 -1.1609 -0.1390  1.2060
  200SOL     OW 6561   3.913   0.985   2.309  0.5866  0.4729 -0.4300
  200SOL    HW1 6562   3.967   1.005   2.232 -0.3002 -0.6312 -1.3799
  200SOL    HW2 6563   3.868   0.904   2.286  0.4029  0.0338  1.3290
  201SOL     OW 6564   1.829   9.062   6.835 -0.3415  0.3817  0.3561
  201SOL    HW1 6565   1.736   9.048   6.853 -0.3785 -1.3526 -0.9776
  201SOL    HW2 6566   1.831   9.099   6.747  0.2994 -1.6289 -0.5081
  202SOL     OW 6567   5.253   6.692   1.106 -0.3062 -0.6980 -0.0857
  202SOL    HW1 6568   5.195   6.702   1.031 -0.6399 -1.6683  0.0341
  202SOL    HW2 6569   5.264   6.598   1.116  0.0667 -0.5698  0.8296
  203SOL     OW 6570   8.988   7.404   6.555 -0.0922  0.4528  0.0635
  203SOL    HW1 6571   9.078   7.379   6.577 -0.3594 -1.7187 -1.0254
  203SOL    HW2 6572   8.941   7.397   6.638  0.6925  1.5537  0.6328
  204SOL     OW 6573   1.738   3.583   7.390  0.7387  0.0545  0.5997
  204SOL    HW1 6574   1.816   3.595   7.335  0.3237  1.8509  0.3284
  204SOL    HW2 6575   1.667   3.625   7.340 -0.1070 -0.2405  1.5146
  205SOL     OW 6576   4.030   3.109   3.858  0.0595  0.0559 -0.0527
  205SOL    HW1 6577   3.972   3.046   3.901 -0.3863  0.5774  0.1184
  205SOL    HW2 6578   4.063   3.164   3.929 -1.0247  1.2072 -0.3994
  206SOL     OW 6579   3.469   0.230   5.960  0.2507 -0.1544  0.3184
  206SOL    HW1 6580   3.379   0.242   5.931  0.4555  0.9492  0.0919
  206SOL    HW2 6581   3.511   0.314   5.943  1.5297 -0.8851 -0.3123
  207SOL     OW 6582   6.411   8.227   2.740  0.1909 -0.7114 -0.4863
  207SOL    HW1 6583   6.355   8.225   2.818  0.0052 -3.1207 -0.5955
  207SOL    HW2 6584   6.479   8.163   2.759 -0.2268 -1.8263 -2.5324
  208SOL     OW 6585   4.491   8.838   1.064 -0.2935 -0.0743 -0.4479
  208SOL    HW1 6586   4.445   8.785   1.129 -0.4609  2.0016  1.2442
  208SOL    HW2 6587   4.581   8.804   1.065 -0.2068  0.1196  1.1552
  209SOL     OW 6588   4.246   4.855   0.843  0.3229  0.1721  0.3037
  209SOL    HW1 6589   4.166   4.821   0.802 -0.9048 -0.6235  3.1025
  209SOL    HW2 6590   4.225   4.946   0.865  0.5628  0.2686  0.1318
  210SOL     OW 6591   3.257   5.841   6.995  0.3992  0.0948 -0.1234
  210SOL    HW1 6592   3.166   5.843   6.966  0.5446  0.8233 -0.5367
  210SOL    HW2 6593   3.278   5.932   7.016  1.2165  0.0325 -0.6135
  211SOL     OW 6594   1.026   0.794   5.626  0.6301 -0.1926  0.0313
  211SOL    HW1 6595   0.934   0.789   5.601  0.3999  0.9590  0.5730
  211SOL    HW2 6596   1.041   0.718   5.681 -0.4543  0.4944  1.3152
  212SOL     OW 6597   5.624   6.390   1.873 -0.0633 -0.2602  0.2827
  212SOL    HW1 6598   5.653   6.440   1.949  0.0715 -0.5664  0.4359
  212SOL    HW2 6599   5.684   6.415   1.803 -0.6195  0.5487  0.0879
  213SOL     OW 6600   3.108   4.851   3.757 -0.1285  0.3435  0.2487
  213SOL    HW1 6601   3.020   4.848   3.719 -0.3072 -1.2970  0.7369
  213SOL    HW2 6602   3.127   4.761   3.782  2.0406  0.5117 -0.5785
  214SOL     OW 6603   0.661   1.250   0.988  0.3947 -0.2974  0.0195
  214SOL    HW1 6604   0.567   1.263   0.996  0.4352 -0.7486  1.6488
  214SOL    HW2 6605   0.673   1.213   0.901 -0.8866  0.1007 -0.3450
  215SOL     OW 6606   8.215   9.102   8.389 -0.1782 -0.1952 -0.8743
  215SOL    HW1 6607   8.229   9.098   8.484  2.2455  1.3241 -1.0900
  215SOL    HW2 6608   8.148   9.169   8.377 -0.6146 -0.5077 -0.2594
  216SOL     OW 6609   3.814   1.984   0.443 -0.1982  0.1134  0.0526
  216SOL    HW1 6610   3.807   2.021   0.531  1.0301  1.9060 -0.5445
  216SOL    HW2 6611   3.908   1.967   0.431 -0.2433  0.5634 -1.1333
  217SOL     OW 6612   8.774   4.713   7.776 -0.0207  0.4120  0.1390
  217SOL    HW1 6613   8.702   4.775   7.767  0.7997  1.2370 -1.0038
  217SOL    HW2 6614   8.781   4.672   7.690  0.5382 -0.0362  0.3909
  218SOL     OW 6615   2.023   8.404   2.498 -0.2172  0.3174  0.7242
  218SOL    HW1 6616   2.112   8.405   2.532 -0.0381  0.1966  0.2629
  218SOL    HW2 6617   2.032   8.383   2.405 -0.9394 -2.8755  1.2630
  219SOL     OW 6618   3.138   6.134   4.461  0.3388 -0.1928  0.2192
  219SOL    HW1 6619   3.073   6.200   4.483  1.8648  1.8788 -1.0156
  219SOL    HW2 6620   3.193   6.127   4.539  1.1321  1.2872 -0.1696
  220SOL     OW 6621   4.764   5.159   0.377 -0.0301 -0.5362 -0.2585
  220SOL    HW1 6622   4.826   5.087   0.374  2.4701  1.4787 -1.0015
  220SOL    HW2 6623   4.807   5.226   0.430 -2.9330 -0.0991  1.7462
  221SOL     OW 6624   3.204   2.196   3.458  0.3500  0.2164 -0.3386
  221SOL    HW1 6625   3.168   2.268   3.406  2.4440  0.9115 -0.8933
  221SOL    HW2 6626   3.270   2.237   3.513  0.1928 -0.9887  0.7771
  222SOL     OW 6627   5.635   5.881   1.388 -0.5301 -0.1402 -0.4473
  222SOL    HW1 6628   5.586   5.904   1.467 -1.1146  0.1043 -0.8724
  222SOL    HW2 6629   5.686   5.959   1.367 -1.7153  0.4384 -1.2956
  223SOL     OW 6630   2.031   9.143   8.734  0.3176 -0.6655 -0.6279
  223SOL    HW1 6631   2.013   9.106   8.648 -0.8191  0.4894 -0.9201
  223SOL    HW2 6632   1.961   9.110   8.790 -0.4656  0.6146 -0.7942
  224SOL     OW 6633   1.070   6.366   9.348 -0.2257 -0.0820  0.3805
  224SOL    HW1 6634   1.149   6.408   9.317 -0.5115  0.7341  0.7245
  224SOL    HW2 6635   1.075   6.373   9.444 -0.8206  0.1933  0.3973
  225SOL     OW 6636   8.245   5.478   1.926  0.4450 -0.2010  0.4794
  225SOL    HW1 6637   8.313   5.457   1.989 -0.7485 -1.1082  1.5352
  225SOL    HW2 6638   8.270   5.564   1.890  1.8437 -0.2846  1.1970
  226SOL     OW 6639   2.238   3.690   3.475 -1.0265  0.2405 -0.3400
  226SOL    HW1 6640   2.241   3.781   3.504 -0.8875  0.1955 -0.2149
  226SOL    HW2 6641   2.146   3.665   3.484 -1.1030  0.4317 -0.5700
  227SOL     OW 6642   7.483   1.422   8.290  0.0060 -0.0300  0.1974
  227SOL    HW1 6643   7.416   1.356   8.274 -0.8289  0.6196  0.9175
  227SOL    HW2 6644   7.475   1.442   8.383  2.5080 -1.3211  0.7551
  228SOL     OW 6645   1.643   7.018   4.432  0.4975  0.0844 -0.1018
  228SOL    HW1 6646   1.549   7.037   4.434  0.5079  0.1177  0.0978
  228SOL    HW2 6647   1.658   6.960   4.506  0.3475 -1.3024 -1.1261
  229SOL     OW 6648   2.639   3.235   1.756 -0.0654 -0.2518 -0.3186
  229SOL    HW1 6649   2.572   3.228   1.824 -0.7661 -0.2617 -0.9920
  229SOL    HW2 6650   2.631   3.325   1.724 -0.6482 -0.6243 -1.2797
  230SOL     OW 6651   6.869   6.254   8.955  0.3780 -0.3555  0.5603
  230SOL    HW1 6652   6.780   6.289   8.957  0.2349 -0.7091  0.4781
  230SOL    HW2 6653   6.889   6.234   9.046 -0.7923 -3.1388  0.3158
  231SOL     OW 6654   4.186   5.512   4.113  0.5712  0.3614  0.4444
  231SOL    HW1 6655   4.115   5.448   4.106  0.2079  0.6980  0.9748
  231SOL    HW2 6656   4.144   5.590   4.150  1.3336  0.3544  1.3597
  232SOL     OW 6657   6.182   5.708   1.210  0.2961  0.5301  0.4216
  232SOL    HW1 6658   6.217   5.681   1.295  2.0973  1.0561 -0.0852
  232SOL    HW2 6659   6.215   5.797   1.199 -2.2537  1.5488  0.3649
  233SOL     OW 6660   0.418   5.851   0.614 -0.0159 -0.3013 -0.1042
  233SOL    HW1 6661   0.444   5.852   0.706  0.2416 -0.3650 -0.1784
  233SOL    HW2 6662   0.401   5.943   0.593  1.2869 -0.1074 -0.3850
  234SOL     OW 6663   8.348   5.007   0.111 -0.0963 -0.6286 -0.2250
  234SOL    HW1 6664   8.367   5.030   0.202 -0.6435 -0.3283 -0.1832
  234SOL    HW2 6665   8.299   5.081   0.077  0.2544 -0.6626 -0.8218
  235SOL     OW 6666   3.888   4.010   9.102 -0.1209 -0.6768  0.5070
  235SOL    HW1 6667   3.943   3.936   9.127  0.2840 -0.2179  1.0109
  235SOL    HW2 6668   3.821   4.015   9.170 -1.4345 -1.8565 -0.6350
  236SOL     OW 6669   6.929   6.498   4.970  0.4009  0.8865  0.3792
  236SOL    HW1 6670   6.994   6.543   5.023  1.8495 -1.1637  0.4584
  236SOL    HW2 6671   6.894   6.431   5.028 -0.5030  0.8215 -0.2299
  237SOL     OW 6672   7.712   5.043   5.076 -0.5347 -0.4137 -0.6361
  237SOL    HW1 6673   7.668   4.964   5.043 -0.4879 -0.2059 -1.2103
  237SOL    HW2 6674   7.678   5.054   5.164 -2.2280  0.1627 -1.3225
  238SOL     OW 6675   3.587   5.227   2.204  0.1464 -0.0405  0.5370
  238SOL    HW1 6676   3.601   5.257   2.294 -0.9495  0.4524  0.5651
  238SOL    HW2 6677   3.651   5.276   2.152 -1.4130  2.2448  0.6188
  239SOL     OW 6678   7.261   7.140   1.544  0.1984 -0.1537 -0.0252
  239SOL    HW1 6679   7.354   7.117   1.544  0.2604 -0.1409  2.3525
  239SOL    HW2 6680   7.217   7.060   1.573 -0.4420  0.1793 -0.0566
  240SOL     OW 6681   4.167   2.025   4.488  0.3298 -0.0506 -0.7707
  240SOL    HW1 6682   4.196   1.945   4.444 -0.9136 -1.2675  0.5043
  240SOL    HW2 6683   4.239   2.047   4.546  0.1965 -0.9984 -0.2181
  241SOL     OW 6684   0.184   9.145   1.312  0.0432 -0.8748  0.0848
  241SOL    HW1 6685   0.260   9.089   1.328 -0.5269 -1.6897  0.0042
  241SOL    HW2 6686   0.112   9.102   1.358 -0.2742  0.1606  0.5923
  242SOL     OW 6687   4.980   4.086   6.976  0.6603 -0.5620  0.2784
  242SOL    HW1 6688   4.993   4.019   6.909 -3.5180 -0.3705 -0.9644
  242SOL    HW2 6689   4.995   4.169   6.930 -1.4885 -0.4584 -0.3079
  243SOL     OW 6690   8.615   4.531   0.731 -0.1735  0.4229  0.2092
  243SOL    HW1 6691   8.638   4.515   0.640 -1.1404 -1.7245  0.2957
  243SOL    HW2 6692   8.699   4.554   0.772  0.8228 -1.3427 -0.6780
  244SOL     OW 6693   2.630   7.281   0.850  0.7692  0.6985  0.3580
  244SOL    HW1 6694   2.567   7.255   0.917  1.1684  0.2111  0.5444
  244SOL    HW2 6695   2.671   7.200   0.821  0.8136  0.9363 -0.2674
  245SOL     OW 6696   1.130   7.260   3.391  0.3228  0.1629 -0.1123
  245SOL    HW1 6697   1.167   7.232   3.475  1.7857  0.5479 -0.5991
  245SOL    HW2 6698   1.106   7.178   3.347  0.4182 -0.0876  0.2999
  246SOL     OW 6699   3.588   0.263   8.631 -0.1578  0.5037  0.7574
  246SOL    HW1 6700   3.654   0.274   8.562  0.5642 -0.6020  1.2591
  246SOL    HW2 6701   3.549   0.177   8.614 -1.5455  1.1522  0.4361
  247SOL     OW 6702   4.275   9.275   6.461  0.5295 -0.0079  0.1594
  247SOL    HW1 6703   4.200   9.260   6.404 -0.1196  2.1836  0.3506
  247SOL    HW2 6704   4.249   9.238   6.545 -0.4604  0.9310  0.2859
  248SOL     OW 6705   8.117   9.010   7.085 -0.4957  0.2259 -0.1061
  248SOL    HW1 6706   8.166   8.927   7.088 -1.9066 -0.6145  1.3559
  248SOL    HW2 6707   8.031   8.986   7.051 -0.4249  1.4108 -1.2035
  249SOL     OW 6708   0.665   5.242   6.729  0.1816 -0.1162  0.5891
  249SOL    HW1 6709   0.624   5.156   6.744 -0.9768  0.2741 -0.1886
  249SOL    HW2 6710   0.607   5.304   6.773  0.9631  0.2840  1.0627
  250SOL     OW 6711   0.818   8.275   3.443 -0.6416 -0.1769  0.2995
  250SOL    HW1 6712   0.861   8.280   3.358 -1.8939 -1.1690 -0.4266
  250SOL    HW2 6713   0.875   8.220   3.496  0.2283  0.5754  0.1625
  251SOL     OW 6714   8.241   5.041   5.863  0.6412 -0.5300  0.0542
  251SOL    HW1 6715   8.199   5.113   5.816 -0.6317 -0.4656  1.2292
  251SOL    HW2 6716   8.191   4.963   5.837  0.7753 -0.6943  0.2842
  252SOL     OW 6717   6.456   1.508   1.251 -0.1191  0.0584 -0.0762
  252SOL    HW1 6718   6.466   1.505   1.346 -2.3973 -3.7459  0.2097
  252SOL    HW2 6719   6.545   1.496   1.217  0.6447  0.8885  1.5088
  253SOL     OW 6720   8.413   8.479   6.629 -0.6684 -0.4370 -0.4658
  253SOL    HW1 6721   8.360   8.555   6.607  1.9331  1.1034 -1.9758
  253SOL    HW2 6722   8.476   8.512   6.694  1.2572 -0.8864 -1.9988
  254SOL     OW 6723   7.481   1.907   2.268 -0.1410  0.0574 -0.2615
  254SOL    HW1 6724   7.516   1.849   2.335  0.7039  0.2402 -0.5357
  254SOL    HW2 6725   7.405   1.948   2.309  0.1762 -0.0817  0.4699
  255SOL     OW 6726   1.103   5.210   4.994  0.0707  0.5916  0.4937
  255SOL    HW1 6727   1.160   5.182   4.923 -0.5896 -1.8569  0.8329
  255SOL    HW2 6728   1.046   5.276   4.954  1.9641  1.8759 -0.2654
  256SOL     OW 6729   3.266   3.327   6.629  0.5751 -0.2492 -0.0738
  256SOL    HW1 6730   3.252   3.234   6.611  0.3541 -0.2707  0.1917
  256SOL    HW2 6731   3.338   3.353   6.572 -0.0921 -0.3127 -0.9769
  257SOL     OW 6732   7.022   1.612   1.575 -0.2260 -0.5008 -0.2532
  257SOL    HW1 6733   7.094   1.627   1.637 -1.0052 -1.0178  0.8137
  257SOL    HW2 6734   6.944   1.636   1.624 -0.7940  0.0375 -1.3952
  258SOL     OW 6735   6.400   6.640   8.172  0.5762 -0.2492  0.0585
  258SOL    HW1 6736   6.360   6.696   8.105  2.8456  2.6180  0.9239
  258SOL    HW2 6737   6.373   6.679   8.255 -0.4093 -2.4599  0.8611
  259SOL     OW 6738   6.451   1.096   3.152 -0.2004  0.0020 -0.0184
  259SOL    HW1 6739   6.440   1.009   3.114 -2.1514  0.2711 -0.1599
  259SOL    HW2 6740   6.453   1.155   3.077  2.8939  0.0133 -0.0519
  260SOL     OW 6741   3.041   1.312   3.089  0.1344  0.4508  0.4364
  260SOL    HW1 6742   3.016   1.354   3.171  0.7436 -0.4825  1.1213
  260SOL    HW2 6743   3.129   1.279   3.104 -0.2280 -0.8834 -0.1322
  261SOL     OW 6744   4.425   3.793   5.178 -0.3082  0.2200 -0.4826
  261SOL    HW1 6745   4.498   3.790   5.116 -0.5711 -0.2620 -0.7712
  261SOL    HW2 6746   4.465   3.820   5.261 -0.2902  3.4389 -1.3700
  262SOL     OW 6747   7.570   0.729   1.434 -0.2127 -0.6935  0.4475
  262SOL    HW1 6748   7.550   0.823   1.437  1.9302 -0.1913  0.8143
  262SOL    HW2 6749   7.489   0.688   1.405 -1.7223  1.1006  1.8995
  263SOL     OW 6750   6.310   3.394   6.026  0.3399  0.4651  0.0816
  263SOL    HW1 6751   6.385   3.344   5.993  0.0257  0.0165  0.0324
  263SOL    HW2 6752   6.345   3.481   6.045  0.6773  0.5163 -0.7571
  264SOL     OW 6753   1.968   3.224   3.786 -0.4888  0.9307 -0.1705
  264SOL    HW1 6754   1.893   3.203   3.730 -1.5808  0.4384  1.4042
  264SOL    HW2 6755   1.930   3.237   3.873  1.3068  0.1180  0.7879
  265SOL     OW 6756   0.521   6.778   4.830 -0.3389  0.2951 -0.7790
  265SOL    HW1 6757   0.543   6.863   4.792 -1.1070 -0.1200 -2.2169
  265SOL    HW2 6758   0.490   6.798   4.918  3.3161  1.1300  0.5016
  266SOL     OW 6759   8.473   6.217   0.990 -0.2290 -0.3313 -0.4214
  266SOL    HW1 6760   8.399   6.183   0.940 -0.2137 -0.6966 -0.1954
  266SOL    HW2 6761   8.432   6.269   1.060 -0.2525  0.0507 -0.7100
  267SOL     OW 6762   8.285   6.570   6.031 -0.3268 -0.5125  0.2834
  267SOL    HW1 6763   8.194   6.584   6.005 -0.4177 -1.0507  0.2997
  267SOL    HW2 6764   8.288   6.479   6.062 -0.4215  0.3200  2.9866
  268SOL     OW 6765   3.718   6.057   9.337 -0.3739  0.8579 -0.4668
  268SOL    HW1 6766   3.768   5.998   9.392 -0.3512  0.7493 -0.6032
  268SOL    HW2 6767   3.706   6.009   9.254 -0.8586  0.8088 -0.3729
  269SOL     OW 6768   5.552   8.297   6.009 -0.1636 -0.6305  0.0203
  269SOL    HW1 6769   5.633   8.300   5.959 -0.4551 -0.7774 -0.4676
  269SOL    HW2 6770   5.506   8.219   5.976 -0.9684  0.0182 -0.4317
  270SOL     OW 6771   8.374   0.618   8.644 -0.1462 -0.0143  0.1873
  270SOL    HW1 6772   8.459   0.657   8.622  0.2774 -0.7534  0.4570
  270SOL    HW2 6773   8.390   0.523   8.639 -0.9615 -0.1599  0.2274
  271SOL     OW 6774   6.361   4.101   3.683 -0.3679 -0.0427 -0.7480
  271SOL    HW1 6775   6.418   4.060   3.747 -1.1844 -0.9428 -0.5699
  271SOL    HW2 6776   6.301   4.155   3.735 -1.2949 -1.0923 -0.6806
  272SOL     OW 6777   4.150   8.884   6.522  0.7706  0.3541 -0.6914
  272SOL    HW1 6778   4.095   8.824   6.572  0.4682 -1.1131 -2.6377
  272SOL    HW2 6779   4.165   8.958   6.580 -1.7732 -0.0153  0.5634
  273SOL     OW 6780   7.595   0.060   8.858 -0.3432  0.0255 -0.0854
  273SOL    HW1 6781   7.545  -0.003   8.910  0.6260 -0.9916 -0.3346
  273SOL    HW2 6782   7.646   0.006   8.798  1.3867  0.9814  0.4592
  274SOL     OW 6783   3.666   0.210   0.434 -0.3153  0.0961  0.0722
  274SOL    HW1 6784   3.732   0.148   0.466 -1.3332 -0.8810  0.3670
  274SOL    HW2 6785   3.678   0.288   0.488  0.3097 -0.2380  0.4224
  275SOL     OW 6786   2.888   2.614   3.889  0.0169  0.7078  0.4985
  275SOL    HW1 6787   2.836   2.581   3.961 -0.0147 -0.8760 -0.2240
  275SOL    HW2 6788   2.833   2.680   3.847 -0.5223  0.6083  1.0485
  276SOL     OW 6789   8.803   6.529   2.016 -0.1320  0.0375 -0.2223
  276SOL    HW1 6790   8.795   6.506   2.109  0.6855  1.1462  0.1490
  276SOL    HW2 6791   8.748   6.465   1.971 -0.0204 -0.9376  0.9623
  277SOL     OW 6792   4.758   7.901   2.229 -0.6327  0.1545  0.9067
  277SOL    HW1 6793   4.826   7.838   2.253 -0.9737 -0.5048  0.2096
  277SOL    HW2 6794   4.678   7.848   2.224 -0.7207  0.4047 -0.8145
  278SOL     OW 6795   3.294   0.698   9.049  0.0526 -0.0450 -0.1146
  278SOL    HW1 6796   3.246   0.765   9.001  1.8672  0.6032 -1.1275
  278SOL    HW2 6797   3.295   0.730   9.139 -0.9828  0.1463 -0.1550
  279SOL     OW 6798   5.279   4.538   3.746  0.0216  0.4298  0.0897
  279SOL    HW1 6799   5.373   4.522   3.732  0.2640  1.6359  0.2677
  279SOL    HW2 6800   5.238   4.511   3.664  0.4739 -0.4193  0.1246
  280SOL     OW 6801   9.088   8.753   1.020  0.0015  0.5949 -0.0353
  280SOL    HW1 6802   9.135   8.742   1.103 -0.6193 -0.8132  0.1597
  280SOL    HW2 6803   9.127   8.689   0.961 -1.8214 -0.8440  0.2368
  281SOL     OW 6804   3.347   7.941   7.944 -0.3159 -0.3824 -0.0870
  281SOL    HW1 6805   3.389   7.974   7.864  0.1104 -0.4770  0.0998
  281SOL    HW2 6806   3.418   7.903   7.995 -0.4348  0.4900  0.7526
  282SOL     OW 6807   0.354   4.436   4.189  0.2310  0.1323  0.4122
  282SOL    HW1 6808   0.304   4.390   4.121 -0.8337  0.4936  0.9306
  282SOL    HW2 6809   0.353   4.528   4.161 -0.9501  0.4221  1.3286
  283SOL     OW 6810   7.812   2.078   0.613  0.0068 -0.1330  0.0961
  283SOL    HW1 6811   7.897   2.034   0.604 -0.2670 -0.9255  1.2210
  283SOL    HW2 6812   7.820   2.156   0.559  2.2133  0.8773  1.6998
  284SOL     OW 6813   9.103   7.158   8.838 -0.3199  0.2675 -0.6509
  284SOL    HW1 6814   9.180   7.188   8.886 -1.3960  1.0094  0.6838
  284SOL    HW2 6815   9.128   7.166   8.746  2.0697 -1.8703 -0.2930
  285SOL     OW 6816   8.232   4.459   2.827  0.0336 -0.5718  0.1859
  285SOL    HW1 6817   8.151   4.410   2.838 -0.5063  0.1489 -0.4438
  285SOL    HW2 6818   8.284   4.438   2.904 -0.2848 -1.9134  0.0528
  286SOL     OW 6819   0.889   3.307   1.198  0.6910 -0.1315  0.1744
  286SOL    HW1 6820   0.957   3.373   1.211  1.0561 -0.2821 -0.8638
  286SOL    HW2 6821   0.819   3.354   1.154  0.5820 -0.2338  0.2397
  287SOL     OW 6822   3.669   5.215   0.687 -0.0820  0.0930  0.0342
  287SOL    HW1 6823   3.622   5.249   0.611 -1.5499 -0.5347  0.6140
  287SOL    HW2 6824   3.603   5.216   0.757  0.9934 -0.1632  1.0655
  288SOL     OW 6825   6.019   5.593   4.940  0.2568 -0.3700 -0.1204
  288SOL    HW1 6826   6.063   5.664   4.987 -1.8287  1.1445 -0.2677
  288SOL    HW2 6827   6.034   5.515   4.994  3.0296  0.0196 -0.2020
  289SOL     OW 6828   9.088   5.378   2.048 -0.0057  0.6571  0.4464
  289SOL    HW1 6829   9.029   5.340   2.113 -1.4577 -1.0699 -1.7323
  289SOL    HW2 6830   9.123   5.457   2.090  0.4848 -1.2105  3.9093
  290SOL     OW 6831   6.931   2.488   6.769  0.4236 -0.1377 -0.0859
  290SOL    HW1 6832   6.959   2.578   6.788  0.4462 -0.2948  0.6905
  290SOL    HW2 6833   6.838   2.488   6.791  0.4332 -0.3080 -0.0434
  291SOL     OW 6834   5.189   0.021   7.950  0.0512 -0.3084  0.0658
  291SOL    HW1 6835   5.227  -0.024   7.874  0.5560  2.2081 -1.2648
  291SOL    HW2 6836   5.259   0.079   7.981 -1.0254  0.6404  0.7997
  292SOL     OW 6837   8.540   2.877   5.632 -0.4638  0.2704  0.0313
  292SOL    HW1 6838   8.513   2.891   5.722  1.4878 -1.1559  0.9113
  292SOL    HW2 6839   8.516   2.787   5.612  3.3170 -1.1313  0.9116
  293SOL     OW 6840   0.931   8.136   2.280 -0.1431  0.2162  0.0532
  293SOL    HW1 6841   0.850   8.100   2.314  0.0590  0.6754  1.0495
  293SOL    HW2 6842   0.921   8.231   2.289  0.6156  0.2677  0.4794
  294SOL     OW 6843   4.363   3.631   2.529 -0.6546  0.2293  0.3861
  294SOL    HW1 6844   4.378   3.545   2.569 -1.2720  0.9347  2.2594
  294SOL    HW2 6845   4.441   3.646   2.475 -0.6340 -1.5754 -0.1608
  295SOL     OW 6846   6.093   3.922   0.938 -0.6619 -0.4234 -0.1837
  295SOL    HW1 6847   6.143   3.953   1.014 -1.3610  1.7652 -0.5645
  295SOL    HW2 6848   6.093   3.826   0.948 -0.2016 -0.2454  2.2243
  296SOL     OW 6849   2.590   5.004   8.419 -0.0163 -0.1748 -0.1419
  296SOL    HW1 6850   2.597   5.082   8.474  2.8955  0.0971 -0.6935
  296SOL    HW2 6851   2.674   4.959   8.430  0.5725 -0.3772 -3.8853
  297SOL     OW 6852   7.764   7.142   7.897  0.0177 -0.1338  0.0554
  297SOL    HW1 6853   7.809   7.068   7.937 -0.3442 -0.7780 -0.6978
  297SOL    HW2 6854   7.833   7.189   7.849  0.4028  0.4977  1.1705
  298SOL     OW 6855   1.676   1.431   7.011 -0.0814 -0.4090 -0.9024
  298SOL    HW1 6856   1.696   1.363   7.076  0.8212 -0.5353 -1.2917
  298SOL    HW2 6857   1.647   1.382   6.934  0.7543 -0.3819 -1.2481
  299SOL     OW 6858   5.040   8.301   3.734  0.0349  0.7604  0.2505
  299SOL    HW1 6859   5.038   8.232   3.667 -0.1264  1.1345 -0.1390
  299SOL    HW2 6860   5.131   8.306   3.761  0.4325  1.6945 -1.1188
  300SOL     OW 6861   5.336   8.535   9.214  0.7575 -0.2188  0.3173
  300SOL    HW1 6862   5.360   8.527   9.307 -2.7416  0.2919  1.4191
  300SOL    HW2 6863   5.363   8.451   9.176  0.3699 -1.3488  2.3377
  301SOL     OW 6864   0.071   4.306   8.900 -0.4752  0.0752  0.3711
  301SOL    HW1 6865   0.072   4.313   8.996  0.3481 -1.8648  0.5506
  301SOL    HW2 6866   0.023   4.225   8.882  0.3240 -0.1706 -0.7940
  302SOL     OW 6867   6.208   8.482   2.938  0.6245 -0.0589  0.1542
  302SOL    HW1 6868   6.281   8.424   2.957  0.3092 -0.5910 -0.2089
  302SOL    HW2 6869   6.130   8.432   2.962  0.2848 -0.2679 -1.2642
  303SOL     OW 6870   4.866   2.021   4.892  0.0097 -0.1106 -0.5475
  303SOL    HW1 6871   4.807   1.956   4.930  0.3123 -0.0981 -0.0444
  303SOL    HW2 6872   4.823   2.049   4.811 -2.1171  2.0064  1.1692
  304SOL     OW 6873   1.280   8.673   1.152 -0.6053 -0.7931 -0.2092
  304SOL    HW1 6874   1.288   8.750   1.096  1.5358  0.6924  1.9255
  304SOL    HW2 6875   1.351   8.615   1.123 -0.3829 -0.6451  0.0311
  305SOL     OW 6876   1.886   4.657   8.835  0.2311  0.2088 -0.3857
  305SOL    HW1 6877   1.841   4.738   8.862 -2.0391 -1.4174  1.1002
  305SOL    HW2 6878   1.894   4.607   8.916 -0.2446 -1.8902 -1.5833
  306SOL     OW 6879   1.056   7.026   3.267  0.5034 -0.2178 -0.3204
  306SOL    HW1 6880   1.046   6.951   3.324 -1.8640 -0.6858 -1.2644
  306SOL    HW2 6881   0.973   7.073   3.273  1.1963  1.2150 -1.2897
  307SOL     OW 6882   7.312   0.523   0.953  0.7841 -0.2206  0.0589
  307SOL    HW1 6883   7.300   0.456   1.020  2.9075 -0.6108  0.1364
  307SOL    HW2 6884   7.266   0.490   0.876 -0.3927 -0.4923  0.8619
  308SOL     OW 6885   1.565   6.324   0.941 -0.8256 -0.0305  0.1586
  308SOL    HW1 6886   1.558   6.248   0.884  1.3858  1.0620 -1.7296
  308SOL    HW2 6887   1.602   6.290   1.022 -0.2598 -1.0523 -0.5016
  309SOL     OW 6888   5.781   7.442   0.963 -0.6842 -0.0834 -0.0310
  309SOL    HW1 6889   5.782   7.357   0.919  2.0379  0.0052 -0.2939
  309SOL    HW2 6890   5.825   7.502   0.902  0.3703  0.7510  1.4740
  310SOL     OW 6891   0.206   9.062   3.039 -0.8596 -0.4847  0.5842
  310SOL    HW1 6892   0.126   9.080   2.989 -0.6688  1.4533  0.9076
  310SOL    HW2 6893   0.247   8.988   2.994 -0.5908  1.2911 -2.2892
  311SOL     OW 6894   3.094   4.597   1.666 -0.2480  0.3568  0.0826
  311SOL    HW1 6895   3.100   4.684   1.704  0.6179  0.7885 -1.0275
  311SOL    HW2 6896   3.183   4.575   1.638 -0.5141 -0.7348  0.0194
  312SOL     OW 6897   6.137   7.167   8.673 -0.6586  0.8062  0.4396
  312SOL    HW1 6898   6.202   7.105   8.641 -2.8086 -0.5263 -1.6935
  312SOL    HW2 6899   6.083   7.117   8.734 -1.9223  0.7006 -0.6955
  313SOL     OW 6900   1.519   1.121   2.899  0.1151 -0.3563  0.1786
  313SOL    HW1 6901   1.448   1.183   2.878  0.7414  1.3787  2.7004
  313SOL    HW2 6902   1.480   1.061   2.963  0.9185  0.8907  1.9412
  314SOL     OW 6903   3.053   6.200   7.978 -0.3028  0.4737 -0.2603
  314SOL    HW1 6904   3.049   6.107   7.956  2.7451  0.8170 -2.9671
  314SOL    HW2 6905   3.118   6.205   8.048 -0.1720  0.5802 -0.3879
  315SOL     OW 6906   9.146   0.309   6.764 -0.2409 -0.0783 -0.6668
  315SOL    HW1 6907   9.145   0.229   6.712 -0.9555 -0.2112 -0.4609
  315SOL    HW2 6908   9.126   0.379   6.702  0.8686  0.0165 -0.9439
  316SOL     OW 6909   0.908   1.973   6.028  0.0603 -0.4668  0.6584
  316SOL    HW1 6910   0.971   1.901   6.025 -1.8516 -2.2251 -0.6409
  316SOL    HW2 6911   0.913   2.012   5.940 -0.0328 -0.0665  0.8321
  317SOL     OW 6912   0.359   1.324   8.029  0.2540  0.2659  0.4059
  317SOL    HW1 6913   0.354   1.401   8.085 -0.7378 -0.8792  1.9720
  317SOL    HW2 6914   0.271   1.316   7.992  0.2356 -0.3444  0.5776
  318SOL     OW 6915   0.760   4.788   7.927  0.2821  0.2982  0.3427
  318SOL    HW1 6916   0.769   4.784   7.832  0.0583  2.5381  0.1581
  318SOL    HW2 6917   0.681   4.841   7.941 -0.6329 -1.3677  1.8085
  319SOL     OW 6918   8.750   5.077   8.840  0.3506  0.2014 -0.1821
  319SOL    HW1 6919   8.806   5.098   8.765 -1.0829  1.6777 -0.8916
  319SOL    HW2 6920   8.670   5.126   8.825 -0.2803 -0.0656  1.9640
  320SOL     OW 6921   6.529   8.446   2.683  0.5075  0.4243 -0.1557
  320SOL    HW1 6922   6.579   8.416   2.607  2.5157  0.4220  1.0746
  320SOL    HW2 6923   6.482   8.369   2.714  0.1072  0.2966 -1.0674
  321SOL     OW 6924   6.514   4.532   1.474 -0.7448 -0.0397 -0.0685
  321SOL    HW1 6925   6.481   4.446   1.501 -1.2257 -0.0182 -0.5669
  321SOL    HW2 6926   6.439   4.575   1.433 -0.1491  0.0845 -1.0629
  322SOL     OW 6927   3.996   3.224   2.748 -0.5747 -0.3408 -0.2750
  322SOL    HW1 6928   3.930   3.272   2.798 -0.1549  0.5597 -0.5593
  322SOL    HW2 6929   4.012   3.278   2.671  2.4353  0.9086  1.0547
  323SOL     OW 6930   9.346   8.577   1.629  0.4640  0.2182  0.0892
  323SOL    HW1 6931   9.301   8.497   1.653  1.5060  0.3569  2.8123
  323SOL    HW2 6932   9.428   8.547   1.590  0.1790 -0.0079 -0.3523
  324SOL     OW 6933   9.344   8.148   9.095 -0.2879  0.0857 -0.3934
  324SOL    HW1 6934   9.431   8.158   9.134  0.6933  0.0871 -2.4408
  324SOL    HW2 6935   9.308   8.070   9.137 -0.4998  1.5876  2.4743
  325SOL     OW 6936   7.064   1.922   6.392 -0.1893 -0.6910  0.2443
  325SOL    HW1 6937   6.972   1.944   6.378  0.1478  0.8226  0.2893
  325SOL    HW2 6938   7.110   2.005   6.386  1.2827 -1.5237 -0.5519
  326SOL     OW 6939   8.791   2.938   9.182 -0.3445  0.0582  0.2610
  326SOL    HW1 6940   8.869   2.883   9.173 -0.0119  0.5142  0.3220
  326SOL    HW2 6941   8.734   2.910   9.110 -0.9871 -1.6394  1.3546
  327SOL     OW 6942   5.420   6.544   7.117  0.6903 -0.0962  0.0793
  327SOL    HW1 6943   5.376   6.619   7.078  1.6289  0.4375  0.0151
  327SOL    HW2 6944   5.409   6.474   7.053 -0.3877 -0.0916  0.2448
  328SOL     OW 6945   3.687   8.327   7.393 -0.7231  0.2271  0.1676
  328SOL    HW1 6946   3.609   8.272   7.397 -1.2089  0.9628  1.3518
  328SOL    HW2 6947   3.669   8.388   7.321 -0.3089 -0.9115 -0.9500
  329SOL     OW 6948   8.481   1.942   1.742  0.3423  0.5343 -0.0441
  329SOL    HW1 6949   8.403   1.923   1.794  0.3587  1.2552  0.2499
  329SOL    HW2 6950   8.489   1.867   1.682  0.7672 -0.6933  1.4806
  330SOL     OW 6951   8.747   1.980   5.855 -0.2319 -0.6745  0.1199
  330SOL    HW1 6952   8.788   1.942   5.933  0.8971 -0.4023 -0.3212
  330SOL    HW2 6953   8.659   2.004   5.884  0.4591  0.2451  1.5735
  331SOL     OW 6954   6.022   7.005   5.765  0.4054  0.3382  0.1614
  331SOL    HW1 6955   6.073   6.927   5.788 -0.1932  0.2420  1.2418
  331SOL    HW2 6956   6.010   6.998   5.670  2.1003  0.2059 -0.0719
  332SOL     OW 6957   4.366   0.392   2.765  0.0569  0.6215 -0.3655
  332SOL    HW1 6958   4.455   0.385   2.732  1.4823  0.7109  3.1064
  332SOL    HW2 6959   4.323   0.312   2.734  1.0264  0.9179 -2.7085
  333SOL     OW 6960   8.914   2.358   5.276  0.8339  0.4712 -0.2593
  333SOL    HW1 6961   8.896   2.306   5.354  0.3896 -2.7656 -2.3383
  333SOL    HW2 6962   8.831   2.363   5.230  1.3025  1.4499 -1.0493
  334SOL     OW 6963   5.680   6.256   4.524 -0.2202  0.1903  0.4079
  334SOL    HW1 6964   5.675   6.335   4.579  0.8649  1.6309 -1.4510
  334SOL    HW2 6965   5.750   6.204   4.564  0.5111  1.1786  0.4398
  335SOL     OW 6966   1.540   1.842   0.673 -0.1219  0.3995 -0.1529
  335SOL    HW1 6967   1.517   1.929   0.705 -0.0267  0.5926 -0.5997
  335SOL    HW2 6968   1.556   1.855   0.579  0.6363  0.0394 -0.0731
  336SOL     OW 6969   0.593   2.546   8.455  0.3964  0.4395  0.9779
  336SOL    HW1 6970   0.504   2.512   8.440  0.0100  2.2286 -1.4765
  336SOL    HW2 6971   0.579   2.637   8.482  1.4564  1.2248 -0.9647
  337SOL     OW 6972   4.542   1.836   7.817 -0.3897  0.1192 -0.3364
  337SOL    HW1 6973   4.559   1.763   7.876 -0.2158  0.3937 -0.0475
  337SOL    HW2 6974   4.452   1.862   7.837  0.5849  2.1403  1.9498
  338SOL     OW 6975   8.031   8.684   8.881 -0.7857  0.2751  0.0008
  338SOL    HW1 6976   8.086   8.724   8.814 -0.8761 -1.3196 -1.0699
  338SOL    HW2 6977   8.093   8.642   8.941 -0.7673  0.2654 -0.0246
  339SOL     OW 6978   7.810   3.286   5.115  0.7967 -0.1688  0.4720
  339SOL    HW1 6979   7.724   3.257   5.148  0.2342 -0.4606 -1.1251
  339SOL    HW2 6980   7.827   3.368   5.161 -1.0888  0.7053 -0.2686
  340SOL     OW 6981   3.598   8.451   0.920 -0.3184 -0.4145  0.1729
  340SOL    HW1 6982   3.582   8.417   0.832 -2.1137 -1.7450  0.9574
  340SOL    HW2 6983   3.511   8.471   0.954  0.4000  0.8492  1.3827
  341SOL     OW 6984   7.646   5.081   0.773  0.5787  0.2421 -0.2981
  341SOL    HW1 6985   7.675   4.991   0.782  1.3698  0.5418  0.1901
  341SOL    HW2 6986   7.663   5.102   0.681 -0.2818 -0.3266 -0.6002
  342SOL     OW 6987   4.401   6.233   2.022 -0.3066 -0.0180 -0.1503
  342SOL    HW1 6988   4.481   6.242   1.971 -0.2450 -0.3659 -0.1214
  342SOL    HW2 6989   4.331   6.235   1.957 -0.2126 -0.7404 -0.2853
  343SOL     OW 6990   7.061   8.514   6.517  0.1020 -0.2218 -0.4634
  343SOL    HW1 6991   7.008   8.462   6.577  0.9529 -0.1929  0.3418
  343SOL    HW2 6992   7.148   8.516   6.558  1.1092 -1.4233 -2.4063
  344SOL     OW 6993   2.108   2.076   5.437  0.0079 -0.0626  0.4674
  344SOL    HW1 6994   2.191   2.082   5.389 -1.4416 -0.2910 -2.2213
  344SOL    HW2 6995   2.133   2.037   5.521  2.4009 -1.8663 -0.9216
  345SOL     OW 6996   3.093   8.989   0.318  0.1903  0.4169 -0.1098
  345SOL    HW1 6997   3.086   9.083   0.299  0.1330  0.3126 -0.5981
  345SOL    HW2 6998   3.004   8.963   0.343 -0.1372  0.1653 -1.4721
  346SOL     OW 6999   1.651   5.845   1.463 -0.8440  0.1699  0.3302
  346SOL    HW1 7000   1.588   5.825   1.394 -0.1697 -0.5591 -0.0900
  346SOL    HW2 7001   1.722   5.892   1.419  0.0763 -1.1858  0.3044
  347SOL     OW 7002   0.719   6.329   6.209 -0.1593  0.5053  0.1390
  347SOL    HW1 7003   0.701   6.314   6.302 -0.1517  0.8555  0.1985
  347SOL    HW2 7004   0.727   6.424   6.201 -0.5808  0.5097 -0.2926
  348SOL     OW 7005   4.907   8.879   0.905 -0.4225 -0.1214 -0.0411
  348SOL    HW1 7006   4.974   8.934   0.864  0.7876 -0.9603  0.7343
  348SOL    HW2 7007   4.915   8.794   0.861 -0.1326 -0.5809  0.8770
  349SOL     OW 7008   4.327   2.226   8.167 -0.1781 -0.0544  0.5325
  349SOL    HW1 7009   4.394   2.225   8.099 -1.1766  0.2446 -0.4932
  349SOL    HW2 7010   4.313   2.134   8.189  0.5233 -0.1210  0.7294
  350SOL     OW 7011   5.752   4.691   7.306 -0.4366  0.4605  0.0469
  350SOL    HW1 7012   5.818   4.717   7.241 -1.3477  0.6150 -0.8434
  350SOL    HW2 7013   5.778   4.603   7.332  0.5238  0.7905  0.2540
  351SOL     OW 7014   3.445   2.297   7.110  0.1775 -0.4154 -0.2143
  351SOL    HW1 7015   3.536   2.324   7.097  0.3384 -0.5280  0.6541
  351SOL    HW2 7016   3.393   2.375   7.090  0.4798 -0.2606 -0.3961
  352SOL     OW 7017   6.090   2.404   1.852 -0.1466  0.6596 -0.0642
  352SOL    HW1 7018   6.034   2.326   1.856  0.6882 -0.0421 -1.4989
  352SOL    HW2 7019   6.038   2.472   1.895 -0.6147 -0.8215  1.8724
  353SOL     OW 7020   6.571   8.964   2.027 -0.4007 -0.3016 -0.2091
  353SOL    HW1 7021   6.562   9.037   1.966  0.3284 -1.0260 -1.2235
  353SOL    HW2 7022   6.509   8.898   1.995  0.5701 -1.0117 -0.6980
  354SOL     OW 7023   5.335   8.258   2.773 -0.4585  0.3545  0.8542
  354SOL    HW1 7024   5.336   8.165   2.747 -2.7434  0.2661  0.8716
  354SOL    HW2 7025   5.283   8.301   2.705  1.0938  1.7649  0.5124
  355SOL     OW 7026   1.068   1.109   0.493  0.2073 -0.0216  0.0007
  355SOL    HW1 7027   1.061   1.158   0.411  0.4526 -0.9617 -0.6009
  355SOL    HW2 7028   1.149   1.140   0.533 -0.1196  0.7340  0.1016
  356SOL     OW 7029   6.634   2.281   7.657 -0.2863 -0.1413 -0.4812
  356SOL    HW1 7030   6.548   2.298   7.621 -0.3726 -0.4161 -0.4093
  356SOL    HW2 7031   6.645   2.186   7.650  0.0446 -0.0993 -0.5719
  357SOL     OW 7032   6.440   2.261   0.012  0.5510  0.3469  0.1234
  357SOL    HW1 7033   6.477   2.203  -0.054  0.0227 -1.1742  1.1169
  357SOL    HW2 7034   6.347   2.266  -0.009  0.4801  0.3122  0.4238
  358SOL     OW 7035   5.661   0.982   8.792 -0.0241 -0.1505  0.5430
  358SOL    HW1 7036   5.730   0.920   8.815  0.6610  0.5204  0.3145
  358SOL    HW2 7037   5.592   0.965   8.857 -0.7719 -2.5574 -0.7278
  359SOL     OW 7038   6.890   0.454   2.823  0.1988 -0.8124  0.0244
  359SOL    HW1 7039   6.832   0.525   2.796  0.9434 -0.0690  0.3495
  359SOL    HW2 7040   6.839   0.374   2.806 -1.0830 -0.1754  0.7123
  360SOL     OW 7041   1.221   8.642   4.993 -0.0269  0.3169  0.1374
  360SOL    HW1 7042   1.136   8.601   5.006  0.8336 -1.4128  0.5068
  360SOL    HW2 7043   1.236   8.694   5.072 -0.5663  0.3344  0.2292
  361SOL     OW 7044   4.045   5.036   8.713  0.4408 -0.0953  0.8172
  361SOL    HW1 7045   4.105   5.034   8.787 -1.4491 -1.4601  2.4063
  361SOL    HW2 7046   3.974   4.976   8.737 -1.2403  0.8998 -1.2561
  362SOL     OW 7047   1.064   4.281   2.224 -0.1171  0.9524 -0.4044
  362SOL    HW1 7048   1.002   4.343   2.264 -0.8527  0.3523 -0.5801
  362SOL    HW2 7049   1.079   4.315   2.136 -0.7287  0.7494 -0.5936
  363SOL     OW 7050   4.516   4.252   0.695  0.0392 -0.0012  0.2814
  363SOL    HW1 7051   4.564   4.313   0.752  1.4557  1.2152 -2.0615
  363SOL    HW2 7052   4.578   4.232   0.625 -1.4884 -1.7673 -0.6265
  364SOL     OW 7053   0.292   4.701   6.965  0.2413  0.2901 -0.1458
  364SOL    HW1 7054   0.249   4.706   7.050  0.6311 -2.5220  0.2983
  364SOL    HW2 7055   0.383   4.680   6.985  0.3957 -0.1625 -1.2422
  365SOL     OW 7056   7.223   4.615   0.839  0.7414  0.0709 -0.1963
  365SOL    HW1 7057   7.218   4.533   0.888  1.5538  0.2342  0.1846
  365SOL    HW2 7058   7.166   4.602   0.764 -0.2292 -0.3273  0.5820
  366SOL     OW 7059   3.824   2.585   4.267  0.1591 -0.0196  0.6180
  366SOL    HW1 7060   3.875   2.527   4.323 -0.5446 -0.9465  0.3456
  366SOL    HW2 7061   3.733   2.556   4.280 -0.1947  0.9552  0.3797
  367SOL     OW 7062   4.932   3.852   5.756 -0.0885 -0.1118 -0.3912
  367SOL    HW1 7063   4.964   3.936   5.725 -0.2802 -0.3783 -1.3501
  367SOL    HW2 7064   4.952   3.791   5.684 -2.8900 -0.2581 -1.1714
  368SOL     OW 7065   6.081   6.365   2.689 -0.4008 -0.2931 -0.4084
  368SOL    HW1 7066   6.044   6.376   2.602  0.3273  0.6373 -0.6213
  368SOL    HW2 7067   6.174   6.384   2.678 -0.4039  0.4565  0.6821
  369SOL     OW 7068   0.530   3.197   5.784 -0.1469 -0.2989  0.0550
  369SOL    HW1 7069   0.527   3.106   5.812  1.3747  0.3996  2.8672
  369SOL    HW2 7070   0.491   3.246   5.856 -2.0117  1.2700 -1.8755
  370SOL     OW 7071   0.094   2.184   4.238  0.7999  0.9203 -0.0794
  370SOL    HW1 7072   0.082   2.279   4.242  0.5999  0.8620  1.4003
  370SOL    HW2 7073   0.037   2.150   4.308 -0.5319 -0.4459 -1.7200
  371SOL     OW 7074   9.361   6.438   4.889 -0.3181 -0.1584 -0.3338
  371SOL    HW1 7075   9.383   6.407   4.801  1.3409 -1.5189  0.4961
  371SOL    HW2 7076   9.265   6.441   4.890 -0.4036 -1.0990 -1.8738
  372SOL     OW 7077   0.311   4.488   3.252  0.0851 -0.8314  0.1067
  372SOL    HW1 7078   0.243   4.467   3.316  0.4986 -0.3926  0.6997
  372SOL    HW2 7079   0.369   4.412   3.253 -0.8715 -1.6125 -1.0703
  373SOL     OW 7080   2.679   0.369   4.374  0.4402 -0.3149 -0.3765
  373SOL    HW1 7081   2.753   0.372   4.434  0.4041  0.3261 -0.3634
  373SOL    HW2 7082   2.718   0.370   4.287  0.4425  0.2077 -0.3708
  374SOL     OW 7083   5.176   7.620   7.417 -0.5468  0.0112 -0.0858
  374SOL    HW1 7084   5.111   7.660   7.474 -0.7044 -0.8734  0.3834
  374SOL    HW2 7085   5.255   7.673   7.429 -0.5182 -0.2738  1.1386
  375SOL     OW 7086   1.256   6.056   5.689 -0.1498 -0.1001  0.9331
  375SOL    HW1 7087   1.338   6.085   5.650 -0.3899 -1.6710 -0.9457
  375SOL    HW2 7088   1.271   5.964   5.711 -1.2190 -0.2500  1.1025
  376SOL     OW 7089   6.747   0.755   4.843  0.2720  0.2495  0.0073
  376SOL    HW1 7090   6.772   0.782   4.755  0.9784  0.7509  0.3492
  376SOL    HW2 7091   6.799   0.811   4.901 -1.4882  1.1631  0.7636
  377SOL     OW 7092   8.886   7.288   1.827 -0.0831 -0.5235  0.2695
  377SOL    HW1 7093   8.820   7.317   1.889  1.0709  0.3597  1.1322
  377SOL    HW2 7094   8.945   7.232   1.879 -0.9448 -2.5575 -0.8250
  378SOL     OW 7095   7.469   2.716   2.592 -0.3305 -0.4369 -0.6752
  378SOL    HW1 7096   7.458   2.675   2.677  0.7421 -1.8454 -1.1582
  378SOL    HW2 7097   7.443   2.807   2.604  0.9290 -0.2936  1.4581
  379SOL     OW 7098   6.696   3.200   0.344  0.2531  0.2295  0.1315
  379SOL    HW1 7099   6.714   3.247   0.426  0.3359 -0.0792  0.2901
  379SOL    HW2 7100   6.772   3.142   0.332  0.2108  0.2256 -0.1305
  380SOL     OW 7101   0.384   6.539   0.040  0.3245 -0.1613  0.4118
  380SOL    HW1 7102   0.393   6.587   0.122  0.8107 -0.8197  0.7550
  380SOL    HW2 7103   0.435   6.590  -0.023 -0.0358  0.3380  0.5170
  381SOL     OW 7104   3.828   8.898   1.878  0.5681  0.0895  0.4357
  381SOL    HW1 7105   3.844   8.870   1.968  0.3852  0.1350  0.4827
  381SOL    HW2 7106   3.862   8.827   1.824  0.5800  0.0141  0.5432
  382SOL     OW 7107   7.015   3.070   3.329 -0.1203 -0.4744 -0.6443
  382SOL    HW1 7108   7.008   3.165   3.322 -0.8887 -0.3779  1.0322
  382SOL    HW2 7109   6.945   3.036   3.273 -1.2877  0.0294  0.4683
  383SOL     OW 7110   9.069   6.814   1.875  0.1816 -0.3449 -0.2229
  383SOL    HW1 7111   9.156   6.817   1.836  0.7506  0.2469  1.0327
  383SOL    HW2 7112   9.075   6.746   1.942  0.0197  0.4428  0.6147
  384SOL     OW 7113   7.560   6.009   2.339  0.2065 -0.4500  0.5077
  384SOL    HW1 7114   7.608   6.083   2.301 -0.3370 -0.2176  0.2665
  384SOL    HW2 7115   7.474   6.013   2.299  0.1593 -1.1962  0.5275
  385SOL     OW 7116   1.892   1.690   4.451 -0.2483 -0.2348 -0.3499
  385SOL    HW1 7117   1.865   1.677   4.542 -0.9307  0.7450 -0.3931
  385SOL    HW2 7118   1.826   1.749   4.415  0.9230  0.7231 -1.0059
  386SOL     OW 7119   9.157   0.049   1.639 -0.1411  0.8100  0.2740
  386SOL    HW1 7120   9.121   0.015   1.721  0.3444  2.6097  1.2857
  386SOL    HW2 7121   9.251   0.034   1.646  0.0016  1.7168  0.4502
  387SOL     OW 7122   5.312   4.350   2.361  0.4514  0.2792  0.0851
  387SOL    HW1 7123   5.217   4.339   2.354  0.3651 -0.6952  2.1345
  387SOL    HW2 7124   5.344   4.265   2.390  1.9582  0.6479 -0.3986
  388SOL     OW 7125   1.155   3.971   8.346 -0.0066 -0.1204  0.0411
  388SOL    HW1 7126   1.093   4.039   8.319 -0.5018 -0.9338 -0.9339
  388SOL    HW2 7127   1.102   3.910   8.398 -0.1279 -0.9854 -1.0574
  389SOL     OW 7128   3.550   0.531   3.205  0.0357  0.4355 -0.0882
  389SOL    HW1 7129   3.575   0.462   3.144 -1.2762 -2.0263  1.9521
  389SOL    HW2 7130   3.461   0.554   3.180 -0.4003 -0.3754  0.6613
  390SOL     OW 7131   6.510   3.973   1.646 -0.3265 -0.2088  0.2247
  390SOL    HW1 7132   6.600   3.989   1.618 -0.6304  1.3842  0.0720
  390SOL    HW2 7133   6.508   3.997   1.738 -0.8708  1.0147 -0.0856
  391SOL     OW 7134   1.814   6.822   1.547 -0.8476 -0.2828  0.0579
  391SOL    HW1 7135   1.726   6.791   1.568 -1.3578  0.6306 -0.6729
  391SOL    HW2 7136   1.809   6.917   1.556 -0.3201 -0.1054 -1.3127
  392SOL     OW 7137   1.016   5.552   1.925  0.3175  0.4127  0.0220
  392SOL    HW1 7138   1.001   5.633   1.877  1.8720  0.9595  0.3905
  392SOL    HW2 7139   0.948   5.549   1.992 -0.4946  0.7797 -0.7786
  393SOL     OW 7140   5.428   1.646   1.552 -0.3111 -0.5297  0.6464
  393SOL    HW1 7141   5.422   1.618   1.460  1.0357 -1.4166  0.7927
  393SOL    HW2 7142   5.450   1.566   1.599  0.1897  0.1485  1.5788
  394SOL     OW 7143   4.031   1.200   8.453 -0.1715  0.9648 -0.3665
  394SOL    HW1 7144   4.019   1.278   8.506 -0.7218  0.4177  0.3441
  394SOL    HW2 7145   3.965   1.138   8.486  0.5084  0.0648 -0.6343
  395SOL     OW 7146   2.197   8.307   8.610 -0.4847 -0.0714  0.4065
  395SOL    HW1 7147   2.202   8.366   8.536 -0.1432  0.1114  0.5758
  395SOL    HW2 7148   2.238   8.355   8.682 -1.1679 -0.0842  0.8159
  396SOL     OW 7149   3.769   7.151   4.295  0.1207 -0.3160 -0.4339
  396SOL    HW1 7150   3.795   7.089   4.227 -1.5577 -0.0757 -1.3311
  396SOL    HW2 7151   3.733   7.096   4.365  0.5091 -0.4665 -0.3491
  397SOL     OW 7152   4.620   3.183   6.790  0.1007  0.2910 -0.0767
  397SOL    HW1 7153   4.672   3.263   6.797 -0.8127  0.9014 -0.1404
  397SOL    HW2 7154   4.576   3.191   6.705  0.5028 -0.5913 -0.3802
  398SOL     OW 7155   4.990   7.423   2.635  0.6133  0.1691  0.1403
  398SOL    HW1 7156   4.955   7.463   2.715 -0.6141 -0.7944  0.1025
  398SOL    HW2 7157   4.948   7.338   2.630  1.5145 -0.2346 -0.9680
  399SOL     OW 7158   4.995   5.919   3.356  0.0775  0.2965  0.5757
  399SOL    HW1 7159   5.058   5.987   3.331 -0.3570 -0.3873 -2.9235
  399SOL    HW2 7160   5.030   5.882   3.437  3.5056  0.8121 -0.4915
  400SOL     OW 7161   3.734   0.885   3.059 -0.3751  0.2815  0.6141
  400SOL    HW1 7162   3.740   0.977   3.031 -0.4550  0.4565  1.1539
  400SOL    HW2 7163   3.648   0.856   3.029 -0.4032  0.4231  0.5556
  401SOL     OW 7164   7.617   3.453   6.065 -0.3594 -0.0044  0.2131
  401SOL    HW1 7165   7.674   3.377   6.076 -0.3224 -0.0030  0.0353
  401SOL    HW2 7166   7.534   3.417   6.036  0.0438  0.1200 -1.1516
  402SOL     OW 7167   5.827   2.275   7.166 -0.6563  0.3368 -0.2643
  402SOL    HW1 7168   5.753   2.250   7.111 -0.0244 -1.7547 -0.2388
  402SOL    HW2 7169   5.812   2.230   7.249  0.7570 -0.3514 -0.3576
  403SOL     OW 7170   2.960   4.727   0.172 -0.4373  0.4543  0.0538
  403SOL    HW1 7171   2.889   4.785   0.199  0.6558  1.6971  0.3639
  403SOL    HW2 7172   3.013   4.780   0.113  0.3923 -0.3604  0.0427
  404SOL     OW 7173   3.279   1.471   8.917 -0.2584 -0.2786  0.2326
  404SOL    HW1 7174   3.222   1.438   8.848 -0.4878  0.1637  0.2077
  404SOL    HW2 7175   3.352   1.512   8.870  0.3145 -1.2227  0.2637
  405SOL     OW 7176   5.473   2.278   4.259  0.3053 -0.6425 -0.0801
  405SOL    HW1 7177   5.394   2.238   4.294 -0.9525 -0.3986 -2.4727
  405SOL    HW2 7178   5.443   2.359   4.218  1.9220 -0.1672 -0.4015
  406SOL     OW 7179   3.771   1.478   9.151 -0.0812  0.3253 -0.1296
  406SOL    HW1 7180   3.709   1.467   9.223 -0.6893  0.6247 -0.5923
  406SOL    HW2 7181   3.814   1.393   9.143  2.0876  1.0558  2.4184
  407SOL     OW 7182   7.594   3.804   7.378  0.4166 -0.1853 -0.2794
  407SOL    HW1 7183   7.642   3.878   7.416  0.3193  0.1386 -0.7801
  407SOL    HW2 7184   7.503   3.819   7.402  0.2679  0.3300 -1.1036
  408SOL     OW 7185   1.787   6.987   0.427 -0.8937 -0.0930  0.0213
  408SOL    HW1 7186   1.741   6.937   0.359 -0.8460 -0.8009  0.4950
  408SOL    HW2 7187   1.719   7.042   0.466 -1.1104 -0.3408 -0.0048
  409SOL     OW 7188   6.775   5.578   1.912  0.4326 -0.0789  0.6962
  409SOL    HW1 7189   6.713   5.650   1.919  0.0228 -0.2232 -0.8887
  409SOL    HW2 7190   6.860   5.620   1.904  0.1635  0.2789 -0.5526
  410SOL     OW 7191   7.773   8.356   2.748 -0.5041 -0.2184 -0.6472
  410SOL    HW1 7192   7.831   8.388   2.679  0.1599  1.3905  0.5899
  410SOL    HW2 7193   7.701   8.420   2.751 -0.4767 -0.2192  0.1990
  411SOL     OW 7194   2.729   1.089   8.949 -0.5314  0.2378 -0.2939
  411SOL    HW1 7195   2.639   1.103   8.921 -0.2305 -0.4056 -1.6810
  411SOL    HW2 7196   2.781   1.137   8.884  0.2486 -2.2965 -1.6473
  412SOL     OW 7197   8.262   3.098   6.744  0.3142 -0.2243  0.0009
  412SOL    HW1 7198   8.265   3.021   6.687  2.2096  0.5100 -0.9883
  412SOL    HW2 7199   8.347   3.097   6.789 -0.8506 -0.3881  2.3642
  413SOL     OW 7200   8.480   1.722   4.475 -0.1330  0.3385 -0.8669
  413SOL    HW1 7201   8.521   1.724   4.389  0.3857 -1.4264 -0.6858
  413SOL    HW2 7202   8.414   1.653   4.469  0.6399 -0.5514  0.4473
  414SOL     OW 7203   4.443   6.413   8.171  0.1169  0.0712  0.4939
  414SOL    HW1 7204   4.427   6.483   8.234  0.5463  0.7673 -0.1485
  414SOL    HW2 7205   4.531   6.382   8.192 -0.7249 -1.5272  1.9252
  415SOL     OW 7206   5.246   5.725   4.170  0.3808 -0.4316  0.4243
  415SOL    HW1 7207   5.254   5.661   4.099 -0.8410  0.8745 -0.9629
  415SOL    HW2 7208   5.179   5.688   4.228 -1.2308  0.0778 -1.0174
  416SOL     OW 7209   9.224   2.704   4.510 -0.0413 -0.4408  0.1277
  416SOL    HW1 7210   9.311   2.732   4.480  0.0929  0.8350  1.5902
  416SOL    HW2 7211   9.212   2.617   4.471  1.2204  0.0037 -1.3607
  417SOL     OW 7212   3.682   5.158   5.969 -0.4762  0.2378 -0.2045
  417SOL    HW1 7213   3.596   5.200   5.966 -0.3054  0.5655 -0.5669
  417SOL    HW2 7214   3.673   5.081   5.914 -0.7761 -0.1880  0.4237
  418SOL     OW 7215   0.542   1.789   6.822 -0.6985  0.3799  0.4672
  418SOL    HW1 7216   0.473   1.733   6.857 -0.8164 -0.1484 -0.5809
  418SOL    HW2 7217   0.507   1.822   6.740  0.5639 -0.4686 -0.4488
  419SOL     OW 7218   7.695   1.057   8.426  0.4725  0.3031 -0.3076
  419SOL    HW1 7219   7.631   1.053   8.497  0.6895 -0.9575 -0.1512
  419SOL    HW2 7220   7.778   1.031   8.467  0.7378  0.2464 -0.8745
  420SOL     OW 7221   8.450   5.686   7.236 -0.2463  0.0078  0.7769
  420SOL    HW1 7222   8.416   5.776   7.239 -0.7100 -0.1101 -0.4541
  420SOL    HW2 7223   8.519   5.688   7.170 -2.6537 -1.2588 -1.9840
  421SOL     OW 7224   5.987   5.846   1.579 -0.3867 -0.4724 -0.2943
  421SOL    HW1 7225   6.018   5.917   1.522  1.0190 -1.8292 -1.3278
  421SOL    HW2 7226   5.916   5.885   1.630  0.4824  1.7407 -0.6330
  422SOL     OW 7227   6.980   5.034   8.806  0.0313 -0.3096  0.2803
  422SOL    HW1 7228   6.898   5.072   8.837 -1.6983 -2.7262 -0.9867
  422SOL    HW2 7229   6.994   4.958   8.862  2.3992  0.9707  1.5587
  423SOL     OW 7230   7.991   6.607   6.063  0.0104  0.2983 -0.4751
  423SOL    HW1 7231   7.991   6.553   5.984 -0.0651 -0.0962 -0.2047
  423SOL    HW2 7232   7.947   6.688   6.036 -1.3362 -0.4017 -0.4522
  424SOL     OW 7233   3.709   3.330   3.446 -0.1051  0.3530  0.2127
  424SOL    HW1 7234   3.711   3.381   3.527 -0.8578 -0.3060  0.6557
  424SOL    HW2 7235   3.799   3.332   3.414 -0.0685  1.7389  0.3569
  425SOL     OW 7236   8.242   3.218   7.200  0.2483  0.9676  0.6522
  425SOL    HW1 7237   8.150   3.192   7.199  0.9703 -1.9932  1.2347
  425SOL    HW2 7238   8.259   3.247   7.110 -1.1044  1.0444  0.3871
  426SOL     OW 7239   3.827   1.246   3.910  0.4087 -0.7535  0.5200
  426SOL    HW1 7240   3.853   1.202   3.991 -0.2487  0.6465  1.5511
  426SOL    HW2 7241   3.849   1.338   3.926 -1.1352 -0.2152 -0.2827
  427SOL     OW 7242   8.606   0.309   2.110  0.9977 -0.4933 -0.6946
  427SOL    HW1 7243   8.691   0.314   2.154  0.0382  0.0517  1.2416
  427SOL    HW2 7244   8.547   0.275   2.177 -0.1508 -1.8006 -2.2946
  428SOL     OW 7245   8.145   8.472   4.989 -0.1461  0.2255  0.4036
  428SOL    HW1 7246   8.097   8.552   5.011 -0.5350  0.0318  0.2690
  428SOL    HW2 7247   8.114   8.448   4.902  2.0733  1.4886 -0.7951
  429SOL     OW 7248   1.503   4.715   2.599  0.2417  0.1695 -0.1744
  429SOL    HW1 7249   1.433   4.650   2.607  0.0997  0.2740 -0.5434
  429SOL    HW2 7250   1.463   4.787   2.549  0.9610 -0.2783 -1.4368
  430SOL     OW 7251   5.329   5.362   1.859  0.5053 -0.2567  0.6036
  430SOL    HW1 7252   5.243   5.325   1.838  1.2996 -0.9889 -1.5697
  430SOL    HW2 7253   5.329   5.370   1.954 -1.9203 -0.3385  0.6748
  431SOL     OW 7254   3.852   1.340   1.183  0.1436  0.0167 -0.0023
  431SOL    HW1 7255   3.856   1.282   1.107 -3.0090 -1.1371  0.5556
  431SOL    HW2 7256   3.840   1.280   1.257 -1.4872  1.2664  0.7910
  432SOL     OW 7257   3.946   3.611   5.598 -0.3081 -1.1288 -0.2890
  432SOL    HW1 7258   4.035   3.579   5.582 -0.2431 -0.5953 -1.0649
  432SOL    HW2 7259   3.959   3.690   5.650 -0.3015 -0.8338 -0.7357
  433SOL     OW 7260   7.449   1.771   2.054  0.3117  0.1495 -0.1848
  433SOL    HW1 7261   7.476   1.840   2.114  0.4194 -0.3683  0.3679
  433SOL    HW2 7262   7.388   1.717   2.104  1.8936 -1.4303  0.1345
  434SOL     OW 7263   2.370   2.651   3.138 -0.0256 -0.1896 -0.5601
  434SOL    HW1 7264   2.378   2.732   3.189  0.0485 -0.3337 -0.3433
  434SOL    HW2 7265   2.417   2.669   3.057 -1.3043  0.5286 -1.1782
  435SOL     OW 7266   2.921   7.842   5.843 -0.1640  0.0983  0.0088
  435SOL    HW1 7267   3.007   7.828   5.884 -1.0010 -2.1108  1.1791
  435SOL    HW2 7268   2.882   7.914   5.893 -1.0674 -2.3709  3.1474
  436SOL     OW 7269   6.077   4.531   2.035 -0.5254  0.0874  0.3089
  436SOL    HW1 7270   6.049   4.488   2.116 -2.6780  1.5737  0.4603
  436SOL    HW2 7271   6.018   4.495   1.968 -1.2117  1.4811  0.1291
  437SOL     OW 7272   3.799   5.171   3.028 -0.2501 -0.1441  0.0348
  437SOL    HW1 7273   3.749   5.135   2.954 -1.3126  3.3547 -1.1560
  437SOL    HW2 7274   3.890   5.161   3.002 -0.5880  0.4245 -1.5377
  438SOL     OW 7275   3.458   4.024   2.899  0.2837 -0.3836  0.5479
  438SOL    HW1 7276   3.370   4.018   2.936  0.6614 -0.7780  1.4096
  438SOL    HW2 7277   3.461   4.111   2.858 -1.0970 -1.0567 -1.1117
  439SOL     OW 7278   2.078   3.218   2.684 -0.0631 -0.0481  0.2861
  439SOL    HW1 7279   2.058   3.296   2.633  1.2970 -0.0264 -0.2690
  439SOL    HW2 7280   2.053   3.145   2.627 -0.2917 -0.0295  0.3593
  440SOL     OW 7281   6.080   1.178   8.887 -0.5008 -0.2876 -0.2922
  440SOL    HW1 7282   6.010   1.211   8.830 -1.0355 -0.5447  0.2105
  440SOL    HW2 7283   6.037   1.161   8.970  0.0408 -1.0430 -0.1633
  441SOL     OW 7284   0.859   5.458   4.534  0.9548 -0.4617 -0.3265
  441SOL    HW1 7285   0.856   5.553   4.538  0.0906 -0.4090 -1.7802
  441SOL    HW2 7286   0.836   5.430   4.623  1.2652  0.6680  0.1297
  442SOL     OW 7287   2.492   4.835   8.198 -0.3773 -0.4494 -0.2967
  442SOL    HW1 7288   2.547   4.889   8.254  1.2062 -2.0725 -0.2028
  442SOL    HW2 7289   2.520   4.856   8.109 -0.4078 -0.4335 -0.3020
  443SOL     OW 7290   3.462   1.912   4.518  0.0075 -0.1031  0.3062
  443SOL    HW1 7291   3.510   1.866   4.587 -0.7248 -1.0075  0.2356
  443SOL    HW2 7292   3.520   1.982   4.491  0.2330  0.4304  2.0095
  444SOL     OW 7293   8.638   9.144   6.133  0.5404 -0.1704 -0.1216
  444SOL    HW1 7294   8.548   9.174   6.150  0.8412  0.4268  0.4503
  444SOL    HW2 7295   8.690   9.186   6.201  1.1133 -1.3019  0.1651
  445SOL     OW 7296   7.045   7.134   2.149 -0.1468 -0.4373 -0.3989
  445SOL    HW1 7297   7.033   7.172   2.236 -1.2222  2.5351 -1.7006
  445SOL    HW2 7298   6.976   7.067   2.143 -0.1532 -0.5866  0.9562
  446SOL     OW 7299   6.992   6.739   3.021 -0.5186 -0.6023 -0.3044
  446SOL    HW1 7300   7.063   6.684   2.986  1.2903 -1.2936  3.8587
  446SOL    HW2 7301   6.957   6.688   3.094 -0.4139  2.6676  2.2158
  447SOL     OW 7302   8.779   5.744   0.655 -0.6354 -0.3314 -0.6607
  447SOL    HW1 7303   8.873   5.753   0.667 -0.5746 -2.3445  1.0154
  447SOL    HW2 7304   8.755   5.816   0.598  1.8789  0.3552 -0.9739
  448SOL     OW 7305   4.740   4.609   3.385 -0.6636  0.5262 -0.2127
  448SOL    HW1 7306   4.657   4.650   3.408 -0.4468  0.8229  0.0410
  448SOL    HW2 7307   4.715   4.530   3.336 -1.1189  0.2093  0.5083
  449SOL     OW 7308   7.777   9.078   9.334 -0.4583 -0.1260 -0.0035
  449SOL    HW1 7309   7.728   9.107   9.257 -0.4441 -1.2371 -0.4564
  449SOL    HW2 7310   7.868   9.071   9.303 -0.3114  0.2244  0.3440
  450SOL     OW 7311   6.295   5.224   0.281  0.0580  0.2739  0.0618
  450SOL    HW1 7312   6.346   5.223   0.361 -0.3803 -1.6053  0.3665
  450SOL    HW2 7313   6.335   5.294   0.228  2.9585 -1.0636  0.2674
  451SOL     OW 7314   6.771   0.847   5.869  0.0119  0.2189 -0.0974
  451SOL    HW1 7315   6.708   0.873   5.802  0.1864  0.7930 -0.0425
  451SOL    HW2 7316   6.735   0.765   5.904  1.1347 -1.4275 -2.5122
  452SOL     OW 7317   3.244   4.010   1.093  0.3974 -0.7244  0.2547
  452SOL    HW1 7318   3.226   3.938   1.155  1.6268 -0.7843  0.5645
  452SOL    HW2 7319   3.180   4.078   1.116 -0.5416 -1.5603  0.1983
  453SOL     OW 7320   7.530   5.904   0.108 -0.0859 -0.0100 -0.3384
  453SOL    HW1 7321   7.459   5.916   0.172 -0.4709  1.6275 -1.0199
  453SOL    HW2 7322   7.486   5.868   0.031  0.0705 -0.3354 -0.2748
  454SOL     OW 7323   8.213   2.650   2.713  0.4264 -0.6723 -0.1104
  454SOL    HW1 7324   8.204   2.705   2.791  2.0574  0.3012 -0.5607
  454SOL    HW2 7325   8.130   2.660   2.666  0.4807  0.9821  0.0968
  455SOL     OW 7326   6.092   3.398   3.696  0.0842 -0.0479 -0.3198
  455SOL    HW1 7327   6.160   3.400   3.763  0.1411  1.1792 -0.3982
  455SOL    HW2 7328   6.014   3.367   3.742  1.0079 -3.1551 -0.5856
  456SOL     OW 7329   8.988   4.750   7.145 -0.5477 -0.1706 -0.1076
  456SOL    HW1 7330   9.028   4.748   7.058  0.6342 -0.3088  0.4251
  456SOL    HW2 7331   9.057   4.720   7.204 -0.7538  1.5857  1.0975
  457SOL     OW 7332   5.214   6.795   8.658 -0.1912 -0.2248 -0.0811
  457SOL    HW1 7333   5.147   6.772   8.721  0.6040  0.3286  0.9938
  457SOL    HW2 7334   5.178   6.867   8.608 -0.1080  0.6070  1.0275
  458SOL     OW 7335   4.572   1.202   9.078  0.3627 -0.9505  0.1279
  458SOL    HW1 7336   4.543   1.187   9.168 -0.0354  0.8010  0.3280
  458SOL    HW2 7337   4.562   1.297   9.065  0.0778 -1.2160 -1.8746
  459SOL     OW 7338   2.511   1.919   1.908  0.4122 -0.2690 -0.5064
  459SOL    HW1 7339   2.492   1.918   2.001 -0.3870 -0.2731 -0.6661
  459SOL    HW2 7340   2.563   1.840   1.893 -0.5482 -0.9590 -0.2794
  460SOL     OW 7341   0.457   9.113   1.162 -0.5209  0.7907  0.6246
  460SOL    HW1 7342   0.473   9.201   1.196  4.4989  0.6864 -0.6831
  460SOL    HW2 7343   0.471   9.056   1.238  3.4097  0.9389  0.1988
  461SOL     OW 7344   6.709   9.326   8.010  0.5137  0.1090 -0.3682
  461SOL    HW1 7345   6.731   9.268   7.937  2.8551  0.7383 -0.2454
  461SOL    HW2 7346   6.724   9.414   7.976  0.9504  0.4398  0.6309
  462SOL     OW 7347   1.829   0.543   6.026  0.3825  0.8620 -0.0077
  462SOL    HW1 7348   1.831   0.554   5.931  1.7121 -0.1738 -0.1356
  462SOL    HW2 7349   1.832   0.448   6.039  0.2763  0.9909  1.0756
  463SOL     OW 7350   5.280   5.048   8.573  0.2294  0.0917 -0.2776
  463SOL    HW1 7351   5.196   5.093   8.559  0.9409  1.0499 -1.7228
  463SOL    HW2 7352   5.280   5.027   8.667 -1.1348  1.0781 -0.0128
  464SOL     OW 7353   8.361   1.355   5.851  0.6850 -0.1782  0.2046
  464SOL    HW1 7354   8.275   1.319   5.872 -0.1945  0.7892 -1.4762
  464SOL    HW2 7355   8.345   1.449   5.841  0.7785 -0.4341 -4.8131
  465SOL     OW 7356   1.436   4.728   9.203  0.2084 -0.2873  0.2479
  465SOL    HW1 7357   1.428   4.813   9.246 -1.0746 -1.5045  2.5810
  465SOL    HW2 7358   1.530   4.718   9.187  0.4951  1.0786  0.9165
  466SOL     OW 7359   6.578   6.766   1.704  0.0940  0.1343  0.2840
  466SOL    HW1 7360   6.635   6.689   1.704  2.2518  1.6771 -0.1276
  466SOL    HW2 7361   6.576   6.795   1.613 -1.3436  0.1525  0.2955
  467SOL     OW 7362   6.160   0.826   8.890 -0.6039  0.5907 -0.3682
  467SOL    HW1 7363   6.215   0.836   8.967 -0.9726 -0.2762  0.0245
  467SOL    HW2 7364   6.164   0.733   8.869 -1.8860  0.5039 -0.3403
  468SOL     OW 7365   6.527   1.906   6.208  0.2613  0.2146  0.5633
  468SOL    HW1 7366   6.480   1.963   6.147  1.5338  0.7970  0.0900
  468SOL    HW2 7367   6.559   1.834   6.154 -0.2685 -0.2999  0.9247
  469SOL     OW 7368   3.359   2.152   4.196 -0.1182 -0.0958  0.4076
  469SOL    HW1 7369   3.324   2.146   4.285  0.1853 -2.0353  0.4360
  469SOL    HW2 7370   3.282   2.171   4.142 -0.4267  0.3694  0.9974
  470SOL     OW 7371   9.003   8.538   0.401  0.5028 -0.8227 -0.1617
  470SOL    HW1 7372   8.929   8.481   0.379 -0.1510  0.2400 -0.7673
  470SOL    HW2 7373   9.049   8.551   0.318  0.1702  0.1812 -0.2008
  471SOL     OW 7374   5.337   6.668   5.248 -0.3224  0.1288  1.1565
  471SOL    HW1 7375   5.411   6.721   5.218  0.0265  0.4776  2.5854
  471SOL    HW2 7376   5.337   6.592   5.189  0.1250  0.9349  0.0738
  472SOL     OW 7377   6.402   6.828   4.590 -0.5815  0.2517 -0.5372
  472SOL    HW1 7378   6.320   6.876   4.604 -1.0317 -0.4540 -0.7104
  472SOL    HW2 7379   6.468   6.879   4.637 -1.0546  1.0129 -0.6729
  473SOL     OW 7380   1.926   6.916   5.560  0.0297  0.1399  0.2107
  473SOL    HW1 7381   2.009   6.945   5.524 -1.6950  2.2932 -2.4582
  473SOL    HW2 7382   1.904   6.838   5.508  0.4834 -0.6211  1.1348
  474SOL     OW 7383   2.143   4.463   6.849  0.0737 -0.1536  0.4699
  474SOL    HW1 7384   2.153   4.507   6.933 -0.2404 -0.4880  0.6876
  474SOL    HW2 7385   2.054   4.484   6.822 -0.6780 -1.9636  1.3609
  475SOL     OW 7386   9.100   3.791   7.978  0.1983  0.0195 -0.0250
  475SOL    HW1 7387   9.158   3.781   7.903  1.5319 -0.8189  1.0682
  475SOL    HW2 7388   9.073   3.702   8.001  3.0259 -0.2774  2.8548
  476SOL     OW 7389   1.532   1.910   7.704 -0.8766 -0.4850 -0.0280
  476SOL    HW1 7390   1.507   1.891   7.614 -2.1961  1.5187 -0.1681
  476SOL    HW2 7391   1.451   1.942   7.745  0.2216  1.0093  1.1226
  477SOL     OW 7392   8.423   2.434   1.084 -1.0781  0.7041 -0.4220
  477SOL    HW1 7393   8.359   2.364   1.097 -0.9998  0.8273  0.6522
  477SOL    HW2 7394   8.399   2.502   1.146 -0.5689  1.2290 -0.7842
  478SOL     OW 7395   1.461   7.262   8.379  0.5956  0.3082 -0.0973
  478SOL    HW1 7396   1.507   7.332   8.332  2.5638 -0.6377  0.3286
  478SOL    HW2 7397   1.408   7.308   8.444 -0.8949  1.5552 -2.0536
  479SOL     OW 7398   0.852   6.830   5.930 -0.1665 -0.0745  0.3405
  479SOL    HW1 7399   0.932   6.778   5.928  0.4735  0.8919 -0.2115
  479SOL    HW2 7400   0.867   6.894   6.000  0.6081  1.6761 -1.3266
  480SOL     OW 7401   3.185   4.542   6.957  0.4646  0.2950 -0.0007
  480SOL    HW1 7402   3.116   4.491   6.915  1.5921 -1.8528  0.6037
  480SOL    HW2 7403   3.171   4.530   7.051  0.0706  2.1293  0.2161
  481SOL     OW 7404   2.309   1.053   4.731  0.0567 -0.2965 -0.0353
  481SOL    HW1 7405   2.321   1.045   4.826  1.2566 -1.2411 -0.2533
  481SOL    HW2 7406   2.295   1.147   4.717 -0.8951 -0.2359  1.1434
  482SOL     OW 7407   5.498   6.360   3.861 -0.6836 -0.0192 -0.7135
  482SOL    HW1 7408   5.413   6.330   3.831 -0.7541 -0.7773  0.1862
  482SOL    HW2 7409   5.509   6.318   3.947  0.1313  0.9013 -0.3516
  483SOL     OW 7410   8.563   4.128   7.354 -0.1862  0.0503  0.5633
  483SOL    HW1 7411   8.532   4.082   7.277  1.2219 -1.6207  0.9291
  483SOL    HW2 7412   8.630   4.188   7.321 -1.1102  0.9256  0.2439
  484SOL     OW 7413   9.060   1.713   6.032 -0.2647  0.3131  0.1587
  484SOL    HW1 7414   9.147   1.744   6.007  0.3156 -0.8834  0.5868
  484SOL    HW2 7415   9.017   1.691   5.950  0.5279 -0.8131  0.0287
  485SOL     OW 7416   4.592   0.942   4.519 -0.0767  0.0213 -0.3058
  485SOL    HW1 7417   4.546   0.990   4.450  2.6689  3.0609 -0.2666
  485SOL    HW2 7418   4.550   0.971   4.600  0.2851  0.8934 -0.4153
  486SOL     OW 7419   4.324   9.002   4.766  0.1196 -0.6613  0.0224
  486SOL    HW1 7420   4.262   9.008   4.693  0.0719  0.4878  0.1300
  486SOL    HW2 7421   4.320   8.911   4.794  0.1575 -1.1198 -1.4164
  487SOL     OW 7422   8.335   6.044   8.020  0.3795 -0.2978  0.0018
  487SOL    HW1 7423   8.245   6.068   7.996 -0.3084 -0.6347  2.0641
  487SOL    HW2 7424   8.344   5.953   7.991  0.4116  0.0242 -1.0541
  488SOL     OW 7425   4.689   2.864   0.790  0.5763 -0.0227 -0.5635
  488SOL    HW1 7426   4.719   2.930   0.853  2.9531 -1.7510  0.2533
  488SOL    HW2 7427   4.603   2.896   0.761 -0.6142  0.9734  3.3894
  489SOL     OW 7428   2.919   5.225   4.895 -0.1621 -0.3385  0.1635
  489SOL    HW1 7429   2.984   5.197   4.959 -1.5788 -0.1887  1.7663
  489SOL    HW2 7430   2.969   5.244   4.816  1.9840  1.3561  1.7788
  490SOL     OW 7431   5.068   3.244   5.655  0.1571 -0.2822  0.8053
  490SOL    HW1 7432   5.105   3.322   5.614 -1.1070 -0.2597 -0.3290
  490SOL    HW2 7433   5.120   3.233   5.735  0.5840  1.5138  0.8216
  491SOL     OW 7434   4.878   4.721   2.646 -0.4732  0.6440 -0.5035
  491SOL    HW1 7435   4.935   4.797   2.655  0.0934  0.1025  0.6635
  491SOL    HW2 7436   4.920   4.653   2.699 -0.3496 -0.8562 -2.4408
  492SOL     OW 7437   5.114   0.950   5.371 -0.7262  0.0328 -0.0349
  492SOL    HW1 7438   5.203   0.928   5.347 -0.2817  1.8864 -0.2333
  492SOL    HW2 7439   5.122   0.998   5.454 -1.5078  0.3832 -0.1471
  493SOL     OW 7440   2.528   8.368   8.160  0.4657 -0.2895  0.1461
  493SOL    HW1 7441   2.480   8.298   8.116 -0.0370 -0.1141  0.3965
  493SOL    HW2 7442   2.543   8.433   8.092  1.3765 -0.8502 -0.2036
  494SOL     OW 7443   4.187   2.186   3.882  0.3974  0.1294 -0.3030
  494SOL    HW1 7444   4.122   2.247   3.916  1.0215  0.9983 -0.6296
  494SOL    HW2 7445   4.261   2.193   3.943  1.1903  1.0663 -1.3299
  495SOL     OW 7446   1.256   0.147   7.655  0.0140 -1.0758 -0.1569
  495SOL    HW1 7447   1.176   0.095   7.646 -0.5403 -0.3688  0.5081
  495SOL    HW2 7448   1.308   0.098   7.720 -0.3123 -1.0326  0.1429
  496SOL     OW 7449   8.273   6.241   3.834  0.4712 -0.0961  0.5297
  496SOL    HW1 7450   8.208   6.290   3.885  1.7916  0.5434  1.6652
  496SOL    HW2 7451   8.336   6.307   3.806  0.6928 -0.7186 -0.5057
  497SOL     OW 7452   6.527   4.429   2.949  0.1940  0.2421 -0.2536
  497SOL    HW1 7453   6.577   4.405   3.027 -0.4930  1.3703  0.5590
  497SOL    HW2 7454   6.533   4.524   2.945 -1.6348  0.3849 -0.2973
  498SOL     OW 7455   9.295   0.550   7.894  0.6867  0.2224 -0.7735
  498SOL    HW1 7456   9.355   0.546   7.969  0.7908  0.6168 -0.8389
  498SOL    HW2 7457   9.209   0.568   7.933  0.3401 -1.6595 -0.5390
  499SOL     OW 7458   4.400   3.310   2.594 -0.2447 -0.4426 -0.2170
  499SOL    HW1 7459   4.411   3.319   2.499  0.6268  1.2902  0.0037
  499SOL    HW2 7460   4.418   3.218   2.612 -1.0189 -0.9336 -1.7918
  500SOL     OW 7461   3.210   5.610   2.610 -0.2074 -0.3467 -0.6366
  500SOL    HW1 7462   3.179   5.552   2.540 -0.0769 -0.0763 -0.9228
  500SOL    HW2 7463   3.135   5.666   2.628 -0.4400 -0.8091 -0.1358
  501SOL     OW 7464   7.386   5.900   5.254 -0.4302  0.1321 -0.2454
  501SOL    HW1 7465   7.402   5.972   5.193  3.3033  0.5403  0.9537
  501SOL    HW2 7466   7.441   5.828   5.221 -0.0991 -0.3923  1.3776
  502SOL     OW 7467   8.242   6.307   6.181  0.0272  0.0520  0.5860
  502SOL    HW1 7468   8.154   6.281   6.155  0.2772  0.3007 -0.5641
  502SOL    HW2 7469   8.279   6.230   6.223  0.6234 -1.4265 -2.3796
  503SOL     OW 7470   6.528   3.603   5.640  0.3202 -0.0153 -0.1904
  503SOL    HW1 7471   6.603   3.551   5.667 -0.0972 -0.7256 -0.3843
  503SOL    HW2 7472   6.560   3.694   5.644  1.0418 -0.2719  0.1708
  504SOL     OW 7473   6.903   0.105   7.710  0.2755 -0.0888  0.1294
  504SOL    HW1 7474   6.923   0.198   7.698 -2.2428  0.4171 -0.7803
  504SOL    HW2 7475   6.912   0.068   7.622 -0.3897 -0.3151  0.1505
  505SOL     OW 7476   0.339   0.442   8.222  0.8347  0.1135  0.0237
  505SOL    HW1 7477   0.297   0.379   8.281  0.8915 -0.6778 -0.7682
  505SOL    HW2 7478   0.399   0.390   8.169  0.5404  0.7491 -0.9714
  506SOL     OW 7479   0.169   4.890   1.193 -0.5535 -0.3290  0.3685
  506SOL    HW1 7480   0.190   4.839   1.115 -0.5934 -0.9324  0.7364
  506SOL    HW2 7481   0.153   4.823   1.261 -1.0969  0.1674  0.7399
  507SOL     OW 7482   5.806   7.392   4.183 -0.0585  0.1933  0.2007
  507SOL    HW1 7483   5.717   7.363   4.162  0.3856 -1.0757 -0.0272
  507SOL    HW2 7484   5.812   7.383   4.278  0.1773 -0.8154  0.1002
  508SOL     OW 7485   2.769   0.276   4.892 -0.0257 -0.0019 -0.1764
  508SOL    HW1 7486   2.740   0.297   4.980  0.7988  2.1850 -0.3815
  508SOL    HW2 7487   2.712   0.327   4.834  1.9479  1.7385 -0.7038
  509SOL     OW 7488   8.329   6.775   3.369  0.7193 -0.0335 -0.1156
  509SOL    HW1 7489   8.394   6.726   3.319  0.0037 -0.5540 -0.5518
  509SOL    HW2 7490   8.327   6.861   3.328 -0.2886 -0.6401 -1.3779
  510SOL     OW 7491   6.182   0.614   1.014  0.0502 -0.4608  0.3660
  510SOL    HW1 7492   6.152   0.603   1.105 -0.3670  0.5791  0.3575
  510SOL    HW2 7493   6.246   0.685   1.019  0.0649 -0.4389 -0.1532
  511SOL     OW 7494   7.803   8.747   5.841 -0.2111 -0.6127 -0.2512
  511SOL    HW1 7495   7.851   8.732   5.759  1.5286  2.8284 -0.0753
  511SOL    HW2 7496   7.861   8.716   5.909  0.4878  0.7558 -0.1842
  512SOL     OW 7497   0.838   3.752   2.792 -0.5847  0.1959 -0.8408
  512SOL    HW1 7498   0.821   3.660   2.815 -0.6919  0.8556  2.1463
  512SOL    HW2 7499   0.757   3.798   2.817 -0.0532  1.2851 -1.0677
  513SOL     OW 7500   7.115   8.431   1.301  0.7532 -0.4974  0.0290
  513SOL    HW1 7501   7.128   8.389   1.387 -0.2542 -0.0527  0.4202
  513SOL    HW2 7502   7.140   8.522   1.315 -1.2537  0.0563  0.4353
  514SOL     OW 7503   1.973   4.635   2.918 -0.0305  0.2447  0.4840
  514SOL    HW1 7504   1.967   4.540   2.915 -0.2404  0.2871 -1.1099
  514SOL    HW2 7505   1.885   4.666   2.895  0.0051  0.8295  1.0916
  515SOL     OW 7506   5.595   2.816   2.533 -0.3900  0.1622  0.0111
  515SOL    HW1 7507   5.666   2.835   2.594 -0.8806  0.5302  0.4809
  515SOL    HW2 7508   5.520   2.865   2.567 -0.9288 -0.3905 -0.3556
  516SOL     OW 7509   0.054   5.232   1.886  0.2486  0.1274 -0.5705
  516SOL    HW1 7510  -0.021   5.190   1.844  0.2305  0.4848 -0.9026
  516SOL    HW2 7511   0.063   5.315   1.840  1.4372 -0.3155 -1.1954
  517SOL     OW 7512   5.379   0.384   0.186  0.1078  0.5848 -0.2003
  517SOL    HW1 7513   5.412   0.309   0.235  0.9149  1.1515  0.1353
  517SOL    HW2 7514   5.355   0.348   0.100  1.4961  0.1288 -0.4238
  518SOL     OW 7515   3.196   7.512   3.753 -0.2259  0.0636 -0.4024
  518SOL    HW1 7516   3.243   7.431   3.733  0.6530  0.4818 -0.0824
  518SOL    HW2 7517   3.242   7.580   3.703  1.1223  0.8886  1.8118
  519SOL     OW 7518   7.617   2.694   0.486  0.6286  0.9270 -0.3337
  519SOL    HW1 7519   7.669   2.672   0.563 -1.5656  0.5181  1.1281
  519SOL    HW2 7520   7.621   2.616   0.431 -1.4474 -0.6413  1.5647
  520SOL     OW 7521   3.058   2.582   8.495 -0.3878  0.9620 -0.2878
  520SOL    HW1 7522   3.145   2.598   8.530  0.1104  1.1017 -1.5332
  520SOL    HW2 7523   3.003   2.567   8.572  0.8656  0.1612  0.4824
  521SOL     OW 7524   5.647   0.418   7.636  0.3098  0.3996 -0.3709
  521SOL    HW1 7525   5.629   0.358   7.709 -1.6918 -1.1111 -2.0149
  521SOL    HW2 7526   5.636   0.365   7.558  0.0750  2.5341 -1.8624
  522SOL     OW 7527   2.441   4.301   0.755  0.2641 -0.9849 -0.1603
  522SOL    HW1 7528   2.371   4.298   0.690  1.2428 -1.0161 -1.2526
  522SOL    HW2 7529   2.497   4.374   0.727  1.4139 -1.8221 -0.1312
  523SOL     OW 7530   9.285   4.305   3.015 -0.6518  0.7215 -0.1357
  523SOL    HW1 7531   9.265   4.324   2.923 -1.0747  0.8889 -0.0121
  523SOL    HW2 7532   9.368   4.348   3.031 -0.2452  0.1414 -0.6208
  524SOL     OW 7533   1.512   0.234   1.605  0.2900  0.3256 -0.2735
  524SOL    HW1 7534   1.535   0.142   1.614 -0.2854  0.1565 -0.4978
  524SOL    HW2 7535   1.418   0.234   1.590  0.0733  1.0294  0.9712
  525SOL     OW 7536   1.812   4.476   6.699  0.0082  0.8544 -0.3945
  525SOL    HW1 7537   1.758   4.414   6.748 -1.6906  2.2603 -0.3824
  525SOL    HW2 7538   1.797   4.455   6.607 -0.9697  1.5026 -0.4062
  526SOL     OW 7539   5.152   3.980   2.619  0.6458 -0.4363 -0.5865
  526SOL    HW1 7540   5.061   3.999   2.642  0.2228 -0.6955 -1.9128
  526SOL    HW2 7541   5.198   3.976   2.702 -1.1952 -3.7134  0.4587
  527SOL     OW 7542   2.929   6.507   9.344  0.5305 -0.4083  0.2285
  527SOL    HW1 7543   2.896   6.457   9.270  2.3720  0.0707 -0.9919
  527SOL    HW2 7544   2.852   6.549   9.381 -0.5275 -1.1794 -1.0018
  528SOL     OW 7545   0.838   3.766   0.878 -0.4370 -0.1530 -0.1901
  528SOL    HW1 7546   0.891   3.703   0.828 -0.0518  0.4390 -0.5495
  528SOL    HW2 7547   0.835   3.843   0.822 -1.1072  0.0651  0.1415
  529SOL     OW 7548   6.613   3.485   3.020  0.4645 -0.4533  0.4287
  529SOL    HW1 7549   6.621   3.405   2.968 -0.1543 -0.1176 -0.1967
  529SOL    HW2 7550   6.674   3.547   2.978  0.0413 -0.2146  0.1657
  530SOL     OW 7551   2.773   8.324   1.472  0.4700  0.0279 -0.2032
  530SOL    HW1 7552   2.850   8.291   1.426  0.4276  0.6789 -0.7414
  530SOL    HW2 7553   2.770   8.272   1.553  0.6909 -0.9383 -0.8006
  531SOL     OW 7554   3.117   4.703   6.145 -0.0130  0.6324  0.1987
  531SOL    HW1 7555   3.206   4.688   6.114  0.4861  2.2001  0.7546
  531SOL    HW2 7556   3.073   4.619   6.135  1.3290  0.0116 -0.7388
  532SOL     OW 7557   6.023   0.967   8.439 -0.3985  0.3554 -0.4524
  532SOL    HW1 7558   6.076   0.945   8.362  1.1079  2.5184 -0.1395
  532SOL    HW2 7559   5.977   0.886   8.460  0.5508 -0.8268 -2.5080
  533SOL     OW 7560   4.703   2.032   3.791 -0.3310  0.5524 -0.2029
  533SOL    HW1 7561   4.662   2.094   3.731 -0.8800 -0.4908 -0.9457
  533SOL    HW2 7562   4.652   1.952   3.780  1.4995 -0.6066 -0.6922
  534SOL     OW 7563   7.219   4.557   1.676  0.0716  0.6160  0.5438
  534SOL    HW1 7564   7.301   4.606   1.674 -0.5472  1.6506 -0.1937
  534SOL    HW2 7565   7.237   4.483   1.733  1.4129  1.0209  0.6731
  535SOL     OW 7566   8.329   4.444   6.091  0.4044  0.1431 -0.0271
  535SOL    HW1 7567   8.329   4.348   6.092  1.9360  0.1209  1.3119
  535SOL    HW2 7568   8.265   4.468   6.157 -3.2807  0.2005 -3.2358
  536SOL     OW 7569   3.983   4.158   6.704  0.7893  0.3106  0.2306
  536SOL    HW1 7570   3.989   4.094   6.633 -0.6858  0.2526  0.1267
  536SOL    HW2 7571   4.066   4.205   6.701  0.4943  0.7832 -1.9961
  537SOL     OW 7572   8.261   1.342   0.284  0.4176  0.0270  0.1982
  537SOL    HW1 7573   8.302   1.429   0.288  0.9691 -0.1444 -1.1278
  537SOL    HW2 7574   8.304   1.292   0.353 -1.0983  1.2515  2.1456
  538SOL     OW 7575   1.160   7.330   3.829 -0.4973 -0.2009  0.1183
  538SOL    HW1 7576   1.066   7.337   3.813 -0.6538  0.7005  1.3116
  538SOL    HW2 7577   1.188   7.257   3.774 -1.3044  1.5220 -2.7874
  539SOL     OW 7578   3.869   3.314   7.986  0.0090  0.5916 -0.2207
  539SOL    HW1 7579   3.885   3.224   7.958 -1.3119 -0.1327  1.2112
  539SOL    HW2 7580   3.949   3.340   8.032  0.0152 -0.2263  0.2445
  540SOL     OW 7581   8.406   0.385   2.578  0.2640  0.0643  0.3793
  540SOL    HW1 7582   8.400   0.479   2.557 -0.9941 -0.0060  0.3505
  540SOL    HW2 7583   8.319   0.351   2.558  0.4838 -0.9620  1.1316
  541SOL     OW 7584   8.458   4.395   7.534 -0.0123 -0.4570  0.3150
  541SOL    HW1 7585   8.421   4.438   7.611 -0.1127  0.1747 -0.0749
  541SOL    HW2 7586   8.526   4.337   7.568 -0.5999 -0.7897  0.9449
  542SOL     OW 7587   5.649   3.978   3.294 -0.3682 -0.6147 -0.1442
  542SOL    HW1 7588   5.689   4.048   3.243 -2.9772  1.0567 -0.0835
  542SOL    HW2 7589   5.716   3.952   3.357  1.3967  0.3051 -1.5814
  543SOL     OW 7590   8.862   2.607   0.875  0.2904  0.1890 -0.3905
  543SOL    HW1 7591   8.900   2.598   0.963  0.1728 -1.0464 -0.4446
  543SOL    HW2 7592   8.774   2.572   0.884  0.2263  0.1967 -0.9667
  544SOL     OW 7593   1.615   7.293   5.703  0.0926 -0.2056 -0.2774
  544SOL    HW1 7594   1.520   7.302   5.706  0.0609 -0.6647  0.2682
  544SOL    HW2 7595   1.637   7.245   5.783  0.5158 -2.2618 -1.5457
  545SOL     OW 7596   3.740   2.318   5.009  0.3729  0.2552  0.3895
  545SOL    HW1 7597   3.674   2.362   4.956  0.1376  0.8880  1.1747
  545SOL    HW2 7598   3.708   2.229   5.020  0.2170  0.2431 -0.1768
  546SOL     OW 7599   8.382   3.977   7.869  0.0855 -0.5358  0.2027
  546SOL    HW1 7600   8.389   3.992   7.775  0.3097  0.2706  0.3428
  546SOL    HW2 7601   8.408   3.885   7.881  0.6288 -0.4729 -0.4488
  547SOL     OW 7602   0.547   6.957   0.992 -0.1970  0.2532 -0.2480
  547SOL    HW1 7603   0.640   6.980   0.998 -0.0288  0.5453 -2.6512
  547SOL    HW2 7604   0.502   7.041   0.988 -0.2909  0.1721 -1.4879
  548SOL     OW 7605   2.322   5.104   8.093  0.3563  0.2084 -0.1024
  548SOL    HW1 7606   2.339   5.088   8.186  1.1929 -0.0424 -0.2894
  548SOL    HW2 7607   2.242   5.156   8.092 -1.4303 -2.3197  0.6127
  549SOL     OW 7608   8.802   2.941   3.940  0.4573 -0.2515 -0.3941
  549SOL    HW1 7609   8.855   2.869   3.976  0.5027 -0.3330 -0.6245
  549SOL    HW2 7610   8.718   2.900   3.918  0.7257 -0.3854 -1.1827
  550SOL     OW 7611   5.081   0.893   9.035  0.2342 -0.2527  0.3488
  550SOL    HW1 7612   5.130   0.826   9.081  0.7325 -0.5433 -0.5744
  550SOL    HW2 7613   5.136   0.971   9.038 -0.1609  0.0021  1.0665
  551SOL     OW 7614   0.956   4.199   0.146  0.4179 -0.1369  0.8022
  551SOL    HW1 7615   1.009   4.230   0.073 -1.1926 -1.8893 -1.2562
  551SOL    HW2 7616   0.930   4.278   0.193  0.4111  1.1995 -1.3262
  552SOL     OW 7617   7.261   8.651   0.011 -0.6761  0.1554  0.2463
  552SOL    HW1 7618   7.229   8.741   0.002 -1.7644 -0.0262  1.7378
  552SOL    HW2 7619   7.347   8.660   0.053 -0.9279  0.5114  0.7038
  553SOL     OW 7620   0.488   2.392   4.824  0.0043 -0.0437  0.7798
  553SOL    HW1 7621   0.440   2.309   4.818  0.3299 -0.1463 -0.6570
  553SOL    HW2 7622   0.423   2.459   4.802  0.3537 -0.1447 -0.6673
  554SOL     OW 7623   8.322   4.201   4.172 -0.0827  0.1817  0.5560
  554SOL    HW1 7624   8.238   4.202   4.217 -0.5998  0.3986 -0.3882
  554SOL    HW2 7625   8.313   4.133   4.105  0.7122 -0.2208  0.8499
  555SOL     OW 7626   2.123   0.593   4.917 -0.9123 -0.3261  0.2227
  555SOL    HW1 7627   2.204   0.560   4.956 -0.5925  1.3971  1.1137
  555SOL    HW2 7628   2.077   0.514   4.887  0.0551 -1.5108  1.7057
  556SOL     OW 7629   6.314   6.622   8.549  0.1839  0.8500 -0.2325
  556SOL    HW1 7630   6.291   6.599   8.639 -0.3235  2.4655  0.0828
  556SOL    HW2 7631   6.372   6.552   8.520 -0.8237 -0.4774  0.8372
  557SOL     OW 7632   0.697   5.844   0.163 -0.1319  0.1354 -0.0326
  557SOL    HW1 7633   0.644   5.775   0.122 -1.3773  1.4607 -0.7456
  557SOL    HW2 7634   0.696   5.822   0.256 -2.9042  0.6618  0.1514
  558SOL     OW 7635   5.848   6.801   2.194  0.4608 -0.1927 -0.2732
  558SOL    HW1 7636   5.771   6.839   2.152  0.5625  1.0738  0.6482
  558SOL    HW2 7637   5.856   6.848   2.277  1.5694 -1.0944  0.1548
  559SOL     OW 7638   5.950   1.779   6.875  0.1949  0.3155  0.2410
  559SOL    HW1 7639   5.889   1.850   6.856  0.3625  0.7495  1.2649
  559SOL    HW2 7640   6.005   1.813   6.946  0.6500 -0.6220  0.3474
  560SOL     OW 7641   5.502   3.725   8.753 -0.1200  0.0868 -0.2482
  560SOL    HW1 7642   5.572   3.737   8.817 -0.0482 -0.3617 -0.2367
  560SOL    HW2 7643   5.467   3.813   8.739  0.4220  0.3072 -0.2329
  561SOL     OW 7644   7.772   1.381   2.107 -0.6648  0.3382  0.1198
  561SOL    HW1 7645   7.714   1.311   2.136  1.0080 -0.8485  0.7829
  561SOL    HW2 7646   7.767   1.377   2.011 -1.8611  0.4475  0.1671
  562SOL     OW 7647   7.510   7.712   6.496 -0.2522 -0.2900  0.1222
  562SOL    HW1 7648   7.488   7.639   6.438 -2.0768  0.7516 -0.5802
  562SOL    HW2 7649   7.474   7.789   6.452  2.7169  1.2848  0.1971
  563SOL     OW 7650   3.299   4.510   8.711  0.1007  0.0046  0.0149
  563SOL    HW1 7651   3.261   4.432   8.671 -0.3707  0.3695 -0.2591
  563SOL    HW2 7652   3.336   4.479   8.794 -0.7972 -0.3671  0.2921
  564SOL     OW 7653   4.566   2.455   5.617  0.0739 -0.3772 -0.0270
  564SOL    HW1 7654   4.494   2.394   5.603 -0.0643 -0.4750  1.0279
  564SOL    HW2 7655   4.548   2.528   5.558 -1.0303 -0.2836  0.3981
  565SOL     OW 7656   8.055   4.064   5.013 -0.2107  0.4857 -0.1146
  565SOL    HW1 7657   8.118   4.113   4.961 -2.0722  1.4308 -1.6088
  565SOL    HW2 7658   8.041   3.983   4.963 -0.9903  0.7793 -0.3799
  566SOL     OW 7659   1.975   2.966   1.371  0.2852  1.0424  0.0003
  566SOL    HW1 7660   2.007   2.957   1.281 -1.2116  0.9397 -0.5527
  566SOL    HW2 7661   1.891   2.920   1.371  0.5703  0.4718  1.6384
  567SOL     OW 7662   4.714   1.005   0.251 -0.2580  0.6339 -0.4639
  567SOL    HW1 7663   4.644   0.964   0.200  0.4654 -1.1527 -0.0824
  567SOL    HW2 7664   4.793   0.993   0.198  0.3038 -0.2234  0.5418
  568SOL     OW 7665   2.351   6.143   1.526 -0.2753  0.1322  0.2170
  568SOL    HW1 7666   2.412   6.216   1.530 -0.2573  0.0707  1.5282
  568SOL    HW2 7667   2.283   6.165   1.590  0.8370 -1.9444  2.2444
  569SOL     OW 7668   0.245   5.770   8.815 -0.0110 -0.0353  0.2055
  569SOL    HW1 7669   0.309   5.768   8.744 -1.2265 -0.3999 -0.9204
  569SOL    HW2 7670   0.292   5.807   8.890  1.9310 -1.6647 -0.1408
  570SOL     OW 7671   0.371   9.277   5.121 -0.0051  0.7452  0.0590
  570SOL    HW1 7672   0.347   9.190   5.153  0.1889  0.7959  0.3387
  570SOL    HW2 7673   0.465   9.285   5.139 -0.2690  1.5096  1.1830
  571SOL     OW 7674   8.947   8.707   4.335 -0.3007 -0.8640  0.6281
  571SOL    HW1 7675   8.972   8.648   4.265 -0.3334  0.0416 -0.1604
  571SOL    HW2 7676   8.856   8.729   4.318  0.5192  1.7652 -0.8601
  572SOL     OW 7677   2.407   5.930   5.680  0.5873 -0.4172  0.0842
  572SOL    HW1 7678   2.362   5.997   5.732  1.3727  0.5565 -0.4454
  572SOL    HW2 7679   2.425   5.860   5.742 -0.1098 -0.0687  0.6990
  573SOL     OW 7680   2.865   4.826   4.464  0.1351  0.4809  0.0205
  573SOL    HW1 7681   2.930   4.890   4.491 -1.1456  1.0490  2.0072
  573SOL    HW2 7682   2.782   4.873   4.468 -0.7759 -1.1084  0.8678
  574SOL     OW 7683   3.632   4.861   2.054  0.2669  0.2790 -0.3374
  574SOL    HW1 7684   3.592   4.822   1.976  2.5695 -0.2801 -1.3362
  574SOL    HW2 7685   3.559   4.877   2.113 -1.5674  0.6560 -2.5684
  575SOL     OW 7686   7.581   8.315   6.997  0.2243 -0.1330  0.4702
  575SOL    HW1 7687   7.671   8.283   6.992  0.5652 -0.0484  3.7087
  575SOL    HW2 7688   7.548   8.278   7.078 -1.6421  2.2641  0.8938
  576SOL     OW 7689   6.845   3.379   2.708  0.7066  0.6711 -0.0991
  576SOL    HW1 7690   6.868   3.397   2.617 -1.0788 -0.4965 -0.8383
  576SOL    HW2 7691   6.776   3.442   2.728 -0.4021 -0.4295 -0.3004
  577SOL     OW 7692   6.292   1.977   3.979  0.0062 -0.4272  0.0892
  577SOL    HW1 7693   6.359   1.980   4.047 -0.1163 -0.6159  0.2201
  577SOL    HW2 7694   6.223   2.035   4.012 -0.3818 -1.0930  0.4855
  578SOL     OW 7695   3.151   3.906   5.107  0.4698  0.1825  0.3000
  578SOL    HW1 7696   3.247   3.910   5.111  0.5424 -1.6113  2.2224
  578SOL    HW2 7697   3.131   3.907   5.013  2.4783 -0.9539 -0.2091
  579SOL     OW 7698   3.864   3.582   3.093 -0.2994  0.1654  0.5365
  579SOL    HW1 7699   3.920   3.647   3.136  0.9759  0.2131 -1.0817
  579SOL    HW2 7700   3.781   3.627   3.081  0.5330  1.5200 -0.4786
  580SOL     OW 7701   3.602   0.311   2.317  0.0093  0.9028  0.3998
  580SOL    HW1 7702   3.695   0.314   2.294 -0.0552  1.3062  0.1727
  580SOL    HW2 7703   3.573   0.225   2.287  0.6503  0.1272  1.8626
  581SOL     OW 7704   3.768   5.908   0.394  0.3452  0.2377  0.8882
  581SOL    HW1 7705   3.729   5.823   0.412  0.7568 -0.8949 -2.6759
  581SOL    HW2 7706   3.851   5.908   0.441 -0.3798 -0.6111  2.2215
  582SOL     OW 7707   8.256   8.243   7.841 -0.4641 -0.1648 -0.4349
  582SOL    HW1 7708   8.315   8.194   7.898  0.0083  1.0485  0.1414
  582SOL    HW2 7709   8.194   8.285   7.901 -0.7369  0.1127 -0.9040
  583SOL     OW 7710   1.955   7.621   6.631 -0.1257 -0.3905  0.1853
  583SOL    HW1 7711   1.918   7.535   6.646  0.6038 -0.8072 -0.3411
  583SOL    HW2 7712   1.962   7.628   6.536  0.7821 -0.1673  0.2626
  584SOL     OW 7713   2.960   6.924   6.183  0.3486  0.3533  0.0108
  584SOL    HW1 7714   2.937   6.910   6.091 -0.1918 -0.2036  0.2247
  584SOL    HW2 7715   2.952   7.019   6.195  0.0033  0.3817 -0.4085
  585SOL     OW 7716   1.426   4.424   2.546  0.8691 -0.0202 -0.3541
  585SOL    HW1 7717   1.431   4.373   2.465  1.3594  0.6236 -0.7521
  585SOL    HW2 7718   1.515   4.422   2.581  0.5667 -0.6345  0.3937
  586SOL     OW 7719   1.650   8.156   7.457  0.5556 -0.2383 -0.1761
  586SOL    HW1 7720   1.683   8.138   7.545 -0.3536 -1.0143  0.0187
  586SOL    HW2 7721   1.583   8.222   7.469  0.5294 -0.2418 -0.3064
  587SOL     OW 7722   7.401   0.717   5.823  0.0566  0.0590  0.5492
  587SOL    HW1 7723   7.388   0.805   5.788  3.4757  0.7245  0.6378
  587SOL    HW2 7724   7.457   0.729   5.899  0.1132 -2.1676  0.9354
  588SOL     OW 7725   7.241   7.889   8.596  0.4778 -0.4315  0.3210
  588SOL    HW1 7726   7.311   7.874   8.659 -0.1770  0.5698  1.3430
  588SOL    HW2 7727   7.194   7.806   8.592  1.3194 -0.9058  0.1319
  589SOL     OW 7728   4.754   8.089   1.234  0.0504 -0.1759  0.0811
  589SOL    HW1 7729   4.741   8.018   1.297  0.7446 -0.3983 -0.0139
  589SOL    HW2 7730   4.849   8.092   1.222  0.0605  1.0162  0.3705
  590SOL     OW 7731   0.053   7.730   7.674  0.2204 -0.2089  0.3736
  590SOL    HW1 7732   0.115   7.792   7.711  2.1000 -1.2100 -0.9326
  590SOL    HW2 7733   0.084   7.644   7.704 -0.8097 -0.7022  0.0818
  591SOL     OW 7734   5.310   5.459   4.477  0.3617 -0.1997  0.4099
  591SOL    HW1 7735   5.388   5.494   4.436  1.5447 -1.5873  1.3457
  591SOL    HW2 7736   5.255   5.430   4.405  0.9411  0.3157 -0.2447
  592SOL     OW 7737   6.801   7.616   9.244 -0.3790 -0.2602  0.1266
  592SOL    HW1 7738   6.847   7.543   9.201  0.4807 -1.6256  3.0489
  592SOL    HW2 7739   6.715   7.618   9.202 -0.8617 -3.7759  0.6354
  593SOL     OW 7740   4.069   7.979   2.991 -0.4921 -0.1966  0.4352
  593SOL    HW1 7741   4.131   8.051   2.999  0.3904 -0.8197 -0.5165
  593SOL    HW2 7742   4.028   7.993   2.905 -0.7795 -0.4752  0.5253
  594SOL     OW 7743   0.721   1.875   4.196 -0.1667  0.2437 -0.1139
  594SOL    HW1 7744   0.640   1.909   4.232 -0.3097 -0.5874  0.3606
  594SOL    HW2 7745   0.696   1.839   4.111 -0.3523 -0.2846  0.1643
  595SOL     OW 7746   1.851   5.964   1.294  0.4818  0.1439  0.5270
  595SOL    HW1 7747   1.876   5.873   1.275 -1.3442 -0.0758 -1.0601
  595SOL    HW2 7748   1.756   5.966   1.283  0.4425  2.1922  0.8624
  596SOL     OW 7749   6.983   8.217   5.954  0.0606  0.6786  0.1948
  596SOL    HW1 7750   7.002   8.202   6.046  1.7806 -0.3463 -0.2748
  596SOL    HW2 7751   6.902   8.269   5.954 -0.0279  0.6253  2.2481
  597SOL     OW 7752   1.317   0.701   0.971  0.3627 -0.5100  0.1079
  597SOL    HW1 7753   1.363   0.732   1.049  0.7221  2.3822 -1.1264
  597SOL    HW2 7754   1.230   0.739   0.978  1.0300  1.6420 -1.7827
  598SOL     OW 7755   4.401   0.093   7.714  0.1633 -0.0434 -0.0064
  598SOL    HW1 7756   4.406   0.036   7.791 -0.2221 -1.1948 -0.8071
  598SOL    HW2 7757   4.308   0.111   7.704  0.4103  2.3695  1.3643
  599SOL     OW 7758   3.120   0.538   1.042  0.1516 -0.4621 -0.7422
  599SOL    HW1 7759   3.168   0.615   1.012  1.4871 -1.6534 -1.7914
  599SOL    HW2 7760   3.041   0.536   0.989  0.8538 -0.6369 -1.8129
  600SOL     OW 7761   8.226   0.900   0.539  0.2099  0.1499 -0.2841
  600SOL    HW1 7762   8.310   0.855   0.548  0.8201  1.4878  1.4411
  600SOL    HW2 7763   8.247   0.992   0.556 -1.3634  0.7356 -1.3942
  601SOL     OW 7764   3.800   4.516   0.213 -0.4737  0.0514 -0.0019
  601SOL    HW1 7765   3.890   4.524   0.244 -0.2092  1.2076 -0.9637
  601SOL    HW2 7766   3.794   4.427   0.177  0.3544  0.0452 -0.1363
  602SOL     OW 7767   1.057   7.583   4.890  0.2922 -0.4554  0.4540
  602SOL    HW1 7768   1.049   7.488   4.898 -1.2954 -0.3482  0.4418
  602SOL    HW2 7769   1.121   7.607   4.957  0.4454 -1.4941  0.7000
  603SOL     OW 7770   1.661   3.768   8.169  0.3189 -0.0034 -0.2844
  603SOL    HW1 7771   1.671   3.675   8.190  1.9480 -0.0514 -1.1168
  603SOL    HW2 7772   1.711   3.813   8.237  0.1706  0.2214 -0.3251
  604SOL     OW 7773   2.627   1.049   2.262 -0.3510  0.0861 -0.1151
  604SOL    HW1 7774   2.578   0.976   2.224  1.0337 -0.1282 -1.5746
  604SOL    HW2 7775   2.685   1.009   2.326 -0.5866  0.0871  0.1009
  605SOL     OW 7776   5.407   8.894   1.750  0.3207 -0.2716  0.1462
  605SOL    HW1 7777   5.420   8.967   1.689  0.6864  0.7246  1.3732
  605SOL    HW2 7778   5.475   8.906   1.816 -0.0714 -1.3235  0.7672
  606SOL     OW 7779   4.359   6.900   0.183 -0.3041  0.0350 -0.4013
  606SOL    HW1 7780   4.430   6.964   0.168 -0.8053  0.8283  0.4834
  606SOL    HW2 7781   4.311   6.936   0.258 -0.5372 -1.4554  0.1884
  607SOL     OW 7782   1.770   8.085   3.007  0.0480 -0.2524 -0.4025
  607SOL    HW1 7783   1.831   8.091   2.934 -1.1740  1.9671 -1.3280
  607SOL    HW2 7784   1.825   8.063   3.082  2.0104  1.5778 -1.2055
  608SOL     OW 7785   2.383   8.314   5.001  0.0609  0.2084  0.0788
  608SOL    HW1 7786   2.419   8.237   4.957 -1.8023 -1.6518  1.5939
  608SOL    HW2 7787   2.319   8.350   4.940  1.3943  1.0172 -0.9000
  609SOL     OW 7788   3.913   9.338   5.027  0.1453  0.0954 -0.4556
  609SOL    HW1 7789   3.863   9.324   4.947  1.4646 -0.9917 -1.1321
  609SOL    HW2 7790   3.847   9.342   5.096 -0.9819  0.5748 -1.5334
  610SOL     OW 7791   0.782   6.045   7.928 -0.1015 -0.2577  0.2291
  610SOL    HW1 7792   0.823   5.988   7.862 -1.6902  1.4577 -2.4327
  610SOL    HW2 7793   0.838   6.123   7.931 -0.6406  0.1395  0.0611
  611SOL     OW 7794   6.628   5.535   5.881  0.2848 -0.6820 -0.1865
  611SOL    HW1 7795   6.683   5.596   5.832  0.9198 -1.1918 -0.1315
  611SOL    HW2 7796   6.683   5.507   5.955 -0.4570 -0.3505  0.5089
  612SOL     OW 7797   7.575   0.632   2.970  0.2525 -0.2079  0.0148
  612SOL    HW1 7798   7.572   0.727   2.958  1.1277 -0.3287 -1.3569
  612SOL    HW2 7799   7.495   0.601   2.928  0.5626 -0.1671 -0.6154
  613SOL     OW 7800   3.567   7.170   1.364  0.3660 -0.9252 -0.5976
  613SOL    HW1 7801   3.526   7.155   1.279 -0.6798  0.3759 -0.3608
  613SOL    HW2 7802   3.494   7.175   1.425  1.0426 -0.8913  0.2254
  614SOL     OW 7803   4.645   5.975   3.896  0.0703 -0.6959  0.5071
  614SOL    HW1 7804   4.612   6.011   3.979 -0.0057 -1.5229  0.8432
  614SOL    HW2 7805   4.586   6.011   3.830 -0.2462 -0.5159  0.8779
  615SOL     OW 7806   6.148   4.747   5.987  0.1836 -0.2105 -0.3235
  615SOL    HW1 7807   6.112   4.677   5.933 -0.3317 -0.5776  0.4896
  615SOL    HW2 7808   6.075   4.807   6.001  0.1430 -0.4379  0.4801
  616SOL     OW 7809   0.079   2.283   5.858 -0.1558 -1.4017  0.8778
  616SOL    HW1 7810   0.120   2.198   5.839  1.6160 -0.3829 -0.1341
  616SOL    HW2 7811   0.146   2.332   5.905 -0.2258  0.2489 -0.6376
  617SOL     OW 7812   9.171   0.667   5.839 -0.2172 -0.2702 -0.3773
  617SOL    HW1 7813   9.089   0.684   5.885  0.4099 -1.7149  1.4005
  617SOL    HW2 7814   9.237   0.717   5.889  0.0631  0.6342 -1.6056
  618SOL     OW 7815   5.792   9.252   2.375  0.2096  0.0301  0.2902
  618SOL    HW1 7816   5.810   9.159   2.368  1.1064  0.1771  0.4757
  618SOL    HW2 7817   5.766   9.279   2.287  1.6830 -0.0578 -0.1853
  619SOL     OW 7818   7.448   5.207   7.276 -0.3235 -0.0403  0.5241
  619SOL    HW1 7819   7.413   5.125   7.241  1.0506 -0.7592  0.7495
  619SOL    HW2 7820   7.485   5.182   7.360  0.9747  0.6001  0.1616
  620SOL     OW 7821   0.050   6.244   2.635  1.2180  0.2628 -0.2121
  620SOL    HW1 7822   0.008   6.315   2.586 -0.6910 -0.5705  0.1192
  620SOL    HW2 7823   0.144   6.261   2.627  0.9507  0.8506 -3.1000
  621SOL     OW 7824   3.095   8.813   4.177 -0.1083 -0.4340 -0.4792
  621SOL    HW1 7825   3.064   8.903   4.163  1.1529  0.8300  3.5764
  621SOL    HW2 7826   3.190   8.819   4.175  0.0048 -1.8504 -0.7504
  622SOL     OW 7827   4.938   0.636   8.422  0.8618 -0.2842 -0.0697
  622SOL    HW1 7828   4.963   0.595   8.339 -0.3096 -1.5247  0.1617
  622SOL    HW2 7829   5.021   0.661   8.463  1.4638  2.5202 -2.6199
  623SOL     OW 7830   1.839   6.542   3.958 -0.5313  0.0286  0.4526
  623SOL    HW1 7831   1.819   6.595   4.035 -1.0209  0.0410  0.3258
  623SOL    HW2 7832   1.928   6.566   3.934 -0.8518  1.0615  0.1964
  624SOL     OW 7833   2.963   3.475   8.036  0.1364 -0.1232  0.2078
  624SOL    HW1 7834   3.055   3.488   8.013 -0.0740  0.5409 -0.2875
  624SOL    HW2 7835   2.966   3.442   8.125  0.8227  0.7062  0.5090
  625SOL     OW 7836   5.370   6.189   0.519 -0.4929  0.4840  0.0313
  625SOL    HW1 7837   5.296   6.237   0.555  0.3898 -0.1360  2.9825
  625SOL    HW2 7838   5.345   6.097   0.525 -0.7681  0.3576 -2.2173
  626SOL     OW 7839   8.477   2.001   4.585 -0.3963  0.1329  0.1414
  626SOL    HW1 7840   8.461   1.979   4.676  0.0888  1.1418  0.4819
  626SOL    HW2 7841   8.511   1.920   4.547  1.2441  0.2056  1.3391
  627SOL     OW 7842   5.591   3.061   3.409  0.2799  0.0635 -0.2747
  627SOL    HW1 7843   5.640   2.979   3.419 -1.3834 -1.1392 -1.4399
  627SOL    HW2 7844   5.646   3.115   3.353  0.3880 -1.1674 -1.3872
  628SOL     OW 7845   1.141   8.164   0.409  0.4637 -0.2267 -0.5069
  628SOL    HW1 7846   1.183   8.165   0.323 -0.5700  0.9906 -1.0385
  628SOL    HW2 7847   1.177   8.240   0.454  0.3608 -0.3586 -0.1986
  629SOL     OW 7848   8.621   8.366   5.879  0.4633 -0.0972  0.3941
  629SOL    HW1 7849   8.613   8.454   5.842 -0.9317 -0.0105  0.8065
  629SOL    HW2 7850   8.628   8.308   5.804  0.6568  0.3108  0.0965
  630SOL     OW 7851   6.715   4.951   0.006 -0.5484  0.0836 -0.4263
  630SOL    HW1 7852   6.783   4.953   0.074 -1.3850 -0.4345  0.4486
  630SOL    HW2 7853   6.636   4.983   0.050 -0.3544  3.3234 -2.0925
  631SOL     OW 7854   1.949   2.554   0.853 -0.2420 -0.6242 -0.1856
  631SOL    HW1 7855   1.946   2.583   0.761 -0.2481  0.4203  0.1263
  631SOL    HW2 7856   1.882   2.486   0.858  0.1000 -1.0492 -1.0668
  632SOL     OW 7857   2.432   6.040   3.740 -0.2819 -0.5214 -0.3385
  632SOL    HW1 7858   2.377   6.115   3.718  1.3548  0.7735 -0.2651
  632SOL    HW2 7859   2.379   5.963   3.719 -2.3604  0.6291  0.4559
  633SOL     OW 7860   7.622   0.628   6.076  0.2714 -0.4574 -0.2466
  633SOL    HW1 7861   7.643   0.560   6.011 -0.7239 -2.3041  1.2779
  633SOL    HW2 7862   7.554   0.589   6.131  0.6306  1.2886  1.5427
  634SOL     OW 7863   2.697   0.171   0.995 -0.1489 -0.4600 -0.5634
  634SOL    HW1 7864   2.752   0.093   1.005 -0.0123 -0.3902 -0.7868
  634SOL    HW2 7865   2.618   0.139   0.951 -1.1189 -0.9417  1.4039
  635SOL     OW 7866   5.524   0.317   8.867  0.2466 -0.3303 -0.1986
  635SOL    HW1 7867   5.523   0.221   8.869 -0.6290 -0.3211  1.3352
  635SOL    HW2 7868   5.437   0.342   8.898  0.2866  0.9780 -1.0653
  636SOL     OW 7869   7.456   0.401   0.202  0.3078  0.2767 -0.2428
  636SOL    HW1 7870   7.468   0.471   0.266  0.7487  0.8995 -0.9887
  636SOL    HW2 7871   7.525   0.416   0.137  1.7443 -2.0671  0.6394
  637SOL     OW 7872   5.695   1.336   2.123 -0.0296 -0.1641  0.5380
  637SOL    HW1 7873   5.722   1.421   2.157 -1.1157  0.1935  0.5332
  637SOL    HW2 7874   5.600   1.334   2.135 -0.2419 -0.6894 -0.9930
  638SOL     OW 7875   0.119   9.133   5.816 -0.2568  0.1750 -0.1854
  638SOL    HW1 7876   0.145   9.216   5.776 -0.8060 -0.0861 -1.1344
  638SOL    HW2 7877   0.201   9.090   5.838  0.0348  0.9906  0.3795
  639SOL     OW 7878   5.306   8.380   8.871 -0.1814 -0.4694  0.1980
  639SOL    HW1 7879   5.395   8.412   8.853 -0.1707 -1.2214 -1.2090
  639SOL    HW2 7880   5.259   8.457   8.903  0.9563 -0.0542  0.9784
  640SOL     OW 7881   5.729   5.601   0.722  0.2078  0.3692  0.1425
  640SOL    HW1 7882   5.722   5.590   0.816 -0.9502  0.2882  0.0647
  640SOL    HW2 7883   5.815   5.567   0.699  0.0188 -0.7148  1.0069
  641SOL     OW 7884   0.909   7.921   6.054  0.1068  0.0823 -0.6950
  641SOL    HW1 7885   0.846   7.855   6.026  1.4601 -1.4144 -0.3178
  641SOL    HW2 7886   0.975   7.923   5.984 -0.8111  2.4168 -1.6353
  642SOL     OW 7887   6.076   2.143   4.048  0.2680  0.3907 -0.1871
  642SOL    HW1 7888   6.053   2.153   3.955  0.9657 -1.8039 -0.6399
  642SOL    HW2 7889   6.019   2.074   4.081  0.0782  1.0938  1.0222
  643SOL     OW 7890   8.756   2.430   2.334 -0.0004 -0.3448 -0.3013
  643SOL    HW1 7891   8.690   2.370   2.368  0.6432 -0.1975  1.2585
  643SOL    HW2 7892   8.808   2.376   2.274 -2.4288 -0.0962 -2.8887
  644SOL     OW 7893   6.839   8.104   8.726  0.4083  0.3459  0.0548
  644SOL    HW1 7894   6.752   8.105   8.766  0.1497 -0.4307 -0.4607
  644SOL    HW2 7895   6.892   8.051   8.786  0.8108  1.6599  0.9002
  645SOL     OW 7896   2.426   5.881   6.178 -0.4704  0.2707  0.2738
  645SOL    HW1 7897   2.520   5.870   6.184 -0.4104  0.5422 -0.1156
  645SOL    HW2 7898   2.410   5.972   6.204 -0.8138 -0.2497  2.0618
  646SOL     OW 7899   8.246   3.309   0.058  0.3742 -0.7163  0.0035
  646SOL    HW1 7900   8.188   3.336  -0.013  0.8525 -0.0373 -0.1424
  646SOL    HW2 7901   8.333   3.302   0.018  0.3464 -2.0698  0.1413
  647SOL     OW 7902   5.099   8.111   3.547 -0.5204 -0.2210  0.2928
  647SOL    HW1 7903   5.169   8.103   3.483  1.7124  0.9083  2.4322
  647SOL    HW2 7904   5.106   8.031   3.600 -0.3157  0.2627  1.0027
  648SOL     OW 7905   2.216   3.562   2.307 -0.4715 -0.1789  0.5378
  648SOL    HW1 7906   2.252   3.641   2.269 -1.2640 -0.6191 -1.2511
  648SOL    HW2 7907   2.268   3.491   2.270 -2.0721 -0.7043 -0.8060
  649SOL     OW 7908   6.249   9.198   5.055 -0.4515  0.5234  0.1197
  649SOL    HW1 7909   6.318   9.259   5.083 -0.1507  0.8149 -1.1776
  649SOL    HW2 7910   6.293   9.113   5.051 -0.3161  0.6016 -0.1036
  650SOL     OW 7911   7.110   3.022   0.662  0.2878 -0.2192 -0.4606
  650SOL    HW1 7912   7.067   3.002   0.579  3.1455  1.1690 -2.4547
  650SOL    HW2 7913   7.177   2.954   0.671 -0.4047 -0.7381  1.1049
  651SOL     OW 7914   5.799   1.581   6.122  0.1395 -0.2361  0.1690
  651SOL    HW1 7915   5.887   1.560   6.090 -0.1172 -0.3766 -0.4502
  651SOL    HW2 7916   5.786   1.672   6.095  0.5327  0.1590  1.2522
  652SOL     OW 7917   7.294   9.015   2.554  0.2162 -0.3255 -0.2409
  652SOL    HW1 7918   7.357   8.953   2.591 -0.6931 -0.6527  0.8006
  652SOL    HW2 7919   7.209   8.972   2.563 -0.4599  1.1045  0.6213
  653SOL     OW 7920   8.414   7.866   6.191  0.7581  0.3210  0.5468
  653SOL    HW1 7921   8.394   7.773   6.183 -1.2915  0.7452 -0.0212
  653SOL    HW2 7922   8.403   7.900   6.102  2.2414  0.9993  0.5918
  654SOL     OW 7923   1.317   7.981   0.150 -0.1836 -0.2704  0.2936
  654SOL    HW1 7924   1.411   7.982   0.132 -0.3508  0.2330 -0.5839
  654SOL    HW2 7925   1.287   8.068   0.124 -1.0406 -0.7176 -0.2338
  655SOL     OW 7926   6.860   7.499   6.596  0.3129  0.2155  0.0640
  655SOL    HW1 7927   6.934   7.519   6.654 -1.1815  0.6649  1.9069
  655SOL    HW2 7928   6.794   7.460   6.654 -1.7872  1.8940 -1.0455
  656SOL     OW 7929   5.071   6.702   0.888 -0.1860  0.3412  0.2860
  656SOL    HW1 7930   5.016   6.780   0.883  0.4586  0.7525 -0.8164
  656SOL    HW2 7931   5.128   6.708   0.812 -1.0492 -1.9237 -0.6585
  657SOL     OW 7932   5.894   6.041   2.054  0.3546 -0.1883  0.2750
  657SOL    HW1 7933   5.901   6.064   2.147  0.9899  0.9880 -0.0368
  657SOL    HW2 7934   5.918   5.948   2.050  0.7177 -0.1475  1.2382
  658SOL     OW 7935   5.921   8.626   1.091  0.6048  0.1312  0.1674
  658SOL    HW1 7936   5.997   8.573   1.066  0.5792  0.6981 -1.2308
  658SOL    HW2 7937   5.943   8.714   1.061 -1.6417 -0.1598 -2.7889
  659SOL     OW 7938   2.802   8.024   8.341 -0.2250  0.0394  0.2985
  659SOL    HW1 7939   2.859   8.021   8.417  0.2410  0.1104 -0.0424
  659SOL    HW2 7940   2.716   8.050   8.375 -0.4454 -1.5549  1.0455
  660SOL     OW 7941   1.296   6.275   2.750 -0.5077 -0.7400 -1.1522
  660SOL    HW1 7942   1.240   6.209   2.709 -0.7940 -2.3731  1.5401
  660SOL    HW2 7943   1.368   6.224   2.788  0.5525  0.8192 -1.0047
  661SOL     OW 7944   7.848   4.634   8.771  0.1360 -0.1144  0.2607
  661SOL    HW1 7945   7.852   4.711   8.714  0.2817 -0.0132  0.4096
  661SOL    HW2 7946   7.755   4.621   8.787  0.1495  0.5151  0.8999
  662SOL     OW 7947   6.344   0.196   2.306 -0.2657 -0.2724  0.1295
  662SOL    HW1 7948   6.334   0.271   2.247  1.1777  0.0154  0.2146
  662SOL    HW2 7949   6.331   0.120   2.249  0.3670  0.0157 -0.4264
  663SOL     OW 7950   5.755   2.318   0.715  0.1263 -0.5951 -0.2973
  663SOL    HW1 7951   5.663   2.335   0.691  0.0611  1.7523  1.2766
  663SOL    HW2 7952   5.749   2.257   0.788 -0.4249  1.2948  1.3435
  664SOL     OW 7953   2.583   0.689   3.782 -0.1802  0.0378  0.1583
  664SOL    HW1 7954   2.621   0.611   3.743 -1.3268 -0.7758  0.6049
  664SOL    HW2 7955   2.638   0.761   3.751 -0.3101 -0.6935 -1.9347
  665SOL     OW 7956   1.756   7.219   2.672 -0.9523  0.2459  0.0133
  665SOL    HW1 7957   1.662   7.235   2.671 -1.0537 -0.2764 -0.8632
  665SOL    HW2 7958   1.773   7.178   2.756 -1.8896 -1.5990 -0.6229
  666SOL     OW 7959   7.923   5.908   4.284  0.1496  0.1983  0.2988
  666SOL    HW1 7960   8.010   5.875   4.306 -0.2482 -1.0465  0.1113
  666SOL    HW2 7961   7.912   5.985   4.338  1.9248  1.2136 -0.6881
  667SOL     OW 7962   6.480   2.183   0.581 -0.7744  0.6354  0.1152
  667SOL    HW1 7963   6.548   2.219   0.525 -0.0530  0.1706  0.6751
  667SOL    HW2 7964   6.460   2.253   0.643 -0.2619  0.5220  0.4190
  668SOL     OW 7965   2.034   6.099   7.266  0.1456  0.0707  0.1756
  668SOL    HW1 7966   1.993   6.014   7.280 -1.3439  1.0726  2.3029
  668SOL    HW2 7967   2.098   6.107   7.337 -0.1852  0.9804  0.3856
  669SOL     OW 7968   9.225   5.840   3.335  0.0927  1.0842  0.1204
  669SOL    HW1 7969   9.293   5.902   3.308 -0.5507  2.2822  1.1340
  669SOL    HW2 7970   9.253   5.756   3.299 -0.2061  2.3193 -3.3850
  670SOL     OW 7971   4.829   2.552   1.902 -0.0897  0.3451 -0.8434
  670SOL    HW1 7972   4.873   2.634   1.880  2.0202 -0.6013 -0.4031
  670SOL    HW2 7973   4.896   2.485   1.893 -1.9260 -1.4772 -1.9055
  671SOL     OW 7974   7.132   6.460   5.860  0.7173 -0.7712  0.0102
  671SOL    HW1 7975   7.152   6.472   5.767  0.7799 -0.1301  0.1018
  671SOL    HW2 7976   7.209   6.494   5.906 -0.6108  2.0807  0.3844
  672SOL     OW 7977   1.318   8.236   1.092  0.4734 -0.6638 -0.5406
  672SOL    HW1 7978   1.304   8.328   1.115 -0.0765 -0.5331 -1.3616
  672SOL    HW2 7979   1.275   8.226   1.007  3.7897 -0.6852 -2.3861
  673SOL     OW 7980   0.928   5.017   6.979  0.3140  0.7202 -0.2864
  673SOL    HW1 7981   0.917   5.107   7.010  0.9721  0.0619  2.0907
  673SOL    HW2 7982   0.838   4.984   6.972  0.0933  0.6450  2.0041
  674SOL     OW 7983   2.371   1.191   0.661  0.6709  0.1032  0.3569
  674SOL    HW1 7984   2.387   1.098   0.648  0.5751  0.0274  0.7604
  674SOL    HW2 7985   2.276   1.198   0.673  0.5931  0.3408 -0.3790
  675SOL     OW 7986   2.058   1.736   1.848 -0.6191  0.4082  0.1295
  675SOL    HW1 7987   1.975   1.767   1.812 -0.8643 -0.3275  0.0321
  675SOL    HW2 7988   2.033   1.663   1.905 -0.0294  0.0715 -0.0321
  676SOL     OW 7989   2.560   4.560   4.195  0.9400 -0.0031  0.1110
  676SOL    HW1 7990   2.475   4.606   4.201  2.0213  2.1230  0.2355
  676SOL    HW2 7991   2.620   4.627   4.162  2.6605 -1.3699  0.3752
  677SOL     OW 7992   8.037   6.408   2.154 -0.0414 -0.2001  0.2827
  677SOL    HW1 7993   8.023   6.343   2.085  0.2212  0.7019 -0.6487
  677SOL    HW2 7994   8.083   6.480   2.111  0.1559  0.3830  1.4113
  678SOL     OW 7995   6.857   2.561   2.013 -0.3401 -0.1382  0.2987
  678SOL    HW1 7996   6.847   2.624   1.942 -1.0181  1.3570  1.6283
  678SOL    HW2 7997   6.781   2.503   2.005  1.5387 -2.4614 -2.3994
  679SOL     OW 7998   0.891   6.624   7.848  0.4505  0.1615  0.2325
  679SOL    HW1 7999   0.901   6.538   7.808  0.2269  0.7635 -1.1665
  679SOL    HW2 8000   0.917   6.611   7.939 -2.1208 -2.0167  0.7912
  680SOL     OW 8001   2.764   4.823   0.845 -0.2435 -0.9451 -0.0336
  680SOL    HW1 8002   2.843   4.860   0.884  0.6323 -1.7558 -1.0045
  680SOL    HW2 8003   2.696   4.839   0.910  0.5876  0.2838  0.5722
  681SOL     OW 8004   6.488   7.341   9.356 -0.4264  0.1804  0.3195
  681SOL    HW1 8005   6.513   7.290   9.279  0.2600  1.2663 -0.1853
  681SOL    HW2 8006   6.393   7.354   9.346  0.1047  3.4599 -2.3671
  682SOL     OW 8007   7.731   4.043   4.627  0.6466  0.3847 -0.6183
  682SOL    HW1 8008   7.691   4.012   4.708  0.5459  1.4590 -0.2447
  682SOL    HW2 8009   7.663   4.095   4.585  1.0510  0.7260 -0.8614
  683SOL     OW 8010   5.576   7.680   9.244  0.1182  0.2687 -0.2800
  683SOL    HW1 8011   5.555   7.645   9.157 -1.3661 -1.0524  0.5470
  683SOL    HW2 8012   5.573   7.775   9.234  1.6023  0.1866 -2.0109
  684SOL     OW 8013   8.723   5.721   2.632  0.3760 -0.2167  0.0431
  684SOL    HW1 8014   8.742   5.630   2.656  0.7681 -0.0219  0.4887
  684SOL    HW2 8015   8.808   5.760   2.612  0.3848  0.4246  1.2132
  685SOL     OW 8016   0.045   5.999   1.003  0.3758 -0.4821 -0.0784
  685SOL    HW1 8017   0.051   6.057   1.079  0.3342  0.3159 -0.6696
  685SOL    HW2 8018  -0.028   6.035   0.952  0.3343 -1.0763 -0.4457
  686SOL     OW 8019   8.289   1.066   4.072 -0.2355  0.1216  0.0902
  686SOL    HW1 8020   8.245   1.060   4.157  0.1159 -2.3660  0.1693
  686SOL    HW2 8021   8.238   1.010   4.014  0.3371  0.6719 -0.9791
  687SOL     OW 8022   5.883   1.369   2.961  0.2931  0.1853  0.1230
  687SOL    HW1 8023   5.898   1.425   2.885 -0.4956  0.2498  0.0034
  687SOL    HW2 8024   5.960   1.311   2.964 -0.0099 -0.3226 -1.1790
  688SOL     OW 8025   3.531   6.401   8.442  0.3820 -0.5668 -0.4181
  688SOL    HW1 8026   3.518   6.397   8.347  0.7589 -3.1288 -0.4349
  688SOL    HW2 8027   3.447   6.373   8.479  0.5032 -0.4000 -0.0090
  689SOL     OW 8028   4.865   4.729   2.291 -0.1496 -0.2733  0.1216
  689SOL    HW1 8029   4.953   4.708   2.321  0.2309 -0.4517 -1.0760
  689SOL    HW2 8030   4.849   4.818   2.324  0.0704 -0.6353  1.2115
  690SOL     OW 8031   6.161   0.180   8.997 -0.6907  0.0634  0.5102
  690SOL    HW1 8032   6.154   0.134   9.080  0.2997  0.1757  0.6670
  690SOL    HW2 8033   6.078   0.161   8.952 -0.1997 -2.1267  0.4277
  691SOL     OW 8034   5.401   6.312   3.355 -0.2915 -0.0740  0.1487
  691SOL    HW1 8035   5.456   6.275   3.424  1.4588  1.0872 -0.5555
  691SOL    HW2 8036   5.332   6.359   3.401  1.2729  1.3188  1.1864
  692SOL     OW 8037   3.366   2.217   8.493  0.0249  0.9514 -0.4075
  692SOL    HW1 8038   3.439   2.163   8.463  0.3163  1.0929  0.0245
  692SOL    HW2 8039   3.382   2.229   8.587 -0.3993  1.2228 -0.3650
  693SOL     OW 8040   4.940   2.319   4.058 -0.2262  0.2731  0.0119
  693SOL    HW1 8041   4.900   2.232   4.056  0.9709 -0.2906 -0.0550
  693SOL    HW2 8042   4.948   2.344   3.966 -0.1632  0.2772  0.0189
  694SOL     OW 8043   6.984   8.256   3.425 -0.5218 -0.0396  0.3487
  694SOL    HW1 8044   7.015   8.183   3.371 -1.4060  0.3195 -0.6793
  694SOL    HW2 8045   7.017   8.237   3.512  2.5513  0.2693 -0.5996
  695SOL     OW 8046   7.095   1.889   0.266  0.1513  0.4194 -0.1643
  695SOL    HW1 8047   7.073   1.918   0.355 -0.5045  1.2170 -0.5722
  695SOL    HW2 8048   7.187   1.914   0.255  0.8022 -1.3307  0.9215
  696SOL     OW 8049   2.404   9.047   0.450  0.0073  0.1420 -0.0781
  696SOL    HW1 8050   2.412   9.142   0.446 -2.3032  0.4017 -0.2783
  696SOL    HW2 8051   2.323   9.032   0.499  0.9933 -1.7756  1.0851
  697SOL     OW 8052   0.685   1.198   0.059 -0.4943  0.1096 -0.0701
  697SOL    HW1 8053   0.714   1.265   0.121  0.0055  0.6302 -0.8324
  697SOL    HW2 8054   0.766   1.154   0.033 -0.8585 -1.0161  0.6598
  698SOL     OW 8055   1.155   7.874   5.930  0.0045  0.0207 -0.0272
  698SOL    HW1 8056   1.225   7.855   5.867 -1.4485 -0.1226 -1.6707
  698SOL    HW2 8057   1.199   7.874   6.015  1.3385 -4.6478 -0.4101
  699SOL     OW 8058   5.932   0.872   1.153  0.2288  0.2184 -0.4281
  699SOL    HW1 8059   5.980   0.806   1.201  0.9890  1.8056  1.0833
  699SOL    HW2 8060   5.855   0.826   1.120  0.5064 -1.3103  0.9418
  700SOL     OW 8061   1.139   0.840   3.267  0.2336  0.1635 -0.0521
  700SOL    HW1 8062   1.049   0.811   3.280  0.9092 -1.4980  1.3145
  700SOL    HW2 8063   1.131   0.928   3.231 -1.9375  0.7129  1.5779
  701SOL     OW 8064   0.502   4.247   3.520 -0.0735  0.3920  0.4258
  701SOL    HW1 8065   0.579   4.191   3.523  0.9707  1.5491 -2.0302
  701SOL    HW2 8066   0.443   4.203   3.458  0.2789  1.3886 -0.6467
  702SOL     OW 8067   8.081   9.123   3.109  0.3251 -0.2468  0.3267
  702SOL    HW1 8068   8.131   9.174   3.045  0.3634 -0.3938  0.2402
  702SOL    HW2 8069   7.997   9.107   3.067 -0.1473  0.7853  0.8262
  703SOL     OW 8070   5.934   5.710   2.905  0.3226  0.4024  0.2213
  703SOL    HW1 8071   5.853   5.689   2.857 -0.3137  2.2309  0.4418
  703SOL    HW2 8072   5.931   5.804   2.918  3.2768  0.8148 -1.1677
  704SOL     OW 8073   6.992   7.438   7.718  0.1599 -0.1227 -0.6216
  704SOL    HW1 8074   7.030   7.524   7.698  2.3903 -0.6288  1.0420
  704SOL    HW2 8075   7.067   7.384   7.742 -1.3748 -2.0669  0.0577
  705SOL     OW 8076   9.228   3.673   3.359  0.0949  0.5942  0.0430
  705SOL    HW1 8077   9.274   3.590   3.372 -1.0602  0.0219  0.5806
  705SOL    HW2 8078   9.204   3.672   3.266  0.0334  0.2969  0.0606
  706SOL     OW 8079   8.056   7.247   3.831 -0.3742 -0.0675 -0.5481
  706SOL    HW1 8080   8.113   7.172   3.813  0.1019 -0.3592  1.8444
  706SOL    HW2 8081   7.968   7.209   3.831 -0.2179 -0.4397 -0.2961
  707SOL     OW 8082   4.640   7.235   6.474 -0.5943 -0.0747  0.1191
  707SOL    HW1 8083   4.591   7.160   6.443  2.3030 -0.5506 -4.2553
  707SOL    HW2 8084   4.587   7.311   6.449 -2.3467 -0.4614  2.3007
  708SOL     OW 8085   1.516   3.477   5.537 -0.0432 -0.1164 -0.2674
  708SOL    HW1 8086   1.512   3.444   5.447 -0.7927  0.3022 -0.3968
  708SOL    HW2 8087   1.510   3.399   5.592  0.8455 -0.4113 -0.5726
  709SOL     OW 8088   8.875   4.844   8.878  0.1337  0.5975 -0.4638
  709SOL    HW1 8089   8.799   4.901   8.881 -1.2557 -1.1146  2.4831
  709SOL    HW2 8090   8.851   4.774   8.817  0.2983  1.2049 -1.2341
  710SOL     OW 8091   2.536   4.881   1.590  0.1482  0.2291  0.2198
  710SOL    HW1 8092   2.562   4.924   1.672 -1.2644 -0.3214  0.9921
  710SOL    HW2 8093   2.444   4.906   1.578  0.2575  0.0801 -1.0755
  711SOL     OW 8094   6.689   2.240   5.188 -0.3919 -0.2323  0.6725
  711SOL    HW1 8095   6.615   2.189   5.154 -0.1889 -0.5164  0.6480
  711SOL    HW2 8096   6.767   2.197   5.150 -0.1950 -0.1852  1.0166
  712SOL     OW 8097   6.548   0.564   6.954  0.0199 -0.2930 -0.0905
  712SOL    HW1 8098   6.539   0.559   7.049 -0.3321 -0.7379 -0.1400
  712SOL    HW2 8099   6.474   0.618   6.926 -0.7637 -1.4063 -0.2335
  713SOL     OW 8100   7.660   6.286   6.226  0.0955  0.0375 -0.2131
  713SOL    HW1 8101   7.738   6.232   6.216 -0.0308 -0.4605  1.2316
  713SOL    HW2 8102   7.685   6.355   6.287 -0.7663 -0.5054  0.7767
  714SOL     OW 8103   5.068   6.116   5.749  0.6794 -0.5961 -0.4287
  714SOL    HW1 8104   4.995   6.070   5.708 -0.6407  1.7282 -0.8796
  714SOL    HW2 8105   5.075   6.076   5.836 -1.0512 -0.9877 -0.4268
  715SOL     OW 8106   4.762   3.457   6.824 -0.0295  0.5962 -0.0356
  715SOL    HW1 8107   4.765   3.518   6.749  0.4365 -1.0718 -1.4454
  715SOL    HW2 8108   4.853   3.431   6.836 -0.2263  0.1898  0.5758
  716SOL     OW 8109   8.532   1.513   5.389  0.0838  0.4306  0.4678
  716SOL    HW1 8110   8.624   1.509   5.364 -0.5890 -1.5276 -2.1143
  716SOL    HW2 8111   8.528   1.466   5.473  1.2751 -0.5998 -0.0120
  717SOL     OW 8112   1.694   5.041   4.972  0.2534  0.2929  0.6271
  717SOL    HW1 8113   1.702   4.946   4.964  0.4680  0.3567 -0.0244
  717SOL    HW2 8114   1.646   5.055   5.053  1.2345 -0.3331  1.3375
  718SOL     OW 8115   4.566   1.023   0.669  0.3609  0.0514 -0.0292
  718SOL    HW1 8116   4.497   1.038   0.605  0.0890 -1.3969 -0.1071
  718SOL    HW2 8117   4.604   1.110   0.685 -1.6522  0.9399  0.2517
  719SOL     OW 8118   8.716   6.258   2.431  0.1518  0.2724  0.2638
  719SOL    HW1 8119   8.634   6.307   2.437 -1.0449 -1.5692 -0.0665
  719SOL    HW2 8120   8.689   6.166   2.441  2.0340 -0.4757 -1.0322
  720SOL     OW 8121   7.771   5.194   3.718 -0.0808  0.8089 -0.1889
  720SOL    HW1 8122   7.824   5.161   3.645 -1.1235 -2.5447  0.4047
  720SOL    HW2 8123   7.681   5.170   3.695 -0.4145 -0.6607  2.2364
  721SOL     OW 8124   5.943   2.780   4.608 -0.4374  0.0192 -0.3729
  721SOL    HW1 8125   5.926   2.746   4.696 -0.0127  0.5388 -0.0837
  721SOL    HW2 8126   5.920   2.873   4.613  1.6321  0.5908 -0.1701
  722SOL     OW 8127   6.156   8.690   5.173 -0.0199 -0.0347 -0.3023
  722SOL    HW1 8128   6.167   8.641   5.255  0.5728 -1.2721 -1.0816
  722SOL    HW2 8129   6.210   8.768   5.183  1.0049 -0.7679  0.0495
  723SOL     OW 8130   5.734   6.723   0.374 -0.1586 -0.0872 -0.5103
  723SOL    HW1 8131   5.745   6.735   0.468  0.0291 -0.0514 -0.5355
  723SOL    HW2 8132   5.670   6.789   0.348  0.3701  0.4239 -0.5363
  724SOL     OW 8133   6.253   5.341   3.266  0.2031  0.2595 -0.0800
  724SOL    HW1 8134   6.243   5.304   3.354 -0.5745  1.0172  0.1580
  724SOL    HW2 8135   6.163   5.355   3.236  0.3406 -2.1516 -1.9472
  725SOL     OW 8136   5.151   9.359   2.485  0.1604 -0.4000  0.4430
  725SOL    HW1 8137   5.208   9.296   2.441  0.9079  0.1194  0.6593
  725SOL    HW2 8138   5.165   9.343   2.578  0.5155  0.2310  0.4988
  726SOL     OW 8139   5.411   9.161   4.172 -0.4092  0.0731 -0.1743
  726SOL    HW1 8140   5.394   9.077   4.129  3.0275 -1.9287  1.9235
  726SOL    HW2 8141   5.494   9.191   4.136 -0.4513  1.4280  0.7710
  727SOL     OW 8142   4.381   7.876   7.506 -0.2487  0.2550 -0.9165
  727SOL    HW1 8143   4.388   7.879   7.410  1.2121 -1.0453 -0.8864
  727SOL    HW2 8144   4.385   7.783   7.527 -0.8097  0.5131  0.4140
  728SOL     OW 8145   2.407   2.811   0.219  0.4622 -0.4724  0.5086
  728SOL    HW1 8146   2.313   2.791   0.221  0.4085 -0.4777 -1.2044
  728SOL    HW2 8147   2.410   2.907   0.220  0.3150 -0.4000 -1.7459
  729SOL     OW 8148   9.079   2.886   2.045  0.2700  0.7729 -0.1015
  729SOL    HW1 8149   9.111   2.957   2.100  0.7733 -0.1217  0.7832
  729SOL    HW2 8150   9.156   2.831   2.028 -0.1423  0.3409 -0.6303
  730SOL     OW 8151   8.012   2.281   6.237  0.0818 -0.5755  0.3157
  730SOL    HW1 8152   8.105   2.294   6.255  0.1494 -1.2217  0.4672
  730SOL    HW2 8153   7.980   2.232   6.312 -0.7342  0.9655  1.0157
  731SOL     OW 8154   2.767   7.806   7.925  0.3431 -0.2636  0.4626
  731SOL    HW1 8155   2.784   7.794   8.019 -0.7575  2.6432  1.1457
  731SOL    HW2 8156   2.848   7.842   7.890  0.4512 -0.4671  0.5030
  732SOL     OW 8157   3.836   1.581   4.776  0.6209  0.4717 -0.4734
  732SOL    HW1 8158   3.896   1.544   4.841  2.9836  1.1160 -2.1663
  732SOL    HW2 8159   3.795   1.655   4.821  1.3654  0.2429  0.6274
  733SOL     OW 8160   3.048   1.370   0.519  0.4599 -0.4594 -0.0212
  733SOL    HW1 8161   3.089   1.311   0.583 -0.6667  0.0118  1.1640
  733SOL    HW2 8162   3.035   1.452   0.567 -0.1659 -0.0087 -0.9398
  734SOL     OW 8163   4.981   1.868   8.619  0.4360 -0.4642 -0.3307
  734SOL    HW1 8164   5.072   1.857   8.592  0.3233 -0.8636 -0.5629
  734SOL    HW2 8165   4.959   1.958   8.592  0.9173 -0.1804  0.2111
  735SOL     OW 8166   9.100   6.368   1.119  0.2135 -0.1318  0.0660
  735SOL    HW1 8167   9.175   6.332   1.166 -0.2086 -1.2740 -0.1219
  735SOL    HW2 8168   9.035   6.384   1.187  0.6981  1.1111  0.2670
  736SOL     OW 8169   5.896   2.201   4.812  0.3782  0.1219  0.2521
  736SOL    HW1 8170   5.842   2.257   4.869  0.9043  0.3205  0.5651
  736SOL    HW2 8171   5.969   2.257   4.787  0.0458  0.1010 -0.7947
  737SOL     OW 8172   8.775   1.230   4.285  0.7664 -0.3232  0.0772
  737SOL    HW1 8173   8.839   1.158   4.283 -1.1462 -2.1843  1.6740
  737SOL    HW2 8174   8.699   1.196   4.237 -0.4105  0.3686  1.3827
  738SOL     OW 8175   2.065   2.184   0.853  0.7383  0.1952  0.9425
  738SOL    HW1 8176   2.158   2.174   0.874  0.8243 -0.5215  0.2768
  738SOL    HW2 8177   2.020   2.172   0.937  1.2145 -0.0282  1.1689
  739SOL     OW 8178   0.302   4.507   3.777  0.5563  0.4157  0.1857
  739SOL    HW1 8179   0.227   4.510   3.837  1.4134  1.9523  1.2626
  739SOL    HW2 8180   0.314   4.414   3.758 -1.6089  0.1355 -0.0301
  740SOL     OW 8181   1.799   7.764   6.893 -0.2478  0.1160  0.0610
  740SOL    HW1 8182   1.883   7.747   6.852 -0.5554 -0.1357 -0.4849
  740SOL    HW2 8183   1.819   7.817   6.970  0.2782  1.1590 -0.7823
  741SOL     OW 8184   8.802   5.432   2.936 -0.3937 -0.1405  0.3897
  741SOL    HW1 8185   8.740   5.504   2.951  1.0264  1.2090  0.0831
  741SOL    HW2 8186   8.853   5.428   3.017  0.1001 -0.2186  0.0786
  742SOL     OW 8187   7.264   7.479   9.141  0.6208 -0.7077 -0.1310
  742SOL    HW1 8188   7.291   7.402   9.191  1.9518 -0.2284 -0.0975
  742SOL    HW2 8189   7.332   7.544   9.157 -0.4334  0.4591 -0.2368
  743SOL     OW 8190   5.929   7.532   4.613  0.2523 -0.1497 -0.6062
  743SOL    HW1 8191   5.911   7.603   4.551  3.1701  0.4857 -0.8736
  743SOL    HW2 8192   5.963   7.577   4.691  0.4311 -1.1489 -0.0974
  744SOL     OW 8193   9.163   2.180   2.724  0.5053 -0.0108 -0.1731
  744SOL    HW1 8194   9.085   2.202   2.776  0.5296  0.3979 -0.2992
  744SOL    HW2 8195   9.235   2.222   2.771  0.5850 -0.0092 -0.2962
  745SOL     OW 8196   2.329   7.848   5.432  0.0024 -0.3571 -0.1619
  745SOL    HW1 8197   2.281   7.868   5.351  0.9629  0.2951 -0.5864
  745SOL    HW2 8198   2.420   7.870   5.412  0.4409 -1.2512  0.7416
  746SOL     OW 8199   8.779   3.806   1.523 -0.3788 -0.1138  0.0790
  746SOL    HW1 8200   8.856   3.750   1.535  0.3162  0.8535  0.2351
  746SOL    HW2 8201   8.739   3.774   1.442  0.7461 -0.0072 -0.5408
  747SOL     OW 8202   7.024   3.347   2.356  0.2139 -0.1817 -0.8688
  747SOL    HW1 8203   6.941   3.392   2.340 -0.7296 -2.2626 -2.2308
  747SOL    HW2 8204   7.081   3.374   2.283  0.9698  1.6068  0.3108
  748SOL     OW 8205   3.267   5.108   0.468 -0.3652  0.2314 -0.3378
  748SOL    HW1 8206   3.263   5.045   0.540 -2.2400  0.5293 -0.1161
  748SOL    HW2 8207   3.284   5.192   0.510 -0.0491  0.1997 -0.4000
  749SOL     OW 8208   9.190   7.375   4.621  0.3454 -0.1029  0.2639
  749SOL    HW1 8209   9.119   7.404   4.677  2.2152  1.4265  2.0125
  749SOL    HW2 8210   9.239   7.312   4.674  1.9449  1.1069  0.3246
  750SOL     OW 8211   3.081   6.932   9.165 -0.0358  0.2461 -0.2262
  750SOL    HW1 8212   3.127   7.016   9.173 -0.5832  0.7081 -1.6641
  750SOL    HW2 8213   3.138   6.870   9.209 -0.1024  1.5228  1.7929
  751SOL     OW 8214   5.437   5.946   2.267 -0.5002  0.6223 -0.9807
  751SOL    HW1 8215   5.476   6.034   2.266 -1.0304  0.9841  1.6007
  751SOL    HW2 8216   5.344   5.962   2.286 -0.5808 -0.4813 -0.3765
  752SOL     OW 8217   8.303   3.643   8.751  0.3499  0.0084 -0.5321
  752SOL    HW1 8218   8.254   3.706   8.804 -1.2658 -2.0232  0.5182
  752SOL    HW2 8219   8.384   3.689   8.728  1.2657  1.0180  3.8240
  753SOL     OW 8220   6.695   4.516   6.647  0.5423  0.0228 -0.5491
  753SOL    HW1 8221   6.720   4.439   6.595  0.7342 -0.1198 -0.2488
  753SOL    HW2 8222   6.776   4.542   6.691  1.1718  2.0333 -2.7020
  754SOL     OW 8223   8.271   1.198   7.224  0.6435  0.2346 -0.4437
  754SOL    HW1 8224   8.328   1.269   7.196 -0.6533  0.5082 -2.5220
  754SOL    HW2 8225   8.182   1.229   7.206  0.0526 -2.0095 -1.7566
  755SOL     OW 8226   5.931   0.408   8.858 -0.7868 -0.1492  0.3051
  755SOL    HW1 8227   5.909   0.353   8.782  0.1731 -1.0433  0.6557
  755SOL    HW2 8228   5.994   0.472   8.825  2.2641 -2.5853  0.9551
  756SOL     OW 8229   2.304   5.060   8.400  0.2940  0.6278 -0.0857
  756SOL    HW1 8230   2.249   4.982   8.410  0.2353  0.8325  1.6664
  756SOL    HW2 8231   2.393   5.026   8.394  0.2784  0.3942  0.7905
  757SOL     OW 8232   8.258   6.893   6.112  0.2018  0.3383 -0.2954
  757SOL    HW1 8233   8.216   6.872   6.029 -1.3745  1.0846  0.2726
  757SOL    HW2 8234   8.330   6.831   6.119 -0.2798 -0.4236 -1.7231
  758SOL     OW 8235   5.178   0.186   3.135 -0.0253  0.2643  1.0888
  758SOL    HW1 8236   5.178   0.090   3.131 -0.7965  0.1678  2.7390
  758SOL    HW2 8237   5.194   0.206   3.227 -0.7345  1.7056  0.9221
  759SOL     OW 8238   9.084   8.344   4.353  0.0438 -0.6955  0.2312
  759SOL    HW1 8239   9.062   8.410   4.420  0.6637  2.0749 -2.1031
  759SOL    HW2 8240   9.166   8.306   4.384  0.2755  0.4607  1.1465
  760SOL     OW 8241   5.882   7.015   1.296 -0.2733 -0.3972 -0.7363
  760SOL    HW1 8242   5.953   7.028   1.234  0.1316 -2.1188 -0.6731
  760SOL    HW2 8243   5.905   7.070   1.371  0.1210  0.3430 -1.3852
  761SOL     OW 8244   7.886   4.623   6.462  0.5531 -0.0144  0.4635
  761SOL    HW1 8245   7.922   4.542   6.497  1.5652  0.3734  0.3600
  761SOL    HW2 8246   7.791   4.613   6.469  0.5600 -2.1091 -1.5682
  762SOL     OW 8247   3.419   8.602   5.817  0.1320  0.1429 -0.0100
  762SOL    HW1 8248   3.390   8.687   5.852 -0.6243 -1.1793  2.9074
  762SOL    HW2 8249   3.503   8.587   5.861 -0.7204 -1.4866  1.1716
  763SOL     OW 8250   9.030   7.854   2.818 -0.1288  0.0387 -0.4101
  763SOL    HW1 8251   9.056   7.854   2.910  0.5837 -1.2063 -0.5919
  763SOL    HW2 8252   8.936   7.871   2.820  0.0532  1.0865  0.4666
  764SOL     OW 8253   4.810   8.762   0.169 -0.1518  0.1417 -0.7228
  764SOL    HW1 8254   4.870   8.814   0.116  1.2510 -1.1459 -0.5030
  764SOL    HW2 8255   4.746   8.825   0.203  0.1785  1.3218 -2.1901
  765SOL     OW 8256   6.033   4.990   6.602 -0.6154  0.0568 -0.1517
  765SOL    HW1 8257   5.971   5.006   6.672 -1.7316  0.8233 -1.2730
  765SOL    HW2 8258   6.043   5.075   6.558  3.1373  0.6151  1.4273
  766SOL     OW 8259   5.002   7.763   1.000  0.0071  0.2275 -0.0250
  766SOL    HW1 8260   5.065   7.826   0.966  2.0429 -1.5499  0.2990
  766SOL    HW2 8261   5.000   7.693   0.935 -1.4241  0.0843  0.1355
  767SOL     OW 8262   7.508   1.131   9.273  0.1120 -0.2380  0.0815
  767SOL    HW1 8263   7.518   1.036   9.266  1.0097 -0.1304 -0.1641
  767SOL    HW2 8264   7.433   1.143   9.331 -0.5352 -1.1001 -0.5576
  768SOL     OW 8265   0.625   4.901   2.913 -0.0764 -0.3308  0.4607
  768SOL    HW1 8266   0.669   4.973   2.868  0.9757 -1.3442 -0.2089
  768SOL    HW2 8267   0.550   4.941   2.957  0.3988  1.1275 -0.0186
  769SOL     OW 8268   7.790   6.071   2.678  0.2136  0.9230 -0.6101
  769SOL    HW1 8269   7.853   6.099   2.611 -2.0440 -0.1077 -3.3447
  769SOL    HW2 8270   7.797   6.138   2.747  1.7511  2.7625 -2.4289
  770SOL     OW 8271   5.733   6.886   2.806 -0.2070 -0.1065  0.7002
  770SOL    HW1 8272   5.801   6.844   2.754 -0.8167 -1.1530  0.7296
  770SOL    HW2 8273   5.766   6.975   2.820  0.7059 -0.2980 -0.0944
  771SOL     OW 8274   8.422   6.770   1.581 -0.0713  0.1142  0.0384
  771SOL    HW1 8275   8.488   6.709   1.615  1.5205  3.4386  3.6969
  771SOL    HW2 8276   8.340   6.738   1.618 -0.3444 -2.6770 -2.5706
  772SOL     OW 8277   9.025   2.176   7.205  0.0340 -0.1570  0.1493
  772SOL    HW1 8278   8.955   2.156   7.143 -0.4335  0.7518  0.3656
  772SOL    HW2 8279   9.021   2.103   7.268 -0.7740 -0.0833  0.2001
  773SOL     OW 8280   9.186   9.134   7.423  0.3360  0.4771 -0.1486
  773SOL    HW1 8281   9.246   9.100   7.490  0.5314  1.2534  0.0846
  773SOL    HW2 8282   9.216   9.095   7.342 -1.4988 -2.5985  0.5011
  774SOL     OW 8283   7.478   6.344   1.033 -0.2863  0.6757 -0.1019
  774SOL    HW1 8284   7.432   6.267   1.066 -0.4929  0.6985 -0.3338
  774SOL    HW2 8285   7.570   6.329   1.055 -0.1739 -0.1401 -1.0949
  775SOL     OW 8286   4.446   3.632   7.808  0.3420  0.1194  0.6087
  775SOL    HW1 8287   4.437   3.620   7.903  1.6209  3.5898  1.3308
  775SOL    HW2 8288   4.406   3.717   7.791  4.5122  2.0206 -0.9739
  776SOL     OW 8289   1.604   6.025   1.172 -0.2654  0.2765  0.4316
  776SOL    HW1 8290   1.510   6.004   1.176 -0.0537 -0.7878 -0.0818
  776SOL    HW2 8291   1.606   6.120   1.160 -1.2978  0.2282 -0.2389
  777SOL     OW 8292   0.461   3.381   5.095  0.2064  0.2045 -0.5132
  777SOL    HW1 8293   0.435   3.323   5.023  0.9845 -1.3789  0.4065
  777SOL    HW2 8294   0.519   3.445   5.054  0.7922 -0.7863 -1.2829
  778SOL     OW 8295   1.354   7.502   0.433  0.2070  1.0327  0.2668
  778SOL    HW1 8296   1.438   7.455   0.435 -0.1616  0.3267 -0.4395
  778SOL    HW2 8297   1.347   7.534   0.343 -0.4185  0.8434  0.2494
  779SOL     OW 8298   8.470   5.370   7.520  0.0231  0.0825 -0.1983
  779SOL    HW1 8299   8.382   5.404   7.538 -0.5377 -1.0128 -0.7303
  779SOL    HW2 8300   8.454   5.295   7.461  1.3747  0.3644 -0.9504
  780SOL     OW 8301   5.416   2.836   4.234  0.1090 -0.3105 -0.0695
  780SOL    HW1 8302   5.366   2.913   4.209  0.6632  0.0306 -0.1444
  780SOL    HW2 8303   5.360   2.790   4.297 -0.4498 -0.1342 -0.4316
  781SOL     OW 8304   1.373   3.279   8.045 -0.3839 -0.3061  0.0544
  781SOL    HW1 8305   1.366   3.352   8.107 -0.0432  0.1616 -0.4437
  781SOL    HW2 8306   1.434   3.218   8.086 -1.2438 -0.6662  0.8121
  782SOL     OW 8307   6.870   7.695   2.610  0.2169  0.9249  0.3382
  782SOL    HW1 8308   6.878   7.684   2.705  0.5247  0.4840  0.2662
  782SOL    HW2 8309   6.885   7.788   2.595 -0.3444  1.0870  0.7713
  783SOL     OW 8310   6.967   3.914   8.232  0.6804  0.1309 -0.0034
  783SOL    HW1 8311   6.979   3.826   8.196 -0.9933  0.0733 -0.5165
  783SOL    HW2 8312   6.920   3.962   8.163 -1.5243  0.3980  1.5765
  784SOL     OW 8313   9.311   6.153   2.863 -0.3677  0.2542  0.0678
  784SOL    HW1 8314   9.344   6.189   2.781 -0.0071 -1.3958 -0.5364
  784SOL    HW2 8315   9.217   6.172   2.861 -0.1148  1.5922  0.0193
  785SOL     OW 8316   0.022   3.753   7.485  0.1070 -0.2304  0.3749
  785SOL    HW1 8317   0.039   3.829   7.430 -0.7874 -0.3883 -0.1324
  785SOL    HW2 8318   0.018   3.680   7.423  2.2869 -0.9332  0.9683
  786SOL     OW 8319   8.998   4.478   2.760 -0.0115 -0.6097 -0.1507
  786SOL    HW1 8320   9.067   4.412   2.768 -1.1198 -1.7429  0.5683
  786SOL    HW2 8321   8.923   4.431   2.724 -0.6824  0.3700 -0.0930
  787SOL     OW 8322   4.310   0.087   0.903  0.0767 -0.6293  0.7549
  787SOL    HW1 8323   4.373   0.058   0.838  0.1900 -1.1879  1.1040
  787SOL    HW2 8324   4.304   0.182   0.891  2.3664 -0.2749  1.9069
  788SOL     OW 8325   3.857   8.002   9.332  0.7189 -0.0090 -0.4680
  788SOL    HW1 8326   3.854   8.026   9.239  0.4470 -1.8239 -0.9584
  788SOL    HW2 8327   3.911   8.071   9.372 -0.5428  1.7593 -1.6400
  789SOL     OW 8328   4.567   8.604   6.572  0.0473 -0.1437  0.4748
  789SOL    HW1 8329   4.542   8.536   6.509  0.4996 -0.6185  0.7916
  789SOL    HW2 8330   4.498   8.603   6.637 -0.5218  0.4832 -0.1101
  790SOL     OW 8331   5.925   6.921   9.151  0.0321 -0.3215 -0.2608
  790SOL    HW1 8332   5.892   6.832   9.162 -1.3665 -0.1023 -2.2242
  790SOL    HW2 8333   5.904   6.964   9.235  0.7730 -1.7970  0.7285
  791SOL     OW 8334   7.377   4.130   6.884  0.3455 -0.2541  0.9247
  791SOL    HW1 8335   7.358   4.051   6.935  3.2731 -1.1200  0.8524
  791SOL    HW2 8336   7.423   4.098   6.806 -0.8972  1.3418 -0.5544
  792SOL     OW 8337   7.992   9.329   0.284 -0.1607  0.9159  0.0980
  792SOL    HW1 8338   7.978   9.367   0.370  2.0785 -1.6827  1.7835
  792SOL    HW2 8339   8.050   9.391   0.239  1.4982  0.7306  1.8609
  793SOL     OW 8340   5.040   0.747   0.642 -0.2439  0.5057  0.3210
  793SOL    HW1 8341   5.021   0.671   0.696 -1.7179  1.3314  1.0349
  793SOL    HW2 8342   5.131   0.736   0.616 -0.4424 -1.5249  0.3232
  794SOL     OW 8343   6.227   2.009   7.840  0.0433 -0.1456  0.0322
  794SOL    HW1 8344   6.249   1.925   7.798 -1.4675 -0.1177 -0.8813
  794SOL    HW2 8345   6.166   1.985   7.910  1.2374 -0.0017  1.1659
  795SOL     OW 8346   5.633   7.717   0.215  0.7236 -0.4267  0.5946
  795SOL    HW1 8347   5.692   7.654   0.173  0.1297 -1.3385  1.0898
  795SOL    HW2 8348   5.595   7.669   0.289  0.6934  0.7031  1.3458
  796SOL     OW 8349   3.547   2.874   7.998 -0.2455 -0.0448 -0.4660
  796SOL    HW1 8350   3.639   2.870   8.025 -0.9150  0.6542  2.2303
  796SOL    HW2 8351   3.537   2.960   7.957  0.0689  0.4162  0.3934
  797SOL     OW 8352   7.441   5.385   2.279  0.4335  0.0943 -0.1327
  797SOL    HW1 8353   7.503   5.345   2.218 -1.8613 -0.2639 -2.3770
  797SOL    HW2 8354   7.369   5.322   2.285 -0.6165  1.3400  0.8666
  798SOL     OW 8355   5.747   8.535   6.698  0.4300  0.4093  0.2203
  798SOL    HW1 8356   5.814   8.576   6.643 -0.0054  0.2448 -0.4535
  798SOL    HW2 8357   5.690   8.490   6.636  1.6804 -2.4606  0.9850
  799SOL     OW 8358   8.326   1.738   4.158 -0.3063 -0.0175  0.5884
  799SOL    HW1 8359   8.381   1.811   4.185 -1.2931  0.6595  0.8482
  799SOL    HW2 8360   8.236   1.770   4.171 -0.7610 -1.0793  0.1818
  800SOL     OW 8361   3.709   8.897   4.048 -0.1370  0.2745 -0.3380
  800SOL    HW1 8362   3.659   8.935   3.976  0.1320  0.2118 -0.5550
  800SOL    HW2 8363   3.644   8.847   4.098 -0.0362 -0.9925 -1.4272
  801SOL     OW 8364   7.188   0.973   3.218  0.2052 -0.3810 -0.5621
  801SOL    HW1 8365   7.118   0.908   3.219  0.6152 -0.8242 -0.0269
  801SOL    HW2 8366   7.178   1.021   3.300 -0.2838  0.4493 -1.0934
  802SOL     OW 8367   8.795   3.454   0.201  0.8648  0.7116  0.4413
  802SOL    HW1 8368   8.743   3.495   0.132 -0.6172  0.5088  1.4077
  802SOL    HW2 8369   8.854   3.394   0.154 -1.6576 -1.1644 -0.5718
  803SOL     OW 8370   6.424   2.817   8.661  0.3671 -0.2582  0.2043
  803SOL    HW1 8371   6.360   2.760   8.619  0.7737 -0.7046  0.1868
  803SOL    HW2 8372   6.481   2.846   8.589 -1.6466  2.6940 -0.3950
  804SOL     OW 8373   3.365   9.114   0.845 -0.1094  0.2723  0.4483
  804SOL    HW1 8374   3.412   9.032   0.858 -0.5630 -0.0404  0.1280
  804SOL    HW2 8375   3.388   9.167   0.921  0.0419 -0.2169  0.7475
  805SOL     OW 8376   8.672   6.918   4.575  0.0842  0.0575  0.6967
  805SOL    HW1 8377   8.696   6.929   4.484 -0.5068 -0.4815  0.4644
  805SOL    HW2 8378   8.697   7.000   4.617 -0.8743  0.8518 -0.2191
  806SOL     OW 8379   0.137   2.279   8.476 -0.3439  0.4580 -0.4266
  806SOL    HW1 8380   0.144   2.217   8.403  0.2245 -0.2032  0.1851
  806SOL    HW2 8381   0.055   2.325   8.460 -0.3068  0.2110 -1.4004
  807SOL     OW 8382   3.676   0.502   8.870  0.8617  0.0570  0.1610
  807SOL    HW1 8383   3.769   0.483   8.861  0.5122 -1.3813 -0.7481
  807SOL    HW2 8384   3.656   0.561   8.798  0.9661 -0.0576  0.0386
  808SOL     OW 8385   0.536   1.826   7.754  0.1664 -0.1559 -0.2789
  808SOL    HW1 8386   0.482   1.817   7.833 -0.8449 -0.1868 -0.9675
  808SOL    HW2 8387   0.474   1.836   7.683  1.0799  0.8424 -0.9733
  809SOL     OW 8388   1.310   3.452   9.227 -0.1814  0.2099 -0.0986
  809SOL    HW1 8389   1.353   3.380   9.180 -0.5284 -0.4029  0.5109
  809SOL    HW2 8390   1.252   3.491   9.162 -0.5550 -0.5488 -0.2426
  810SOL     OW 8391   5.665   2.485   2.260 -0.1413 -0.1098 -0.0464
  810SOL    HW1 8392   5.599   2.531   2.208 -0.5760  0.1778  0.7522
  810SOL    HW2 8393   5.728   2.552   2.285  0.6218 -0.4286 -1.0259
  811SOL     OW 8394   8.021   5.664   0.785  0.1694  0.0057  0.2914
  811SOL    HW1 8395   8.014   5.698   0.875  3.3175  1.9454 -0.0370
  811SOL    HW2 8396   8.079   5.588   0.793  0.2987  0.0692 -0.0450
  812SOL     OW 8397   0.683   7.631   6.805  0.4833  0.0111  0.5493
  812SOL    HW1 8398   0.675   7.628   6.901  0.9551  0.6560  0.6224
  812SOL    HW2 8399   0.775   7.655   6.791  0.5170 -0.4815 -0.0760
  813SOL     OW 8400   6.599   2.509   3.640 -0.1002  0.1664 -0.6612
  813SOL    HW1 8401   6.644   2.446   3.696 -0.1924  3.4196  3.5884
  813SOL    HW2 8402   6.518   2.465   3.615  0.1908 -1.7257  1.4098
  814SOL     OW 8403   7.627   8.991   8.829  0.5647  0.1450  0.1917
  814SOL    HW1 8404   7.603   9.079   8.799  0.3312  0.1814  0.4746
  814SOL    HW2 8405   7.709   9.004   8.876  1.2200 -0.0012 -0.9011
  815SOL     OW 8406   2.388   2.034   5.122  0.1850 -0.4062  0.0834
  815SOL    HW1 8407   2.347   2.119   5.135  0.9772  0.0593 -0.3531
  815SOL    HW2 8408   2.340   1.995   5.049  0.4212  0.0753 -0.3388
  816SOL     OW 8409   5.836   2.105   7.924  0.1589  0.5985 -0.4215
  816SOL    HW1 8410   5.917   2.060   7.946  0.1569 -0.1403 -1.7971
  816SOL    HW2 8411   5.851   2.197   7.949  0.9007  0.2230  0.5680
  817SOL     OW 8412   0.330   3.340   5.615  0.3285  0.0478 -0.3577
  817SOL    HW1 8413   0.294   3.324   5.527 -2.0631  0.2675  0.5197
  817SOL    HW2 8414   0.397   3.272   5.625 -0.8398 -1.3681 -1.5639
  818SOL     OW 8415   5.570   9.267   0.404 -0.1882 -0.2264  0.0339
  818SOL    HW1 8416   5.603   9.205   0.469 -0.5708  0.1196  0.5791
  818SOL    HW2 8417   5.570   9.351   0.450 -0.6597 -0.0120 -0.3473
  819SOL     OW 8418   4.662   2.302   8.762 -0.3440  0.1590 -0.1785
  819SOL    HW1 8419   4.719   2.369   8.800  0.4150 -1.0412  0.8791
  819SOL    HW2 8420   4.712   2.269   8.687  1.2891 -2.1284  1.7627
  820SOL     OW 8421   8.188   5.860   7.546  0.3837 -0.4198  0.1065
  820SOL    HW1 8422   8.122   5.827   7.485 -2.0423  0.3785  2.1164
  820SOL    HW2 8423   8.177   5.955   7.543 -0.1759 -0.3885  2.1153
  821SOL     OW 8424   7.267   6.806   6.221  0.2348 -0.0356 -0.4476
  821SOL    HW1 8425   7.267   6.831   6.128 -2.5052  1.4305 -0.1518
  821SOL    HW2 8426   7.205   6.733   6.226  0.2859 -0.0375  0.2470
  822SOL     OW 8427   4.508   0.479   1.472  0.0241 -0.0129  0.6196
  822SOL    HW1 8428   4.530   0.393   1.436 -0.7729  0.4494 -1.0662
  822SOL    HW2 8429   4.432   0.463   1.528 -0.9498 -0.2572 -0.7063
  823SOL     OW 8430   6.770   5.634   7.414  0.1696  0.2286  0.5218
  823SOL    HW1 8431   6.728   5.720   7.410 -0.7965 -0.2827 -1.7493
  823SOL    HW2 8432   6.698   5.574   7.438  0.3510 -0.2152 -0.0272
  824SOL     OW 8433   6.392   6.419   7.078 -0.2057 -0.3985  0.2293
  824SOL    HW1 8434   6.301   6.392   7.070 -0.7108  1.0571  0.6407
  824SOL    HW2 8435   6.400   6.451   7.168  0.3760  0.5812 -0.1470
  825SOL     OW 8436   4.641   0.284   2.417 -0.2127 -0.5806 -0.4528
  825SOL    HW1 8437   4.662   0.190   2.413 -0.7435 -0.7160 -0.1502
  825SOL    HW2 8438   4.645   0.306   2.510  0.6343 -0.1253 -0.5886
  826SOL     OW 8439   4.901   7.676   4.045 -0.1631 -0.1035  0.0063
  826SOL    HW1 8440   4.938   7.764   4.039 -0.3214  0.0655  1.2255
  826SOL    HW2 8441   4.842   7.670   3.970  0.9542  0.2831 -0.9274
  827SOL     OW 8442   6.582   9.142   6.633  0.5568 -0.0275  0.0067
  827SOL    HW1 8443   6.584   9.237   6.626 -1.6789  0.2093  1.4663
  827SOL    HW2 8444   6.639   9.122   6.707  0.3129  0.2767  0.2812
  828SOL     OW 8445   4.173   3.876   8.730 -0.1632  0.1992  0.0390
  828SOL    HW1 8446   4.222   3.933   8.671 -0.2976 -0.0949 -0.3617
  828SOL    HW2 8447   4.083   3.906   8.723 -0.6488 -1.5338 -1.9837
  829SOL     OW 8448   4.190   0.634   8.121  0.4144  0.2430  0.1096
  829SOL    HW1 8449   4.179   0.709   8.179  0.1289 -1.1558  1.9680
  829SOL    HW2 8450   4.102   0.597   8.113  0.6870 -0.3674 -0.1221
  830SOL     OW 8451   4.661   5.262   9.296  0.2173 -0.0022  0.8539
  830SOL    HW1 8452   4.684   5.303   9.212  1.3466 -0.5679  0.8661
  830SOL    HW2 8453   4.744   5.256   9.343  0.0836 -2.0956  0.9278
  831SOL     OW 8454   6.893   3.644   8.229 -0.3833  0.0853  0.0844
  831SOL    HW1 8455   6.930   3.642   8.318  0.3126 -0.5254 -0.2056
  831SOL    HW2 8456   6.939   3.574   8.183 -1.2919 -0.1152 -0.5470
  832SOL     OW 8457   9.254   0.991   9.294  0.4550 -0.2836  0.5640
  832SOL    HW1 8458   9.235   1.013   9.203  0.3465 -1.1749  0.3558
  832SOL    HW2 8459   9.295   0.904   9.290  0.5913 -0.2657  1.3470
  833SOL     OW 8460   7.776   4.350   4.950  0.1852 -0.1742  0.0509
  833SOL    HW1 8461   7.783   4.446   4.950 -2.0995  0.0358  0.1345
  833SOL    HW2 8462   7.784   4.326   4.857  0.4777  0.1067 -0.0001
  834SOL     OW 8463   5.720   6.915   1.877  0.0896  0.1893  0.2889
  834SOL    HW1 8464   5.682   6.893   1.962  0.6183 -0.0293  0.4770
  834SOL    HW2 8465   5.645   6.935   1.821 -0.4114 -1.7257  0.2169
  835SOL     OW 8466   5.389   2.144   5.612  0.2637  0.5045 -0.4845
  835SOL    HW1 8467   5.410   2.137   5.519  0.0297 -0.0471 -0.5021
  835SOL    HW2 8468   5.410   2.235   5.635 -0.7584  0.9697 -1.3373
  836SOL     OW 8469   1.193   8.888   1.729  0.5374  0.5751 -0.1158
  836SOL    HW1 8470   1.117   8.896   1.786  0.7953  0.3163  0.2689
  836SOL    HW2 8471   1.193   8.797   1.701 -0.0037  0.8679 -1.1282
  837SOL     OW 8472   3.698   6.132   2.220 -0.1149  0.2796  0.0973
  837SOL    HW1 8473   3.708   6.219   2.183 -0.9516  0.3759  0.0764
  837SOL    HW2 8474   3.608   6.129   2.252 -0.0521 -0.5232  0.2372
  838SOL     OW 8475   2.866   7.407   5.001 -0.4315  0.3914  0.1099
  838SOL    HW1 8476   2.881   7.359   4.919  0.0005  0.7328 -0.0150
  838SOL    HW2 8477   2.863   7.339   5.068 -1.6028  0.0312 -0.2815
  839SOL     OW 8478   7.152   7.170   3.456  0.0196  0.0261  0.3713
  839SOL    HW1 8479   7.209   7.095   3.470  0.2182 -0.0479 -0.7477
  839SOL    HW2 8480   7.209   7.246   3.471  0.2395 -0.0487 -0.0752
  840SOL     OW 8481   6.910   7.473   5.906  0.3476 -0.0924  0.0840
  840SOL    HW1 8482   6.854   7.464   5.983  0.4005 -0.5476  0.0721
  840SOL    HW2 8483   6.910   7.386   5.866 -0.8834  0.4860 -1.2761
  841SOL     OW 8484   1.584   1.802   1.686  0.0699 -0.5610  0.2075
  841SOL    HW1 8485   1.506   1.771   1.731  0.7147  0.0391  1.8316
  841SOL    HW2 8486   1.554   1.877   1.634 -0.4342 -0.3322  0.8175
  842SOL     OW 8487   3.052   6.610   5.416  0.0580 -0.4220 -0.4854
  842SOL    HW1 8488   3.063   6.662   5.495  1.3657  0.4200 -1.1825
  842SOL    HW2 8489   3.035   6.521   5.448  1.8702 -0.3684  0.7814
  843SOL     OW 8490   6.554   6.300   4.205 -0.2501  0.0413  0.6391
  843SOL    HW1 8491   6.538   6.225   4.263 -0.6541 -1.4873 -1.3668
  843SOL    HW2 8492   6.498   6.284   4.129 -1.4437  3.1281  0.7129
  844SOL     OW 8493   0.471   5.950   3.929 -0.7159  0.0097 -0.0572
  844SOL    HW1 8494   0.382   5.960   3.962 -0.2636  0.9925  0.9641
  844SOL    HW2 8495   0.461   5.932   3.836 -1.9789  0.2083  0.0251
  845SOL     OW 8496   8.271   4.187   4.902  0.5473  0.0233  0.2449
  845SOL    HW1 8497   8.239   4.263   4.950  0.3714 -1.3113  2.3886
  845SOL    HW2 8498   8.328   4.223   4.835 -2.0811  2.2149 -0.9917
  846SOL     OW 8499   2.930   1.691   5.717  0.4393 -0.1307  0.0815
  846SOL    HW1 8500   2.944   1.779   5.750 -1.4570 -1.0034  3.8759
  846SOL    HW2 8501   2.988   1.636   5.770  0.0201 -1.3353 -0.6577
  847SOL     OW 8502   0.215   7.994   1.141 -0.1788  0.6727  0.1942
  847SOL    HW1 8503   0.212   7.996   1.046 -0.8278  0.2537  0.1990
  847SOL    HW2 8504   0.303   7.961   1.162 -0.4465 -0.3692 -0.2781
  848SOL     OW 8505   0.979   7.087   5.480 -0.1344 -0.3369  0.4814
  848SOL    HW1 8506   0.966   7.004   5.434  1.7771 -0.9911  1.0391
  848SOL    HW2 8507   0.955   7.154   5.417 -1.1656 -1.2835 -0.1745
  849SOL     OW 8508   6.449   1.755   8.462 -0.4570  0.3874 -0.1249
  849SOL    HW1 8509   6.384   1.785   8.399 -0.5663 -0.8297 -0.6177
  849SOL    HW2 8510   6.509   1.829   8.473 -0.6652  0.7533 -1.3477
  850SOL     OW 8511   2.625   5.013   5.636  0.1561 -0.3764  0.5251
  850SOL    HW1 8512   2.551   4.986   5.690  1.4398 -1.0915  1.9893
  850SOL    HW2 8513   2.661   4.931   5.602  0.3745 -0.0431 -0.0590
  851SOL     OW 8514   3.049   0.252   3.356  0.4727 -0.3586  0.4217
  851SOL    HW1 8515   3.052   0.162   3.390 -1.7069 -0.2865  0.9726
  851SOL    HW2 8516   3.030   0.306   3.433  1.1969  0.5185 -0.0004
  852SOL     OW 8517   8.941   5.449   3.188 -0.1231  0.2796 -0.0404
  852SOL    HW1 8518   8.998   5.389   3.237  0.8633  1.5633  0.4537
  852SOL    HW2 8519   8.913   5.514   3.252 -2.4700 -0.4934 -0.2092
  853SOL     OW 8520   7.024   7.448   7.333 -0.2855 -0.8060 -0.3510
  853SOL    HW1 8521   7.100   7.397   7.362  0.2349 -0.2363 -0.6942
  853SOL    HW2 8522   6.970   7.385   7.285  0.3324 -1.0503 -0.7390
  854SOL     OW 8523   3.796   8.642   6.377 -0.7292 -0.1797 -0.6892
  854SOL    HW1 8524   3.729   8.608   6.437 -2.4901  2.4802 -0.9810
  854SOL    HW2 8525   3.859   8.686   6.434  0.1402 -1.6365 -0.5005
  855SOL     OW 8526   7.335   8.582   0.895 -0.1677 -0.3554  0.6270
  855SOL    HW1 8527   7.344   8.644   0.822 -0.6613  0.0548  0.9051
  855SOL    HW2 8528   7.327   8.496   0.853 -0.8623 -0.0788  0.1723
  856SOL     OW 8529   9.092   2.239   4.727 -0.3611 -0.2298  0.7541
  856SOL    HW1 8530   9.008   2.272   4.757 -1.1903 -0.4540 -1.1768
  856SOL    HW2 8531   9.156   2.277   4.787 -1.8073  0.0186  2.2079
  857SOL     OW 8532   6.451   2.236   6.770 -0.1391  0.0937  0.7822
  857SOL    HW1 8533   6.491   2.269   6.850  0.2787 -1.8668  1.4419
  857SOL    HW2 8534   6.525   2.204   6.718 -0.6499 -1.8406  1.1890
  858SOL     OW 8535   9.120   0.213   5.462  0.3838  0.1994  0.0500
  858SOL    HW1 8536   9.215   0.214   5.453  0.4686  1.0084  0.8955
  858SOL    HW2 8537   9.095   0.305   5.459 -0.5776 -0.0608 -1.9889
  859SOL     OW 8538   6.825   3.448   6.406 -0.5562 -0.0593 -0.0372
  859SOL    HW1 8539   6.843   3.405   6.489 -0.6769 -0.4499 -0.2088
  859SOL    HW2 8540   6.901   3.429   6.351  0.9025  2.6006  0.8797
  860SOL     OW 8541   7.454   4.625   6.145  0.1078  1.0038  0.5780
  860SOL    HW1 8542   7.403   4.702   6.170 -0.9515  0.6731 -0.4849
  860SOL    HW2 8543   7.504   4.652   6.069  1.8496  1.4275  1.8069
  861SOL     OW 8544   8.582   7.863   2.071  0.7932 -0.0416  0.1518
  861SOL    HW1 8545   8.667   7.832   2.103  2.0740  1.9192 -1.1091
  861SOL    HW2 8546   8.586   7.848   1.976 -1.3602 -2.2141  0.3034
  862SOL     OW 8547   5.236   0.360   7.979 -1.0623 -0.4539  0.0171
  862SOL    HW1 8548   5.292   0.283   7.972  1.9541  1.5848 -0.0617
  862SOL    HW2 8549   5.220   0.370   8.073 -0.3200 -0.4110  0.1405
  863SOL     OW 8550   0.439   3.300   9.306  0.0282 -0.3515 -0.4102
  863SOL    HW1 8551   0.440   3.275   9.214 -0.7508  0.8383 -0.7558
  863SOL    HW2 8552   0.507   3.246   9.346  1.0108 -0.2189 -1.8423
  864SOL     OW 8553   4.006   0.694   6.157 -0.1243  0.3479  0.1429
  864SOL    HW1 8554   4.034   0.616   6.204 -1.4148  0.2281  0.7433
  864SOL    HW2 8555   4.088   0.742   6.140  0.5235 -0.3609  1.1303
  865SOL     OW 8556   5.293   9.292   1.905  1.1603 -0.0306 -0.8034
  865SOL    HW1 8557   5.347   9.221   1.939  1.6393  0.5971 -0.2096
  865SOL    HW2 8558   5.218   9.249   1.865 -1.6241 -0.9192  4.4043
  866SOL     OW 8559   7.033   2.384   6.367 -0.0626  0.2536 -0.1298
  866SOL    HW1 8560   7.037   2.404   6.273 -0.9803  0.4817 -0.1285
  866SOL    HW2 8561   6.948   2.419   6.395  0.4445  0.6620  0.9043
  867SOL     OW 8562   3.426   4.558   2.956  0.2996  0.2611  0.2099
  867SOL    HW1 8563   3.334   4.582   2.954  0.6383  1.6571  0.0344
  867SOL    HW2 8564   3.472   4.640   2.938  1.5327 -0.6697 -1.1573
  868SOL     OW 8565   6.632   5.753   7.083  0.0122 -1.1484  0.1504
  868SOL    HW1 8566   6.560   5.816   7.094  0.1417 -0.8548 -0.6587
  868SOL    HW2 8567   6.709   5.807   7.067  0.4998 -1.4498  1.3502
  869SOL     OW 8568   1.294   1.418   1.204  0.1633 -0.1067 -0.1206
  869SOL    HW1 8569   1.266   1.331   1.229 -0.4791  0.6423  1.9866
  869SOL    HW2 8570   1.369   1.437   1.260  0.6371  0.5106 -0.9253
  870SOL     OW 8571   3.810   2.327   3.502 -0.4470  0.3166  0.3936
  870SOL    HW1 8572   3.750   2.376   3.559 -1.3400  0.7203 -0.8561
  870SOL    HW2 8573   3.780   2.236   3.507 -0.6305  0.3792  0.4315
  871SOL     OW 8574   6.699   8.849   6.604 -0.7444 -0.9034 -0.2099
  871SOL    HW1 8575   6.720   8.902   6.680 -0.1769 -1.8896  0.3476
  871SOL    HW2 8576   6.614   8.810   6.625 -1.1916 -0.1781 -0.6466
  872SOL     OW 8577   8.373   2.496   4.164 -0.6556 -0.2082 -0.6791
  872SOL    HW1 8578   8.317   2.427   4.129 -0.9007  0.1320 -0.9640
  872SOL    HW2 8579   8.313   2.562   4.197 -0.4424  0.6005 -1.8586
  873SOL     OW 8580   1.981   2.528   7.695 -0.5539  0.2615  0.5837
  873SOL    HW1 8581   2.039   2.524   7.771  0.4260 -0.8278 -0.1864
  873SOL    HW2 8582   2.022   2.471   7.630 -1.3240  1.2019 -0.7978
  874SOL     OW 8583   8.525   5.987   3.977 -0.0331  0.0400  0.6644
  874SOL    HW1 8584   8.606   5.964   3.933 -0.8165  1.8818 -2.0010
  874SOL    HW2 8585   8.461   5.922   3.947 -0.1501  0.1568  0.6589
  875SOL     OW 8586   3.942   0.172   7.806  0.0951  0.1177 -0.1929
  875SOL    HW1 8587   3.897   0.257   7.804  2.3161  1.4114  0.7040
  875SOL    HW2 8588   3.978   0.167   7.894  1.7371 -0.7870 -0.8725
  876SOL     OW 8589   4.163   3.979   3.343  0.3947  0.5359 -0.2929
  876SOL    HW1 8590   4.146   4.073   3.353  0.1563  0.3790  1.0448
  876SOL    HW2 8591   4.254   3.969   3.370 -0.0857  0.1732  1.3475
  877SOL     OW 8592   8.862   5.442   4.130  0.0117 -0.2143  0.2101
  877SOL    HW1 8593   8.903   5.498   4.195 -1.5873  0.0057  1.0829
  877SOL    HW2 8594   8.803   5.385   4.181 -0.0648 -1.1486 -0.8767
  878SOL     OW 8595   3.128   2.704   3.228 -0.5361  0.4974 -0.0867
  878SOL    HW1 8596   3.156   2.723   3.138  1.2528 -1.3867  0.0007
  878SOL    HW2 8597   3.158   2.780   3.278  3.2512 -0.6454 -0.2991
  879SOL     OW 8598   8.546   7.536   4.292 -0.0183  0.3507 -0.5363
  879SOL    HW1 8599   8.618   7.495   4.339  0.3783  0.5061 -1.0067
  879SOL    HW2 8600   8.536   7.483   4.212 -0.1093  0.6185 -0.7029
  880SOL     OW 8601   3.326   7.291   0.228 -0.5516 -0.2519  0.3240
  880SOL    HW1 8602   3.370   7.216   0.268 -2.5597 -1.2351  0.8053
  880SOL    HW2 8603   3.273   7.329   0.299 -0.0319  1.3092 -0.0640
  881SOL     OW 8604   1.530   1.342   8.989  0.2408 -0.2997 -0.0930
  881SOL    HW1 8605   1.549   1.250   9.005  1.0912 -0.2602 -0.7630
  881SOL    HW2 8606   1.590   1.366   8.918 -0.6646  0.5097 -0.6039
  882SOL     OW 8607   1.692   3.937   5.496  0.5177  0.3644  0.0069
  882SOL    HW1 8608   1.745   3.899   5.426  0.5321 -1.0596  0.7597
  882SOL    HW2 8609   1.607   3.953   5.456  0.2147 -1.3740 -0.1222
  883SOL     OW 8610   1.617   4.717   7.263  0.2593  0.1178  0.2946
  883SOL    HW1 8611   1.653   4.635   7.297 -0.5945  0.0192  0.9786
  883SOL    HW2 8612   1.576   4.692   7.180  1.3324  0.1469 -0.2631
  884SOL     OW 8613   7.366   8.806   0.718 -0.0636 -0.2831 -0.1957
  884SOL    HW1 8614   7.460   8.797   0.699  0.2837  2.1737  0.0656
  884SOL    HW2 8615   7.328   8.834   0.634 -0.5489 -1.0613 -0.2434
  885SOL     OW 8616   8.205   6.262   4.476  0.0444 -0.5176 -0.6494
  885SOL    HW1 8617   8.245   6.176   4.473 -1.6056 -1.3210 -0.5336
  885SOL    HW2 8618   8.141   6.257   4.546  1.6460  1.6273  1.1522
  886SOL     OW 8619   7.675   4.118   6.154  0.0178 -0.2145 -0.2482
  886SOL    HW1 8620   7.733   4.110   6.079 -0.1784 -0.6826 -0.3547
  886SOL    HW2 8621   7.588   4.131   6.116 -0.1039 -0.6006 -0.1075
  887SOL     OW 8622   0.658   8.142   5.494 -0.5943 -0.1535 -0.0526
  887SOL    HW1 8623   0.572   8.164   5.459 -0.5546  2.5476  1.2961
  887SOL    HW2 8624   0.665   8.192   5.575  1.7756 -1.2681  0.5402
  888SOL     OW 8625   7.780   0.155   7.048  0.0867 -0.2995  0.6922
  888SOL    HW1 8626   7.831   0.233   7.070 -1.3883  0.3911  1.7567
  888SOL    HW2 8627   7.732   0.133   7.128 -1.0373 -1.1180 -0.1704
  889SOL     OW 8628   4.615   7.823   3.136  0.4502 -0.2416 -0.4374
  889SOL    HW1 8629   4.656   7.876   3.205  0.0362 -0.8076  0.2533
  889SOL    HW2 8630   4.601   7.885   3.064  0.2813  0.5148  0.2289
  890SOL     OW 8631   6.923   5.217   3.451  0.5313 -0.5450 -0.3965
  890SOL    HW1 8632   7.001   5.203   3.397  0.5611 -0.3178 -0.4131
  890SOL    HW2 8633   6.956   5.223   3.540  0.5574 -0.2174 -0.4286
  891SOL     OW 8634   6.507   5.161   2.344  0.4587 -0.0319 -0.0038
  891SOL    HW1 8635   6.415   5.156   2.372  0.5375  0.8879  0.4637
  891SOL    HW2 8636   6.547   5.082   2.380 -0.1855 -0.5206 -0.3514
  892SOL     OW 8637   9.333   2.176   0.735 -0.1740  0.2712 -0.6757
  892SOL    HW1 8638   9.311   2.141   0.822 -0.1861 -1.9002 -1.4822
  892SOL    HW2 8639   9.300   2.265   0.736  2.5629  1.5022  2.6310
  893SOL     OW 8640   8.081   7.303   5.210 -0.0353 -0.1730  0.0288
  893SOL    HW1 8641   8.007   7.318   5.151  0.1706 -0.9083 -0.4408
  893SOL    HW2 8642   8.103   7.389   5.245 -0.5558  0.1808 -0.5019
  894SOL     OW 8643   8.050   0.414   7.351  0.4751 -0.4944 -0.1765
  894SOL    HW1 8644   8.116   0.479   7.328  1.9225 -0.9354  2.4343
  894SOL    HW2 8645   8.095   0.352   7.407 -2.0426 -1.1159  1.3258
  895SOL     OW 8646   8.719   7.639   5.483  0.6936  0.1484 -0.3577
  895SOL    HW1 8647   8.740   7.557   5.528 -2.9453 -0.3352  0.7577
  895SOL    HW2 8648   8.692   7.698   5.553 -0.7037  0.8886 -1.4776
  896SOL     OW 8649   4.451   5.971   5.030  0.0710 -0.5014  0.0266
  896SOL    HW1 8650   4.450   6.003   5.120 -1.0099  2.0485 -0.8200
  896SOL    HW2 8651   4.520   6.022   4.987  0.2690 -1.3695 -0.7312
  897SOL     OW 8652   7.565   6.593   2.481 -0.7642 -0.2894  0.1447
  897SOL    HW1 8653   7.554   6.521   2.544 -0.0319 -0.8784 -0.3762
  897SOL    HW2 8654   7.592   6.550   2.400  0.5041  0.6160  0.0482
  898SOL     OW 8655   9.258   8.496   8.954 -0.3908  0.1699  0.6173
  898SOL    HW1 8656   9.253   8.477   9.047 -0.0812  2.3984  1.1668
  898SOL    HW2 8657   9.194   8.566   8.940 -0.0567  0.2430 -0.7360
  899SOL     OW 8658   4.446   7.100   8.053 -0.2042 -0.0056  0.3632
  899SOL    HW1 8659   4.535   7.098   8.090 -0.2235  0.8572  0.4684
  899SOL    HW2 8660   4.395   7.045   8.113  0.2983 -0.7092  0.1688
  900SOL     OW 8661   7.276   2.079   4.634 -0.1143  0.0147 -0.6131
  900SOL    HW1 8662   7.184   2.058   4.621 -0.3627  2.0742 -2.7560
  900SOL    HW2 8663   7.323   2.001   4.605 -1.1317 -1.2779  1.0493
  901SOL     OW 8664   2.057   7.278   6.835 -0.2339 -0.1930 -0.1190
  901SOL    HW1 8665   2.089   7.216   6.901 -0.9945  1.4167  1.8855
  901SOL    HW2 8666   1.966   7.253   6.820 -0.1242 -0.4248 -0.4103
  902SOL     OW 8667   9.264   6.100   7.526  0.0385 -0.0358 -0.2728
  902SOL    HW1 8668   9.255   6.039   7.453 -1.4625 -0.1305 -0.0317
  902SOL    HW2 8669   9.223   6.181   7.495  0.1557  0.1951  0.1660
  903SOL     OW 8670   2.035   1.236   1.305 -0.0906  0.5365 -0.4074
  903SOL    HW1 8671   1.993   1.322   1.302  0.3976  0.7485 -1.7547
  903SOL    HW2 8672   2.052   1.221   1.398  0.8143  2.4041 -0.2282
  904SOL     OW 8673   0.739   2.974   3.041  0.0196 -0.8971 -0.4447
  904SOL    HW1 8674   0.652   2.943   3.016  0.2110 -1.6266 -0.2263
  904SOL    HW2 8675   0.731   2.994   3.135 -0.8362  2.3002 -1.0700
  905SOL     OW 8676   3.874   8.074   1.512  0.8361 -0.0128  0.2281
  905SOL    HW1 8677   3.968   8.062   1.501  0.6486 -2.2884  0.5666
  905SOL    HW2 8678   3.856   8.041   1.601 -0.4859 -1.2596 -0.4623
  906SOL     OW 8679   3.357   2.526   8.026  0.0487 -0.3102 -0.8352
  906SOL    HW1 8680   3.372   2.614   8.061  0.9351 -0.5894 -0.4768
  906SOL    HW2 8681   3.342   2.472   8.103  0.5263 -0.6567 -0.9832
  907SOL     OW 8682   0.236   4.628   4.635  0.3356  0.1279  0.2692
  907SOL    HW1 8683   0.243   4.705   4.691 -0.3826  0.0300  0.4993
  907SOL    HW2 8684   0.215   4.663   4.548  0.5324  0.2215  0.2584
  908SOL     OW 8685   7.712   6.907   9.354 -0.2284 -0.1077 -0.7814
  908SOL    HW1 8686   7.731   6.881   9.444  0.3751 -1.1994 -1.1958
  908SOL    HW2 8687   7.786   6.962   9.328 -0.2787  0.0050 -0.6838
  909SOL     OW 8688   7.189   7.555   1.946  0.2838 -0.0252 -0.3382
  909SOL    HW1 8689   7.137   7.603   1.881 -1.9802 -1.5629  0.2255
  909SOL    HW2 8690   7.195   7.466   1.910  2.8773  0.1446 -0.5226
  910SOL     OW 8691   9.089   3.388   7.938  0.5024  0.6490 -0.4872
  910SOL    HW1 8692   9.169   3.394   7.885  0.8661 -2.5757 -0.5412
  910SOL    HW2 8693   9.044   3.311   7.904 -0.7919  0.2427  1.9215
  911SOL     OW 8694   6.330   8.332   9.143  0.1655  0.5124 -0.0821
  911SOL    HW1 8695   6.278   8.311   9.065  1.5125  0.6881 -1.0535
  911SOL    HW2 8696   6.421   8.328   9.114  0.6775  1.3823  1.2906
  912SOL     OW 8697   3.508   3.835   6.087 -0.0506  0.6199  0.0555
  912SOL    HW1 8698   3.490   3.900   6.154 -0.7614  0.2225  0.2602
  912SOL    HW2 8699   3.568   3.773   6.128 -0.4435  0.4064  0.3197
  913SOL     OW 8700   4.081   6.477   2.998  0.7849 -0.0089 -0.0332
  913SOL    HW1 8701   4.024   6.489   2.922 -0.3259  1.3250  0.9323
  913SOL    HW2 8702   4.159   6.435   2.964 -0.0599 -0.2923 -1.7383
  914SOL     OW 8703   7.448   1.764   0.704  0.1090  0.2469 -0.0210
  914SOL    HW1 8704   7.511   1.813   0.651 -0.3108  0.2793 -0.4965
  914SOL    HW2 8705   7.423   1.826   0.773 -0.5427  0.7838 -0.7143
  915SOL     OW 8706   8.361   0.813   7.020  0.5044 -0.0240 -0.5175
  915SOL    HW1 8707   8.366   0.903   6.989 -0.5172  0.4605  0.6714
  915SOL    HW2 8708   8.389   0.817   7.111  1.7124 -1.1427 -0.7913
  916SOL     OW 8709   8.985   5.590   4.334 -0.1066  0.6824 -0.7697
  916SOL    HW1 8710   9.025   5.675   4.353 -0.4864  0.9092 -0.9638
  916SOL    HW2 8711   8.909   5.586   4.391  0.6141 -0.0876  0.1671
  917SOL     OW 8712   1.056   4.940   3.006  0.2181 -0.0611 -0.0861
  917SOL    HW1 8713   1.090   4.895   2.928 -1.1382  1.0289 -1.3912
  917SOL    HW2 8714   1.052   4.872   3.073  2.8677 -0.7041 -0.4559
  918SOL     OW 8715   2.440   6.321   0.087 -0.6067  0.0276 -0.3442
  918SOL    HW1 8716   2.528   6.325   0.049  0.6579  0.2962  2.3140
  918SOL    HW2 8717   2.405   6.409   0.075  0.1229  0.3562 -0.1352
  919SOL     OW 8718   5.243   5.555   7.345 -0.3638  0.1290  0.2943
  919SOL    HW1 8719   5.326   5.549   7.392 -1.2659 -1.7121  1.7826
  919SOL    HW2 8720   5.262   5.612   7.270  2.2399 -0.2849  0.5345
  920SOL     OW 8721   5.614   4.813   4.057 -0.3254 -0.1168  0.1021
  920SOL    HW1 8722   5.704   4.808   4.023 -0.9880  0.0276 -1.7550
  920SOL    HW2 8723   5.609   4.740   4.119  0.7355 -0.8365 -0.6216
  921SOL     OW 8724   5.362   4.929   0.306  0.4557 -0.3610 -0.2129
  921SOL    HW1 8725   5.308   5.005   0.281  0.7523 -0.5090 -1.3568
  921SOL    HW2 8726   5.433   4.967   0.358  0.3333  0.0980 -0.3700
  922SOL     OW 8727   1.593   1.767   0.062 -0.0506 -0.6587  0.2979
  922SOL    HW1 8728   1.565   1.815  -0.016 -0.5362 -0.8527  0.3485
  922SOL    HW2 8729   1.582   1.675   0.039 -2.5366 -0.7330  1.3863
  923SOL     OW 8730   5.730   8.518   1.933  0.3121  0.3931 -0.4886
  923SOL    HW1 8731   5.808   8.501   1.986 -0.5158  0.5919  0.8408
  923SOL    HW2 8732   5.750   8.599   1.886  0.3032  1.3690  1.1090
  924SOL     OW 8733   7.723   3.067   4.434  0.3689 -0.4283 -0.1565
  924SOL    HW1 8734   7.704   3.119   4.357  1.7630  0.7739  0.2601
  924SOL    HW2 8735   7.676   2.985   4.420 -3.7240  1.6336  0.1500
  925SOL     OW 8736   6.016   6.599   0.424  0.0124 -0.3727 -0.0382
  925SOL    HW1 8737   5.986   6.509   0.438  0.0527 -0.8454 -2.5159
  925SOL    HW2 8738   5.936   6.650   0.417 -0.0617 -0.5639 -0.5918
  926SOL     OW 8739   1.370   2.292   5.581 -0.6887  0.4672 -0.0110
  926SOL    HW1 8740   1.307   2.351   5.623 -0.2679 -0.3343  1.8484
  926SOL    HW2 8741   1.420   2.348   5.523 -0.9639  1.7616  0.9523
  927SOL     OW 8742   3.503   0.787   7.050 -0.5286  0.5603  0.1900
  927SOL    HW1 8743   3.408   0.786   7.050 -0.5646  1.0311 -1.2995
  927SOL    HW2 8744   3.528   0.725   7.118 -1.8915  0.7370  0.8724
  928SOL     OW 8745   3.937   4.511   3.523 -0.2242  0.1152 -0.2252
  928SOL    HW1 8746   3.850   4.485   3.551 -0.3119  1.4557  0.8468
  928SOL    HW2 8747   3.967   4.439   3.467 -2.4763  0.1909 -1.6558
  929SOL     OW 8748   6.622   1.985   4.606  0.5782  0.2357 -0.1209
  929SOL    HW1 8749   6.578   2.053   4.556 -2.1678 -0.0976  1.5897
  929SOL    HW2 8750   6.688   2.031   4.657  2.4424  0.7679 -2.7737
  930SOL     OW 8751   1.542   5.565   2.034  0.2086  0.0731 -0.0257
  930SOL    HW1 8752   1.465   5.593   1.985 -1.1777 -0.3974  1.7596
  930SOL    HW2 8753   1.578   5.646   2.071  2.5675  0.7630 -3.3688
  931SOL     OW 8754   3.043   4.692   5.408 -0.4606 -0.1432  0.2398
  931SOL    HW1 8755   3.086   4.673   5.325 -2.9855 -1.0100 -0.9514
  931SOL    HW2 8756   2.988   4.616   5.426 -2.4180  1.3635  1.0308
  932SOL     OW 8757   2.293   6.830   1.690  0.4497 -0.4435 -0.6906
  932SOL    HW1 8758   2.358   6.800   1.626  0.6879 -0.0250 -0.6527
  932SOL    HW2 8759   2.344   6.876   1.756  0.3298 -1.8363  0.4116
  933SOL     OW 8760   7.814   2.236   6.050 -0.4034 -0.1427  0.1868
  933SOL    HW1 8761   7.875   2.254   6.121  0.0236  0.3597 -0.3046
  933SOL    HW2 8762   7.869   2.228   5.972 -1.0317  1.2641 -0.4351
  934SOL     OW 8763   2.676   0.195   2.678  0.2944 -0.3526  0.1719
  934SOL    HW1 8764   2.641   0.121   2.728  0.3531  1.2083  2.7134
  934SOL    HW2 8765   2.735   0.239   2.739  1.4808  0.9092 -1.7948
  935SOL     OW 8766   3.714   6.129   3.683  0.1320  0.1052  0.6069
  935SOL    HW1 8767   3.637   6.183   3.669 -1.1114 -2.1286 -2.2302
  935SOL    HW2 8768   3.750   6.116   3.595  1.2851 -2.2641  1.3473
  936SOL     OW 8769   8.652   8.117   4.958 -0.1803 -0.1094 -0.0985
  936SOL    HW1 8770   8.633   8.029   4.926 -0.3009 -1.0841  2.4098
  936SOL    HW2 8771   8.743   8.113   4.987 -0.6697  0.0199  1.6006
  937SOL     OW 8772   4.587   2.431   1.438  0.1403 -0.3517  0.1708
  937SOL    HW1 8773   4.649   2.504   1.439  0.3510 -0.5304  0.1839
  937SOL    HW2 8774   4.615   2.377   1.365 -1.6224  0.9690 -1.6109
  938SOL     OW 8775   1.515   5.153   5.479  0.1933  0.5100  0.0791
  938SOL    HW1 8776   1.478   5.064   5.482  0.7397  0.2861  0.4919
  938SOL    HW2 8777   1.522   5.173   5.386  0.4611 -0.0569 -0.0286
  939SOL     OW 8778   8.818   3.372   1.105  0.0731  0.0291 -0.1651
  939SOL    HW1 8779   8.813   3.467   1.114 -1.8472 -0.0870  0.3357
  939SOL    HW2 8780   8.832   3.358   1.011  0.7670  0.7988 -0.1856
  940SOL     OW 8781   4.533   3.019   1.192 -0.4059  0.0940 -0.0091
  940SOL    HW1 8782   4.446   3.054   1.209  0.3967  1.3790  1.7286
  940SOL    HW2 8783   4.589   3.096   1.186  0.7289 -0.7385 -0.3567
  941SOL     OW 8784   1.252   0.526   6.262 -0.1553  0.4620 -0.2295
  941SOL    HW1 8785   1.166   0.546   6.298 -0.6006 -0.8576 -0.5250
  941SOL    HW2 8786   1.253   0.568   6.176 -0.8846 -0.3248 -0.6323
  942SOL     OW 8787   3.590   9.090   4.385 -0.4688 -0.1848 -0.6048
  942SOL    HW1 8788   3.650   9.109   4.313 -0.1478  0.4258 -0.1871
  942SOL    HW2 8789   3.544   9.010   4.358  0.5200 -0.6566 -0.9387
  943SOL     OW 8790   8.382   5.202   8.194  0.3286 -0.4021  0.3232
  943SOL    HW1 8791   8.320   5.130   8.192 -2.7161  2.0348 -1.2708
  943SOL    HW2 8792   8.365   5.247   8.277  1.4023 -0.7686  0.7715
  944SOL     OW 8793   8.563   6.135   4.586 -0.0371 -0.2000  0.4635
  944SOL    HW1 8794   8.625   6.207   4.571 -0.2457  0.7640  3.5759
  944SOL    HW2 8795   8.571   6.115   4.679 -2.0285 -2.3394  0.2610
  945SOL     OW 8796   8.560   1.383   6.606 -0.4825  0.2760 -0.0962
  945SOL    HW1 8797   8.565   1.324   6.682  0.9432  0.8704  0.3100
  945SOL    HW2 8798   8.511   1.459   6.638 -2.7589 -0.8306 -0.7630
  946SOL     OW 8799   2.758   1.621   8.741  0.1819 -0.1885  0.3358
  946SOL    HW1 8800   2.723   1.544   8.696 -0.0572 -0.6657  1.3228
  946SOL    HW2 8801   2.739   1.694   8.682 -0.1136 -0.8022 -0.3414
  947SOL     OW 8802   7.766   5.613   0.950  0.3112  0.4643 -1.0244
  947SOL    HW1 8803   7.844   5.617   1.006  0.2517  0.1187 -0.9164
  947SOL    HW2 8804   7.782   5.537   0.893 -0.1854  0.0769 -0.6477
  948SOL     OW 8805   3.578   9.122   3.805  0.0746  0.1870 -0.2071
  948SOL    HW1 8806   3.628   9.203   3.802  1.5446 -0.5400  1.9505
  948SOL    HW2 8807   3.524   9.130   3.883  0.6260 -1.0892  0.3307
  949SOL     OW 8808   1.165   3.923   7.440 -0.0718 -0.3021 -0.6344
  949SOL    HW1 8809   1.202   3.927   7.528  0.9951 -0.7898 -1.0469
  949SOL    HW2 8810   1.164   3.829   7.419 -3.8199 -0.6221  0.2793
  950SOL     OW 8811   6.646   9.339   2.042  0.0303 -0.0130  0.3584
  950SOL    HW1 8812   6.738   9.324   2.062 -0.0092 -0.0619  0.5024
  950SOL    HW2 8813   6.626   9.278   1.971 -0.6883 -2.1858  2.3137
  951SOL     OW 8814   2.399   6.876   7.418  0.3317 -0.0431 -0.2171
  951SOL    HW1 8815   2.446   6.794   7.410  0.9954  0.2739  0.2737
  951SOL    HW2 8816   2.410   6.920   7.334 -1.7748 -1.3187 -1.2555
  952SOL     OW 8817   6.988   7.000   7.123  0.6119  0.3251 -0.2816
  952SOL    HW1 8818   7.018   6.915   7.153  0.9280  0.0335 -1.3924
  952SOL    HW2 8819   7.065   7.057   7.130  0.1457  0.7995  1.4177
  953SOL     OW 8820   5.350   6.794   4.069  0.2711  0.3780  0.5336
  953SOL    HW1 8821   5.277   6.769   4.012  0.7836  1.3317 -0.6064
  953SOL    HW2 8822   5.323   6.877   4.107  1.3795  1.6057 -1.2043
  954SOL     OW 8823   2.214   8.468   8.012 -0.3567 -0.3181  0.2658
  954SOL    HW1 8824   2.134   8.416   8.022 -0.6698 -0.1276 -1.0639
  954SOL    HW2 8825   2.187   8.543   7.959  0.2960  0.7545  1.3727
  955SOL     OW 8826   5.871   3.902   2.692 -0.3495 -0.0711 -0.1083
  955SOL    HW1 8827   5.906   3.820   2.727  0.4734  0.4933  0.4064
  955SOL    HW2 8828   5.947   3.952   2.665 -0.8551  0.4706 -0.5611
  956SOL     OW 8829   2.320   4.259   1.431  0.1134 -0.1252  0.5983
  956SOL    HW1 8830   2.384   4.305   1.486  1.5464  1.0230 -1.8931
  956SOL    HW2 8831   2.257   4.327   1.406  0.1196 -0.3710 -0.0884
  957SOL     OW 8832   3.244   3.370   0.423  0.0411 -0.2476 -0.0068
  957SOL    HW1 8833   3.311   3.433   0.450  0.8443  0.3158 -2.9149
  957SOL    HW2 8834   3.186   3.421   0.366 -0.2339 -1.7647 -1.1343
  958SOL     OW 8835   0.899   2.117   0.443  0.8627 -0.0137 -0.4462
  958SOL    HW1 8836   0.987   2.087   0.465  0.7898  0.7787  1.0275
  958SOL    HW2 8837   0.843   2.076   0.509  0.6213  2.3776  0.9369
  959SOL     OW 8838   2.993   9.208   5.071 -0.2258 -0.6091  0.1642
  959SOL    HW1 8839   3.007   9.194   5.164 -0.9578  1.3444  0.6125
  959SOL    HW2 8840   3.080   9.224   5.036  0.0183 -1.0636  0.5476
  960SOL     OW 8841   2.236   7.665   9.205 -0.0062 -0.8311  0.3385
  960SOL    HW1 8842   2.150   7.622   9.208  0.3463 -1.6085 -0.3303
  960SOL    HW2 8843   2.216   7.756   9.183 -0.7093 -0.8269  0.9482
  961SOL     OW 8844   7.341   6.910   0.109  0.4793 -0.3652  0.2284
  961SOL    HW1 8845   7.410   6.972   0.132 -0.2753  0.4260  0.3925
  961SOL    HW2 8846   7.345   6.903   0.014  0.2701  0.2771  0.1749
  962SOL     OW 8847   8.673   0.374   0.384 -0.5913 -0.3478  0.0672
  962SOL    HW1 8848   8.763   0.349   0.362 -1.0987 -2.0455 -0.2433
  962SOL    HW2 8849   8.672   0.469   0.378  2.1027  0.1195  3.5252
  963SOL     OW 8850   7.344   4.840   6.318 -0.1442  0.1641 -0.4648
  963SOL    HW1 8851   7.381   4.864   6.403 -1.5378  1.2895 -0.1242
  963SOL    HW2 8852   7.342   4.923   6.269 -0.1483 -0.3091 -1.2882
  964SOL     OW 8853   5.872   8.258   4.058  0.2637  0.1050 -0.4091
  964SOL    HW1 8854   5.793   8.211   4.083  0.2341  0.0484 -0.6088
  964SOL    HW2 8855   5.841   8.344   4.032  0.4168  0.5883  0.9168
  965SOL     OW 8856   6.792   0.825   6.189  0.0173 -0.2947 -0.0926
  965SOL    HW1 8857   6.873   0.775   6.190  0.0278 -0.2913  1.8258
  965SOL    HW2 8858   6.813   0.905   6.141  0.9349 -0.6146 -0.2261
  966SOL     OW 8859   6.420   8.269   0.568  0.2389  0.0301 -0.2462
  966SOL    HW1 8860   6.511   8.299   0.572  0.3145 -0.2221 -0.0981
  966SOL    HW2 8861   6.378   8.309   0.644  0.2834 -0.0446 -0.1817
  967SOL     OW 8862   8.318   1.970   8.633  0.0359  0.1158 -0.0701
  967SOL    HW1 8863   8.366   1.972   8.550  1.0701 -3.0589  0.3211
  967SOL    HW2 8864   8.249   1.905   8.619  0.2472 -0.4803  1.5479
  968SOL     OW 8865   4.579   1.795   8.903  0.1300  0.0133 -0.6533
  968SOL    HW1 8866   4.577   1.867   8.967  2.7435 -1.0969  0.8140
  968SOL    HW2 8867   4.596   1.838   8.819 -1.2863  1.3165 -0.3187
  969SOL     OW 8868   0.679   4.399   0.082 -0.1893 -0.4171  0.0010
  969SOL    HW1 8869   0.678   4.317   0.032  2.2654  0.2926 -1.3691
  969SOL    HW2 8870   0.632   4.461   0.027  0.4029 -0.2348 -0.3084
  970SOL     OW 8871   6.618   8.367   7.222  0.2269  0.0399  0.5722
  970SOL    HW1 8872   6.592   8.294   7.278 -0.8752 -0.8179 -0.9896
  970SOL    HW2 8873   6.600   8.445   7.274 -1.1329 -0.7085  1.2833
  971SOL     OW 8874   8.139   2.492   5.260  0.1362 -0.2167 -0.5107
  971SOL    HW1 8875   8.124   2.400   5.277  0.7949 -0.1686  0.4172
  971SOL    HW2 8876   8.132   2.534   5.346  2.5301  0.1924 -0.4367
  972SOL     OW 8877   2.711   1.301   2.157 -0.0169  0.4996 -0.4037
  972SOL    HW1 8878   2.690   1.302   2.063 -2.1003 -1.0811 -0.0358
  972SOL    HW2 8879   2.688   1.212   2.185  1.0127  0.8014  1.5311
  973SOL     OW 8880   7.449   0.236   0.439 -0.1293 -0.3138 -0.3711
  973SOL    HW1 8881   7.426   0.326   0.415 -0.8145 -0.2036  0.6431
  973SOL    HW2 8882   7.474   0.195   0.356  3.5974  1.7320 -0.4995
  974SOL     OW 8883   2.882   4.326   1.742  0.3827  0.0878  0.0503
  974SOL    HW1 8884   2.892   4.235   1.714  1.6948  0.1820  0.1484
  974SOL    HW2 8885   2.889   4.377   1.662  1.3308  0.1907  0.1887
  975SOL     OW 8886   3.269   0.125   1.734 -0.1491 -0.1969 -0.4635
  975SOL    HW1 8887   3.300   0.074   1.660  2.9344 -0.3972  0.8005
  975SOL    HW2 8888   3.219   0.063   1.787 -0.1036 -0.7458 -1.0544
  976SOL     OW 8889   2.919   5.490   5.456 -0.0424  0.2294 -0.0120
  976SOL    HW1 8890   2.973   5.562   5.425 -1.6836  1.1205 -0.9863
  976SOL    HW2 8891   2.884   5.451   5.376 -2.6546  1.1974  0.5559
  977SOL     OW 8892   6.294   4.356   1.373  0.0115 -0.2588 -0.2088
  977SOL    HW1 8893   6.280   4.261   1.369 -0.9845 -0.1302 -0.0222
  977SOL    HW2 8894   6.207   4.393   1.363  0.1817  0.6076  1.2559
  978SOL     OW 8895   5.734   6.590   6.489  0.0629 -0.7025 -0.0733
  978SOL    HW1 8896   5.688   6.508   6.474  0.6663 -1.2743  1.0659
  978SOL    HW2 8897   5.769   6.582   6.578 -0.1862  0.9444  0.2035
  979SOL     OW 8898   7.277   8.988   3.323 -0.0838  0.6315 -0.1786
  979SOL    HW1 8899   7.257   8.953   3.410  0.7540  1.2196  0.2666
  979SOL    HW2 8900   7.310   9.077   3.340  0.8899  0.4475 -1.0258
  980SOL     OW 8901   8.263   7.671   5.852 -0.1398 -0.3108 -0.0372
  980SOL    HW1 8902   8.319   7.749   5.860 -1.9648  1.2102 -1.1979
  980SOL    HW2 8903   8.281   7.620   5.931  0.4987  1.7230  1.2037
  981SOL     OW 8904   1.107   6.699   2.552 -0.1818 -0.1810 -0.5431
  981SOL    HW1 8905   1.190   6.657   2.574  0.5455  0.8223 -1.2500
  981SOL    HW2 8906   1.041   6.649   2.600  0.7667 -1.3427 -0.3933
  982SOL     OW 8907   8.649   6.192   0.307 -0.2415  0.1149  0.2035
  982SOL    HW1 8908   8.563   6.199   0.349 -0.5378 -0.6847 -0.2566
  982SOL    HW2 8909   8.711   6.206   0.379 -0.7408 -1.4314  0.9784
  983SOL     OW 8910   9.048   3.332   7.513  0.9260 -0.0656 -0.8008
  983SOL    HW1 8911   9.047   3.253   7.458  1.2740 -0.2128 -0.5986
  983SOL    HW2 8912   9.106   3.392   7.467 -0.9385  0.8810 -2.0509
  984SOL     OW 8913   3.184   8.679   8.127 -0.4683  0.5511 -0.1484
  984SOL    HW1 8914   3.202   8.760   8.175 -0.3329  0.2978  0.2418
  984SOL    HW2 8915   3.095   8.655   8.153 -0.0529 -0.0920  0.7420
  985SOL     OW 8916   8.326   0.353   0.530  0.1347  0.0346 -0.3806
  985SOL    HW1 8917   8.234   0.327   0.533 -0.0765  0.5081 -1.8755
  985SOL    HW2 8918   8.374   0.272   0.517 -0.1233 -0.1311 -0.3044
  986SOL     OW 8919   6.836   8.146   7.856  0.1829 -0.1877 -0.0902
  986SOL    HW1 8920   6.838   8.130   7.950 -0.2640 -0.9666 -0.2029
  986SOL    HW2 8921   6.824   8.240   7.848 -0.3836 -0.1876  0.6366
  987SOL     OW 8922   4.818   7.659   1.271  0.1693 -0.2684 -0.4653
  987SOL    HW1 8923   4.844   7.744   1.237 -0.6740  0.2388  0.1355
  987SOL    HW2 8924   4.854   7.655   1.359 -0.7366 -0.0645 -0.0803
  988SOL     OW 8925   8.306   5.940   7.238 -0.1256 -0.0341  0.5069
  988SOL    HW1 8926   8.255   5.951   7.318 -0.0986  0.1748  0.4948
  988SOL    HW2 8927   8.242   5.943   7.168  0.0335  1.6228  0.3859
  989SOL     OW 8928   6.567   6.225   6.706  0.5656  0.4968 -0.9203
  989SOL    HW1 8929   6.654   6.248   6.672  1.2706 -1.8053 -0.8201
  989SOL    HW2 8930   6.582   6.204   6.798  0.4162 -2.2039 -1.4295
  990SOL     OW 8931   1.588   5.703   7.558 -0.3293  0.2028  0.6327
  990SOL    HW1 8932   1.556   5.613   7.560 -0.0733  0.0656 -0.7691
  990SOL    HW2 8933   1.655   5.703   7.490 -1.2393  1.7559 -0.3142
  991SOL     OW 8934   5.170   4.095   1.846  0.0061  0.2597 -0.0467
  991SOL    HW1 8935   5.104   4.150   1.888 -1.2360 -1.0190 -0.2736
  991SOL    HW2 8936   5.149   4.099   1.753  0.7791  0.5084 -0.2185
  992SOL     OW 8937   4.215   5.170   7.242 -0.7308 -0.2026 -0.3865
  992SOL    HW1 8938   4.122   5.157   7.256 -1.8329  1.8200 -4.2700
  992SOL    HW2 8939   4.241   5.097   7.185 -0.0258 -0.4920  0.2855
  993SOL     OW 8940   1.685   8.746   1.342 -0.6503  0.2310  0.0910
  993SOL    HW1 8941   1.771   8.731   1.304 -1.0243 -0.0594 -0.6640
  993SOL    HW2 8942   1.666   8.838   1.325 -0.3918  0.3565  0.4703
  994SOL     OW 8943   8.026   2.959   4.514 -0.3128 -0.6038  0.6672
  994SOL    HW1 8944   8.089   2.979   4.444  0.3297  0.0557  1.4055
  994SOL    HW2 8945   8.004   2.867   4.500 -2.0621  0.0966 -1.8350
  995SOL     OW 8946   8.311   8.820   0.016 -0.0639  0.2182  0.5085
  995SOL    HW1 8947   8.238   8.783  -0.034  0.8881 -1.0179 -0.0342
  995SOL    HW2 8948   8.270   8.858   0.093 -1.1643 -1.9818  1.1046
  996SOL     OW 8949   8.781   5.250   5.252  0.5682 -0.0565  0.0838
  996SOL    HW1 8950   8.783   5.317   5.183  1.5539  0.4907  0.6183
  996SOL    HW2 8951   8.859   5.268   5.304 -0.7610  0.2924  2.0460
  997SOL     OW 8952   5.595   0.189   2.140  0.0487 -0.2288  0.5654
  997SOL    HW1 8953   5.636   0.274   2.122 -1.4801  0.5005  0.3319
  997SOL    HW2 8954   5.532   0.177   2.069 -0.6840 -0.9209  1.3053
  998SOL     OW 8955   9.012   3.177   7.767  0.3007  0.1898  0.8977
  998SOL    HW1 8956   9.031   3.225   7.686  0.2042  1.4314  1.5924
  998SOL    HW2 8957   8.921   3.150   7.757  0.2190  0.5292  0.6860
  999SOL     OW 8958   6.951   8.405   2.629 -0.5507  0.0682  0.3911
  999SOL    HW1 8959   7.041   8.372   2.630 -0.0913  1.1375 -0.9997
  999SOL    HW2 8960   6.907   8.353   2.561 -0.6384  0.3391  0.2366
 1000SOL     OW 8961   3.042   6.693   7.668  0.8167  0.1317  0.2339
 1000SOL    HW1 8962   3.034   6.781   7.706 -0.3379 -0.4398  1.3918
 1000SOL    HW2 8963   3.004   6.635   7.735  2.9386 -1.4247  0.1804
 1001SOL     OW 8964   2.154   8.338   4.832  0.3744 -0.5455 -0.6254
 1001SOL    HW1 8965   2.185   8.249   4.853  1.6993  0.3657  1.6044
 1001SOL    HW2 8966   2.190   8.356   4.745 -1.0952 -2.6555 -1.7760
 1002SOL     OW 8967   2.831   2.863   8.758 -0.2726 -0.0394  0.4241
 1002SOL    HW1 8968   2.846   2.890   8.668  1.3230  0.7157  0.8794
 1002SOL    HW2 8969   2.912   2.820   8.785 -1.7586 -3.0629  0.5890
 1003SOL     OW 8970   5.388   2.962   2.595  0.0633  0.4382  0.6852
 1003SOL    HW1 8971   5.366   3.043   2.640 -1.7803  1.0670 -1.1786
 1003SOL    HW2 8972   5.311   2.942   2.542  2.3546  0.4345 -3.0363
 1004SOL     OW 8973   7.057   8.315   7.022  0.2246  0.2548  0.1747
 1004SOL    HW1 8974   7.106   8.235   7.001  1.6523  0.6573  1.7483
 1004SOL    HW2 8975   6.989   8.285   7.082  0.6262  0.1736  0.5972
 1005SOL     OW 8976   4.820   3.201   4.828 -0.1708 -0.1587  0.8404
 1005SOL    HW1 8977   4.835   3.107   4.819  0.0722 -0.0425 -0.1477
 1005SOL    HW2 8978   4.822   3.234   4.738 -0.8933  0.6963  1.1167
 1006SOL     OW 8979   5.137   8.826   1.706  0.1382 -0.3227  0.4166
 1006SOL    HW1 8980   5.229   8.850   1.719  0.4829 -1.2313 -0.2072
 1006SOL    HW2 8981   5.128   8.742   1.751 -0.8169  0.4841  1.8227
 1007SOL     OW 8982   6.844   8.164   1.055  0.0092 -0.4978 -0.5424
 1007SOL    HW1 8983   6.870   8.175   0.963  1.7407 -0.4436 -0.0890
 1007SOL    HW2 8984   6.839   8.069   1.067  0.0521 -0.5103 -0.6234
 1008SOL     OW 8985   9.174   2.195   9.251  0.2584  0.0375 -0.8594
 1008SOL    HW1 8986   9.200   2.258   9.318 -2.8927  0.0097  0.6033
 1008SOL    HW2 8987   9.193   2.110   9.290  0.2820  0.0467 -0.8509
 1009SOL     OW 8988   5.147   4.969   6.129  0.1158 -0.7206 -0.0688
 1009SOL    HW1 8989   5.077   5.024   6.094 -0.6722 -1.6306  0.0467
 1009SOL    HW2 8990   5.115   4.880   6.118  0.8164 -1.1115  0.9343
 1010SOL     OW 8991   6.960   3.805   9.122  0.0000  0.3257 -0.4919
 1010SOL    HW1 8992   6.923   3.717   9.119 -1.5228  0.9221 -0.4137
 1010SOL    HW2 8993   6.916   3.852   9.051  1.7498  0.6976 -1.3716
 1011SOL     OW 8994   5.966   5.333   8.863 -0.1688  0.4735 -0.2512
 1011SOL    HW1 8995   6.026   5.356   8.933  1.1610  0.2546 -1.2935
 1011SOL    HW2 8996   5.883   5.314   8.908  0.4721  0.9637  1.1823
 1012SOL     OW 8997   9.153   0.461   6.531 -0.1494  0.0550  0.1814
 1012SOL    HW1 8998   9.153   0.552   6.561  0.8105  0.3659 -0.7271
 1012SOL    HW2 8999   9.107   0.463   6.447  1.0817 -0.0530 -0.5126
 1013SOL     OW 9000   6.238   3.888   5.020 -0.1246 -0.2240 -0.1687
 1013SOL    HW1 9001   6.189   3.853   4.946 -0.5782 -0.7590  0.3751
 1013SOL    HW2 9002   6.309   3.938   4.980  0.0669 -1.1049 -0.9654
 1014SOL     OW 9003   4.056   0.066   9.343  0.5202  0.2038  0.2730
 1014SOL    HW1 9004   3.977   0.025   9.307 -0.4922  1.8554  0.5154
 1014SOL    HW2 9005   4.026   0.110   9.422  1.7420  0.6971  0.4807
 1015SOL     OW 9006   2.138   6.452   4.215 -0.1260 -0.2725  0.4223
 1015SOL    HW1 9007   2.066   6.389   4.225  0.0858 -0.4165  1.0612
 1015SOL    HW2 9008   2.216   6.405   4.244  0.5741 -0.7660 -2.0529
 1016SOL     OW 9009   2.729   9.105   8.674  0.1448 -0.5694 -0.4421
 1016SOL    HW1 9010   2.662   9.041   8.652 -0.5123 -0.6585  1.6096
 1016SOL    HW2 9011   2.702   9.141   8.759  1.6316  0.8634 -0.5117
 1017SOL     OW 9012   8.472   4.728   0.355 -0.4953 -0.1980 -0.0107
 1017SOL    HW1 9013   8.444   4.808   0.401 -1.0432 -0.2219 -0.2954
 1017SOL    HW2 9014   8.480   4.754   0.263 -0.9199 -0.5299 -0.1447
 1018SOL     OW 9015   4.422   5.344   7.172  0.4318 -0.0971  0.1972
 1018SOL    HW1 9016   4.365   5.277   7.210 -2.9743  1.8482 -1.0457
 1018SOL    HW2 9017   4.432   5.317   7.081  0.1434  0.3599  0.0245
 1019SOL     OW 9018   7.024   2.578   1.683  0.7545 -0.2909 -0.4293
 1019SOL    HW1 9019   7.069   2.640   1.741  0.0547  0.4654 -0.6806
 1019SOL    HW2 9020   6.938   2.616   1.669  0.4716 -1.0987 -0.9650
 1020SOL     OW 9021   7.235   2.950   6.490 -0.0984 -0.0932 -0.2598
 1020SOL    HW1 9022   7.217   2.873   6.436 -1.6703 -0.8319  1.2191
 1020SOL    HW2 9023   7.317   2.928   6.536 -1.1833 -1.5425  1.1337
 1021SOL     OW 9024   0.953   4.678   4.332  0.3185  0.5973 -0.3466
 1021SOL    HW1 9025   1.021   4.739   4.359 -1.6296  2.6027  0.3824
 1021SOL    HW2 9026   0.909   4.653   4.413 -1.8775  2.0180 -1.0011
 1022SOL     OW 9027   4.209   9.141   8.843  0.3651  0.2116  0.1445
 1022SOL    HW1 9028   4.256   9.060   8.826  2.3686  1.2094  0.6401
 1022SOL    HW2 9029   4.153   9.153   8.767  1.5930 -0.5803 -0.9157
 1023SOL     OW 9030   5.146   8.524   1.437 -0.5570 -0.5898 -1.1574
 1023SOL    HW1 9031   5.187   8.439   1.421  2.1011  0.8743 -2.9187
 1023SOL    HW2 9032   5.146   8.567   1.351 -0.9830  1.5117 -0.1638
 1024SOL     OW 9033   8.686   4.224   4.234 -0.2163  0.0452  0.7176
 1024SOL    HW1 9034   8.689   4.196   4.325 -0.4352 -1.7172  0.2164
 1024SOL    HW2 9035   8.682   4.143   4.183 -2.0238  1.0042 -0.7939
 1025SOL     OW 9036   8.372   7.685   4.442  0.4611  0.6221  0.5634
 1025SOL    HW1 9037   8.425   7.631   4.383 -1.5212 -0.7725 -0.0102
 1025SOL    HW2 9038   8.374   7.639   4.525 -0.9921 -0.2177  0.1526
 1026SOL     OW 9039   3.536   8.498   1.337 -0.2063  0.8088  0.1995
 1026SOL    HW1 9040   3.556   8.417   1.385  0.5715  0.4758 -0.6502
 1026SOL    HW2 9041   3.466   8.472   1.276 -1.2192  1.2388  1.1575
 1027SOL     OW 9042   8.851   2.775   8.556 -0.8118 -0.5194 -0.2992
 1027SOL    HW1 9043   8.861   2.682   8.577 -1.4033 -0.2307  1.4610
 1027SOL    HW2 9044   8.904   2.821   8.622 -1.3372  0.4106 -0.5011
 1028SOL     OW 9045   8.712   5.998   6.474  0.5798 -0.2430 -0.1889
 1028SOL    HW1 9046   8.713   5.902   6.470 -0.2478 -0.2443 -0.6687
 1028SOL    HW2 9047   8.791   6.025   6.428  0.1432 -0.6826 -1.2313
 1029SOL     OW 9048   5.972   2.001   2.738  0.0335  0.3280  0.7547
 1029SOL    HW1 9049   6.066   2.013   2.755 -0.0575 -0.1694  1.7031
 1029SOL    HW2 9050   5.955   2.052   2.659  1.0414  0.6730  0.7442
 1030SOL     OW 9051   4.529   8.705   3.449 -0.0295  0.4018 -0.0449
 1030SOL    HW1 9052   4.526   8.715   3.544  0.1696  0.6168 -0.0627
 1030SOL    HW2 9053   4.589   8.632   3.434  0.0561  0.4662 -0.0142
 1031SOL     OW 9054   5.182   0.936   1.681 -0.0161 -0.0956  0.0521
 1031SOL    HW1 9055   5.178   0.967   1.591 -0.7346  0.6557  0.3285
 1031SOL    HW2 9056   5.102   0.971   1.722  0.8162  0.4791  1.2543
 1032SOL     OW 9057   3.211   7.870   7.328  0.2225  0.0081 -1.1675
 1032SOL    HW1 9058   3.238   7.817   7.403  0.0778 -0.5401 -1.4946
 1032SOL    HW2 9059   3.242   7.820   7.252  1.1083  0.9635 -1.4515
 1033SOL     OW 9060   5.614   6.003   4.165 -0.2909 -0.1289 -0.0957
 1033SOL    HW1 9061   5.693   6.008   4.218 -1.6795 -1.4787  2.2565
 1033SOL    HW2 9062   5.597   6.094   4.139  2.9691 -0.0049 -2.3111
 1034SOL     OW 9063   8.579   6.672   8.224  0.8246 -0.1341 -0.4578
 1034SOL    HW1 9064   8.630   6.623   8.290  0.8641 -0.3324 -0.6343
 1034SOL    HW2 9065   8.545   6.748   8.272  1.6141  0.2137 -0.4285
 1035SOL     OW 9066   1.301   1.813   4.068 -0.5782 -0.0673 -0.8735
 1035SOL    HW1 9067   1.319   1.779   4.156 -2.1022  0.3865 -0.3592
 1035SOL    HW2 9068   1.342   1.899   4.068 -0.3495 -0.1747 -0.6944
 1036SOL     OW 9069   2.931   0.749   3.763  0.1733 -0.1305  0.0336
 1036SOL    HW1 9070   2.903   0.722   3.675 -0.7938 -0.9941  0.5893
 1036SOL    HW2 9071   2.947   0.667   3.809  1.1150  0.3287  0.5411
 1037SOL     OW 9072   6.683   2.471   4.003 -0.2476 -0.8065  0.1638
 1037SOL    HW1 9073   6.633   2.502   4.079 -0.3175 -1.6747  0.4922
 1037SOL    HW2 9074   6.708   2.550   3.955 -1.8198 -0.3479  0.0695
 1038SOL     OW 9075   4.785   5.508   2.948  0.1705 -0.2244  0.6750
 1038SOL    HW1 9076   4.873   5.528   2.981 -0.0000 -0.6908  1.4341
 1038SOL    HW2 9077   4.729   5.511   3.026 -0.8924  2.2508 -0.0917
 1039SOL     OW 9078   2.841   6.241   3.793 -0.3613 -0.2208 -0.5538
 1039SOL    HW1 9079   2.752   6.210   3.776  0.0122 -1.5599 -0.1879
 1039SOL    HW2 9080   2.883   6.169   3.839  0.4798  0.9681  0.5996
 1040SOL     OW 9081   8.802   2.429   0.635 -0.5958  0.0694  0.0857
 1040SOL    HW1 9082   8.840   2.471   0.712  0.1874  1.3374 -0.9589
 1040SOL    HW2 9083   8.733   2.489   0.608 -0.2829  0.0675 -0.7163
 1041SOL     OW 9084   0.077   0.020   1.681 -0.3146 -0.2766  0.1170
 1041SOL    HW1 9085   0.153  -0.003   1.628  1.1606  0.2380  1.9247
 1041SOL    HW2 9086   0.073  -0.048   1.748 -0.3403  0.7104  1.1302
 1042SOL     OW 9087   6.206   5.654   1.474  0.3635  0.3840  0.0369
 1042SOL    HW1 9088   6.137   5.707   1.515 -0.8667 -0.8432 -0.3907
 1042SOL    HW2 9089   6.235   5.594   1.543 -1.0403 -1.0345 -0.5508
 1043SOL     OW 9090   7.792   5.434   2.690 -0.2070 -0.0806  0.2827
 1043SOL    HW1 9091   7.703   5.436   2.657 -0.7944 -0.4849  1.7335
 1043SOL    HW2 9092   7.784   5.462   2.782  0.9927 -1.0946  0.7323
 1044SOL     OW 9093   1.579   2.273   4.051  0.1163  0.3306  0.2868
 1044SOL    HW1 9094   1.523   2.346   4.076  0.4862 -0.0284  2.3780
 1044SOL    HW2 9095   1.546   2.199   4.103  1.3674 -0.3397  0.1686
 1045SOL     OW 9096   2.625   2.446   1.345 -0.6795  0.0309  0.0883
 1045SOL    HW1 9097   2.606   2.539   1.334  3.3542  0.8960 -1.4785
 1045SOL    HW2 9098   2.626   2.411   1.255  0.6748 -0.8124  0.4069
 1046SOL     OW 9099   1.127   1.444   2.951 -0.3191  0.0870 -0.3391
 1046SOL    HW1 9100   1.134   1.530   2.910  0.9016 -0.0095 -0.3848
 1046SOL    HW2 9101   1.035   1.436   2.977 -0.6144  1.0599 -1.0636
 1047SOL     OW 9102   0.033   6.025   7.734 -0.5659  0.2252  0.5302
 1047SOL    HW1 9103   0.049   6.098   7.795  2.8933  0.5474 -0.5551
 1047SOL    HW2 9104  -0.002   6.067   7.655  1.8939  0.9343 -0.2801
 1048SOL     OW 9105   8.348   5.342   5.021  0.0714 -0.4633 -0.6760
 1048SOL    HW1 9106   8.262   5.311   5.049  0.0600  0.7175  0.7185
 1048SOL    HW2 9107   8.397   5.262   5.001 -0.7659 -1.2475  0.3067
 1049SOL     OW 9108   2.881   8.159   2.966 -0.0987  0.1000 -0.6931
 1049SOL    HW1 9109   2.903   8.177   3.057 -1.9179 -0.9201 -0.0040
 1049SOL    HW2 9110   2.966   8.143   2.924  0.7810  0.6567  0.7849
 1050SOL     OW 9111   2.565   3.988   4.913  0.2088  0.4083  0.1294
 1050SOL    HW1 9112   2.620   4.057   4.877  0.2042 -0.5659 -1.8298
 1050SOL    HW2 9113   2.562   3.920   4.846 -1.8948 -0.3906  0.9225
 1051SOL     OW 9114   6.006   4.463   3.950 -0.0117 -0.6032 -0.2821
 1051SOL    HW1 9115   6.088   4.494   3.910  0.1819  0.1561  0.6683
 1051SOL    HW2 9116   5.959   4.543   3.971 -1.8750 -1.0104 -2.4848
 1052SOL     OW 9117   0.855   7.933   7.230  0.3007 -0.1037  0.1513
 1052SOL    HW1 9118   0.784   7.914   7.169  0.3413 -1.4065  0.4802
 1052SOL    HW2 9119   0.931   7.888   7.193  0.7208  0.4550  0.3188
 1053SOL     OW 9120   3.232   6.005   3.855  0.3018  0.2522 -0.0211
 1053SOL    HW1 9121   3.254   5.973   3.943 -0.1104  0.7959  0.2828
 1053SOL    HW2 9122   3.159   5.949   3.827 -2.7920  2.9755  1.9004
 1054SOL     OW 9123   0.411   6.793   1.785 -0.0103  0.0327 -0.2659
 1054SOL    HW1 9124   0.437   6.862   1.847 -1.7762  1.1564 -0.7058
 1054SOL    HW2 9125   0.316   6.788   1.794 -0.1161 -0.9458 -1.7092
 1055SOL     OW 9126   3.050   0.366   1.774  0.2281  0.0240  0.4957
 1055SOL    HW1 9127   3.077   0.441   1.721 -0.8101 -0.1736 -0.3396
 1055SOL    HW2 9128   3.120   0.302   1.763  0.2987  0.2084 -0.1758
 1056SOL     OW 9129   5.573   4.461   1.995 -0.3079  0.2339 -0.4212
 1056SOL    HW1 9130   5.641   4.449   2.062 -0.1021  1.1551 -0.4470
 1056SOL    HW2 9131   5.533   4.375   1.986 -0.4874  0.1408  1.0429
 1057SOL     OW 9132   2.833   4.995   6.754 -0.5927 -0.0073 -0.5484
 1057SOL    HW1 9133   2.754   4.967   6.707 -0.2093 -1.0915 -0.5643
 1057SOL    HW2 9134   2.860   4.918   6.804 -0.0252  0.6194  0.1237
 1058SOL     OW 9135   5.601   6.823   1.472 -0.7484 -0.1991  0.0594
 1058SOL    HW1 9136   5.533   6.833   1.405  1.0871  1.4383 -1.7077
 1058SOL    HW2 9137   5.636   6.912   1.483  1.3297 -1.0444  0.6262
 1059SOL     OW 9138   7.963   2.940   1.131  0.1610 -0.3676  0.3976
 1059SOL    HW1 9139   8.030   2.910   1.192  1.2264 -0.7746 -0.9276
 1059SOL    HW2 9140   8.011   2.988   1.064 -0.8967 -0.4260 -0.4356
 1060SOL     OW 9141   8.513   0.063   4.227 -0.0349 -0.0975  0.3054
 1060SOL    HW1 9142   8.424   0.028   4.223 -0.2822  0.4786  0.6596
 1060SOL    HW2 9143   8.558   0.007   4.290 -0.5410  0.4654  1.1794
 1061SOL     OW 9144   4.001   7.607   4.205  0.0952 -0.0908 -0.0512
 1061SOL    HW1 9145   4.000   7.515   4.231  0.9281 -0.1623 -0.2420
 1061SOL    HW2 9146   3.972   7.607   4.114 -0.8752 -0.0513  0.2498
 1062SOL     OW 9147   6.893   0.725   8.780 -0.0398  0.0212  0.5887
 1062SOL    HW1 9148   6.902   0.728   8.685 -1.1615 -1.4543  0.3962
 1062SOL    HW2 9149   6.860   0.812   8.804  0.5341  0.4978 -0.3284
 1063SOL     OW 9150   0.586   3.547   1.369  0.6099 -0.1972  0.1202
 1063SOL    HW1 9151   0.587   3.588   1.283 -0.0747 -0.4559 -0.0183
 1063SOL    HW2 9152   0.669   3.499   1.373  0.0923 -1.2683 -0.9472
 1064SOL     OW 9153   3.937   8.788   8.351 -0.0146  0.0858  0.3359
 1064SOL    HW1 9154   3.975   8.869   8.319  0.7838 -0.3212  0.2142
 1064SOL    HW2 9155   3.988   8.767   8.430 -0.5964  0.0077  0.6940
 1065SOL     OW 9156   2.964   5.156   2.767  0.6017  0.0847 -0.0809
 1065SOL    HW1 9157   3.042   5.159   2.821  0.7590  0.0876 -0.3060
 1065SOL    HW2 9158   2.891   5.152   2.829  0.7959 -0.2706  0.1215
 1066SOL     OW 9159   5.322   8.485   2.921  0.2098 -0.1962 -0.6098
 1066SOL    HW1 9160   5.321   8.401   2.876 -3.2318  0.1222 -1.4069
 1066SOL    HW2 9161   5.309   8.463   3.014  0.9013 -0.5835 -0.5990
 1067SOL     OW 9162   6.516   6.619   6.903  0.4486  0.4926  0.2229
 1067SOL    HW1 9163   6.579   6.549   6.885  0.0687 -0.0462  0.9249
 1067SOL    HW2 9164   6.484   6.600   6.992 -1.1510  0.3951 -0.3486
 1068SOL     OW 9165   8.808   4.109   8.612  0.3524  0.4818 -0.4883
 1068SOL    HW1 9166   8.740   4.170   8.642 -0.3300 -0.2407 -0.5597
 1068SOL    HW2 9167   8.837   4.146   8.528  1.8350  2.1707  0.7088
 1069SOL     OW 9168   7.850   1.971   7.046  0.0848  0.3391 -0.2002
 1069SOL    HW1 9169   7.914   1.915   7.089  0.1161 -0.6935 -1.5039
 1069SOL    HW2 9170   7.892   2.057   7.040  2.5849 -0.9112 -3.4005
 1070SOL     OW 9171   7.198   8.146   2.549 -0.4975  0.4297  0.1265
 1070SOL    HW1 9172   7.220   8.087   2.621 -1.7595  0.8769  0.9290
 1070SOL    HW2 9173   7.230   8.232   2.578  0.7609  0.2798 -0.7492
 1071SOL     OW 9174   1.643   0.970   7.733 -0.4592  0.3246  0.0355
 1071SOL    HW1 9175   1.665   0.941   7.644 -0.4582  1.1439 -0.2325
 1071SOL    HW2 9176   1.691   1.051   7.745 -2.5277  1.6505 -0.1990
 1072SOL     OW 9177   1.096   5.421   3.765  0.2662  0.0529 -0.3104
 1072SOL    HW1 9178   1.135   5.503   3.795  0.5925  0.4919 -1.8339
 1072SOL    HW2 9179   1.027   5.402   3.828  0.0823  1.5833 -0.0075
 1073SOL     OW 9180   7.437   2.587   8.717 -0.0682 -0.1436  0.3035
 1073SOL    HW1 9181   7.390   2.528   8.658  1.3796 -2.0114  0.9364
 1073SOL    HW2 9182   7.383   2.590   8.796 -0.2790 -0.3980  0.1681
 1074SOL     OW 9183   6.344   3.618   1.093 -0.0928  1.0827 -0.2359
 1074SOL    HW1 9184   6.320   3.636   1.184  0.3294  2.2042 -0.3294
 1074SOL    HW2 9185   6.392   3.535   1.097 -0.8556  0.6643  0.4325
 1075SOL     OW 9186   5.544   6.162   0.313  0.1169 -0.4448  0.0572
 1075SOL    HW1 9187   5.481   6.185   0.381  0.4464 -0.5570  0.4070
 1075SOL    HW2 9188   5.539   6.067   0.306 -1.9204 -0.2713 -2.0520
 1076SOL     OW 9189   8.518   3.443   4.990  0.1444  0.2569  0.1472
 1076SOL    HW1 9190   8.592   3.383   4.996 -0.2422 -0.2601 -0.1442
 1076SOL    HW2 9191   8.529   3.485   4.905 -0.7825 -1.0418 -0.6596
 1077SOL     OW 9192   1.821   9.046   7.609  0.2785  0.6097  0.2792
 1077SOL    HW1 9193   1.855   9.049   7.699  0.3876  1.8017  0.2197
 1077SOL    HW2 9194   1.896   9.069   7.555 -0.3370  2.2068  0.0687
 1078SOL     OW 9195   1.266   4.494   8.307 -0.4924 -0.0522  0.1096
 1078SOL    HW1 9196   1.286   4.580   8.271  0.6332 -0.9825 -1.6138
 1078SOL    HW2 9197   1.253   4.510   8.401 -0.7522  2.0381 -0.2263
 1079SOL     OW 9198   5.195   6.366   2.670 -0.0018 -0.1672  0.8367
 1079SOL    HW1 9199   5.190   6.342   2.763  1.9865  0.1476  1.0797
 1079SOL    HW2 9200   5.237   6.290   2.629  0.8916  0.4547  0.5669
 1080SOL     OW 9201   6.651   8.380   4.056 -0.4288 -0.1029  0.2021
 1080SOL    HW1 9202   6.723   8.406   4.114  0.1634  0.9473 -0.9314
 1080SOL    HW2 9203   6.612   8.304   4.098  0.5790  0.0458  1.4751
 1081SOL     OW 9204   5.733   7.221   5.136  0.1590  0.0038 -0.4181
 1081SOL    HW1 9205   5.809   7.271   5.165  0.2452 -0.1928 -0.3051
 1081SOL    HW2 9206   5.680   7.210   5.215 -0.7140  1.3987 -0.7692
 1082SOL     OW 9207   6.086   9.276   4.099  0.3067  0.8295  0.3022
 1082SOL    HW1 9208   6.149   9.343   4.124  0.9657  1.0255 -1.6412
 1082SOL    HW2 9209   6.134   9.222   4.035 -0.9771 -0.0411  0.0337
 1083SOL     OW 9210   9.353   9.037   8.966  0.5675 -0.4023  0.5953
 1083SOL    HW1 9211   9.366   8.945   8.992 -0.9131 -0.3360  1.6825
 1083SOL    HW2 9212   9.342   9.033   8.871  0.8994 -1.3169  0.5823
 1084SOL     OW 9213   2.929   0.274   8.334  0.3657  0.0635 -0.4089
 1084SOL    HW1 9214   2.936   0.344   8.269 -0.7649  0.8393  0.2751
 1084SOL    HW2 9215   2.875   0.311   8.404  1.4015 -0.8058  0.9085
 1085SOL     OW 9216   4.622   2.481   2.133 -0.1647 -0.3650 -0.1931
 1085SOL    HW1 9217   4.631   2.447   2.044  0.2348  0.1830 -0.3642
 1085SOL    HW2 9218   4.662   2.415   2.189  0.1483 -0.4181 -0.4796
 1086SOL     OW 9219   1.987   4.247   3.850 -0.5526  0.1336  0.7133
 1086SOL    HW1 9220   1.909   4.266   3.903 -1.4719  1.8817 -1.1396
 1086SOL    HW2 9221   1.956   4.246   3.760  0.7791 -3.7043  0.0888
 1087SOL     OW 9222   6.320   4.901   2.802 -0.0540 -0.1854 -0.1414
 1087SOL    HW1 9223   6.347   4.919   2.712  0.8689  0.2314  0.2077
 1087SOL    HW2 9224   6.394   4.928   2.855 -0.8790  0.2773  0.8062
 1088SOL     OW 9225   1.851   3.824   7.543 -0.3938  0.5961 -0.1244
 1088SOL    HW1 9226   1.942   3.808   7.519 -0.1893  0.9257  0.4245
 1088SOL    HW2 9227   1.838   3.918   7.528 -0.2231  0.8426  1.1353
 1089SOL     OW 9228   5.392   1.573   4.729 -0.4333  0.5050  0.2998
 1089SOL    HW1 9229   5.312   1.563   4.678 -0.7685 -0.4758  0.9706
 1089SOL    HW2 9230   5.460   1.529   4.677  0.2465  3.3754 -1.4151
 1090SOL     OW 9231   0.443   3.020   0.817 -0.4682  0.0295  0.2376
 1090SOL    HW1 9232   0.431   3.090   0.881  0.3453  0.7505 -0.3810
 1090SOL    HW2 9233   0.450   3.065   0.733 -1.0192 -0.8734 -0.3089
 1091SOL     OW 9234   1.896   6.466   3.681 -0.1582 -0.0491 -0.4695
 1091SOL    HW1 9235   1.898   6.377   3.716  0.1393 -0.6766 -1.9912
 1091SOL    HW2 9236   1.988   6.488   3.666 -0.1502  0.9593  0.8967
 1092SOL     OW 9237   2.282   0.205   0.513  0.0975 -0.2210 -0.3315
 1092SOL    HW1 9238   2.317   0.246   0.593 -2.7870 -0.0050  0.9150
 1092SOL    HW2 9239   2.198   0.249   0.498 -0.2471 -1.4972 -2.5094
 1093SOL     OW 9240   6.401   5.844   1.440 -0.1731  0.6566  0.7817
 1093SOL    HW1 9241   6.337   5.905   1.402 -1.4920 -1.0237  0.1510
 1093SOL    HW2 9242   6.348   5.788   1.498  0.6709 -0.9009  0.1053
 1094SOL     OW 9243   6.037   4.566   6.221  0.1238  0.1532  0.2919
 1094SOL    HW1 9244   5.985   4.542   6.144 -0.5653  0.0815  0.7696
 1094SOL    HW2 9245   5.982   4.628   6.269  0.3849 -0.0883  0.9188
 1095SOL     OW 9246   8.884   2.960   2.586 -0.6410 -0.0199  0.0352
 1095SOL    HW1 9247   8.807   3.000   2.546 -0.3336  0.6586  0.1096
 1095SOL    HW2 9248   8.947   3.031   2.594  0.4824 -0.8258 -1.2025
 1096SOL     OW 9249   5.823   0.834   5.141  0.1668  0.0974  0.4516
 1096SOL    HW1 9250   5.764   0.894   5.186 -2.3165 -2.4472  0.8319
 1096SOL    HW2 9251   5.911   0.867   5.162 -0.9760  3.8062  0.2054
 1097SOL     OW 9252   2.898   0.089   1.782  0.3594 -0.3353  0.2121
 1097SOL    HW1 9253   2.902   0.108   1.689  1.9019 -0.0301  0.3136
 1097SOL    HW2 9254   2.855   0.003   1.788 -2.9054  1.1032 -0.5113
 1098SOL     OW 9255   9.239   7.114   7.178  0.9081 -0.5553 -0.2088
 1098SOL    HW1 9256   9.303   7.056   7.220  0.9690  0.4122  1.0896
 1098SOL    HW2 9257   9.188   7.150   7.250 -1.8180 -2.0279 -1.2524
 1099SOL     OW 9258   6.711   2.836   6.895 -0.0548  0.3433  0.0679
 1099SOL    HW1 9259   6.645   2.905   6.896  1.2215  1.6083  0.3604
 1099SOL    HW2 9260   6.699   2.791   6.979  0.1928  1.3083  0.6403
 1100SOL     OW 9261   1.291   7.495   6.286 -0.4068 -0.0960  0.4857
 1100SOL    HW1 9262   1.355   7.566   6.282  0.2537 -0.6629  0.6991
 1100SOL    HW2 9263   1.317   7.435   6.216 -1.3527  0.1863 -0.1196
 1101SOL     OW 9264   1.123   6.746   8.883  0.3247  0.6155 -0.6451
 1101SOL    HW1 9265   1.148   6.795   8.961  2.0062 -0.1501 -0.6751
 1101SOL    HW2 9266   1.177   6.782   8.813  1.0263 -0.7360 -0.8292
 1102SOL     OW 9267   1.206   8.651   2.674 -0.9312  0.1047  0.2565
 1102SOL    HW1 9268   1.230   8.733   2.717 -1.2805  0.5587 -0.3935
 1102SOL    HW2 9269   1.204   8.587   2.745  1.3771  0.1914  0.4681
 1103SOL     OW 9270   1.703   5.618   2.871 -0.3596  0.4050  0.4614
 1103SOL    HW1 9271   1.715   5.527   2.897 -1.4119 -0.2070 -1.0415
 1103SOL    HW2 9272   1.609   5.632   2.874 -0.1943  1.5569  0.9696
 1104SOL     OW 9273   7.691   1.544   2.314  0.5944  0.6560 -0.0802
 1104SOL    HW1 9274   7.701   1.489   2.237  1.4763 -3.3429  2.5828
 1104SOL    HW2 9275   7.781   1.557   2.345  0.1641  0.5503  1.2584
 1105SOL     OW 9276   5.696   2.618   4.602 -0.1178  0.1404 -0.3541
 1105SOL    HW1 9277   5.719   2.702   4.562  2.6501 -0.6012 -0.5278
 1105SOL    HW2 9278   5.723   2.552   4.538  0.9327 -0.9659  1.1489
 1106SOL     OW 9279   7.916   1.059   2.021  0.5225  0.1487  0.5258
 1106SOL    HW1 9280   7.855   1.108   1.966 -1.6299 -2.1852  0.6453
 1106SOL    HW2 9281   7.989   1.119   2.036 -1.1932  2.6695 -0.5970
 1107SOL     OW 9282   9.042   2.456   6.235 -0.4386 -0.3184  0.0885
 1107SOL    HW1 9283   8.967   2.505   6.270 -0.0528 -0.2746  0.8791
 1107SOL    HW2 9284   9.118   2.500   6.272  0.0504  0.3052 -1.5569
 1108SOL     OW 9285   1.160   2.455   2.796  0.3002  0.1490  0.1068
 1108SOL    HW1 9286   1.099   2.438   2.724  0.1961 -1.0416  0.4588
 1108SOL    HW2 9287   1.115   2.423   2.874  1.5509 -1.2037  0.3110
 1109SOL     OW 9288   7.842   3.474   8.878 -0.5222 -0.2041 -0.7541
 1109SOL    HW1 9289   7.809   3.492   8.966 -0.0998 -0.5612 -0.5156
 1109SOL    HW2 9290   7.773   3.505   8.819 -0.7542  0.1472 -0.2998
 1110SOL     OW 9291   4.761   2.344   3.249  0.1473  0.4925  0.4593
 1110SOL    HW1 9292   4.758   2.375   3.339 -0.9738  0.1207  0.5675
 1110SOL    HW2 9293   4.837   2.286   3.246 -0.5591 -0.5379  1.5362
 1111SOL     OW 9294   5.784   7.918   8.593 -0.1696  0.0919 -0.0337
 1111SOL    HW1 9295   5.862   7.896   8.542 -1.9569 -2.7723 -1.8014
 1111SOL    HW2 9296   5.806   7.895   8.683  1.0874 -0.5191 -0.4824
 1112SOL     OW 9297   6.283   5.688   7.755 -0.4356  0.6770  0.0242
 1112SOL    HW1 9298   6.328   5.611   7.791 -2.3569 -0.9229 -0.8282
 1112SOL    HW2 9299   6.328   5.704   7.672 -0.3002  0.1977 -0.0019
 1113SOL     OW 9300   3.896   2.138   6.487 -0.0981  0.0587 -0.4181
 1113SOL    HW1 9301   3.941   2.059   6.457 -0.6590  0.2535 -1.8762
 1113SOL    HW2 9302   3.817   2.143   6.433 -0.1633  1.5113 -0.2401
 1114SOL     OW 9303   0.310   3.267   1.522 -0.2341  0.1726  0.1270
 1114SOL    HW1 9304   0.221   3.278   1.556 -0.0205 -1.1060  1.1333
 1114SOL    HW2 9305   0.363   3.246   1.598  0.2794 -2.6565 -0.9088
 1115SOL     OW 9306   8.313   5.126   4.539 -0.3950  0.0834 -0.6527
 1115SOL    HW1 9307   8.331   5.154   4.450  0.1318 -2.2877 -1.3606
 1115SOL    HW2 9308   8.254   5.051   4.530 -0.3881 -0.1564  0.9762
 1116SOL     OW 9309   0.169   6.760   5.005  0.0077 -0.1966  0.3166
 1116SOL    HW1 9310   0.238   6.784   5.067  0.4485  0.5340 -0.4327
 1116SOL    HW2 9311   0.088   6.786   5.048  0.4648  3.0377 -0.5412
 1117SOL     OW 9312   8.871   8.990   5.462  0.2182 -0.3282 -0.0625
 1117SOL    HW1 9313   8.960   8.988   5.426  1.3445  1.9703  2.2567
 1117SOL    HW2 9314   8.832   9.069   5.424 -1.4613 -2.0026 -2.1151
 1118SOL     OW 9315   5.136   3.537   0.290 -0.2220  0.1802  0.0886
 1118SOL    HW1 9316   5.088   3.464   0.330  0.5173 -0.6295 -0.4453
 1118SOL    HW2 9317   5.216   3.496   0.255 -1.3467  0.5465 -3.2868
 1119SOL     OW 9318   8.850   0.483   0.021  0.3268 -0.0143  0.2127
 1119SOL    HW1 9319   8.929   0.532   0.043 -0.1603 -0.4103  3.2176
 1119SOL    HW2 9320   8.783   0.550   0.007  0.1715  0.2795  2.1613
 1120SOL     OW 9321   0.080   5.283   1.443 -0.0945  0.5206 -0.2801
 1120SOL    HW1 9322   0.040   5.273   1.356  1.8686 -1.3802 -1.0840
 1120SOL    HW2 9323   0.150   5.347   1.430  0.3175  0.1013 -0.1997
 1121SOL     OW 9324   3.529   1.975   6.473 -0.3567 -0.1446 -0.0930
 1121SOL    HW1 9325   3.575   2.038   6.418  0.9244  1.1013  2.2342
 1121SOL    HW2 9326   3.587   1.899   6.478  1.9713  1.5951  3.2060
 1122SOL     OW 9327   6.783   8.827   1.860 -0.0585 -0.0526 -0.1092
 1122SOL    HW1 9328   6.710   8.804   1.917 -1.4050 -2.5285 -2.5803
 1122SOL    HW2 9329   6.822   8.743   1.836  2.6828  1.1005 -0.1581
 1123SOL     OW 9330   8.447   3.043   4.953 -0.4760 -0.3322  0.3561
 1123SOL    HW1 9331   8.528   3.083   4.923 -1.0789  1.0690  0.5166
 1123SOL    HW2 9332   8.472   2.954   4.977  0.5396 -0.6917 -1.7798
 1124SOL     OW 9333   9.175   1.789   7.516 -0.0393  0.1191 -0.7703
 1124SOL    HW1 9334   9.242   1.765   7.453 -0.7550 -0.9123 -1.1550
 1124SOL    HW2 9335   9.134   1.707   7.541 -0.1978  0.5787  0.5705
 1125SOL     OW 9336   4.671   8.049   2.985 -0.0833 -0.2503 -0.1678
 1125SOL    HW1 9337   4.740   8.085   2.930  0.0016  0.3421  0.3122
 1125SOL    HW2 9338   4.615   8.124   3.006 -0.3154 -0.5365  0.2526
 1126SOL     OW 9339   4.776   3.909   6.477 -0.5236 -0.3801 -0.6382
 1126SOL    HW1 9340   4.755   4.002   6.485  0.4777 -0.1519 -0.5026
 1126SOL    HW2 9341   4.816   3.901   6.390 -3.3720 -1.2660 -1.9838
 1127SOL     OW 9342   9.016   4.811   6.806 -0.2561  0.9397  0.0740
 1127SOL    HW1 9343   9.067   4.748   6.755 -0.0001  0.5479  0.7996
 1127SOL    HW2 9344   8.925   4.794   6.781 -0.2087  0.1228  0.4205
 1128SOL     OW 9345   7.355   6.855   4.434  0.4327  0.1430  0.1545
 1128SOL    HW1 9346   7.436   6.846   4.384  0.2970  0.6358 -0.1669
 1128SOL    HW2 9347   7.295   6.791   4.395  0.3328  0.5135 -0.3133
 1129SOL     OW 9348   6.962   9.063   0.293 -0.4128 -0.4954  0.0446
 1129SOL    HW1 9349   7.035   9.110   0.252  0.8840 -2.7516 -0.3682
 1129SOL    HW2 9350   6.890   9.126   0.290  1.9753  2.7544  2.5109
 1130SOL     OW 9351   5.862   4.876   8.400 -0.5582  0.0098 -0.2814
 1130SOL    HW1 9352   5.851   4.802   8.341 -1.5769 -0.6501  0.6820
 1130SOL    HW2 9353   5.951   4.869   8.432 -0.5991 -0.7283 -0.3129
 1131SOL     OW 9354   5.167   1.087   1.430 -0.6470  0.2718  0.4693
 1131SOL    HW1 9355   5.241   1.145   1.416 -1.1881  1.3189  1.7327
 1131SOL    HW2 9356   5.102   1.113   1.364 -1.4496  2.1435  1.9079
 1132SOL     OW 9357   8.623   8.159   3.534  0.3559  0.4159 -0.3184
 1132SOL    HW1 9358   8.685   8.231   3.539 -1.7227  2.3809 -0.9931
 1132SOL    HW2 9359   8.606   8.147   3.441  0.5377 -0.8403 -0.2061
 1133SOL     OW 9360   2.905   2.912   8.516  0.1289  0.2317 -0.1693
 1133SOL    HW1 9361   2.882   2.845   8.451  0.9038  0.3877 -0.6175
 1133SOL    HW2 9362   2.861   2.991   8.485  2.1482  0.8494 -1.7192
 1134SOL     OW 9363   2.259   2.090   9.128 -0.1172 -0.0882 -0.2474
 1134SOL    HW1 9364   2.308   2.164   9.163  0.4735  0.0810 -1.3635
 1134SOL    HW2 9365   2.326   2.023   9.113 -0.0715  0.3613 -2.3682
 1135SOL     OW 9366   2.932   8.836   3.420  0.3083 -0.0951  0.3770
 1135SOL    HW1 9367   3.024   8.854   3.439 -0.3030  2.5105  1.2576
 1135SOL    HW2 9368   2.884   8.909   3.459 -2.0189 -0.4913 -1.4895
 1136SOL     OW 9369   6.320   8.884   5.211 -0.1775 -0.2940  0.3796
 1136SOL    HW1 9370   6.317   8.957   5.273  1.0747 -0.0487  0.1746
 1136SOL    HW2 9371   6.394   8.904   5.153 -0.8025 -0.9370 -0.6745
 1137SOL     OW 9372   1.686   8.777   7.080 -0.0036 -0.2460  0.4156
 1137SOL    HW1 9373   1.772   8.817   7.073 -0.3352  0.2922 -1.0494
 1137SOL    HW2 9374   1.626   8.844   7.045 -0.9177 -0.8915  0.7202
 1138SOL     OW 9375   1.986   2.225   7.583 -0.3778  0.1876 -0.0555
 1138SOL    HW1 9376   1.907   2.181   7.614 -0.7699  0.8411 -0.0959
 1138SOL    HW2 9377   2.058   2.181   7.628 -0.8184  0.0490  0.5286
 1139SOL     OW 9378   3.755   3.077   2.503  0.0947  0.1095  0.2480
 1139SOL    HW1 9379   3.752   3.067   2.407 -0.6578  1.3500  0.1078
 1139SOL    HW2 9380   3.836   3.035   2.529 -0.8511 -2.4942 -0.6260
 1140SOL     OW 9381   0.107   6.942   3.514  0.2851 -0.2815 -0.7942
 1140SOL    HW1 9382   0.062   6.942   3.599  0.9270 -1.7945 -0.4102
 1140SOL    HW2 9383   0.094   7.030   3.480  0.7401  0.6701  1.2797
 1141SOL     OW 9384   0.946   0.342   3.395  0.2783  0.2288  0.5408
 1141SOL    HW1 9385   0.931   0.369   3.485  0.3092  0.6701  0.4143
 1141SOL    HW2 9386   1.039   0.358   3.380  1.1497 -3.1081  1.5339
 1142SOL     OW 9387   6.106   4.983   4.767  0.2641 -0.3134 -0.4134
 1142SOL    HW1 9388   6.100   4.953   4.858  1.2405  0.0833 -0.2153
 1142SOL    HW2 9389   6.038   5.050   4.759 -0.2820 -0.8312 -0.1744
 1143SOL     OW 9390   8.630   8.857   0.150 -0.1416  0.1267  0.0078
 1143SOL    HW1 9391   8.658   8.825   0.236  0.7936  1.0321  0.0735
 1143SOL    HW2 9392   8.537   8.874   0.160 -0.0230  0.3287  0.8985
 1144SOL     OW 9393   3.346   6.766   0.516  0.1354  0.1801 -0.5117
 1144SOL    HW1 9394   3.389   6.680   0.521 -1.3080 -0.5084  2.1021
 1144SOL    HW2 9395   3.257   6.747   0.490 -0.1985  0.8673  0.0831
 1145SOL     OW 9396   8.796   1.872   1.100  0.2513 -0.2838  0.0098
 1145SOL    HW1 9397   8.710   1.912   1.088  0.3296  0.0006  0.4031
 1145SOL    HW2 9398   8.803   1.810   1.027  0.2544  0.6264 -0.7785
 1146SOL     OW 9399   6.050   5.260   0.424  1.5721 -0.0357 -0.1545
 1146SOL    HW1 9400   6.069   5.237   0.515  0.1560  0.9695  0.4448
 1146SOL    HW2 9401   6.134   5.254   0.379  2.0042 -2.3190  0.7955
 1147SOL     OW 9402   6.771   1.764   1.739 -0.3098 -0.2354 -0.3588
 1147SOL    HW1 9403   6.806   1.702   1.802  0.8323 -1.6165 -2.2587
 1147SOL    HW2 9404   6.835   1.835   1.736  0.4378 -0.9159 -1.0420
 1148SOL     OW 9405   6.053   8.731   0.236  0.1328  0.5967 -0.1192
 1148SOL    HW1 9406   6.004   8.768   0.163  0.5405  1.5194  0.0493
 1148SOL    HW2 9407   6.092   8.807   0.279 -0.5726  0.1283  1.4128
 1149SOL     OW 9408   0.662   3.070   6.875  0.2388 -0.1189  0.0229
 1149SOL    HW1 9409   0.608   3.004   6.831  0.3776  0.0465 -0.4001
 1149SOL    HW2 9410   0.601   3.114   6.934 -0.1666  0.2692 -0.6690
 1150SOL     OW 9411   9.355   2.663   2.259 -0.0589 -0.0911  0.1481
 1150SOL    HW1 9412   9.439   2.680   2.217 -0.4544  0.6152 -0.3803
 1150SOL    HW2 9413   9.347   2.731   2.326  0.3071 -0.8670  1.0161
 1151SOL     OW 9414   0.595   1.395   6.878  0.2736  0.0669  0.2087
 1151SOL    HW1 9415   0.667   1.370   6.821  0.1370 -2.1543  0.9318
 1151SOL    HW2 9416   0.531   1.436   6.820  1.4516  0.7141 -0.6775
 1152SOL     OW 9417   6.380   0.477   1.255  0.2923 -0.5631  0.1289
 1152SOL    HW1 9418   6.331   0.394   1.257  0.2805 -0.5751 -0.4140
 1152SOL    HW2 9419   6.420   0.478   1.168 -0.3899  0.4004 -0.1859
 1153SOL     OW 9420   1.190   5.092   3.406 -0.3558  0.5919  0.1365
 1153SOL    HW1 9421   1.120   5.027   3.410 -0.0366  0.2845  0.9072
 1153SOL    HW2 9422   1.148   5.175   3.429 -0.8102  0.7173 -1.0671
 1154SOL     OW 9423   0.215   5.990   8.202 -0.1021 -0.0894 -0.9553
 1154SOL    HW1 9424   0.167   6.040   8.268 -1.4556  0.0071 -1.9587
 1154SOL    HW2 9425   0.147   5.951   8.148  0.9497 -1.9984 -0.9748
 1155SOL     OW 9426   0.096   8.658   5.389  0.1191  0.2364  0.5726
 1155SOL    HW1 9427   0.029   8.642   5.322  1.8042 -4.0597 -0.3701
 1155SOL    HW2 9428   0.154   8.723   5.350 -1.6872  1.6905  0.1474
 1156SOL     OW 9429   8.311   7.801   1.871 -0.4631  0.2766  0.0261
 1156SOL    HW1 9430   8.403   7.823   1.887  0.4371 -1.8113 -1.8515
 1156SOL    HW2 9431   8.285   7.749   1.947 -0.6694  2.2087  1.3555
 1157SOL     OW 9432   8.332   0.508   5.265 -0.8043 -0.5145  0.4886
 1157SOL    HW1 9433   8.353   0.496   5.357 -0.1362  0.5774  0.4911
 1157SOL    HW2 9434   8.237   0.517   5.262 -0.8362 -0.6746  1.0529
 1158SOL     OW 9435   3.427   2.972   1.578  0.3366  0.1783  0.2880
 1158SOL    HW1 9436   3.353   2.912   1.585  0.2503  0.2388 -0.0973
 1158SOL    HW2 9437   3.399   3.049   1.627 -0.6671  0.9927 -1.4805
 1159SOL     OW 9438   0.691   2.243   6.461 -0.1292  0.4168  0.1451
 1159SOL    HW1 9439   0.739   2.196   6.529 -0.3337 -0.2121 -0.1436
 1159SOL    HW2 9440   0.669   2.177   6.396 -1.0648  0.7687  0.0882
 1160SOL     OW 9441   0.484   3.642   6.539 -0.7131 -0.4721 -0.2877
 1160SOL    HW1 9442   0.532   3.618   6.617 -0.8440 -1.0556 -0.3801
 1160SOL    HW2 9443   0.402   3.680   6.571 -0.3055  0.2874 -0.1354
 1161SOL     OW 9444   6.700   7.792   1.770 -0.3997 -0.7949  0.4203
 1161SOL    HW1 9445   6.653   7.866   1.808  0.8189  0.2608 -0.0398
 1161SOL    HW2 9446   6.755   7.832   1.702  0.3255 -2.1192  0.2038
 1162SOL     OW 9447   4.672   6.305   0.541  0.2098  0.4086  0.0218
 1162SOL    HW1 9448   4.734   6.232   0.546  0.0693  0.2938  0.0805
 1162SOL    HW2 9449   4.697   6.351   0.461  0.8927  0.8369  0.4681
 1163SOL     OW 9450   7.851   4.055   8.134 -0.4633  0.7424  0.1234
 1163SOL    HW1 9451   7.817   4.020   8.216  1.3184 -1.5985 -0.0416
 1163SOL    HW2 9452   7.792   4.020   8.067 -0.4792  0.6054  0.2090
 1164SOL     OW 9453   6.299   0.206   2.792 -0.4434  0.3877  0.8317
 1164SOL    HW1 9454   6.321   0.222   2.700 -0.6630 -1.1534  0.4811
 1164SOL    HW2 9455   6.231   0.270   2.811 -2.2263 -0.8889 -0.8724
 1165SOL     OW 9456   8.732   8.451   0.296  0.6212 -0.9477 -0.2300
 1165SOL    HW1 9457   8.692   8.537   0.308 -0.7673 -1.5424 -0.5304
 1165SOL    HW2 9458   8.775   8.456   0.211 -0.7503 -1.0419 -0.9351
 1166SOL     OW 9459   1.524   2.914   0.177 -0.0472  0.0907  0.1024
 1166SOL    HW1 9460   1.603   2.880   0.134 -0.9950 -1.3019 -0.5928
 1166SOL    HW2 9461   1.518   3.005   0.148 -0.4270 -0.6867 -2.4441
 1167SOL     OW 9462   0.688   5.109   4.636  0.4520  0.3181  0.1209
 1167SOL    HW1 9463   0.641   5.061   4.704 -0.4726 -0.0957 -0.7799
 1167SOL    HW2 9464   0.698   5.197   4.672 -0.7656  0.3338  0.4624
 1168SOL     OW 9465   0.477   5.414   4.308  0.3436  0.3721  0.0439
 1168SOL    HW1 9466   0.388   5.383   4.325  0.2037  0.8475  0.1763
 1168SOL    HW2 9467   0.502   5.461   4.388  0.8372 -0.0352  0.1379
 1169SOL     OW 9468   8.848   6.931   7.128  0.3644  0.3773  0.3979
 1169SOL    HW1 9469   8.857   6.922   7.223  0.1362 -0.7960  0.3198
 1169SOL    HW2 9470   8.755   6.913   7.111  0.7694 -1.2048 -0.2284
 1170SOL     OW 9471   7.623   4.371   1.556 -0.2070 -0.0392 -0.1623
 1170SOL    HW1 9472   7.574   4.289   1.550  1.1274 -0.8427 -0.5478
 1170SOL    HW2 9473   7.605   4.416   1.474  0.3420 -0.7166 -0.6655
 1171SOL     OW 9474   4.581   5.077   4.771  0.0974  0.1725  0.2853
 1171SOL    HW1 9475   4.608   5.016   4.839  2.2779 -0.0974 -0.7359
 1171SOL    HW2 9476   4.572   5.161   4.816  0.8737 -0.1272  1.0255
 1172SOL     OW 9477   1.576   0.527   7.579  0.0680  0.3655  0.1004
 1172SOL    HW1 9478   1.644   0.513   7.645  1.4357  2.1290 -0.8407
 1172SOL    HW2 9479   1.501   0.561   7.628 -0.1841 -1.5653  1.1455
 1173SOL     OW 9480   0.139   3.907   5.445 -0.4784  0.2704 -0.5763
 1173SOL    HW1 9481   0.148   4.001   5.463 -0.6901 -0.1547  2.1829
 1173SOL    HW2 9482   0.050   3.886   5.474 -0.7131 -0.6531 -1.9029
 1174SOL     OW 9483   7.412   5.361   0.027 -0.1302  0.4017 -0.1331
 1174SOL    HW1 9484   7.371   5.292  -0.025 -2.2253  0.4719  1.2746
 1174SOL    HW2 9485   7.502   5.332   0.040 -1.0107 -2.2700  0.6491
 1175SOL     OW 9486   4.504   5.562   6.933  0.3052 -0.2196 -0.2440
 1175SOL    HW1 9487   4.474   5.477   6.901 -0.2373 -0.3680  0.6382
 1175SOL    HW2 9488   4.515   5.614   6.854 -2.3422 -0.1398 -0.6549
 1176SOL     OW 9489   8.939   8.295   6.297  0.3060  0.5348  0.1694
 1176SOL    HW1 9490   8.961   8.216   6.346  0.2457  0.1397 -0.4228
 1176SOL    HW2 9491   8.886   8.263   6.224  0.6231  1.0718 -0.3050
 1177SOL     OW 9492   1.475   0.651   0.478 -0.5610  0.2273 -0.0751
 1177SOL    HW1 9493   1.479   0.740   0.510  2.0619  0.5261 -1.0387
 1177SOL    HW2 9494   1.534   0.649   0.403 -0.6366 -2.2857 -0.1685
 1178SOL     OW 9495   9.222   5.608   2.134  0.1375  0.0982  0.3864
 1178SOL    HW1 9496   9.159   5.615   2.206 -0.4703  1.7644 -0.2471
 1178SOL    HW2 9497   9.248   5.698   2.116  0.8086 -0.3410 -1.0256
 1179SOL     OW 9498   2.042   1.529   8.927  0.5019 -0.2012  0.3480
 1179SOL    HW1 9499   2.025   1.585   8.851  2.0739 -1.1279 -0.7402
 1179SOL    HW2 9500   2.075   1.589   8.994 -1.7724  0.7747  0.7045
 1180SOL     OW 9501   3.899   0.595   1.027 -0.5402  0.2990  0.0829
 1180SOL    HW1 9502   3.988   0.568   1.049 -1.1644 -2.0527 -0.0523
 1180SOL    HW2 9503   3.884   0.559   0.940 -2.3209 -1.2367  0.9505
 1181SOL     OW 9504   0.119   8.418   5.506  0.1895 -0.7945 -0.4064
 1181SOL    HW1 9505   0.102   8.502   5.463 -1.2304 -0.2643  1.0760
 1181SOL    HW2 9506   0.120   8.439   5.599  1.4881 -2.1788 -0.0737
 1182SOL     OW 9507   3.318   1.698   5.826  0.3359 -0.6426  0.5162
 1182SOL    HW1 9508   3.305   1.786   5.791 -1.1978 -1.4048 -0.9748
 1182SOL    HW2 9509   3.290   1.704   5.917  1.7235  0.7465  0.8880
 1183SOL     OW 9510   6.446   3.990   2.358  0.2157 -0.6663  0.6325
 1183SOL    HW1 9511   6.528   4.007   2.406  0.6292 -0.4124 -0.1355
 1183SOL    HW2 9512   6.399   4.073   2.363  0.8603 -0.2092 -0.5146
 1184SOL     OW 9513   1.801   6.104   3.504 -0.0419  0.3707  0.1530
 1184SOL    HW1 9514   1.782   6.069   3.416  0.4324  0.1262  0.1502
 1184SOL    HW2 9515   1.788   6.198   3.494  0.3120  0.3789 -0.2597
 1185SOL     OW 9516   1.997   5.606   0.914  0.4831  0.1951  0.0159
 1185SOL    HW1 9517   1.936   5.671   0.879  0.6232  0.0566 -0.4998
 1185SOL    HW2 9518   2.016   5.549   0.839  0.5999 -0.2556  0.3843
 1186SOL     OW 9519   6.865   4.485   5.101  0.5092 -0.0665  0.0681
 1186SOL    HW1 9520   6.884   4.529   5.184 -1.1242 -0.1610  0.5199
 1186SOL    HW2 9521   6.780   4.520   5.074 -0.0860 -1.7634 -0.3678
 1187SOL     OW 9522   2.194   2.446   1.367  0.2323 -0.0473  0.2024
 1187SOL    HW1 9523   2.242   2.501   1.429 -0.7369  0.5899  0.4048
 1187SOL    HW2 9524   2.207   2.357   1.400  0.8841  0.1578  0.5125
 1188SOL     OW 9525   4.295   1.172   5.630 -0.4738  0.1642  0.0375
 1188SOL    HW1 9526   4.258   1.216   5.554  1.2205  1.9993  0.1887
 1188SOL    HW2 9527   4.268   1.080   5.621 -0.7306  0.4312 -2.4872
 1189SOL     OW 9528   3.437   8.894   4.842  0.4165  0.0194  0.1558
 1189SOL    HW1 9529   3.445   8.798   4.837 -0.3472 -0.2257  2.5302
 1189SOL    HW2 9530   3.527   8.925   4.846  0.6631 -0.7343  0.8682
 1190SOL     OW 9531   7.296   5.124   9.303  0.1975 -0.3496  0.3003
 1190SOL    HW1 9532   7.215   5.074   9.306  0.9353 -1.5560  1.6934
 1190SOL    HW2 9533   7.358   5.073   9.356  1.4940  1.1835  0.3601
 1191SOL     OW 9534   3.942   5.637   0.399 -0.1245  0.3471 -0.8470
 1191SOL    HW1 9535   3.895   5.586   0.465 -0.3631 -0.4136 -1.5856
 1191SOL    HW2 9536   3.978   5.711   0.447  0.5265 -0.6853  0.3399
 1192SOL     OW 9537   6.722   0.391   7.197  0.0703 -0.0744  0.6528
 1192SOL    HW1 9538   6.764   0.461   7.147 -0.4266 -0.2091  0.0355
 1192SOL    HW2 9539   6.793   0.354   7.250  0.8111 -0.5208 -0.6117
 1193SOL     OW 9540   6.524   6.402   0.836 -0.3399  0.4085  0.4572
 1193SOL    HW1 9541   6.518   6.497   0.832  0.6660  0.4336 -1.0274
 1193SOL    HW2 9542   6.610   6.385   0.875  0.1515  0.1398 -0.6955
 1194SOL     OW 9543   3.408   4.373   5.019  0.2151  0.1332 -0.5782
 1194SOL    HW1 9544   3.415   4.279   5.003  3.1684  0.3298 -0.9646
 1194SOL    HW2 9545   3.455   4.413   4.946 -1.2949  1.9672 -0.6017
 1195SOL     OW 9546   4.982   1.841   2.280  0.5433 -0.3938  0.3380
 1195SOL    HW1 9547   5.024   1.754   2.277  1.7444  0.1404  0.9248
 1195SOL    HW2 9548   5.007   1.882   2.198 -3.0558 -1.8573 -1.7468
 1196SOL     OW 9549   0.315   0.011   1.481 -0.1575 -0.0250  0.0168
 1196SOL    HW1 9550   0.306  -0.080   1.510 -1.8528 -0.2810 -1.1534
 1196SOL    HW2 9551   0.356   0.005   1.395 -2.8175  0.0071 -1.3708
 1197SOL     OW 9552   7.847   5.026   6.154 -0.1296  0.5661  0.1037
 1197SOL    HW1 9553   7.853   5.120   6.138 -1.6507  0.9300  1.4189
 1197SOL    HW2 9554   7.891   4.986   6.079  0.6917  2.3121 -0.4035
 1198SOL     OW 9555   6.350   1.113   1.744 -0.0607 -0.4342  0.1760
 1198SOL    HW1 9556   6.275   1.058   1.723  0.2547 -0.2166 -1.7485
 1198SOL    HW2 9557   6.420   1.051   1.763 -0.5833 -0.6417  1.4823
 1199SOL     OW 9558   8.193   7.198   2.890 -0.3833  0.0601 -0.2182
 1199SOL    HW1 9559   8.234   7.113   2.874  1.3439  0.2893  2.3667
 1199SOL    HW2 9560   8.124   7.205   2.824 -0.5492 -3.2991 -0.5397
 1200SOL     OW 9561   7.815   3.915   5.986  0.0356 -0.9056  0.2012
 1200SOL    HW1 9562   7.750   3.962   5.933 -0.4613 -1.6345  0.1452
 1200SOL    HW2 9563   7.765   3.845   6.028  0.4596 -0.4272  1.5326
 1201SOL     OW 9564   6.310   9.001   2.260 -0.5961 -0.5208 -0.3108
 1201SOL    HW1 9565   6.267   9.060   2.321 -1.0510  0.6122 -1.6635
 1201SOL    HW2 9566   6.403   9.010   2.279 -0.7506 -0.4442  0.4249
 1202SOL     OW 9567   6.294   3.234   5.122  0.2026 -0.5776  0.0946
 1202SOL    HW1 9568   6.203   3.223   5.147 -0.3669  0.0907 -1.5171
 1202SOL    HW2 9569   6.319   3.150   5.084 -0.1781 -0.3580 -0.6672
 1203SOL     OW 9570   3.005   8.254   7.064  0.1825 -0.2534  0.6087
 1203SOL    HW1 9571   3.097   8.247   7.091  0.4917 -2.0892 -0.6853
 1203SOL    HW2 9572   2.966   8.314   7.127  2.4720  1.3436  0.6228
 1204SOL     OW 9573   6.200   6.547   1.026 -0.3827  0.6381 -0.2443
 1204SOL    HW1 9574   6.223   6.611   0.959 -2.7698  0.0482 -1.7430
 1204SOL    HW2 9575   6.221   6.591   1.109  1.2582  1.9548 -1.2785
 1205SOL     OW 9576   2.817   1.605   2.537 -0.5183 -0.5300  0.1402
 1205SOL    HW1 9577   2.757   1.679   2.536 -2.3117 -1.9022 -1.2431
 1205SOL    HW2 9578   2.825   1.580   2.445  0.9606 -1.3568  0.4646
 1206SOL     OW 9579   0.627   5.076   1.198 -0.0989  0.0617  0.1890
 1206SOL    HW1 9580   0.551   5.060   1.255 -0.2414  0.8595  0.2394
 1206SOL    HW2 9581   0.619   5.011   1.129  0.6891 -1.6941  1.6578
 1207SOL     OW 9582   6.028   6.412   8.397  0.1408  0.4676  0.2559
 1207SOL    HW1 9583   6.111   6.419   8.445  0.3560  2.5927 -0.3427
 1207SOL    HW2 9584   5.961   6.421   8.465  0.4298  1.3062  0.4396
 1208SOL     OW 9585   2.332   0.146   4.964 -0.4337 -0.1995 -0.3198
 1208SOL    HW1 9586   2.254   0.141   4.909 -0.4249  0.1519 -0.3695
 1208SOL    HW2 9587   2.396   0.092   4.919  0.1574  1.5123 -1.6504
 1209SOL     OW 9588   1.527   6.246   6.291 -0.1583 -0.0976 -0.3497
 1209SOL    HW1 9589   1.440   6.233   6.327  0.7767 -3.4924  1.0398
 1209SOL    HW2 9590   1.526   6.201   6.207  0.6302 -1.6387  0.4191
 1210SOL     OW 9591   2.428   7.242   1.046 -0.6739  1.1445 -0.1767
 1210SOL    HW1 9592   2.346   7.202   1.015 -0.6616  1.2268 -0.3160
 1210SOL    HW2 9593   2.450   7.192   1.125 -0.3648  0.5115 -0.6576
 1211SOL     OW 9594   2.783   5.121   2.365 -0.1799 -0.3313 -0.0088
 1211SOL    HW1 9595   2.695   5.085   2.351 -0.2875  0.0292 -0.2842
 1211SOL    HW2 9596   2.842   5.060   2.321 -0.3207 -0.4021 -0.1002
 1212SOL     OW 9597   7.726   0.475   2.260 -0.2503  0.1141 -0.1661
 1212SOL    HW1 9598   7.683   0.486   2.345 -1.1550  0.0272 -0.6022
 1212SOL    HW2 9599   7.693   0.391   2.227 -0.3425  0.4128 -0.8512
 1213SOL     OW 9600   3.023   0.067   2.052 -0.3671  0.3064 -0.2716
 1213SOL    HW1 9601   2.992   0.101   1.968  0.3156 -0.5514 -0.8871
 1213SOL    HW2 9602   3.078  -0.008   2.029  0.1300  0.2831  0.9251
 1214SOL     OW 9603   9.084   6.252   6.975 -0.0629 -0.1770 -0.0323
 1214SOL    HW1 9604   8.993   6.241   6.946 -0.9906 -1.0387  2.8907
 1214SOL    HW2 9605   9.133   6.188   6.924 -1.3467 -0.7743 -0.5700
 1215SOL     OW 9606   3.450   7.101   0.374 -0.1104  0.0390  0.3545
 1215SOL    HW1 9607   3.418   7.011   0.364 -2.7542  0.9257  0.1666
 1215SOL    HW2 9608   3.415   7.130   0.458 -0.2354  1.2339 -0.0860
 1216SOL     OW 9609   6.504   4.979   7.785  0.1273  0.2921 -0.2419
 1216SOL    HW1 9610   6.459   4.914   7.731 -0.3760  0.0506  0.4397
 1216SOL    HW2 9611   6.561   4.927   7.842 -1.3478  0.2923  1.3106
 1217SOL     OW 9612   9.297   0.945   2.494  0.5259 -0.6823 -0.3923
 1217SOL    HW1 9613   9.213   0.916   2.531 -0.6445  0.8437 -1.6887
 1217SOL    HW2 9614   9.273   0.991   2.414  2.5557  0.4662 -0.4134
 1218SOL     OW 9615   2.690   8.625   0.855 -0.0460  1.1838  0.5143
 1218SOL    HW1 9616   2.675   8.609   0.948 -1.6408  0.7261  0.2099
 1218SOL    HW2 9617   2.670   8.718   0.844 -0.3100  1.1319  0.5474
 1219SOL     OW 9618   0.820   1.752   0.660  0.0872  0.0292 -0.5836
 1219SOL    HW1 9619   0.886   1.708   0.713  0.9590  0.1318 -1.5611
 1219SOL    HW2 9620   0.739   1.703   0.676  0.3212  0.0593  0.8229
 1220SOL     OW 9621   8.677   3.161   4.839 -0.0424 -0.3231  0.0920
 1220SOL    HW1 9622   8.742   3.092   4.825  1.1287  0.5541  0.9603
 1220SOL    HW2 9623   8.710   3.235   4.787 -0.0516  0.2910  0.9313
 1221SOL     OW 9624   9.315   3.961   0.518  0.7601 -0.0688 -0.3567
 1221SOL    HW1 9625   9.222   3.956   0.497  0.8665  0.1229 -0.8987
 1221SOL    HW2 9626   9.323   3.920   0.605  0.1684 -0.0412 -0.2854
 1222SOL     OW 9627   1.413   6.072   0.342  0.5163 -0.2887  0.0839
 1222SOL    HW1 9628   1.489   6.076   0.399  0.4479  1.7942  0.1005
 1222SOL    HW2 9629   1.366   5.994   0.370  1.6119 -0.5081  1.4062
 1223SOL     OW 9630   4.890   5.284   4.006 -0.2756 -0.1011 -0.3024
 1223SOL    HW1 9631   4.883   5.348   3.935  0.3341  0.3077 -0.0105
 1223SOL    HW2 9632   4.802   5.251   4.019 -0.8336  1.5003  0.2822
 1224SOL     OW 9633   0.437   3.492   7.684  0.0965 -0.0286 -0.0141
 1224SOL    HW1 9634   0.499   3.565   7.693  0.2252 -0.0906 -0.3673
 1224SOL    HW2 9635   0.389   3.511   7.603 -1.7017  1.0250  1.2254
 1225SOL     OW 9636   0.409   8.811   0.948  0.7092 -0.0837  0.3512
 1225SOL    HW1 9637   0.455   8.782   1.027  0.0429 -0.3301  0.6531
 1225SOL    HW2 9638   0.462   8.778   0.876  0.3154 -1.5100  0.6897
 1226SOL     OW 9639   6.479   8.722   6.745  0.5202 -0.1584 -0.7708
 1226SOL    HW1 9640   6.434   8.643   6.772 -0.8774  0.9642  0.3479
 1226SOL    HW2 9641   6.544   8.738   6.814  0.4023 -0.0050 -0.6961
 1227SOL     OW 9642   0.759   2.500   0.082  0.4018 -0.3925  0.4464
 1227SOL    HW1 9643   0.725   2.548   0.157  0.8144  0.6375 -0.0054
 1227SOL    HW2 9644   0.788   2.568   0.021 -0.7781 -1.1661 -1.0487
 1228SOL     OW 9645   3.177   2.423   6.126 -0.1956 -0.1752 -0.1101
 1228SOL    HW1 9646   3.083   2.437   6.136 -0.3441  1.6013 -2.8236
 1228SOL    HW2 9647   3.186   2.390   6.036  1.7866 -0.0260  0.0035
 1229SOL     OW 9648   3.832   1.198   6.427  0.7225  0.2601 -0.1657
 1229SOL    HW1 9649   3.854   1.278   6.476 -1.6165 -0.1383  1.7087
 1229SOL    HW2 9650   3.748   1.218   6.385 -0.9025 -1.7599  1.9149
 1230SOL     OW 9651   4.778   5.305   2.782  0.3930 -0.2641 -0.1381
 1230SOL    HW1 9652   4.871   5.286   2.796  0.2008  0.0182  1.8029
 1230SOL    HW2 9653   4.756   5.369   2.849 -0.7677  1.1735 -1.7948
 1231SOL     OW 9654   7.275   2.954   3.271  0.0761  0.2222  0.5435
 1231SOL    HW1 9655   7.190   2.990   3.298  0.1402  0.8952 -0.1279
 1231SOL    HW2 9656   7.325   2.948   3.353 -0.6604 -0.3124  0.9640
 1232SOL     OW 9657   8.220   8.952   6.683 -0.3264  0.5182  0.5086
 1232SOL    HW1 9658   8.149   8.919   6.628 -1.3652  0.4487  1.8272
 1232SOL    HW2 9659   8.189   9.038   6.713  0.9932  1.3493 -0.4069
 1233SOL     OW 9660   8.859   1.935   3.938 -0.5925 -0.9248  0.0276
 1233SOL    HW1 9661   8.765   1.921   3.953 -0.1599 -1.2649  2.9198
 1233SOL    HW2 9662   8.902   1.870   3.992  1.3470 -0.0228 -0.3560
 1234SOL     OW 9663   5.472   5.839   0.664 -0.2701 -0.0310 -0.2878
 1234SOL    HW1 9664   5.394   5.891   0.684  0.1984  1.0759 -1.2588
 1234SOL    HW2 9665   5.544   5.886   0.706  0.2835  0.6534 -1.9010
 1235SOL     OW 9666   9.113   4.531   2.113 -0.0527  0.0584  0.7415
 1235SOL    HW1 9667   9.034   4.505   2.066 -0.6338  2.1545  0.4938
 1235SOL    HW2 9668   9.184   4.512   2.051 -0.3224 -1.6536  0.8950
 1236SOL     OW 9669   0.027   6.686   3.687 -0.6690  0.3553  0.5790
 1236SOL    HW1 9670   0.120   6.687   3.711 -0.3037  0.7707 -0.7514
 1236SOL    HW2 9671   0.008   6.777   3.662 -1.3652  0.2240  0.6244
 1237SOL     OW 9672   2.115   3.538   8.380  0.0450 -0.3179 -0.2316
 1237SOL    HW1 9673   2.067   3.456   8.388  0.3295 -0.4778 -0.1541
 1237SOL    HW2 9674   2.177   3.537   8.453 -0.1193  0.0792 -0.0853
 1238SOL     OW 9675   8.985   3.978   5.273  0.1964  0.4581 -0.1828
 1238SOL    HW1 9676   8.936   3.944   5.348 -0.5283  0.3348 -0.6998
 1238SOL    HW2 9677   9.027   4.058   5.306  1.5892 -0.6952  0.9223
 1239SOL     OW 9678   8.009   4.117   6.723  0.1772 -0.2527 -0.2007
 1239SOL    HW1 9679   8.092   4.120   6.771  0.2707 -0.1822 -0.3638
 1239SOL    HW2 9680   7.944   4.147   6.786 -0.0538 -2.2694  0.6044
 1240SOL     OW 9681   7.452   2.664   0.922 -0.5508 -0.0487  0.9051
 1240SOL    HW1 9682   7.374   2.716   0.939  0.2222  1.4131  0.1965
 1240SOL    HW2 9683   7.509   2.723   0.872  0.6479 -1.3646  0.6703
 1241SOL     OW 9684   0.041   0.147   7.958  0.0716 -0.1741  0.6579
 1241SOL    HW1 9685   0.066   0.058   7.933  2.8112  0.5158  0.5576
 1241SOL    HW2 9686  -0.027   0.172   7.895  0.3357 -1.6817 -0.2695
 1242SOL     OW 9687   8.238   4.807   4.049  0.1135 -0.4441 -0.3815
 1242SOL    HW1 9688   8.321   4.790   4.003 -0.3121  0.0501 -1.3513
 1242SOL    HW2 9689   8.243   4.751   4.127  1.4293 -0.2963 -0.3349
 1243SOL     OW 9690   1.767   5.603   5.210  0.8498  0.2687  0.0476
 1243SOL    HW1 9691   1.860   5.616   5.191  0.7180  0.6428 -0.3649
 1243SOL    HW2 9692   1.733   5.555   5.135  0.2952  1.8713 -0.7871
 1244SOL     OW 9693   1.772   3.740   4.708 -0.3148 -0.0981  0.2407
 1244SOL    HW1 9694   1.774   3.686   4.630  0.2947 -1.3241  1.0666
 1244SOL    HW2 9695   1.680   3.756   4.724 -0.5813 -1.6523  0.4492
 1245SOL     OW 9696   5.817   5.378   0.001 -0.1999 -0.1628 -0.2512
 1245SOL    HW1 9697   5.726   5.368   0.027  0.6714 -2.0501  2.4991
 1245SOL    HW2 9698   5.824   5.470  -0.026 -3.1577 -0.3238 -1.9806
 1246SOL     OW 9699   0.556   5.481   0.435  0.7878 -0.1476 -0.5468
 1246SOL    HW1 9700   0.512   5.467   0.351 -1.2398  0.2154  0.4071
 1246SOL    HW2 9701   0.560   5.394   0.475 -1.5373  0.1468  0.4833
 1247SOL     OW 9702   8.039   6.421   5.168  0.0067  0.4708 -0.5734
 1247SOL    HW1 9703   8.122   6.382   5.142  0.6983  0.4476  1.4704
 1247SOL    HW2 9704   7.973   6.370   5.123  1.0707  0.0993 -1.7622
 1248SOL     OW 9705   8.583   3.133   3.711 -0.2209 -0.3812  0.8156
 1248SOL    HW1 9706   8.562   3.133   3.805  2.3709  0.3141  1.4926
 1248SOL    HW2 9707   8.673   3.165   3.708  0.1142 -1.4016 -1.8686
 1249SOL     OW 9708   1.383   2.904   6.632  0.5305 -0.1467  0.8353
 1249SOL    HW1 9709   1.364   2.875   6.722 -1.4779  1.1142  0.8895
 1249SOL    HW2 9710   1.299   2.895   6.587  1.1285  0.7558 -0.4836
 1250SOL     OW 9711   4.411   3.249   0.882  0.1825 -0.0967  0.1152
 1250SOL    HW1 9712   4.351   3.295   0.823 -0.8150 -1.2415  0.1764
 1250SOL    HW2 9713   4.411   3.302   0.962  0.9160  1.0360 -0.6164
 1251SOL     OW 9714   9.244   8.633   5.803  0.0640 -0.3807  0.3559
 1251SOL    HW1 9715   9.156   8.630   5.840 -0.0574  0.8297  0.2285
 1251SOL    HW2 9716   9.249   8.719   5.760  1.8625  0.3400  1.8396
 1252SOL     OW 9717   3.886   5.385   0.603  0.0722 -0.2424  0.0848
 1252SOL    HW1 9718   3.807   5.332   0.606 -0.4486  0.3686 -1.7332
 1252SOL    HW2 9719   3.943   5.341   0.541  0.1829  0.5877 -0.4191
 1253SOL     OW 9720   6.963   8.380   3.094  0.7458  0.2707  0.3280
 1253SOL    HW1 9721   6.950   8.464   3.139  1.0918  0.9927 -0.8705
 1253SOL    HW2 9722   6.989   8.320   3.163 -0.8818  0.7867  1.4490
 1254SOL     OW 9723   7.182   4.802   3.594  0.2909 -0.5521 -0.7377
 1254SOL    HW1 9724   7.091   4.821   3.617  1.4139  1.4236  3.0049
 1254SOL    HW2 9725   7.184   4.708   3.577 -1.9923 -1.3884  2.5974
 1255SOL     OW 9726   0.450   8.414   7.679  0.1152  0.0657  0.3817
 1255SOL    HW1 9727   0.449   8.438   7.772  0.4970 -3.9327  1.5818
 1255SOL    HW2 9728   0.405   8.330   7.675  3.1293 -1.6559 -2.4274
 1256SOL     OW 9729   6.743   7.557   8.316 -0.2838  0.0127 -0.1348
 1256SOL    HW1 9730   6.649   7.539   8.326 -0.5412  1.1760 -0.3125
 1256SOL    HW2 9731   6.774   7.489   8.256 -0.4767 -1.9103  1.8237
 1257SOL     OW 9732   1.679   3.425   6.675  0.0716 -0.2323  0.2392
 1257SOL    HW1 9733   1.592   3.443   6.640  0.0191 -0.1170  0.4295
 1257SOL    HW2 9734   1.665   3.357   6.741 -0.0544  0.6938  1.1851
 1258SOL     OW 9735   8.057   8.423   6.006 -0.0964 -0.0055 -0.2330
 1258SOL    HW1 9736   8.084   8.343   6.051 -1.9327  0.5424  2.0064
 1258SOL    HW2 9737   8.027   8.393   5.920  1.4912 -1.3642 -0.3740
 1259SOL     OW 9738   6.043   6.427   8.675 -0.0075 -0.0640  0.1408
 1259SOL    HW1 9739   6.035   6.357   8.740  3.0056 -0.3456  0.3523
 1259SOL    HW2 9740   6.046   6.507   8.726  0.5208 -0.1427  0.2451
 1260SOL     OW 9741   8.722   0.199   6.547  0.0900 -0.1310 -0.1745
 1260SOL    HW1 9742   8.659   0.256   6.502 -1.4686 -2.0121 -0.4815
 1260SOL    HW2 9743   8.790   0.259   6.577 -1.0019  1.7722 -1.2750
 1261SOL     OW 9744   4.762   7.248   5.677 -0.1631  0.0749  0.0339
 1261SOL    HW1 9745   4.677   7.286   5.656 -0.3709 -0.0778  0.5729
 1261SOL    HW2 9746   4.748   7.205   5.762  0.9186  1.6741  1.0807
 1262SOL     OW 9747   3.187   7.539   4.808 -0.1403  0.4316  0.0792
 1262SOL    HW1 9748   3.121   7.608   4.803 -0.2349  0.3458  0.1534
 1262SOL    HW2 9749   3.142   7.461   4.778 -0.7954 -0.1626  2.4215
 1263SOL     OW 9750   4.492   9.125   3.662  0.0785 -0.1155 -0.2079
 1263SOL    HW1 9751   4.559   9.184   3.627 -1.2711  1.1747 -0.7205
 1263SOL    HW2 9752   4.537   9.075   3.731  1.4134  1.0986 -0.1641
 1264SOL     OW 9753   5.480   1.123   7.960  0.1174 -0.0964 -0.3361
 1264SOL    HW1 9754   5.472   1.115   8.055 -1.8656 -1.1852 -0.5399
 1264SOL    HW2 9755   5.508   1.036   7.930  1.3041  0.3933 -0.7372
 1265SOL     OW 9756   4.891   1.986   5.421  0.5794  0.0529  0.0981
 1265SOL    HW1 9757   4.841   2.040   5.361 -0.6503  1.3697  2.1725
 1265SOL    HW2 9758   4.971   2.036   5.437  0.3325  0.3230  0.5071
 1266SOL     OW 9759   9.183   1.800   5.614 -0.0537 -0.6605  0.0242
 1266SOL    HW1 9760   9.142   1.880   5.646 -0.4746 -0.4266 -1.0779
 1266SOL    HW2 9761   9.181   1.741   5.689  1.2638  0.7059  1.2035
 1267SOL     OW 9762   2.110   0.269   5.914 -0.2735  0.3906  0.0931
 1267SOL    HW1 9763   2.022   0.245   5.944 -0.3262 -0.7878 -0.9061
 1267SOL    HW2 9764   2.166   0.202   5.953  0.1840  1.1025  0.6722
 1268SOL     OW 9765   7.058   6.721   3.751  0.3530 -0.4366 -0.4066
 1268SOL    HW1 9766   7.037   6.790   3.688  1.2682  1.8443  1.6267
 1268SOL    HW2 9767   7.149   6.737   3.776  0.5017 -2.2035  0.3881
 1269SOL     OW 9768   6.101   0.561   5.543  0.0713  0.6192 -0.5971
 1269SOL    HW1 9769   6.133   0.623   5.609  4.0655 -1.2752 -0.4838
 1269SOL    HW2 9770   6.140   0.590   5.461 -0.9376  0.2024 -1.2504
 1270SOL     OW 9771   8.570   3.657   3.771 -0.7103  0.0047  0.5583
 1270SOL    HW1 9772   8.663   3.679   3.771 -0.6779 -0.1343  0.7720
 1270SOL    HW2 9773   8.526   3.737   3.741 -0.5769  0.3054  1.1537
 1271SOL     OW 9774   8.704   6.716   6.823 -0.3288 -0.4998 -0.1777
 1271SOL    HW1 9775   8.625   6.664   6.805 -1.0887 -1.0194  3.7996
 1271SOL    HW2 9776   8.777   6.657   6.804 -1.0878 -1.7540  0.6420
 1272SOL     OW 9777   2.952   7.217   1.408 -0.2010 -0.2114  0.2478
 1272SOL    HW1 9778   2.962   7.276   1.483  0.3615  1.7230 -1.2540
 1272SOL    HW2 9779   2.962   7.130   1.445  2.5474  0.7366  2.1005
 1273SOL     OW 9780   5.455   2.667   1.279 -0.2050  0.2640  0.6290
 1273SOL    HW1 9781   5.483   2.758   1.288  2.4884 -0.4420  0.2934
 1273SOL    HW2 9782   5.457   2.632   1.368  0.4261  0.0931  0.5468
 1274SOL     OW 9783   1.166   1.078   2.041  0.3745  0.3229  0.0602
 1274SOL    HW1 9784   1.072   1.062   2.038  0.3195  0.5834  0.3502
 1274SOL    HW2 9785   1.177   1.145   2.109  0.8735 -0.4716  0.7778
 1275SOL     OW 9786   3.139   3.693   8.329 -0.0026 -0.1381  0.2678
 1275SOL    HW1 9787   3.061   3.693   8.272  0.2559 -1.3130 -0.1155
 1275SOL    HW2 9788   3.113   3.641   8.405 -0.2327  1.1450  1.0805
 1276SOL     OW 9789   5.603   8.668   0.249  0.6297  0.0437 -0.6699
 1276SOL    HW1 9790   5.581   8.577   0.231 -0.3752  0.1861 -0.2415
 1276SOL    HW2 9791   5.657   8.665   0.328  2.0602 -0.3015 -1.6414
 1277SOL     OW 9792   5.985   3.346   4.878 -0.3753 -0.2821 -0.0583
 1277SOL    HW1 9793   5.891   3.355   4.893 -0.4237 -0.5462 -0.1911
 1277SOL    HW2 9794   6.002   3.252   4.889 -0.7433 -0.8464 -3.4821
 1278SOL     OW 9795   7.502   0.777   0.377  0.4545  0.6455 -0.6101
 1278SOL    HW1 9796   7.591   0.765   0.342  0.7488  1.6009 -0.2115
 1278SOL    HW2 9797   7.510   0.850   0.439 -0.5475  0.5287 -0.3276
 1279SOL     OW 9798   0.063   1.654   1.960  0.5912  0.4531 -0.2335
 1279SOL    HW1 9799   0.014   1.702   1.894  0.6284  2.0657  0.8690
 1279SOL    HW2 9800   0.151   1.693   1.957  0.5623  0.6040  0.8271
 1280SOL     OW 9801   6.102   0.375   3.566 -0.2564 -0.3900 -0.2050
 1280SOL    HW1 9802   6.153   0.340   3.494  1.1717  0.8417  0.1590
 1280SOL    HW2 9803   6.082   0.465   3.540  1.1133  0.4083  1.2841
 1281SOL     OW 9804   1.129   4.271   7.944  0.2642 -0.1663  0.4505
 1281SOL    HW1 9805   1.109   4.365   7.949  1.6141  0.2236 -0.8039
 1281SOL    HW2 9806   1.178   4.253   8.024 -0.2723  0.1127  0.8499
 1282SOL     OW 9807   7.330   0.387   1.264  0.1072  0.5768 -0.4409
 1282SOL    HW1 9808   7.319   0.320   1.196 -0.2453  1.6160 -1.4489
 1282SOL    HW2 9809   7.414   0.367   1.304 -0.2530 -0.8094 -0.3111
 1283SOL     OW 9810   3.250   5.557   6.976 -0.1839  0.3116  0.2532
 1283SOL    HW1 9811   3.247   5.652   6.987  0.7794  0.7089 -2.1647
 1283SOL    HW2 9812   3.165   5.526   7.005 -0.5832  1.9334  0.9235
 1284SOL     OW 9813   5.739   6.610   7.042 -0.0532  0.4656  0.1575
 1284SOL    HW1 9814   5.810   6.660   7.003  0.1507 -0.8968 -1.2951
 1284SOL    HW2 9815   5.676   6.597   6.970 -1.6840  1.4168  1.3311
 1285SOL     OW 9816   8.619   8.299   0.684 -0.0826 -0.6272 -0.0788
 1285SOL    HW1 9817   8.709   8.266   0.692 -0.4936 -1.9232 -0.6306
 1285SOL    HW2 9818   8.621   8.355   0.606  0.0429 -1.3894 -0.6293
 1286SOL     OW 9819   2.229   5.735   7.574 -0.0759 -0.7610  0.0623
 1286SOL    HW1 9820   2.325   5.738   7.575  0.0218 -1.8384 -1.6849
 1286SOL    HW2 9821   2.204   5.731   7.666  1.6549 -2.1686  0.5337
 1287SOL     OW 9822   3.394   4.248   5.937  0.2782 -0.2596 -0.1456
 1287SOL    HW1 9823   3.415   4.323   5.881  0.6889  0.0062  0.3584
 1287SOL    HW2 9824   3.304   4.265   5.967 -0.2283 -0.7776 -1.3078
 1288SOL     OW 9825   7.855   1.469   2.998 -0.4975  0.6890  0.0303
 1288SOL    HW1 9826   7.764   1.496   2.996 -0.4002  1.1905  1.3826
 1288SOL    HW2 9827   7.878   1.465   3.091  0.8356  0.4871 -0.2732
 1289SOL     OW 9828   2.409   6.614   8.835  0.6480  0.1082  0.8984
 1289SOL    HW1 9829   2.321   6.592   8.806 -0.6148  2.5941  2.5834
 1289SOL    HW2 9830   2.433   6.691   8.783  1.7893 -0.3996  0.6196
 1290SOL     OW 9831   2.254   2.208   5.896  0.0971  0.0044 -0.1882
 1290SOL    HW1 9832   2.323   2.192   5.961  0.4691  1.1667 -0.2839
 1290SOL    HW2 9833   2.278   2.291   5.855  0.3712 -1.1026 -2.4487
 1291SOL     OW 9834   5.294   6.556   2.081  0.0464  0.0070  0.4387
 1291SOL    HW1 9835   5.262   6.619   2.145 -0.2515 -0.4537  0.7499
 1291SOL    HW2 9836   5.380   6.530   2.113 -0.2750 -0.5324  0.8831
 1292SOL     OW 9837   0.716   6.090   6.045  0.0441  0.5363 -0.1245
 1292SOL    HW1 9838   0.707   6.167   6.101 -0.0151  0.9208 -0.6625
 1292SOL    HW2 9839   0.629   6.077   6.007 -0.5272 -1.0696  1.6000
 1293SOL     OW 9840   6.376   7.103   3.864 -0.0915  0.3458  0.6226
 1293SOL    HW1 9841   6.381   7.010   3.886  1.2300  0.3217  0.3181
 1293SOL    HW2 9842   6.442   7.115   3.796  0.1103  1.5992  1.0085
 1294SOL     OW 9843   7.327   0.334   3.638  0.3646 -0.0329  0.0264
 1294SOL    HW1 9844   7.359   0.246   3.619  0.7362  0.2108 -0.5088
 1294SOL    HW2 9845   7.290   0.328   3.726  2.1620 -0.2666  0.8126
 1295SOL     OW 9846   0.947   6.959   4.361  0.2836  0.4456 -0.0232
 1295SOL    HW1 9847   0.895   6.880   4.371  1.6822 -0.4806  0.2841
 1295SOL    HW2 9848   1.020   6.933   4.305  1.1021  1.3320  0.5932
 1296SOL     OW 9849   0.389   5.599   8.389 -0.8770  0.0366 -0.1285
 1296SOL    HW1 9850   0.407   5.639   8.304 -1.8367 -1.5848 -1.1546
 1296SOL    HW2 9851   0.471   5.556   8.413 -0.6390  0.3940 -0.2927
 1297SOL     OW 9852   2.018   7.589   2.124  0.4950  0.6045  0.1781
 1297SOL    HW1 9853   2.063   7.574   2.041  1.8291  1.2499  0.7579
 1297SOL    HW2 9854   1.951   7.655   2.104  1.4653  1.4933 -0.1922
 1298SOL     OW 9855   5.570   2.818   5.949  0.2975  0.1936 -0.1706
 1298SOL    HW1 9856   5.591   2.775   5.865 -1.5399  0.5930 -0.8920
 1298SOL    HW2 9857   5.636   2.886   5.958  0.4327  0.2558 -1.3990
 1299SOL     OW 9858   0.337   4.403   6.723 -0.0838  0.2541  0.2685
 1299SOL    HW1 9859   0.343   4.492   6.689  1.1201  1.3158  2.9734
 1299SOL    HW2 9860   0.248   4.394   6.755 -0.6766 -0.1211 -1.3987
 1300SOL     OW 9861   8.385   1.470   4.294  0.6902 -0.0800  0.0649
 1300SOL    HW1 9862   8.357   1.474   4.385  1.8167 -1.0860  0.4902
 1300SOL    HW2 9863   8.404   1.377   4.280 -1.8466 -0.4158 -1.9646
 1301SOL     OW 9864   8.844   5.021   6.563  0.0940 -0.0269  0.1022
 1301SOL    HW1 9865   8.814   4.989   6.648  1.5743 -0.6839  0.4093
 1301SOL    HW2 9866   8.816   4.953   6.501 -2.3541  1.1652 -0.2437
 1302SOL     OW 9867   1.125   5.463   9.282 -1.0732 -0.7114  0.0271
 1302SOL    HW1 9868   1.079   5.432   9.360  0.1730 -1.3066  0.5567
 1302SOL    HW2 9869   1.075   5.538   9.252 -3.2655 -2.2094 -0.3077
 1303SOL     OW 9870   2.993   2.701   7.051 -0.0682 -0.1171 -0.4044
 1303SOL    HW1 9871   2.917   2.737   7.005  0.8445  0.2743 -1.6770
 1303SOL    HW2 9872   3.062   2.767   7.037  0.5523 -0.5383  0.5805
 1304SOL     OW 9873   8.922   8.465   7.406  0.0605  0.6264 -0.2540
 1304SOL    HW1 9874   8.899   8.455   7.498  1.1750  3.4300  0.4358
 1304SOL    HW2 9875   9.017   8.457   7.404  0.3246  3.1584 -0.6568
 1305SOL     OW 9876   0.285   3.317   5.322  0.2468 -0.3972  0.0864
 1305SOL    HW1 9877   0.313   3.357   5.240  0.6565 -0.1067  0.3715
 1305SOL    HW2 9878   0.303   3.223   5.310  0.7220 -0.2989  0.0144
 1306SOL     OW 9879   1.612   8.812   4.567 -0.1314  0.1312  0.3091
 1306SOL    HW1 9880   1.675   8.746   4.537 -1.7282 -1.3836  0.1576
 1306SOL    HW2 9881   1.538   8.803   4.508 -0.7204  1.5111  0.8156
 1307SOL     OW 9882   8.124   5.208   8.422 -0.4462 -0.4393  0.8700
 1307SOL    HW1 9883   8.142   5.163   8.504  1.7993  0.5080  0.9769
 1307SOL    HW2 9884   8.082   5.142   8.367 -0.8626 -1.4465  2.3385
 1308SOL     OW 9885   1.981   3.716   8.656 -0.0951 -0.0416 -0.1487
 1308SOL    HW1 9886   2.019   3.630   8.676 -2.1316 -0.9713  0.0293
 1308SOL    HW2 9887   2.055   3.769   8.628  1.3313 -1.6665  0.3427
 1309SOL     OW 9888   8.268   6.052   3.307 -0.1453 -0.1018 -0.4008
 1309SOL    HW1 9889   8.281   6.099   3.389 -1.4938  1.0972 -0.8200
 1309SOL    HW2 9890   8.179   6.018   3.312  0.1843 -1.0525 -0.8699
 1310SOL     OW 9891   1.688   0.835   7.483  0.3172 -0.1764 -0.7322
 1310SOL    HW1 9892   1.636   0.786   7.419 -0.4384 -2.9804  1.8106
 1310SOL    HW2 9893   1.770   0.852   7.438 -0.8379 -0.3212 -3.0683
 1311SOL     OW 9894   2.270   3.211   8.641 -0.1050  0.3256 -0.6752
 1311SOL    HW1 9895   2.263   3.175   8.730 -0.4882  0.0680 -0.8097
 1311SOL    HW2 9896   2.208   3.160   8.589 -0.9881  1.4592 -0.7843
 1312SOL     OW 9897   7.810   3.257   1.359 -0.2231  0.1973  0.0792
 1312SOL    HW1 9898   7.724   3.299   1.356 -0.0077  0.6094 -1.8264
 1312SOL    HW2 9899   7.790   3.163   1.352 -0.5687  0.1250  1.5773
 1313SOL     OW 9900   1.259   3.865   6.614  0.2567 -0.4064 -0.0906
 1313SOL    HW1 9901   1.242   3.782   6.657  0.7084  0.4197  1.7729
 1313SOL    HW2 9902   1.202   3.928   6.657  0.1312  0.3276 -1.2633
 1314SOL     OW 9903   7.970   0.575   5.662 -0.6362  0.5869 -0.2925
 1314SOL    HW1 9904   8.004   0.643   5.603  0.3431  0.5837  0.2386
 1314SOL    HW2 9905   7.907   0.621   5.717  1.5174  1.6452  1.4741
 1315SOL     OW 9906   1.324   3.733   0.770 -0.0470  0.1262 -0.1345
 1315SOL    HW1 9907   1.310   3.827   0.774  0.0631  0.0852  2.4474
 1315SOL    HW2 9908   1.244   3.695   0.806  0.5462 -0.7011  0.3425
 1316SOL     OW 9909   7.968   2.690   2.560 -1.0233 -0.2263  0.2742
 1316SOL    HW1 9910   7.879   2.659   2.576 -1.3840  0.5529 -0.1906
 1316SOL    HW2 9911   7.987   2.662   2.470 -0.9995  0.0762  0.1849
 1317SOL     OW 9912   3.508   1.390   6.046 -0.0421  0.4407 -0.3057
 1317SOL    HW1 9913   3.580   1.418   6.103  1.8316 -3.2541 -0.5077
 1317SOL    HW2 9914   3.454   1.334   6.102  0.1856 -0.8984 -1.3613
 1318SOL     OW 9915   6.894   3.439   7.361  0.4603 -0.2803  0.1057
 1318SOL    HW1 9916   6.852   3.501   7.301  0.3598 -1.0360 -0.6227
 1318SOL    HW2 9917   6.824   3.409   7.419  0.4439  0.0476  0.2565
 1319SOL     OW 9918   7.310   1.033   7.191  0.1923  0.4674 -0.2808
 1319SOL    HW1 9919   7.276   1.121   7.208  0.1960  0.1081  1.9320
 1319SOL    HW2 9920   7.313   1.026   7.096 -1.0885  2.3612 -0.5151
 1320SOL     OW 9921   2.465   3.818   9.030  0.5741  0.2955  0.0638
 1320SOL    HW1 9922   2.420   3.856   9.105  1.1924  1.4766 -0.1398
 1320SOL    HW2 9923   2.533   3.763   9.069 -0.9311 -1.4465  0.3679
 1321SOL     OW 9924   7.105   8.145   6.707 -0.4538 -0.2189 -0.9024
 1321SOL    HW1 9925   7.053   8.215   6.666  2.0745  0.8543 -2.5249
 1321SOL    HW2 9926   7.177   8.191   6.751  0.2955 -1.7115 -0.4945
 1322SOL     OW 9927   8.103   5.085   7.318 -0.5570  0.2715  0.0191
 1322SOL    HW1 9928   8.028   5.030   7.341 -0.1412 -0.2236  0.1952
 1322SOL    HW2 9929   8.068   5.174   7.319 -1.2447  0.0082 -0.3301
 1323SOL     OW 9930   8.398   4.112   8.357 -0.2617  0.0789  0.9098
 1323SOL    HW1 9931   8.441   4.191   8.323 -0.9467  0.2843  0.4973
 1323SOL    HW2 9932   8.428   4.042   8.300 -0.4825  0.2263  0.6058
 1324SOL     OW 9933   6.540   1.040   1.445  0.0205  0.1258 -0.2242
 1324SOL    HW1 9934   6.451   1.073   1.430 -0.5419 -1.5848 -0.9670
 1324SOL    HW2 9935   6.596   1.100   1.396 -1.0330 -0.4480 -2.2414
 1325SOL     OW 9936   7.124   5.593   7.975  0.1279  0.3239  0.1232
 1325SOL    HW1 9937   7.157   5.506   7.996  1.0551  0.5568 -0.3330
 1325SOL    HW2 9938   7.030   5.587   7.992  0.2720 -0.5838  0.6792
 1326SOL     OW 9939   6.907   4.072   5.440  0.2303 -0.2019 -0.3172
 1326SOL    HW1 9940   6.897   4.144   5.378 -2.2956 -0.4150 -0.2424
 1326SOL    HW2 9941   6.931   3.997   5.385 -0.0715  0.0442 -0.7962
 1327SOL     OW 9942   0.104   9.199   5.171  0.0538  0.2954  0.0421
 1327SOL    HW1 9943   0.126   9.270   5.111  0.8177  1.5979  1.7697
 1327SOL    HW2 9944   0.037   9.236   5.229 -0.9513 -1.0518 -0.2066
 1328SOL     OW 9945   2.106   1.007   1.169  0.0164  0.6214 -0.4686
 1328SOL    HW1 9946   2.094   1.088   1.219 -1.1417 -0.3746  0.9797
 1328SOL    HW2 9947   2.048   1.016   1.094 -2.9609 -0.2181  1.5345
 1329SOL     OW 9948   3.036   0.450   7.903  0.2797 -0.8255  0.3221
 1329SOL    HW1 9949   2.999   0.363   7.897 -2.0460  0.0801  0.6753
 1329SOL    HW2 9950   3.011   0.481   7.990  1.3583  0.0782  0.3346
 1330SOL     OW 9951   4.812   8.193   6.309 -0.1831  0.0903 -0.0521
 1330SOL    HW1 9952   4.838   8.101   6.299  1.2096  0.6851 -2.9005
 1330SOL    HW2 9953   4.886   8.234   6.353  0.3799  0.2845 -1.1290
 1331SOL     OW 9954   3.884   5.212   4.626  0.6507 -0.0329  0.0017
 1331SOL    HW1 9955   3.868   5.119   4.613 -1.1134  0.3512 -0.8599
 1331SOL    HW2 9956   3.836   5.234   4.706  1.2790  0.1085  0.3516
 1332SOL     OW 9957   2.050   2.167   4.421 -0.2426  0.3119  0.6858
 1332SOL    HW1 9958   2.089   2.180   4.508  1.6024 -1.3741  0.1951
 1332SOL    HW2 9959   1.959   2.195   4.431  0.4417  2.1623  2.5709
 1333SOL     OW 9960   7.955   7.965   4.115 -0.1800  0.0975 -0.2204
 1333SOL    HW1 9961   7.933   7.896   4.178 -0.2301 -0.6399 -1.0326
 1333SOL    HW2 9962   7.879   8.023   4.116 -0.8785 -0.7746 -0.7580
 1334SOL     OW 9963   0.306   1.071   9.319 -0.5751 -0.2301 -0.1726
 1334SOL    HW1 9964   0.231   1.130   9.318  0.2813  0.8936  0.0084
 1334SOL    HW2 9965   0.295   1.020   9.400 -0.3132  1.0494  0.6924
 1335SOL     OW 9966   1.974   2.785   3.909 -0.4755 -0.0837 -0.8136
 1335SOL    HW1 9967   2.038   2.855   3.895  0.2771  0.1328  2.8137
 1335SOL    HW2 9968   1.893   2.831   3.934 -0.7009 -0.4587 -0.8490
 1336SOL     OW 9969   2.600   5.548   3.110  0.1378  0.2277 -0.2867
 1336SOL    HW1 9970   2.586   5.453   3.113  2.1674 -0.1027  0.1463
 1336SOL    HW2 9971   2.548   5.577   3.035  2.5408 -1.8854 -3.0750
 1337SOL     OW 9972   2.444   5.863   6.849 -0.4021  0.0171  0.0423
 1337SOL    HW1 9973   2.356   5.887   6.880 -0.2113  0.5440  0.1813
 1337SOL    HW2 9974   2.479   5.945   6.812 -1.2916 -0.8973 -3.1878
 1338SOL     OW 9975   1.862   7.063   1.049  0.2052 -0.5323  0.3960
 1338SOL    HW1 9976   1.932   7.114   1.007 -1.2643  0.7979 -0.5491
 1338SOL    HW2 9977   1.870   6.976   1.010  0.5107 -0.0237 -0.7401
 1339SOL     OW 9978   3.053   0.915   7.760 -0.6149  0.6601 -0.2247
 1339SOL    HW1 9979   2.991   0.956   7.821 -0.9371  1.0174 -0.7909
 1339SOL    HW2 9980   3.026   0.823   7.758 -0.2596  0.5222  0.5883
 1340SOL     OW 9981   1.379   3.643   2.664 -0.1323 -0.4976  0.1302
 1340SOL    HW1 9982   1.409   3.553   2.651 -1.2391 -0.9964  0.9345
 1340SOL    HW2 9983   1.287   3.642   2.639 -0.1756  0.4003  0.2097
 1341SOL     OW 9984   0.314   3.215   3.651 -0.4863 -0.3710  0.3540
 1341SOL    HW1 9985   0.325   3.139   3.593 -0.4316  0.4687 -0.7860
 1341SOL    HW2 9986   0.399   3.225   3.693  0.0132 -0.0038 -0.7028
 1342SOL     OW 9987   2.066   2.091   1.207  0.3086 -0.2913 -0.0775
 1342SOL    HW1 9988   2.151   2.058   1.175  0.0806 -0.0857 -0.9182
 1342SOL    HW2 9989   2.086   2.178   1.241  0.4111 -0.1573 -0.4628
 1343SOL     OW 9990   3.209   1.673   8.546 -0.5028 -0.3636  0.1445
 1343SOL    HW1 9991   3.149   1.668   8.620 -0.1634 -2.4024  0.3519
 1343SOL    HW2 9992   3.293   1.700   8.586  0.0842 -2.9489  0.8626
 1344SOL     OW 9993   7.403   3.718   0.774 -0.2703 -0.2424 -0.0224
 1344SOL    HW1 9994   7.386   3.691   0.684 -1.3301  2.9879 -0.9391
 1344SOL    HW2 9995   7.379   3.811   0.776  0.7184  0.0774  3.3457
 1345SOL     OW 9996   5.145   4.725   8.845 -0.3845  0.6265 -0.1035
 1345SOL    HW1 9997   5.128   4.791   8.777 -0.9073  0.7798  0.1658
 1345SOL    HW2 9998   5.236   4.740   8.871  0.3995 -0.5522 -1.9627
 1346SOL     OW 9999   7.399   6.336   8.737  0.1882  0.2939 -0.3902
 1346SOL    HW110000   7.403   6.430   8.716  1.3836  0.4062  0.2474
 1346SOL    HW210001   7.320   6.327   8.791  0.8338  1.2214  0.7791
 1347SOL     OW10002   3.718   3.804   6.884  0.6943  0.0474  0.1472
 1347SOL    HW110003   3.636   3.837   6.920  0.4969  0.2330 -0.4602
 1347SOL    HW210004   3.698   3.715   6.857  0.3406  0.4958 -1.1280
 1348SOL     OW10005   3.369   4.566   3.241  0.1828 -0.0960 -0.5171
 1348SOL    HW110006   3.445   4.537   3.291  0.7903  1.2478 -0.6082
 1348SOL    HW210007   3.394   4.550   3.150 -0.5171 -1.6007 -0.4775
 1349SOL     OW10008   4.433   5.260   6.912  0.3830 -0.1847 -0.0675
 1349SOL    HW110009   4.348   5.250   6.869  1.2325 -1.3734 -1.5637
 1349SOL    HW210010   4.497   5.228   6.848  1.7787 -1.5015  1.8370
 1350SOL     OW10011   8.289   5.761   6.252 -0.5181 -0.1969 -0.3031
 1350SOL    HW110012   8.376   5.799   6.239 -1.2677  2.3672  1.4600
 1350SOL    HW210013   8.232   5.811   6.194 -1.0402 -0.9851 -0.4894
 1351SOL     OW10014   0.720   0.440   9.044  0.4941  0.2266 -0.5537
 1351SOL    HW110015   0.791   0.386   9.079 -0.0653 -0.5256 -0.5590
 1351SOL    HW210016   0.745   0.529   9.066  0.4208 -0.1717  1.2956
 1352SOL     OW10017   3.110   4.823   8.449  0.3960 -0.5665 -0.2543
 1352SOL    HW110018   3.050   4.886   8.489  0.3900 -1.1521  0.6957
 1352SOL    HW210019   3.192   4.871   8.440  1.4708 -1.2813  3.6539
 1353SOL     OW10020   6.941   7.559   0.557 -0.0491 -0.4989 -0.3986
 1353SOL    HW110021   6.963   7.643   0.599  1.0891 -0.6021 -0.7628
 1353SOL    HW210022   7.021   7.507   0.564 -0.3083 -1.0505 -1.4168
 1354SOL     OW10023   2.305   4.495   4.738  0.4390  0.5789  0.1119
 1354SOL    HW110024   2.280   4.571   4.789 -0.4254 -0.1843  0.8510
 1354SOL    HW210025   2.334   4.430   4.802  0.2901 -0.0411 -0.4242
 1355SOL     OW10026   3.275   8.816   1.601  0.4314  0.3821  0.2019
 1355SOL    HW110027   3.185   8.786   1.608  0.5214  0.3037  1.0429
 1355SOL    HW210028   3.326   8.738   1.582  0.5553  0.1116  1.5590
 1356SOL     OW10029   2.135   7.874   2.169  0.0950 -0.5910  0.2909
 1356SOL    HW110030   2.139   7.795   2.223 -0.4943  1.3079  3.3668
 1356SOL    HW210031   2.042   7.882   2.145 -0.6237  0.8894  3.0583
 1357SOL     OW10032   0.338   5.303   5.179  0.1544 -0.4618  0.2212
 1357SOL    HW110033   0.324   5.231   5.240  0.0571 -1.5950 -1.1001
 1357SOL    HW210034   0.390   5.265   5.108 -2.8769 -0.2789 -2.3282
 1358SOL     OW10035   0.391   7.347   1.386 -0.1704 -0.4293  0.2905
 1358SOL    HW110036   0.318   7.306   1.339 -0.3136  0.8927 -0.7020
 1358SOL    HW210037   0.361   7.352   1.477 -2.2299  1.8824 -0.4101
 1359SOL     OW10038   5.717   0.342   0.332  0.4892 -0.4107 -0.1805
 1359SOL    HW110039   5.644   0.283   0.351 -0.0809  0.1707 -0.5077
 1359SOL    HW210040   5.695   0.423   0.377  0.0939  0.3277 -1.6259
 1360SOL     OW10041   4.912   6.293   0.853 -0.3140 -0.4049 -0.6365
 1360SOL    HW110042   4.965   6.235   0.907 -0.0312  0.8865  0.5221
 1360SOL    HW210043   4.842   6.236   0.819 -0.8383 -1.1844  1.5348
 1361SOL     OW10044   2.814   3.642   7.286 -0.1692 -0.5129  0.1649
 1361SOL    HW110045   2.880   3.609   7.225  0.5389  0.4321  0.4087
 1361SOL    HW210046   2.752   3.569   7.295  0.8261 -1.4111 -0.0684
 1362SOL     OW10047   5.162   8.962   2.188 -0.6276 -0.1990 -0.1038
 1362SOL    HW110048   5.231   8.916   2.235 -0.2511  0.6918  0.2461
 1362SOL    HW210049   5.166   9.052   2.221 -1.7997 -0.0735 -0.2499
 1363SOL     OW10050   7.035   1.000   6.227 -0.4378 -0.0059 -0.7635
 1363SOL    HW110051   7.066   1.077   6.275 -1.0980 -1.1705  1.6498
 1363SOL    HW210052   6.942   1.017   6.213 -0.8454 -0.8343  0.8042
 1364SOL     OW10053   5.992   7.619   6.833 -0.5061  0.0827  0.0818
 1364SOL    HW110054   5.988   7.698   6.887 -0.2557  0.8034 -0.9118
 1364SOL    HW210055   6.058   7.640   6.766 -0.4006 -0.9881 -0.1618
 1365SOL     OW10056   8.401   4.268   1.076 -0.1259  0.0971 -0.3897
 1365SOL    HW110057   8.376   4.256   0.984 -0.3303  0.3326 -0.3670
 1365SOL    HW210058   8.475   4.209   1.089 -0.5396 -0.4692 -0.5165
 1366SOL     OW10059   4.226   3.414   0.755  0.1128  0.4866 -0.4790
 1366SOL    HW110060   4.145   3.401   0.805  1.1026 -0.9104  0.8487
 1366SOL    HW210061   4.230   3.508   0.740 -2.3523  0.4854 -1.6670
 1367SOL     OW10062   3.591   3.410   8.726 -0.1162  0.2285 -0.0326
 1367SOL    HW110063   3.577   3.504   8.710 -1.3282 -0.3621 -3.1985
 1367SOL    HW210064   3.521   3.367   8.678  0.2834 -2.3568  1.5100
 1368SOL     OW10065   8.478   0.698   1.595 -0.1415  0.6069  0.3087
 1368SOL    HW110066   8.556   0.662   1.552 -0.2607  1.5369 -0.7284
 1368SOL    HW210067   8.494   0.684   1.688  0.7705 -0.1943  0.0524
 1369SOL     OW10068   3.501   6.073   2.956 -0.0157  0.0504 -0.3689
 1369SOL    HW110069   3.494   6.167   2.938 -0.3766  0.3037  0.9833
 1369SOL    HW210070   3.432   6.056   3.020 -1.3957 -1.5927 -2.1941
 1370SOL     OW10071   0.489   4.586   2.374  0.3844  0.3843  0.0149
 1370SOL    HW110072   0.459   4.523   2.309 -0.3062  0.2104  0.4906
 1370SOL    HW210073   0.412   4.602   2.429  1.2480 -0.2967  1.4662
 1371SOL     OW10074   9.354   7.679   1.954 -0.2778 -0.0764 -0.4554
 1371SOL    HW110075   9.316   7.671   1.867  0.0342 -0.0183 -0.5978
 1371SOL    HW210076   9.352   7.773   1.973 -1.4457 -0.1886  0.0984
 1372SOL     OW10077   7.745   5.773   5.622  0.6875 -0.2387 -0.0911
 1372SOL    HW110078   7.784   5.832   5.557  0.8440  1.6849  1.6584
 1372SOL    HW210079   7.678   5.826   5.665  0.2103 -1.6437  0.9638
 1373SOL     OW10080   8.832   8.714   3.711 -0.0345  0.8359  0.0030
 1373SOL    HW110081   8.821   8.685   3.801  2.7131  1.9205  0.7979
 1373SOL    HW210082   8.882   8.643   3.669 -1.3932  0.2840 -0.7424
 1374SOL     OW10083   1.222   4.535   3.396  0.9485  0.0190 -0.1520
 1374SOL    HW110084   1.229   4.625   3.364 -0.2369  0.3703  0.5397
 1374SOL    HW210085   1.136   4.530   3.437 -0.0636 -2.1344 -2.3058
 1375SOL     OW10086   0.290   2.046   0.463 -0.4308  0.3874  0.1012
 1375SOL    HW110087   0.269   2.105   0.536  0.9654 -1.8269  2.4587
 1375SOL    HW210088   0.250   1.963   0.487 -0.1289 -0.3586 -1.8172
 1376SOL     OW10089   2.966   0.939   7.380  1.0075 -0.0964  0.3991
 1376SOL    HW110090   3.000   0.850   7.381 -0.1058 -0.5463 -0.4606
 1376SOL    HW210091   2.876   0.931   7.413  0.3724  0.4503 -1.1099
 1377SOL     OW10092   5.786   3.218   3.056 -0.4171 -0.0214 -0.1235
 1377SOL    HW110093   5.866   3.257   3.020  0.1649  0.1502  1.2809
 1377SOL    HW210094   5.791   3.236   3.150 -0.5469 -2.7153  0.4749
 1378SOL     OW10095   8.707   9.139   1.902  0.2271  0.2077  0.7531
 1378SOL    HW110096   8.638   9.171   1.960  1.0265  1.1121  1.2222
 1378SOL    HW210097   8.782   9.123   1.959  0.5276 -0.4226  0.1998
 1379SOL     OW10098   8.262   0.646   3.635 -0.5965  0.5817  0.3065
 1379SOL    HW110099   8.258   0.733   3.595 -2.6961  0.1784 -0.5289
 1379SOL    HW210100   8.214   0.590   3.574  0.9724 -1.2521  0.6658
 1380SOL     OW10101   8.014   4.422   2.466 -0.8203  0.1931 -0.4149
 1380SOL    HW110102   7.949   4.477   2.511 -1.0227 -0.1528 -0.2763
 1380SOL    HW210103   8.098   4.448   2.504 -1.0900 -0.9037  1.0510
 1381SOL     OW10104   6.237   3.914   3.467  0.1873  0.0944  0.4963
 1381SOL    HW110105   6.315   3.858   3.470 -0.6501 -1.3925 -2.2647
 1381SOL    HW210106   6.268   4.000   3.497  3.4521  0.1226 -2.3468
 1382SOL     OW10107   1.830   1.034   8.468 -0.5657  0.5471 -0.2532
 1382SOL    HW110108   1.905   1.074   8.424 -1.2390  0.7227 -1.2766
 1382SOL    HW210109   1.822   1.081   8.551  2.1026 -1.2522  1.1985
 1383SOL     OW10110   1.753   6.994   3.384 -0.0925  0.3521  0.4505
 1383SOL    HW110111   1.779   6.916   3.432 -1.6100 -1.2317 -1.1491
 1383SOL    HW210112   1.832   7.021   3.338  0.1546 -1.0234  0.0186
 1384SOL     OW10113   3.812   9.190   1.120 -0.2793  0.0899 -0.4798
 1384SOL    HW110114   3.832   9.284   1.123  0.5525 -0.0885  0.0456
 1384SOL    HW210115   3.768   9.178   1.036 -0.0988  0.8949 -0.7065
 1385SOL     OW10116   8.625   8.030   6.112  0.1265 -0.5086 -0.1873
 1385SOL    HW110117   8.628   7.986   6.028 -1.6294 -0.7828 -0.1551
 1385SOL    HW210118   8.538   8.008   6.147  0.8697 -0.5324  1.7600
 1386SOL     OW10119   7.891   0.042   4.557  0.0243 -0.1139 -0.0422
 1386SOL    HW110120   7.837   0.102   4.505  0.3663  1.1591  1.0189
 1386SOL    HW210121   7.834  -0.032   4.575 -0.2150 -0.4299 -1.9067
 1387SOL     OW10122   6.423   5.902   8.857  0.0994  0.4608  0.3273
 1387SOL    HW110123   6.517   5.899   8.842  0.2972  0.8586  1.3817
 1387SOL    HW210124   6.384   5.878   8.773  1.1325 -3.4994  0.7855
 1388SOL     OW10125   0.493   0.160   0.009 -0.2106 -0.2492  0.1369
 1388SOL    HW110126   0.467   0.140  -0.081 -0.5767 -0.3929  0.2736
 1388SOL    HW210127   0.540   0.081   0.038  2.1098  0.7080 -0.7502
 1389SOL     OW10128   8.596   6.890   5.929 -0.2525 -0.5869 -0.4023
 1389SOL    HW110129   8.556   6.873   6.014 -0.1166 -0.7142 -0.3645
 1389SOL    HW210130   8.521   6.909   5.871 -0.3662 -0.7845 -0.3228
 1390SOL     OW10131   6.518   1.765   2.306 -0.4599 -0.2383 -0.0197
 1390SOL    HW110132   6.453   1.834   2.319  1.6637  1.6671  1.4447
 1390SOL    HW210133   6.586   1.806   2.253  0.6108 -1.3561  0.4387
 1391SOL     OW10134   1.003   1.356   4.343  0.0008 -0.0521  0.5623
 1391SOL    HW110135   1.074   1.419   4.343  0.4218 -0.5003  1.6029
 1391SOL    HW210136   1.046   1.271   4.335 -0.2737 -0.4265  2.5020
 1392SOL     OW10137   2.815   4.967   0.613  0.1755  0.3975  0.4237
 1392SOL    HW110138   2.887   4.912   0.581 -0.2174  0.0018  0.2053
 1392SOL    HW210139   2.787   4.926   0.694 -3.5200 -2.8971 -2.1680
 1393SOL     OW10140   3.557   0.129   6.904  0.1163 -0.0867  0.3414
 1393SOL    HW110141   3.493   0.188   6.865 -0.5839 -0.0473  1.5207
 1393SOL    HW210142   3.509   0.048   6.922  0.5834 -0.3257  0.5531
 1394SOL     OW10143   7.768   8.390   6.705 -0.3462 -0.3299  0.1605
 1394SOL    HW110144   7.797   8.329   6.774 -0.3593 -1.4308 -0.7773
 1394SOL    HW210145   7.695   8.345   6.663 -1.2276  0.9329  0.2949
 1395SOL     OW10146   3.743   2.079   7.307  0.0170  0.2523  0.3984
 1395SOL    HW110147   3.765   2.136   7.234  0.4443  1.7466  1.6280
 1395SOL    HW210148   3.826   2.069   7.355 -0.0676 -1.3837  0.2307
 1396SOL     OW10149   3.696   2.623   8.708  0.2976  0.3534 -0.1361
 1396SOL    HW110150   3.755   2.589   8.776 -0.0504  1.4980  0.7750
 1396SOL    HW210151   3.643   2.688   8.753 -1.4794 -0.4290 -1.0085
 1397SOL     OW10152   5.970   3.821   0.189 -0.3195 -0.1332  0.1698
 1397SOL    HW110153   5.997   3.892   0.247  2.1834 -0.1160 -0.8966
 1397SOL    HW210154   5.958   3.862   0.104  0.8120 -0.8771 -0.3811
 1398SOL     OW10155   6.806   3.323   5.205 -0.0814  0.1591  0.5766
 1398SOL    HW110156   6.727   3.268   5.202  0.0671 -0.0621  0.7231
 1398SOL    HW210157   6.844   3.315   5.118 -1.2544  1.7952 -0.1475
 1399SOL     OW10158   3.639   0.248   4.026  0.1964  0.4735 -0.1908
 1399SOL    HW110159   3.567   0.250   4.089 -0.0400  2.7506 -0.4525
 1399SOL    HW210160   3.718   0.261   4.080 -0.0192  2.5883 -0.3084
 1400SOL     OW10161   0.381   3.408   6.374 -0.6741  0.2976 -1.0379
 1400SOL    HW110162   0.417   3.413   6.463 -1.3712  0.5275 -0.7575
 1400SOL    HW210163   0.386   3.498   6.342  0.7521 -0.0048 -1.7224
 1401SOL     OW10164   2.323   4.980   5.683 -0.2069  0.0161  0.3442
 1401SOL    HW110165   2.284   4.982   5.771  0.2726  0.6719  0.5517
 1401SOL    HW210166   2.275   4.911   5.637 -1.3422  0.5263  0.7162
 1402SOL     OW10167   7.692   7.381   7.106 -0.7906  0.1227  0.0839
 1402SOL    HW110168   7.684   7.410   7.015 -1.6520  1.6339  0.6031
 1402SOL    HW210169   7.602   7.365   7.134 -0.6921  1.1195  1.0824
 1403SOL     OW10170   2.386   3.087   0.181  0.1830 -0.1874 -0.1900
 1403SOL    HW110171   2.466   3.109   0.134 -0.5679  2.0595 -0.5207
 1403SOL    HW210172   2.316   3.129   0.131 -1.2774 -2.2812 -0.0427
 1404SOL     OW10173   3.467   8.290   7.719 -0.0348  0.1985 -0.6421
 1404SOL    HW110174   3.530   8.360   7.704  2.1770 -1.7496 -1.0009
 1404SOL    HW210175   3.403   8.327   7.780  1.3940  2.2935 -0.3350
 1405SOL     OW10176   8.648   8.876   1.820 -0.0081  0.3322 -0.7719
 1405SOL    HW110177   8.662   8.965   1.851 -0.1731  0.6599 -1.5948
 1405SOL    HW210178   8.557   8.856   1.842  0.1998  0.1493 -0.0739
 1406SOL     OW10179   2.147   9.159   6.257  0.4185  0.4026 -0.3073
 1406SOL    HW110180   2.204   9.082   6.258 -1.4482 -1.0733  0.2193
 1406SOL    HW210181   2.190   9.223   6.313  1.5695 -0.6281  0.0127
 1407SOL     OW10182   9.333   0.590   0.594 -0.5316 -0.3682  0.0417
 1407SOL    HW110183   9.328   0.546   0.679  0.5430 -1.2905 -0.3419
 1407SOL    HW210184   9.418   0.634   0.595 -1.3025  1.2019  0.1544
 1408SOL     OW10185   0.156   9.181   8.700 -0.8701  0.0479  0.0484
 1408SOL    HW110186   0.226   9.201   8.639 -0.7519  0.0296  0.1767
 1408SOL    HW210187   0.103   9.115   8.656 -1.1463  0.4934 -0.2973
 1409SOL     OW10188   0.906   4.319   6.304  0.1282 -0.1674 -0.3459
 1409SOL    HW110189   0.954   4.303   6.223  0.7161  1.3264 -0.3239
 1409SOL    HW210190   0.973   4.320   6.372 -0.0517  0.8928 -0.1688
 1410SOL     OW10191   2.283   9.283   1.380 -0.2473 -0.0082 -0.3470
 1410SOL    HW110192   2.378   9.293   1.371 -0.5679  2.6303 -1.6972
 1410SOL    HW210193   2.262   9.205   1.329  1.0938  0.0008 -0.9392
 1411SOL     OW10194   2.921   5.306   2.534 -0.0591  0.0416  0.5369
 1411SOL    HW110195   2.859   5.256   2.481  1.0304 -0.5199 -0.2488
 1411SOL    HW210196   2.935   5.251   2.611  1.2510 -1.0025 -0.3921
 1412SOL     OW10197   8.721   4.225   8.143  0.0753 -0.2935  0.4974
 1412SOL    HW110198   8.659   4.216   8.071  0.4281  0.0650  0.1482
 1412SOL    HW210199   8.800   4.261   8.103 -0.7040  2.8398  1.5170
 1413SOL     OW10200   7.204   7.343   4.587 -0.0218  0.1705  0.1808
 1413SOL    HW110201   7.196   7.288   4.509  1.1754  0.6333 -0.2885
 1413SOL    HW210202   7.134   7.407   4.579 -0.2275 -0.1014 -0.2401
 1414SOL     OW10203   5.796   1.986   6.829  0.1625  0.4140  0.5619
 1414SOL    HW110204   5.754   1.977   6.744 -0.2264 -0.1531  0.8127
 1414SOL    HW210205   5.865   2.051   6.815  1.2597 -0.9461 -0.6103
 1415SOL     OW10206   2.201   8.718   4.501  0.8740  0.8918  0.1846
 1415SOL    HW110207   2.147   8.789   4.533 -1.7178 -0.7683 -0.1869
 1415SOL    HW210208   2.287   8.734   4.538 -0.5616  2.0949  3.3088
 1416SOL     OW10209   4.587   2.114   4.150 -0.1199  0.3885 -0.2682
 1416SOL    HW110210   4.581   2.025   4.184 -0.1014  0.4431 -0.1228
 1416SOL    HW210211   4.654   2.109   4.082 -0.5622  0.1588 -0.6909
 1417SOL     OW10212   5.117   0.534   7.422 -0.7044 -0.3818 -0.0464
 1417SOL    HW110213   5.119   0.472   7.349  0.5880 -0.4935  0.0648
 1417SOL    HW210214   5.163   0.489   7.492 -0.8865  0.2063  0.4518
 1418SOL     OW10215   8.416   0.862   5.926 -0.5092 -0.1527  0.5645
 1418SOL    HW110216   8.433   0.955   5.915 -0.2183 -0.2018  0.5729
 1418SOL    HW210217   8.333   0.847   5.881  0.3897 -0.2457 -1.1324
 1419SOL     OW10218   1.100   8.969   2.629 -0.0049 -0.1946 -0.2974
 1419SOL    HW110219   1.053   9.004   2.704  0.9858 -0.7183  0.6139
 1419SOL    HW210220   1.058   8.884   2.612  0.2521 -0.4272  0.1835
 1420SOL     OW10221   2.449   0.782   3.467  0.0546  0.0914  0.1752
 1420SOL    HW110222   2.463   0.689   3.480 -2.3930 -0.6192 -1.6247
 1420SOL    HW210223   2.515   0.808   3.404  0.9650 -0.3014  0.9410
 1421SOL     OW10224   2.734   4.803   2.108  0.0806  0.5885  0.4023
 1421SOL    HW110225   2.789   4.869   2.150  0.2162 -0.1864  1.4717
 1421SOL    HW210226   2.789   4.765   2.040  0.6101  0.3711  0.9393
 1422SOL     OW10227   7.072   6.001   5.023 -0.0923 -0.3067 -0.3456
 1422SOL    HW110228   7.153   6.027   5.067 -0.4710  1.8857 -0.8735
 1422SOL    HW210229   7.006   6.002   5.093 -0.4433  1.9595 -0.6419
 1423SOL     OW10230   2.838   4.135   4.217  0.3463 -0.4514  0.1786
 1423SOL    HW110231   2.806   4.224   4.234 -0.5337 -0.9390  1.1762
 1423SOL    HW210232   2.837   4.127   4.122 -3.0651 -0.6004  0.1277
 1424SOL     OW10233   8.761   3.078   5.565 -0.3555 -0.1873 -0.1252
 1424SOL    HW110234   8.711   3.142   5.514 -0.1827 -1.3196 -1.7984
 1424SOL    HW210235   8.697   3.012   5.589 -0.2519 -0.1044  0.3925
 1425SOL     OW10236   1.726   5.024   7.020 -0.1256 -0.0439  0.4387
 1425SOL    HW110237   1.650   5.073   6.987 -1.3252 -0.5209  2.3003
 1425SOL    HW210238   1.791   5.092   7.040 -0.2366  0.4198 -0.6878
 1426SOL     OW10239   7.186   3.619   2.454 -0.2230 -0.0879 -0.4810
 1426SOL    HW110240   7.099   3.656   2.466 -0.0432  0.1560  0.1029
 1426SOL    HW210241   7.203   3.569   2.534 -0.3133 -1.1381 -1.1027
 1427SOL     OW10242   5.720   0.229   1.284 -0.0748 -0.0274 -0.0749
 1427SOL    HW110243   5.713   0.236   1.379 -0.3583 -0.1784 -0.0808
 1427SOL    HW210244   5.783   0.159   1.269  0.2499  0.2478 -0.0010
 1428SOL     OW10245   0.292   8.750   5.238  0.4716 -0.2648 -0.1365
 1428SOL    HW110246   0.282   8.779   5.148 -0.0789  1.4326  0.4396
 1428SOL    HW210247   0.304   8.655   5.232  0.2423 -0.1980 -1.9643
 1429SOL     OW10248   6.464   8.995   5.011 -0.0092  0.3714 -0.0914
 1429SOL    HW110249   6.472   8.942   4.931 -0.3160 -1.0265  0.7704
 1429SOL    HW210250   6.552   9.030   5.024  0.4637 -0.7162 -0.1764
 1430SOL     OW10251   3.603   7.287   2.815  0.4744  0.2213 -0.4976
 1430SOL    HW110252   3.635   7.304   2.726 -0.5249 -2.3191 -1.4102
 1430SOL    HW210253   3.625   7.196   2.832 -3.7507 -0.9560 -0.1738
 1431SOL     OW10254   7.231   3.340   6.928  0.4721 -0.2255 -0.3383
 1431SOL    HW110255   7.203   3.248   6.935 -1.0327 -0.1166 -3.4800
 1431SOL    HW210256   7.319   3.335   6.889  0.7349 -0.3067  0.2435
 1432SOL     OW10257   6.163   2.307   9.322 -0.4367 -0.2676 -0.5954
 1432SOL    HW110258   6.113   2.378   9.362  0.2526 -0.2698  0.2861
 1432SOL    HW210259   6.099   2.262   9.266 -1.0505  0.6118 -0.6286
 1433SOL     OW10260   5.640   9.277   8.432  0.1600  0.1774  0.1824
 1433SOL    HW110261   5.721   9.237   8.400  0.7572  0.9661  0.6720
 1433SOL    HW210262   5.669   9.342   8.497 -0.6375  2.5234 -1.6645
 1434SOL     OW10263   7.252   0.228   1.839 -0.4892  0.3520 -0.0054
 1434SOL    HW110264   7.347   0.229   1.832 -0.4840  2.1711 -0.1127
 1434SOL    HW210265   7.234   0.202   1.929  0.1230  0.4955  0.1569
 1435SOL     OW10266   6.901   8.338   6.658  0.4799  0.0862  0.3147
 1435SOL    HW110267   6.809   8.332   6.631  0.5345  1.4510 -0.2536
 1435SOL    HW210268   6.898   8.340   6.754  0.0353 -1.2981  0.3510
 1436SOL     OW10269   9.211   0.707   1.892 -0.1668 -0.2436 -0.2101
 1436SOL    HW110270   9.250   0.762   1.823 -1.5229  1.7850  0.5370
 1436SOL    HW210271   9.236   0.618   1.869  0.4960  0.4931 -2.6137
 1437SOL     OW10272   6.568   0.455   5.511  0.1652 -0.1407 -0.4072
 1437SOL    HW110273   6.586   0.365   5.536 -0.0799 -0.7064 -2.1342
 1437SOL    HW210274   6.654   0.492   5.489  0.4508  0.5212  1.6276
 1438SOL     OW10275   6.904   2.371   2.574 -0.1043 -0.0160 -0.7869
 1438SOL    HW110276   6.922   2.400   2.484  0.0745  0.9032 -0.4702
 1438SOL    HW210277   6.988   2.338   2.605 -0.0779  0.0060 -0.8346
 1439SOL     OW10278   6.422   4.174   5.682  0.0864  0.6026  0.0888
 1439SOL    HW110279   6.355   4.106   5.683  0.5497  0.1414  1.0760
 1439SOL    HW210280   6.483   4.146   5.614 -0.2274  0.5396 -0.1713
 1440SOL     OW10281   5.311   8.762   0.710 -0.0701  0.1858  0.3392
 1440SOL    HW110282   5.392   8.781   0.756  0.0117 -0.5878  0.5176
 1440SOL    HW210283   5.306   8.667   0.707 -0.9316  0.2246  0.2619
 1441SOL     OW10284   5.875   0.429   5.544  0.2961 -0.1793  0.4103
 1441SOL    HW110285   5.950   0.487   5.539  0.2631 -0.0168  1.5441
 1441SOL    HW210286   5.892   0.362   5.477  1.4285 -0.1310  0.6295
 1442SOL     OW10287   2.977   4.553   6.617  0.1950 -0.1126 -0.2295
 1442SOL    HW110288   3.056   4.564   6.563 -0.3345 -0.2994 -1.0502
 1442SOL    HW210289   2.964   4.638   6.658 -2.2454  1.7655 -4.3169
 1443SOL     OW10290   5.289   2.196   6.600  0.3798 -0.4415  0.3108
 1443SOL    HW110291   5.335   2.141   6.537  0.2352  0.6038 -0.7380
 1443SOL    HW210292   5.355   2.217   6.667  2.1088  2.4840 -2.0531
 1444SOL     OW10293   4.839   8.001   3.682 -0.5436  0.2892  0.2974
 1444SOL    HW110294   4.749   7.975   3.663 -1.0992  2.7593 -0.8099
 1444SOL    HW210295   4.889   7.972   3.606 -0.4150 -0.8604  0.8002
 1445SOL     OW10296   1.005   7.923   1.675 -1.0165  0.0746  0.4748
 1445SOL    HW110297   1.011   8.013   1.643 -0.2836 -0.0336  0.2889
 1445SOL    HW210298   1.079   7.878   1.633 -1.6396 -0.7216  0.2035
 1446SOL     OW10299   2.737   3.097   1.558 -0.1237  0.3716 -0.6991
 1446SOL    HW110300   2.672   3.073   1.492  0.0295  2.6053 -1.7811
 1446SOL    HW210301   2.686   3.142   1.626  0.0352  0.3524 -0.5674
 1447SOL     OW10302   8.302   5.716   8.995 -0.4625 -0.4537  0.1674
 1447SOL    HW110303   8.277   5.624   8.985  0.0902 -0.5616 -0.3172
 1447SOL    HW210304   8.221   5.765   8.980 -0.4454 -0.8012 -1.2073
 1448SOL     OW10305   2.773   3.838   3.077 -0.3996 -0.0504  0.4360
 1448SOL    HW110306   2.700   3.894   3.050 -0.1459  0.0038 -0.1469
 1448SOL    HW210307   2.778   3.770   3.009  0.8505  0.6251 -0.1750
 1449SOL     OW10308   1.453   9.262   5.315  0.0373  0.2785  0.5842
 1449SOL    HW110309   1.518   9.301   5.373  0.0005  0.5732  0.4278
 1449SOL    HW210310   1.443   9.325   5.244  1.4915 -0.9070 -0.7541
 1450SOL     OW10311   5.417   0.853   1.788  0.2793 -0.1326  0.7178
 1450SOL    HW110312   5.391   0.761   1.783 -0.5617  0.0448  1.5626
 1450SOL    HW210313   5.338   0.901   1.763  1.6132  0.3732 -3.3224
 1451SOL     OW10314   5.187   6.193   4.176 -0.2152  0.0461  0.0978
 1451SOL    HW110315   5.207   6.178   4.269  0.5467 -0.1129 -0.0864
 1451SOL    HW210316   5.242   6.130   4.129 -0.8794 -0.1330 -0.4488
 1452SOL     OW10317   7.546   4.798   2.213 -0.5009 -0.0146  0.1259
 1452SOL    HW110318   7.484   4.725   2.213 -0.9238  0.2663  2.3154
 1452SOL    HW210319   7.631   4.758   2.232  0.3699 -0.5561 -3.9901
 1453SOL     OW10320   6.221   4.433   7.124  0.1445  0.1233 -0.0681
 1453SOL    HW110321   6.156   4.398   7.062  0.4324  1.4154 -1.1507
 1453SOL    HW210322   6.275   4.491   7.071  0.0508  1.7373  1.5254
 1454SOL     OW10323   6.742   6.241   7.838  0.2801  0.7799 -0.0034
 1454SOL    HW110324   6.763   6.208   7.926  0.2755 -0.0533 -0.3024
 1454SOL    HW210325   6.648   6.229   7.830 -0.1744  3.2278  0.8125
 1455SOL     OW10326   8.010   5.386   3.083 -0.2172  0.2996  0.0102
 1455SOL    HW110327   7.942   5.437   3.127 -0.7037  0.4913 -0.9370
 1455SOL    HW210328   8.057   5.450   3.030  0.8749  0.2112  0.8511
 1456SOL     OW10329   2.920   0.297   7.126 -0.5020 -0.1048 -0.1351
 1456SOL    HW110330   2.858   0.246   7.177 -0.3497 -0.5230 -0.3684
 1456SOL    HW210331   2.867   0.366   7.086 -0.8383 -0.5350 -0.4348
 1457SOL     OW10332   0.523   1.529   6.488  0.2745 -0.4068 -0.1724
 1457SOL    HW110333   0.523   1.523   6.584  1.3848  4.3118  0.3530
 1457SOL    HW210334   0.435   1.504   6.462 -0.3531 -0.8351  2.1591
 1458SOL     OW10335   1.351   5.857   0.482 -0.3540  0.3631  0.2122
 1458SOL    HW110336   1.436   5.818   0.502 -0.9969 -0.4074  1.5532
 1458SOL    HW210337   1.308   5.791   0.427 -0.2204  0.6030 -0.1825
 1459SOL     OW10338   0.322   2.526   4.134  0.2977  0.1522  0.3494
 1459SOL    HW110339   0.396   2.466   4.128 -0.3153 -0.5180 -0.7755
 1459SOL    HW210340   0.329   2.581   4.056 -0.3489  0.1239  0.2654
 1460SOL     OW10341   2.407   3.386   2.198  0.0714  0.6562  0.2002
 1460SOL    HW110342   2.388   3.364   2.107 -0.4383  1.4564  0.1090
 1460SOL    HW210343   2.486   3.440   2.193 -0.2203  1.0827  0.1922
 1461SOL     OW10344   7.827   2.434   6.996  0.0909  0.2085  0.3285
 1461SOL    HW110345   7.815   2.428   6.901  0.1828  0.8761  0.2752
 1461SOL    HW210346   7.907   2.384   7.012 -0.3658 -0.5959  0.1598
 1462SOL     OW10347   7.441   4.257   5.526  0.4234  0.2144 -0.1118
 1462SOL    HW110348   7.409   4.285   5.611  2.2468  0.6511  0.4540
 1462SOL    HW210349   7.427   4.332   5.469 -1.7697 -0.4192 -0.5314
 1463SOL     OW10350   7.868   5.437   9.116 -0.2990 -0.3806  0.2709
 1463SOL    HW110351   7.833   5.351   9.091 -2.5660  0.6213 -0.2962
 1463SOL    HW210352   7.792   5.484   9.152  0.1997  2.2385 -1.7763
 1464SOL     OW10353   9.022   0.135   7.138 -0.3245  0.0441  0.6248
 1464SOL    HW110354   8.949   0.175   7.186  0.3324  0.5120  1.2598
 1464SOL    HW210355   9.030   0.048   7.176  0.5328  0.5953  1.7845
 1465SOL     OW10356   2.679   8.526   1.289 -0.6933  0.0493  0.2151
 1465SOL    HW110357   2.669   8.492   1.200  0.2228  0.2606  0.0246
 1465SOL    HW210358   2.701   8.449   1.341  0.8150  0.2319 -0.1163
 1466SOL     OW10359   0.055   2.739   4.296 -0.5844 -0.0635  0.4155
 1466SOL    HW110360   0.065   2.644   4.306 -0.4717 -0.0912  0.0390
 1466SOL    HW210361   0.006   2.749   4.214 -1.8624  0.1455  1.1780
 1467SOL     OW10362   4.760   4.216   8.649 -0.0656  0.0861  0.6678
 1467SOL    HW110363   4.735   4.308   8.639 -1.7719 -0.2755  1.3586
 1467SOL    HW210364   4.751   4.198   8.742  2.6366 -0.1753  0.9757
 1468SOL     OW10365   6.766   0.075   6.307  0.0077  0.0641 -0.3650
 1468SOL    HW110366   6.846   0.126   6.291  0.3646 -0.2736  0.3113
 1468SOL    HW210367   6.795  -0.000   6.358 -0.7300 -0.1299 -0.2208
 1469SOL     OW10368   8.465   5.452   6.340  0.3581 -0.2761 -0.1197
 1469SOL    HW110369   8.560   5.455   6.354  0.5195 -0.8377 -1.0511
 1469SOL    HW210370   8.428   5.477   6.425  1.3372  0.4323  0.1228
 1470SOL     OW10371   1.403   3.097   6.965  0.1714 -0.1897  0.4067
 1470SOL    HW110372   1.309   3.088   6.947  0.2506 -1.7906  0.5955
 1470SOL    HW210373   1.407   3.153   7.042 -0.7323 -1.0819  1.1464
 1471SOL     OW10374   0.133   9.369   6.213  0.4892 -0.0152  0.1256
 1471SOL    HW110375   0.228   9.360   6.222  0.7287  1.9993  0.1894
 1471SOL    HW210376   0.097   9.326   6.291  1.4542  0.5213  0.8922
 1472SOL     OW10377   0.360   3.957   2.899 -0.4468  0.6813  0.3023
 1472SOL    HW110378   0.424   3.963   2.970 -1.9468  2.2338  1.6487
 1472SOL    HW210379   0.347   4.048   2.872 -1.2012  0.2746 -0.7440
 1473SOL     OW10380   1.352   7.288   0.617  0.7192 -0.2448  0.4139
 1473SOL    HW110381   1.298   7.353   0.572  0.2415  0.2558  1.6695
 1473SOL    HW210382   1.419   7.340   0.662  0.3951 -0.6064  1.3428
 1474SOL     OW10383   1.226   6.192   5.921 -0.5105 -0.4921  0.2032
 1474SOL    HW110384   1.147   6.175   5.973 -0.6841 -0.1052  0.0684
 1474SOL    HW210385   1.210   6.150   5.837 -1.1562  0.7427 -0.3141
 1475SOL     OW10386   0.377   6.663   4.178 -0.2466 -0.8142 -0.7623
 1475SOL    HW110387   0.321   6.680   4.253 -1.8249  0.4027 -2.1284
 1475SOL    HW210388   0.440   6.735   4.178 -0.3842 -0.6938 -0.7311
 1476SOL     OW10389   1.490   3.691   3.251 -0.9391 -0.2092  0.1047
 1476SOL    HW110390   1.455   3.744   3.323 -0.9177 -0.8379  0.5932
 1476SOL    HW210391   1.572   3.654   3.286 -0.0681  0.7820 -0.8226
 1477SOL     OW10392   6.774   2.746   4.218 -0.1505  0.3988 -0.3812
 1477SOL    HW110393   6.678   2.747   4.217 -0.2103 -0.8778 -2.5006
 1477SOL    HW210394   6.798   2.812   4.283 -2.4539  0.3947  0.5663
 1478SOL     OW10395   7.277   3.380   5.144 -0.1193 -0.1639 -0.2308
 1478SOL    HW110396   7.245   3.464   5.176  1.2293  0.0062  0.7341
 1478SOL    HW210397   7.364   3.399   5.109 -0.4047 -0.8909 -1.4011
 1479SOL     OW10398   9.311   7.886   3.752 -0.3008 -0.1058 -0.8599
 1479SOL    HW110399   9.224   7.854   3.774 -0.3978  0.7452  0.0421
 1479SOL    HW210400   9.296   7.965   3.700 -0.0577 -0.5193 -1.5755
 1480SOL     OW10401   7.785   6.780   2.408  0.0725 -0.3530  0.7206
 1480SOL    HW110402   7.736   6.801   2.328 -1.1118  3.1079  2.1521
 1480SOL    HW210403   7.728   6.720   2.456 -1.1259  0.7765  0.7481
 1481SOL     OW10404   7.737   2.021   5.059  0.4671 -0.7371  0.5748
 1481SOL    HW110405   7.755   2.089   4.994  0.8238 -0.1432  1.2824
 1481SOL    HW210406   7.794   1.948   5.034  1.1218 -0.2513  0.6309
 1482SOL     OW10407   8.060   6.175   1.011 -0.5918  0.5875  0.0029
 1482SOL    HW110408   8.003   6.100   0.995 -1.0185  0.7838  0.5560
 1482SOL    HW210409   8.010   6.250   0.979 -0.7802  0.7970  0.7855
 1483SOL     OW10410   8.506   3.134   0.331 -0.4460 -0.3342 -0.2714
 1483SOL    HW110411   8.575   3.190   0.367  1.6056 -1.1289 -2.6574
 1483SOL    HW210412   8.547   3.049   0.320 -1.7505 -0.8013 -1.9039
 1484SOL     OW10413   7.602   0.077   2.681 -0.0317 -0.0746  0.2965
 1484SOL    HW110414   7.541   0.073   2.607 -0.8269  0.5280  0.8987
 1484SOL    HW210415   7.681   0.116   2.644 -0.0119 -0.8034 -0.4828
 1485SOL     OW10416   2.045   6.025   5.319  0.2287  0.4372  0.4648
 1485SOL    HW110417   2.091   6.055   5.397 -1.1905  0.3318  1.3794
 1485SOL    HW210418   2.080   5.938   5.301  1.1752  0.8034  0.4387
 1486SOL     OW10419   5.124   1.917   7.725 -0.2712 -0.0448 -0.5647
 1486SOL    HW110420   5.129   1.962   7.809 -1.3497 -1.5993  0.3788
 1486SOL    HW210421   5.200   1.859   7.723 -1.3002 -1.5050  0.3073
 1487SOL     OW10422   3.473   2.442   6.317  0.0675  0.5303 -0.4271
 1487SOL    HW110423   3.461   2.469   6.409  0.2204 -2.0476  0.4257
 1487SOL    HW210424   3.403   2.378   6.302  1.2455 -0.5620 -1.4617
 1488SOL     OW10425   3.334   7.708   3.595  0.2853 -0.5405 -0.1102
 1488SOL    HW110426   3.299   7.776   3.538  0.7712  1.9158  2.3130
 1488SOL    HW210427   3.400   7.663   3.542 -0.0642  0.8564 -1.8047
 1489SOL     OW10428   2.410   4.866   3.316  0.9457  0.1122  0.0102
 1489SOL    HW110429   2.464   4.919   3.257  0.2383 -1.8997 -2.6485
 1489SOL    HW210430   2.463   4.789   3.334  0.3950 -0.1717  0.4278
 1490SOL     OW10431   6.916   4.651   1.979  0.8574 -0.1636  0.0688
 1490SOL    HW110432   6.830   4.612   1.998  1.3757 -1.9230 -0.9133
 1490SOL    HW210433   6.902   4.745   1.985 -1.9940 -0.1727 -3.0987
 1491SOL     OW10434   6.206   7.812   7.617 -1.5888  0.2991 -0.4785
 1491SOL    HW110435   6.237   7.830   7.529 -0.2667 -0.7141 -0.2570
 1491SOL    HW210436   6.276   7.843   7.675 -0.5598 -2.5695  0.0131
 1492SOL     OW10437   3.678   6.073   7.561 -0.7087 -0.6621  0.4965
 1492SOL    HW110438   3.675   6.136   7.633  0.1790  0.4318 -0.3885
 1492SOL    HW210439   3.739   6.005   7.591 -0.6247 -0.4009  0.9245
 1493SOL     OW10440   1.652   7.701   3.209 -0.3543 -0.4201 -0.1979
 1493SOL    HW110441   1.580   7.757   3.180 -0.4686 -0.3542  0.2138
 1493SOL    HW210442   1.616   7.612   3.203 -0.6782 -0.3464  0.5954
 1494SOL     OW10443   8.517   7.134   9.170 -0.1374  0.6125  0.2418
 1494SOL    HW110444   8.569   7.071   9.220 -0.1527  0.0848 -0.3949
 1494SOL    HW210445   8.438   7.086   9.146  0.5612  0.3292 -1.6334
 1495SOL     OW10446   7.303   8.477   6.650  0.2054 -0.1539  0.5176
 1495SOL    HW110447   7.381   8.460   6.596 -0.8981 -1.6533 -0.7067
 1495SOL    HW210448   7.333   8.468   6.740  1.3931 -1.0125  0.0563
 1496SOL     OW10449   1.028   3.958   0.526  0.3385 -0.1470 -0.2353
 1496SOL    HW110450   1.056   3.871   0.497  0.5789 -0.6410  1.4132
 1496SOL    HW210451   0.984   3.995   0.449  0.3790 -1.6408 -1.0190
 1497SOL     OW10452   5.967   4.907   1.070 -0.1272  0.4114  0.0790
 1497SOL    HW110453   5.954   5.002   1.080 -2.9043  0.0368  0.8649
 1497SOL    HW210454   5.971   4.874   1.160 -0.7171 -0.3627 -0.1675
 1498SOL     OW10455   0.146   3.672   4.888 -0.1803 -0.1417 -0.3794
 1498SOL    HW110456   0.136   3.660   4.983  1.1313 -0.2781 -0.2382
 1498SOL    HW210457   0.187   3.590   4.858  1.7531  0.8731 -0.6416
 1499SOL     OW10458   8.143   2.552   6.933 -0.3111 -0.0205 -0.1833
 1499SOL    HW110459   8.121   2.459   6.944 -1.4165  0.0371 -1.7493
 1499SOL    HW210460   8.238   2.552   6.921 -0.0425 -0.7508  1.5690
 1500SOL     OW10461   8.701   0.667   0.344  0.1681  0.1360 -0.6899
 1500SOL    HW110462   8.796   0.658   0.350  0.1521  0.7795  1.6083
 1500SOL    HW210463   8.685   0.761   0.355 -0.8114 -0.2385  1.7842
 1501SOL     OW10464   0.843   2.260   6.852  0.0880 -0.3134 -0.3460
 1501SOL    HW110465   0.843   2.273   6.947  0.4111  1.9996 -0.5870
 1501SOL    HW210466   0.815   2.345   6.817 -0.8652 -1.3830 -2.3095
 1502SOL     OW10467   6.179   5.421   5.535 -0.2763  0.5343  0.4306
 1502SOL    HW110468   6.134   5.505   5.544  0.8539  1.2689 -0.6197
 1502SOL    HW210469   6.117   5.367   5.486 -0.7065  0.9860  0.4622
 1503SOL     OW10470   6.648   2.112   6.638 -0.0730  0.1411  0.3309
 1503SOL    HW110471   6.733   2.156   6.643  0.6115 -1.2021  1.3077
 1503SOL    HW210472   6.639   2.088   6.546  0.4130  0.6372  0.1446
 1504SOL     OW10473   7.517   9.088   0.347  0.3873 -0.0056  0.3318
 1504SOL    HW110474   7.476   9.127   0.270  0.4205 -2.1566 -0.8482
 1504SOL    HW210475   7.575   9.021   0.312  0.4179 -1.0392  2.2328
 1505SOL     OW10476   7.639   9.046   5.206  0.0350  0.4067 -0.0965
 1505SOL    HW110477   7.681   9.118   5.159 -0.3796  0.3432 -0.5711
 1505SOL    HW210478   7.566   9.087   5.253 -1.9319 -0.0433 -2.5146
 1506SOL     OW10479   6.437   0.755   4.215  0.4736 -0.2590 -0.2824
 1506SOL    HW110480   6.399   0.670   4.194  0.7154 -0.6171  0.6972
 1506SOL    HW210481   6.426   0.764   4.309  1.6256  0.2183 -0.1771
 1507SOL     OW10482   2.670   6.637   0.485 -0.4654 -0.2503 -0.3025
 1507SOL    HW110483   2.751   6.623   0.437 -0.1326  1.4016 -0.2693
 1507SOL    HW210484   2.698   6.658   0.575 -0.8487  1.2341 -0.5039
 1508SOL     OW10485   8.981   9.128   9.207 -0.2458  0.1889 -0.1963
 1508SOL    HW110486   8.987   9.165   9.119  0.7133 -0.0130 -0.2175
 1508SOL    HW210487   8.915   9.182   9.251  0.1639  1.0772 -0.6519
 1509SOL     OW10488   8.720   0.695   7.150 -0.0343 -0.2401  0.0525
 1509SOL    HW110489   8.693   0.613   7.109  1.1164  0.6326 -2.7292
 1509SOL    HW210490   8.768   0.669   7.228 -1.8391 -2.0590  0.6366
 1510SOL     OW10491   1.143   2.115   2.019  0.4117  0.2128 -0.3034
 1510SOL    HW110492   1.075   2.147   2.079  0.8456 -1.4118  1.1342
 1510SOL    HW210493   1.095   2.058   1.958  0.3752 -0.5305  0.3980
 1511SOL     OW10494   4.316   3.922   9.098 -0.2004 -0.1728  0.0309
 1511SOL    HW110495   4.307   3.832   9.066  0.7450  0.3654 -1.9394
 1511SOL    HW210496   4.290   3.918   9.190 -0.7573 -2.3323 -0.1698
 1512SOL     OW10497   4.206   2.181   5.990  0.5748 -0.4481 -1.0099
 1512SOL    HW110498   4.142   2.142   6.050 -0.0621  1.9185 -0.0170
 1512SOL    HW210499   4.286   2.186   6.041  0.2076  0.9677 -0.5197
 1513SOL     OW10500   0.597   2.919   5.184 -0.0911  0.1387  0.5441
 1513SOL    HW110501   0.579   2.860   5.110  1.0093  1.1442 -0.5623
 1513SOL    HW210502   0.658   2.870   5.239 -1.4413 -0.8920  1.1990
 1514SOL     OW10503   9.215   2.402   0.083 -0.1113  0.1826 -0.0600
 1514SOL    HW110504   9.294   2.440   0.121 -1.5898  2.1850  1.2390
 1514SOL    HW210505   9.175   2.351   0.153  0.1424 -1.0322 -0.7835
 1515SOL     OW10506   7.175   7.064   4.418  0.3523  0.2703  0.8625
 1515SOL    HW110507   7.221   6.986   4.447 -0.5695 -0.9655 -0.8173
 1515SOL    HW210508   7.089   7.032   4.391  0.2863  1.6841 -0.7883
 1516SOL     OW10509   3.086   2.371   8.913  1.3670 -0.2594  0.1792
 1516SOL    HW110510   3.105   2.367   9.007  0.3167 -1.6588  0.3710
 1516SOL    HW210511   3.073   2.280   8.888  2.1272  0.0556 -1.4555
 1517SOL     OW10512   6.547   4.044   6.418  0.1605 -0.4696 -0.1965
 1517SOL    HW110513   6.582   4.078   6.335 -0.4571  0.8522  0.0601
 1517SOL    HW210514   6.455   4.068   6.417 -0.0503 -1.2035  0.4999
 1518SOL     OW10515   2.681   3.878   6.090 -0.1378 -0.3021  0.8017
 1518SOL    HW110516   2.738   3.954   6.086 -0.5299  0.1001  2.1999
 1518SOL    HW210517   2.695   3.842   6.178  0.8079 -2.4775 -0.1559
 1519SOL     OW10518   6.927   4.644   5.304  0.2884  0.4331  0.6041
 1519SOL    HW110519   6.892   4.656   5.392  0.1983  3.4466  0.2579
 1519SOL    HW210520   7.018   4.674   5.309  0.1014  1.2323 -0.4599
 1520SOL     OW10521   6.896   4.585   8.172  0.3423  0.6343  0.1268
 1520SOL    HW110522   6.894   4.623   8.259 -1.4977 -0.2079  0.5003
 1520SOL    HW210523   6.805   4.587   8.142  0.3946 -1.9261 -0.4618
 1521SOL     OW10524   6.836   1.785   9.293 -0.1300 -0.5881 -0.1798
 1521SOL    HW110525   6.798   1.834   9.366  0.9481 -0.2872  0.2116
 1521SOL    HW210526   6.913   1.837   9.267 -1.4770  0.2869 -2.7550
 1522SOL     OW10527   2.283   8.359   9.204 -0.3612 -0.4893  0.0856
 1522SOL    HW110528   2.224   8.394   9.271 -0.7945  0.2505 -0.6577
 1522SOL    HW210529   2.238   8.283   9.169 -0.3139 -0.6431  0.3567
 1523SOL     OW10530   2.593   3.220   4.434  0.5710 -0.1695  0.1905
 1523SOL    HW110531   2.523   3.211   4.499  0.2714 -1.8681 -0.3003
 1523SOL    HW210532   2.589   3.311   4.406 -0.9208 -0.0342  0.7618
 1524SOL     OW10533   3.521   2.040   1.379 -0.5025 -0.0712  0.2700
 1524SOL    HW110534   3.592   2.086   1.334 -0.0574 -0.7322  0.2742
 1524SOL    HW210535   3.509   1.959   1.329  0.6405 -1.2733  1.8335
 1525SOL     OW10536   7.332   6.223   1.902 -0.0624  0.1765 -0.1409
 1525SOL    HW110537   7.310   6.143   1.949  2.2564 -1.0993 -1.1103
 1525SOL    HW210538   7.370   6.194   1.820  2.3442  2.1901  0.1352
 1526SOL     OW10539   6.556   6.380   4.570 -0.3930  0.5781  0.1015
 1526SOL    HW110540   6.596   6.401   4.655  0.0367  0.7407 -0.1397
 1526SOL    HW210541   6.480   6.437   4.564 -0.9064 -0.0208  0.7462
 1527SOL     OW10542   5.812   7.501   2.302 -0.2348  0.1406  0.1323
 1527SOL    HW110543   5.832   7.543   2.386 -0.2114  0.4763 -0.0380
 1527SOL    HW210544   5.896   7.469   2.270 -0.3392 -0.5713  0.5412
 1528SOL     OW10545   5.612   3.683   6.628  0.7029  0.4022 -0.1332
 1528SOL    HW110546   5.537   3.644   6.583  0.4086 -0.3421  0.9546
 1528SOL    HW210547   5.652   3.609   6.674  1.4452  1.0074  0.2013
 1529SOL     OW10548   7.422   0.501   9.164 -0.2795  0.0138 -0.1130
 1529SOL    HW110549   7.501   0.540   9.128  0.6199 -1.4463  0.2040
 1529SOL    HW210550   7.412   0.543   9.250 -0.9294  1.5418 -0.8873
 1530SOL     OW10551   5.443   3.427   4.582 -0.1683 -0.2906 -0.4511
 1530SOL    HW110552   5.433   3.366   4.655 -2.9481  1.2922  0.6442
 1530SOL    HW210553   5.382   3.394   4.515 -0.2411  0.2200 -0.6400
 1531SOL     OW10554   8.200   5.075   6.627 -0.5048  0.3149  0.7974
 1531SOL    HW110555   8.162   4.989   6.610  0.9658 -0.2435  0.2138
 1531SOL    HW210556   8.251   5.062   6.707  2.1560 -0.2216 -0.8575
 1532SOL     OW10557   1.128   1.137   4.211 -0.4614  0.9736 -0.1548
 1532SOL    HW110558   1.131   1.147   4.115  3.5275 -1.1773 -0.4746
 1532SOL    HW210559   1.077   1.057   4.224 -1.3418  1.4771 -0.4037
 1533SOL     OW10560   0.113   5.685   9.264  0.2718 -0.3196  0.0250
 1533SOL    HW110561   0.055   5.701   9.189  0.3814  2.0092  0.3508
 1533SOL    HW210562   0.069   5.726   9.338  1.0931 -0.8506  0.8355
 1534SOL     OW10563   8.049   3.951   1.136  0.4315  0.0303 -0.0891
 1534SOL    HW110564   8.011   3.949   1.224 -0.2362 -3.0291 -0.3373
 1534SOL    HW210565   8.143   3.941   1.151  0.2749 -1.0192  0.3121
 1535SOL     OW10566   6.885   0.953   3.705  0.1843 -0.5437 -0.0294
 1535SOL    HW110567   6.965   0.900   3.704  0.0942 -0.7411  1.2009
 1535SOL    HW210568   6.831   0.916   3.635  1.7633  0.6148 -1.9592
 1536SOL     OW10569   2.591   6.401   5.111  0.2788  0.6349 -0.1924
 1536SOL    HW110570   2.560   6.331   5.053 -2.4502  1.0952  0.5732
 1536SOL    HW210571   2.677   6.371   5.140 -0.4526 -2.0453 -0.4787
 1537SOL     OW10572   2.885   3.811   0.989  0.8523  0.0905  0.2106
 1537SOL    HW110573   2.921   3.886   0.942  0.1070 -0.3252 -1.0707
 1537SOL    HW210574   2.849   3.755   0.920 -1.8676  0.2961  1.3677
 1538SOL     OW10575   4.444   3.907   1.224  0.3994  0.6695 -0.3001
 1538SOL    HW110576   4.524   3.928   1.177  0.4676  0.3033 -0.3550
 1538SOL    HW210577   4.374   3.942   1.169  0.5076  0.7511 -0.3862
 1539SOL     OW10578   0.439   0.069   0.794 -0.0612  0.0886 -0.3280
 1539SOL    HW110579   0.361   0.089   0.845  0.5535 -0.3145  0.8175
 1539SOL    HW210580   0.462  -0.020   0.819  1.6918  0.7551  0.6524
 1540SOL     OW10581   0.474   8.943   1.375  0.4603 -0.2367 -0.0223
 1540SOL    HW110582   0.541   8.964   1.440  0.5824 -0.2024 -0.1577
 1540SOL    HW210583   0.451   8.852   1.394 -0.7431  0.2852  1.1616
 1541SOL     OW10584   3.468   1.030   8.409 -0.3298 -0.1071 -0.5109
 1541SOL    HW110585   3.521   1.053   8.332 -0.4613  0.5041 -0.4275
 1541SOL    HW210586   3.381   1.065   8.389 -0.2352  0.5303  0.1333
 1542SOL     OW10587   3.143   2.679   7.979  0.3132 -0.2653  0.0921
 1542SOL    HW110588   3.204   2.605   7.982 -0.6640 -1.1507 -0.7501
 1542SOL    HW210589   3.097   2.677   8.063  1.8689  0.8223  1.0109
 1543SOL     OW10590   1.703   3.436   2.904  0.0303 -0.4001  0.5864
 1543SOL    HW110591   1.768   3.505   2.919  0.5380 -0.9329  0.8939
 1543SOL    HW210592   1.619   3.481   2.906  0.3397  0.1646  1.0507
 1544SOL     OW10593   1.138   8.999   4.774 -0.3743 -0.3033 -0.2872
 1544SOL    HW110594   1.205   8.939   4.739  1.0441 -0.0988  1.8758
 1544SOL    HW210595   1.059   8.946   4.779  0.8659 -2.1339  1.6542
 1545SOL     OW10596   6.000   4.209   1.360 -0.7239  0.0315  0.4943
 1545SOL    HW110597   5.968   4.120   1.375 -0.0249 -1.0165 -3.1569
 1545SOL    HW210598   5.967   4.232   1.273  0.9926  2.4544  0.3826
 1546SOL     OW10599   6.312   2.646   7.733  0.0983 -0.0384  0.4730
 1546SOL    HW110600   6.287   2.600   7.813  0.8700 -2.3908 -0.5728
 1546SOL    HW210601   6.360   2.582   7.681  0.5298  1.7201 -1.4564
 1547SOL     OW10602   1.922   5.112   2.210 -0.4581  0.6671 -0.3992
 1547SOL    HW110603   1.963   5.055   2.146 -1.0219 -0.0803 -0.1057
 1547SOL    HW210604   1.970   5.194   2.203  1.4902 -0.3576  0.3684
 1548SOL     OW10605   3.874   1.414   6.777 -0.3782 -0.3933 -0.1479
 1548SOL    HW110606   3.827   1.410   6.694  2.4060 -1.8772 -1.8210
 1548SOL    HW210607   3.840   1.340   6.828  0.2379 -1.6019 -1.4224
 1549SOL     OW10608   7.906   2.496   0.979  0.2242 -0.5526  0.0876
 1549SOL    HW110609   7.933   2.583   0.948 -1.2329  0.3376  1.2317
 1549SOL    HW210610   7.962   2.436   0.930  3.0566  1.0949  1.0567
 1550SOL     OW10611   9.241   4.641   3.959  0.0889 -0.6619  0.3680
 1550SOL    HW110612   9.158   4.656   4.005 -1.9808  1.3087 -3.4638
 1550SOL    HW210613   9.241   4.708   3.890  3.9949 -1.8669 -1.0098
 1551SOL     OW10614   5.093   5.270   1.766 -0.5966  0.5662  0.1617
 1551SOL    HW110615   5.054   5.332   1.704 -1.2840  0.5970  0.6136
 1551SOL    HW210616   5.020   5.240   1.819  0.1157  1.3390  1.6674
 1552SOL     OW10617   3.989   3.837   5.770 -0.2563  0.3429  0.1117
 1552SOL    HW110618   3.951   3.875   5.850  1.3365  1.1025  0.5380
 1552SOL    HW210619   4.026   3.912   5.724 -1.5935  0.0000 -1.6450
 1553SOL     OW10620   9.279   3.616   1.010 -0.3575  0.5236 -0.0208
 1553SOL    HW110621   9.294   3.558   0.935 -1.6123  0.3399 -0.1640
 1553SOL    HW210622   9.339   3.584   1.077 -0.8813 -0.8516 -0.1641
 1554SOL     OW10623   1.747   8.005   1.803  0.2190 -0.2028 -0.1178
 1554SOL    HW110624   1.812   8.072   1.784 -0.1342 -0.1307 -1.1672
 1554SOL    HW210625   1.785   7.954   1.875  0.0922  1.6408  1.3046
 1555SOL     OW10626   2.977   1.815   1.208  0.5116  0.2285  0.1945
 1555SOL    HW110627   2.969   1.878   1.280  0.1974  0.4347 -0.0193
 1555SOL    HW210628   3.018   1.739   1.248  2.3161  1.1148  0.1355
 1556SOL     OW10629   7.048   7.915   0.236  0.6426 -0.3502 -0.3240
 1556SOL    HW110630   6.990   7.878   0.303  0.9210 -0.9385 -0.4022
 1556SOL    HW210631   7.088   7.839   0.195  1.9573  0.0624  0.1601
 1557SOL     OW10632   6.068   4.256   5.036  0.4895 -0.4363 -0.1494
 1557SOL    HW110633   6.076   4.191   5.105 -1.8104  1.0054  1.6229
 1557SOL    HW210634   6.107   4.335   5.073 -0.2938  0.2153 -0.6793
 1558SOL     OW10635   7.779   5.166   7.713 -0.1436  0.6992  0.4485
 1558SOL    HW110636   7.702   5.129   7.756  0.5225 -1.2049  0.0931
 1558SOL    HW210637   7.757   5.258   7.699 -1.4867  0.6996  2.2758
 1559SOL     OW10638   8.761   0.258   2.917  0.2140  0.4357 -0.0816
 1559SOL    HW110639   8.688   0.286   2.862 -0.2194 -1.1679 -0.3791
 1559SOL    HW210640   8.834   0.247   2.857 -0.1715 -0.9904 -0.3442
 1560SOL     OW10641   0.170   2.817   0.051 -0.6524  0.3816 -0.5382
 1560SOL    HW110642   0.235   2.883   0.077 -0.3156 -0.4268  0.7484
 1560SOL    HW210643   0.221   2.752   0.002 -0.7663  0.4624 -0.7667
 1561SOL     OW10644   5.397   5.817   8.580  0.5765 -0.3911 -0.6777
 1561SOL    HW110645   5.440   5.889   8.533  3.2733 -1.0914  0.5121
 1561SOL    HW210646   5.341   5.775   8.515  1.0981  1.0720 -2.1400
 1562SOL     OW10647   7.539   4.615   5.527  0.0597 -0.0568  0.5260
 1562SOL    HW110648   7.524   4.656   5.612 -0.2126 -1.8277  1.3670
 1562SOL    HW210649   7.611   4.553   5.542  1.0264  0.6548 -0.9056
 1563SOL     OW10650   4.659   2.720   7.853  0.0325  0.1505  0.1697
 1563SOL    HW110651   4.575   2.677   7.873  0.6975 -1.0869  0.4122
 1563SOL    HW210652   4.708   2.716   7.935  0.8550 -0.3827 -0.3359
 1564SOL     OW10653   5.034   6.619   1.766  0.4683  0.3027  0.3733
 1564SOL    HW110654   5.102   6.624   1.833 -2.3683  0.3724  3.4996
 1564SOL    HW210655   4.995   6.532   1.777 -0.4495  0.5369 -0.8183
 1565SOL     OW10656   2.731   2.435   2.300 -0.3802 -0.1811 -0.1338
 1565SOL    HW110657   2.774   2.389   2.228  0.2627 -1.5115  1.0605
 1565SOL    HW210658   2.759   2.389   2.378 -1.0143  1.2706  0.9981
 1566SOL     OW10659   5.608   3.147   2.401 -0.0520  0.2044  0.1848
 1566SOL    HW110660   5.651   3.072   2.443  0.1424  1.3423  2.1237
 1566SOL    HW210661   5.680   3.200   2.368 -0.1946 -0.4874 -1.3425
 1567SOL     OW10662   7.624   8.622   6.922  0.1748  0.8114 -0.5536
 1567SOL    HW110663   7.603   8.537   6.885  0.4953  1.8542 -3.3946
 1567SOL    HW210664   7.719   8.622   6.933  0.0548  0.3906  0.7431
 1568SOL     OW10665   8.779   4.474   4.954  0.2543  0.6030  0.2145
 1568SOL    HW110666   8.684   4.461   4.954  0.1484  1.1501 -1.5123
 1568SOL    HW210667   8.816   4.387   4.962 -0.4141  0.1662 -1.2152
 1569SOL     OW10668   7.630   8.120   6.731  0.2080 -0.8829 -0.6304
 1569SOL    HW110669   7.545   8.124   6.774 -0.1746 -0.3892 -1.4122
 1569SOL    HW210670   7.612   8.083   6.645  0.5715  0.3447 -1.2668
 1570SOL     OW10671   2.301   6.913   7.909 -0.0754 -0.0091 -0.6134
 1570SOL    HW110672   2.337   6.883   7.992  0.1968  1.8193 -0.0187
 1570SOL    HW210673   2.370   6.969   7.872 -0.2593 -0.6513 -2.0097
 1571SOL     OW10674   3.663   3.369   6.174 -0.1463 -0.2858 -0.1440
 1571SOL    HW110675   3.742   3.373   6.229 -0.1172  0.1596 -0.2068
 1571SOL    HW210676   3.660   3.279   6.143 -0.4197 -0.6747  0.9655
 1572SOL     OW10677   0.359   2.953   7.062  0.4588 -0.0516  0.3321
 1572SOL    HW110678   0.437   3.005   7.080 -0.0313  0.7678  0.1817
 1572SOL    HW210679   0.392   2.867   7.036  1.2594 -0.1776  1.6931
 1573SOL     OW10680   5.099   8.039   2.654  0.5942  0.1166  0.0583
 1573SOL    HW110681   5.018   8.073   2.693  1.0638  0.8694  0.3902
 1573SOL    HW210682   5.147   8.000   2.727  1.3327  1.2488  0.2028
 1574SOL     OW10683   9.051   6.149   5.806  0.4806 -0.3682  0.0252
 1574SOL    HW110684   9.102   6.175   5.883  0.8639  1.1695 -0.7143
 1574SOL    HW210685   9.116   6.116   5.744  0.3367 -0.2673 -0.1788
 1575SOL     OW10686   6.524   2.787   7.832 -0.6366  0.3040 -0.5783
 1575SOL    HW110687   6.584   2.724   7.871  0.3892  1.3895 -0.3298
 1575SOL    HW210688   6.462   2.734   7.782  0.1519 -0.8879 -0.3280
 1576SOL     OW10689   3.300   7.736   1.530 -0.2797  0.5450 -0.2688
 1576SOL    HW110690   3.344   7.820   1.520  0.7030  0.1450  0.5014
 1576SOL    HW210691   3.343   7.679   1.466 -1.8409  0.9289 -1.7385
 1577SOL     OW10692   3.723   5.284   4.853  0.3131  0.2283 -0.2046
 1577SOL    HW110693   3.744   5.298   4.945 -0.3012  1.6126 -0.2455
 1577SOL    HW210694   3.681   5.366   4.825 -1.1576 -0.8281 -1.2291
 1578SOL     OW10695   7.368   5.530   1.505 -0.5058  0.0860  0.2014
 1578SOL    HW110696   7.356   5.445   1.547 -0.4294 -0.4987 -0.9276
 1578SOL    HW210697   7.316   5.525   1.425  0.9879  0.4053 -0.8230
 1579SOL     OW10698   0.330   2.475   8.520  0.1125 -0.3330  0.5575
 1579SOL    HW110699   0.259   2.534   8.498  1.1910  1.3518  1.3540
 1579SOL    HW210700   0.293   2.387   8.511 -1.5435  0.4519 -0.6559
 1580SOL     OW10701   4.860   1.316   5.037  0.8752 -0.1508  0.5138
 1580SOL    HW110702   4.900   1.269   5.110  1.7880 -0.3413 -0.0841
 1580SOL    HW210703   4.855   1.251   4.967  0.7283  0.2396  0.1598
 1581SOL     OW10704   7.797   7.266   3.399 -0.4450  0.6099  0.6310
 1581SOL    HW110705   7.863   7.309   3.346  1.5645 -0.4594  2.1337
 1581SOL    HW210706   7.790   7.320   3.478 -0.2647 -0.0445  1.1078
 1582SOL     OW10707   3.713   8.406   2.764 -0.3449 -0.2070  0.0708
 1582SOL    HW110708   3.720   8.312   2.748 -0.6966 -0.5431  1.7913
 1582SOL    HW210709   3.656   8.414   2.840 -0.2432  1.3979  0.0101
 1583SOL     OW10710   5.375   0.500   2.389 -0.5297  0.4488 -0.1794
 1583SOL    HW110711   5.412   0.583   2.421 -0.1518  0.9875 -1.8989
 1583SOL    HW210712   5.285   0.522   2.364 -0.8454  0.0205  0.5767
 1584SOL     OW10713   3.199   1.563   6.041 -0.2964 -0.3618 -0.1102
 1584SOL    HW110714   3.250   1.591   6.117 -0.2277  2.4467 -1.0752
 1584SOL    HW210715   3.236   1.478   6.017  1.4288 -0.1023  1.4167
 1585SOL     OW10716   2.941   0.502   8.177  0.1697 -0.5408  0.6003
 1585SOL    HW110717   2.948   0.574   8.239 -1.8284  0.8244 -0.6490
 1585SOL    HW210718   2.852   0.507   8.143  0.3336 -2.8962 -0.4181
 1586SOL     OW10719   1.037   0.961   1.367 -0.3331  0.1673 -0.0757
 1586SOL    HW110720   1.122   0.938   1.404 -0.6039 -0.4595  0.1885
 1586SOL    HW210721   1.056   1.027   1.300  0.7567 -2.1538 -2.2258
 1587SOL     OW10722   3.038   6.586   7.417  0.1433  0.5138 -0.2194
 1587SOL    HW110723   2.972   6.640   7.372  4.4311  5.0209 -2.0239
 1587SOL    HW210724   3.048   6.626   7.503  0.2847 -0.4350  0.2216
 1588SOL     OW10725   3.334   2.990   1.871  0.3431  0.4670  0.1558
 1588SOL    HW110726   3.286   2.907   1.872  1.3162 -0.1494 -1.3704
 1588SOL    HW210727   3.270   3.054   1.842 -0.3644  0.2386  1.1419
 1589SOL     OW10728   3.724   3.508   8.101  0.2154 -0.2265  0.7934
 1589SOL    HW110729   3.755   3.423   8.070 -1.4176 -0.7894  0.5712
 1589SOL    HW210730   3.755   3.570   8.035 -1.1988 -1.1052 -0.8055
 1590SOL     OW10731   4.648   1.634   3.290 -0.0429  0.4347 -0.6215
 1590SOL    HW110732   4.739   1.663   3.298  0.0244  0.0221  0.2712
 1590SOL    HW210733   4.624   1.654   3.199 -0.1053  3.4986 -0.0232
 1591SOL     OW10734   0.592   4.892   0.987 -0.1598  0.2846 -0.0936
 1591SOL    HW110735   0.595   4.971   0.933 -0.3574  0.4027  0.0675
 1591SOL    HW210736   0.518   4.842   0.953 -1.7564  1.4279  1.5292
 1592SOL     OW10737   7.395   2.874   8.859  0.2687  0.4240  0.1867
 1592SOL    HW110738   7.386   2.966   8.887 -0.0012 -0.2318  2.4668
 1592SOL    HW210739   7.310   2.853   8.820  0.3563  1.1524 -0.4167
 1593SOL     OW10740   2.589   5.788   8.290 -0.8322 -0.2383  0.1836
 1593SOL    HW110741   2.606   5.808   8.198  0.7066  0.4135  0.5803
 1593SOL    HW210742   2.560   5.872   8.327 -0.2695 -0.2083  0.5535
 1594SOL     OW10743   1.419   6.265   7.309  0.3484 -0.4756 -0.7614
 1594SOL    HW110744   1.391   6.248   7.399  0.8172  0.2510 -0.4698
 1594SOL    HW210745   1.513   6.247   7.309  0.6513  0.9473 -0.7124
 1595SOL     OW10746   3.840   0.669   0.050 -0.1602  0.0639  0.1334
 1595SOL    HW110747   3.756   0.624   0.042 -1.0372  1.3737  1.3566
 1595SOL    HW210748   3.887   0.647  -0.030 -0.9197 -2.1787  0.2426
 1596SOL     OW10749   6.028   8.774   8.072  0.5318 -0.0929  0.1774
 1596SOL    HW110750   5.996   8.791   7.984  1.4581  0.5819 -0.0405
 1596SOL    HW210751   6.079   8.693   8.064 -0.9764 -1.1279  0.5093
 1597SOL     OW10752   5.289   4.017   2.884  0.2691 -0.6652 -0.0301
 1597SOL    HW110753   5.257   4.046   2.969 -0.2468 -0.9413 -0.1251
 1597SOL    HW210754   5.379   3.987   2.901 -0.1002 -1.4733  0.5817
 1598SOL     OW10755   1.573   6.522   9.288 -0.7125 -0.4310  0.2529
 1598SOL    HW110756   1.591   6.440   9.241 -0.6053 -0.8703  1.0401
 1598SOL    HW210757   1.605   6.591   9.230 -0.3912 -0.9765 -0.2257
 1599SOL     OW10758   3.788   8.634   1.275 -0.2205 -0.6484 -0.5987
 1599SOL    HW110759   3.707   8.680   1.298 -0.6299 -0.8857 -1.5321
 1599SOL    HW210760   3.786   8.627   1.180  1.0321 -0.4365 -0.6549
 1600SOL     OW10761   0.213   6.748   5.746 -0.0230  0.2902  0.0255
 1600SOL    HW110762   0.132   6.789   5.776  0.1245  0.1880  0.5718
 1600SOL    HW210763   0.273   6.821   5.731  0.4104  0.2727  1.5014
 1601SOL     OW10764   8.893   3.351   6.965 -0.7691 -0.1840  0.1577
 1601SOL    HW110765   8.824   3.378   6.905 -1.5988  0.1275  1.2068
 1601SOL    HW210766   8.905   3.257   6.948 -0.4708  0.0498 -0.9750
 1602SOL     OW10767   6.105   6.921   1.966  0.3716  0.3160 -0.1572
 1602SOL    HW110768   6.137   7.002   1.925 -0.2118  0.5673 -0.1289
 1602SOL    HW210769   6.075   6.949   2.053  0.3302  0.0339 -0.0809
 1603SOL     OW10770   0.154   7.830   3.399  0.0118  0.1520  0.3918
 1603SOL    HW110771   0.104   7.901   3.439  2.4466  1.1644  1.8956
 1603SOL    HW210772   0.139   7.754   3.456 -0.2449  0.2865  0.5039
 1604SOL     OW10773   3.607   3.763   0.875  0.1807  0.4218 -0.4613
 1604SOL    HW110774   3.614   3.841   0.930 -0.1309  0.9211 -1.1113
 1604SOL    HW210775   3.690   3.759   0.827 -0.4551  1.3787 -1.7243
 1605SOL     OW10776   6.594   2.824   3.196 -0.0135  0.0357  0.2014
 1605SOL    HW110777   6.553   2.737   3.192  0.0275 -0.4392  4.6805
 1605SOL    HW210778   6.523   2.882   3.223  0.8841  0.3789  1.9852
 1606SOL     OW10779   2.073   0.251   7.898  0.3944 -0.1707 -0.0404
 1606SOL    HW110780   2.063   0.333   7.850  0.7377  0.3487  0.7487
 1606SOL    HW210781   1.986   0.212   7.898  0.0031  0.6865  0.4235
 1607SOL     OW10782   2.382   2.095   0.027 -0.1940  0.4169  0.7080
 1607SOL    HW110783   2.447   2.048  -0.025  0.2570 -0.6640  2.1796
 1607SOL    HW210784   2.412   2.186   0.026  0.9903  0.0467  0.8256
 1608SOL     OW10785   3.652   8.516   6.569 -0.2194  0.0499  0.7135
 1608SOL    HW110786   3.685   8.557   6.649 -0.9559  0.4356  0.8310
 1608SOL    HW210787   3.581   8.460   6.598 -2.3345  2.2538  0.0964
 1609SOL     OW10788   2.098   1.410   7.778 -0.5038  0.4338 -0.0261
 1609SOL    HW110789   2.083   1.316   7.768  0.2054  0.2592  0.4726
 1609SOL    HW210790   2.011   1.449   7.770 -0.7373 -0.2118 -0.7618
 1610SOL     OW10791   0.081   4.547   8.716 -0.0613  0.0961 -0.0246
 1610SOL    HW110792   0.067   4.470   8.771 -0.6838  1.2081  1.4287
 1610SOL    HW210793  -0.000   4.556   8.666 -0.2258  0.1494  0.2505
 1611SOL     OW10794   4.632   1.915   7.546  0.5815  0.1622 -0.2444
 1611SOL    HW110795   4.593   1.905   7.633 -0.2030 -3.0599 -0.8253
 1611SOL    HW210796   4.723   1.940   7.563  0.0258  1.2330  1.3926
 1612SOL     OW10797   8.081   6.004   2.151 -0.2092 -0.0518  0.9210
 1612SOL    HW110798   8.042   6.045   2.229 -1.3675 -3.2151  2.1805
 1612SOL    HW210799   8.113   5.919   2.182  0.2923 -0.9837 -1.8517
 1613SOL     OW10800   1.152   2.510   7.112 -0.4913  0.5187 -0.2578
 1613SOL    HW110801   1.213   2.537   7.043 -1.2949 -0.5807 -1.4611
 1613SOL    HW210802   1.112   2.591   7.142  0.7717  1.1440 -0.1864
 1614SOL     OW10803   8.682   5.202   7.009  0.6738  0.1008 -0.5264
 1614SOL    HW110804   8.771   5.202   6.974  0.4409  0.5792 -1.1558
 1614SOL    HW210805   8.627   5.226   6.933  0.2869  2.7561  0.4832
 1615SOL     OW10806   4.082   1.853   0.238 -0.1851 -0.0365 -0.5694
 1615SOL    HW110807   4.134   1.781   0.200  1.7867  0.5960  0.7482
 1615SOL    HW210808   4.088   1.923   0.173  1.1141  0.2045 -0.2274
 1616SOL     OW10809   1.744   2.779   8.378 -0.7404 -0.3971 -0.2190
 1616SOL    HW110810   1.762   2.790   8.472 -1.3019  0.0922 -0.1652
 1616SOL    HW210811   1.794   2.848   8.336  1.9119 -2.3670 -0.5792
 1617SOL     OW10812   3.172   2.022   9.135  0.5529 -0.4314  0.9304
 1617SOL    HW110813   3.202   2.088   9.197  1.1361  0.9271 -0.6906
 1617SOL    HW210814   3.241   1.955   9.135  0.8583 -0.1208  1.2731
 1618SOL     OW10815   8.535   2.524   8.690 -0.1825 -0.1158 -0.1327
 1618SOL    HW110816   8.447   2.554   8.713  0.0232  0.4111 -0.0055
 1618SOL    HW210817   8.590   2.558   8.761  0.1695 -0.1455 -0.3932
 1619SOL     OW10818   9.100   4.533   5.341  0.3101 -0.4628  0.0858
 1619SOL    HW110819   9.107   4.506   5.433 -2.1461 -0.9856  0.1909
 1619SOL    HW210820   9.006   4.528   5.322  0.8223 -0.9830 -2.6640
 1620SOL     OW10821   2.328   8.900   2.726 -0.6782 -0.1917  0.3746
 1620SOL    HW110822   2.332   8.947   2.643 -1.7383 -1.6327 -0.5564
 1620SOL    HW210823   2.420   8.886   2.751 -0.3183 -0.7458 -1.1706
 1621SOL     OW10824   1.306   3.619   1.883  0.1414  0.4107  0.2126
 1621SOL    HW110825   1.300   3.554   1.812  0.2984  1.5696 -0.8876
 1621SOL    HW210826   1.216   3.645   1.900  0.2418  1.8111 -1.1882
 1622SOL     OW10827   8.214   6.268   2.325  0.2292 -0.4519 -0.7051
 1622SOL    HW110828   8.170   6.351   2.308 -1.1292 -0.6824  1.2874
 1622SOL    HW210829   8.143   6.207   2.345  1.2996 -1.5980 -0.2669
 1623SOL     OW10830   7.534   8.235   4.928 -0.5131  0.7023 -0.0261
 1623SOL    HW110831   7.513   8.279   4.846  2.0562  0.1389 -1.0834
 1623SOL    HW210832   7.539   8.142   4.904  0.6932  0.5762  0.6462
 1624SOL     OW10833   7.017   7.803   4.634 -0.6283  0.2362 -0.3172
 1624SOL    HW110834   7.020   7.828   4.541 -1.4145  0.1574 -0.3641
 1624SOL    HW210835   7.053   7.878   4.680  1.5031 -0.4076 -0.8017
 1625SOL     OW10836   3.244   1.124   4.932  0.1156  0.3503 -0.7269
 1625SOL    HW110837   3.196   1.127   5.015  2.0122  0.9406  0.4070
 1625SOL    HW210838   3.252   1.030   4.913  0.4307  0.1750  0.2232
 1626SOL     OW10839   7.511   0.835   7.278  0.8194  0.5207  1.1237
 1626SOL    HW110840   7.573   0.897   7.240 -1.4253  0.9543 -2.2647
 1626SOL    HW210841   7.427   0.882   7.277 -0.7587 -2.1377 -0.5705
 1627SOL     OW10842   3.224   0.446   2.318 -0.4706 -0.0297 -0.1188
 1627SOL    HW110843   3.178   0.513   2.267 -1.5358 -0.3469  0.3765
 1627SOL    HW210844   3.266   0.390   2.253  0.3970  1.0798 -0.5406
 1628SOL     OW10845   6.641   4.115   5.502 -0.1419 -0.2045  0.1475
 1628SOL    HW110846   6.722   4.069   5.480 -1.2314 -2.1400  0.0586
 1628SOL    HW210847   6.651   4.201   5.460  2.3465  0.0965  1.1328
 1629SOL     OW10848   0.220   9.054   1.049 -0.1730  0.3338  0.3391
 1629SOL    HW110849   0.310   9.074   1.076 -0.2411  0.6720  0.3127
 1629SOL    HW210850   0.165   9.103   1.109 -0.3377  0.3091  0.2075
 1630SOL     OW10851   0.911   1.958   6.422 -0.4465  0.4683 -0.7922
 1630SOL    HW110852   0.817   1.970   6.437 -0.3244  0.8554 -0.3373
 1630SOL    HW210853   0.935   2.030   6.364  0.0813  1.9273  1.1408
 1631SOL     OW10854   3.741   6.109   6.758 -0.2360 -0.4600 -0.0053
 1631SOL    HW110855   3.765   6.109   6.850  0.4966 -1.0862 -0.1875
 1631SOL    HW210856   3.812   6.155   6.714  0.6725 -2.2822 -0.5433
 1632SOL     OW10857   3.900   9.134   0.630  0.1876 -0.3091  0.8614
 1632SOL    HW110858   3.956   9.127   0.708 -0.0439 -0.7513  0.9927
 1632SOL    HW210859   3.817   9.096   0.657  0.1120 -0.4879  0.3905
 1633SOL     OW10860   7.058   6.703   8.396 -0.3563  0.4412 -0.1655
 1633SOL    HW110861   7.028   6.648   8.323 -1.8693  1.4401 -0.3557
 1633SOL    HW210862   7.041   6.650   8.474  1.5841 -0.7745 -0.4923
 1634SOL     OW10863   3.044   5.999   7.282 -0.0316 -0.0222  0.1039
 1634SOL    HW110864   3.059   6.014   7.189  1.4135  0.2771  0.3623
 1634SOL    HW210865   2.989   6.073   7.310 -0.2679  0.0162 -0.4616
 1635SOL     OW10866   4.937   7.061   7.630 -0.0112 -0.0236 -0.0572
 1635SOL    HW110867   4.857   7.086   7.676 -1.8619 -1.2900 -2.3883
 1635SOL    HW210868   4.936   7.113   7.549 -0.1014 -2.1136 -1.4936
 1636SOL     OW10869   3.653   1.241   8.029  0.3999  0.4562  0.0326
 1636SOL    HW110870   3.614   1.300   8.093 -1.4185 -0.1181 -0.5029
 1636SOL    HW210871   3.745   1.269   8.024  0.1328  1.7255  1.4677
 1637SOL     OW10872   3.653   3.126   9.277 -0.3386 -0.2952 -0.1085
 1637SOL    HW110873   3.735   3.135   9.326 -0.1731  0.1556 -0.4710
 1637SOL    HW210874   3.586   3.151   9.339 -0.3304 -1.8910  0.6138
 1638SOL     OW10875   5.467   8.872   5.793 -0.1267 -0.4624  0.5797
 1638SOL    HW110876   5.537   8.856   5.857 -0.1438 -0.0085  0.7208
 1638SOL    HW210877   5.465   8.794   5.738  0.7762 -0.3063  0.3122
 1639SOL     OW10878   5.573   5.345   3.821  0.0328  0.1277 -0.4454
 1639SOL    HW110879   5.499   5.351   3.882  0.3209 -1.9522  0.1959
 1639SOL    HW210880   5.643   5.394   3.865 -0.9387  2.2067 -1.1100
 1640SOL     OW10881   1.730   4.277   8.876  0.4180 -0.0720 -0.1579
 1640SOL    HW110882   1.790   4.242   8.810  0.7150 -0.1273  0.1367
 1640SOL    HW210883   1.702   4.201   8.926  0.0293 -0.0567 -0.3533
 1641SOL     OW10884   4.303   6.266   2.819 -0.5824  0.5726 -0.1620
 1641SOL    HW110885   4.316   6.218   2.900 -2.5832 -0.1345 -0.1982
 1641SOL    HW210886   4.358   6.344   2.827  0.4856 -0.2866  1.1481
 1642SOL     OW10887   6.426   5.784   0.342  0.0724 -0.5293  0.1526
 1642SOL    HW110888   6.380   5.715   0.295  0.4236 -0.2626 -0.5992
 1642SOL    HW210889   6.356   5.842   0.373 -0.2253 -1.2255  0.8213
 1643SOL     OW10890   0.289   8.687   4.565  0.1674  0.7146  0.6055
 1643SOL    HW110891   0.282   8.782   4.554  0.6353  0.8433  1.3966
 1643SOL    HW210892   0.238   8.667   4.643 -0.0438  0.2956  0.3656
 1644SOL     OW10893   0.824   5.452   6.294 -0.1371  0.2192  0.3614
 1644SOL    HW110894   0.736   5.464   6.260 -0.8451  0.2758  2.1172
 1644SOL    HW210895   0.815   5.462   6.389  1.6624 -0.3374  0.6312
 1645SOL     OW10896   7.747   4.660   2.966 -0.5133  0.6292  0.3510
 1645SOL    HW110897   7.838   4.669   2.994  0.2971  0.7904 -2.0546
 1645SOL    HW210898   7.739   4.720   2.892 -1.7413 -1.3779 -1.2684
 1646SOL     OW10899   6.476   9.090   0.331  0.0877 -0.2896  0.6923
 1646SOL    HW110900   6.437   9.027   0.392  1.7680 -0.8329  1.2994
 1646SOL    HW210901   6.531   9.145   0.387  2.4262 -1.3894 -0.3561
 1647SOL     OW10902   0.785   1.569   3.744 -0.4007 -0.6889  0.0078
 1647SOL    HW110903   0.872   1.532   3.756  0.2656  0.9580  0.4702
 1647SOL    HW210904   0.798   1.640   3.681 -1.1995  0.2951  0.9246
 1648SOL     OW10905   6.961   0.779   4.321  0.0708  0.4575  0.3829
 1648SOL    HW110906   6.872   0.752   4.344  1.0361 -0.7271  3.1502
 1648SOL    HW210907   6.967   0.870   4.351 -0.5795  1.0283 -1.1161
 1649SOL     OW10908   0.899   3.949   0.271 -0.2733 -0.0290  0.2722
 1649SOL    HW110909   0.927   4.038   0.250 -1.4426  0.1163 -0.7780
 1649SOL    HW210910   0.804   3.951   0.264 -0.2695 -1.5942 -0.7430
 1650SOL     OW10911   5.247   0.124   5.693 -0.4217 -0.2694 -0.4671
 1650SOL    HW110912   5.298   0.057   5.648  1.2469  0.1219  0.7478
 1650SOL    HW210913   5.270   0.206   5.649  0.2252 -0.0583  0.2448
 1651SOL     OW10914   7.695   6.519   4.100 -0.5204 -0.5045  0.1286
 1651SOL    HW110915   7.661   6.549   4.015  2.0239 -1.0709 -1.2032
 1651SOL    HW210916   7.755   6.588   4.126 -1.5439 -0.1698  1.7151
 1652SOL     OW10917   1.638   8.926   5.169  0.3454  0.0808 -0.2632
 1652SOL    HW110918   1.699   8.999   5.182 -0.1539  0.3912  0.3486
 1652SOL    HW210919   1.583   8.955   5.096  0.7787 -0.1082 -0.6733
 1653SOL     OW10920   8.419   4.915   2.596 -0.3840 -0.0797 -0.3177
 1653SOL    HW110921   8.343   4.900   2.652 -0.3112 -0.4507 -0.3121
 1653SOL    HW210922   8.458   4.828   2.585 -0.7197 -0.1092 -1.4030
 1654SOL     OW10923   2.621   6.239   1.355 -0.3991 -0.7398  0.0859
 1654SOL    HW110924   2.548   6.179   1.367 -0.6319 -0.5144 -0.1706
 1654SOL    HW210925   2.584   6.311   1.303  0.1263 -0.8595 -0.4648
 1655SOL     OW10926   2.667   4.584   5.911 -0.1650 -0.1594  0.0070
 1655SOL    HW110927   2.717   4.536   5.844 -0.7269 -1.5018  0.5021
 1655SOL    HW210928   2.699   4.549   5.994  2.1766  3.0987  0.6734
 1656SOL     OW10929   7.337   2.313   4.434  0.2454 -0.0208  0.3771
 1656SOL    HW110930   7.294   2.254   4.496 -1.1211 -1.0432 -1.4788
 1656SOL    HW210931   7.266   2.355   4.386  1.2605  0.9289 -0.3503
 1657SOL     OW10932   3.012   7.527   8.738 -0.5641  0.2121  0.5254
 1657SOL    HW110933   2.928   7.488   8.761 -1.3452  1.7088  0.3241
 1657SOL    HW210934   3.056   7.542   8.821  0.0816 -1.7238  0.5800
 1658SOL     OW10935   4.999   2.971   5.665  0.2714  0.1934 -0.1132
 1658SOL    HW110936   5.075   3.007   5.712  2.0596 -2.5793 -0.6699
 1658SOL    HW210937   4.983   3.035   5.595  3.4008  0.0372 -1.1698
 1659SOL     OW10938   6.247   0.179   5.520  0.3486 -0.0180  0.0340
 1659SOL    HW110939   6.336   0.146   5.509  0.5371  0.7920 -1.0719
 1659SOL    HW210940   6.221   0.208   5.432 -1.3433 -1.0554  0.1544
 1660SOL     OW10941   9.245   5.924   1.710  0.1265 -0.1718  0.1887
 1660SOL    HW110942   9.175   5.860   1.720 -0.7681  0.2412 -2.6175
 1660SOL    HW210943   9.232   5.985   1.782  0.8276 -2.8408  2.7938
 1661SOL     OW10944   3.362   6.468   0.740  0.7783 -0.0668  0.3415
 1661SOL    HW110945   3.430   6.529   0.714  1.6886 -0.3146  2.0284
 1661SOL    HW210946   3.369   6.395   0.677  1.7699  0.1150  0.2396
 1662SOL     OW10947   8.181   1.030   2.459 -0.4267 -1.0646 -0.4012
 1662SOL    HW110948   8.113   1.011   2.394 -1.4741 -0.1568  0.4003
 1662SOL    HW210949   8.245   0.960   2.447 -1.5398 -1.9971 -1.1184
 1663SOL     OW10950   7.059   0.788   1.972 -0.3713 -0.2824  0.1332
 1663SOL    HW110951   6.994   0.771   2.040 -1.5717 -0.2556 -0.9665
 1663SOL    HW210952   7.097   0.702   1.953 -0.0762 -0.2996  0.7711
 1664SOL     OW10953   4.326   8.906   8.817 -0.1926  0.0075 -0.1471
 1664SOL    HW110954   4.415   8.931   8.791  0.0038 -0.6503 -0.1221
 1664SOL    HW210955   4.338   8.855   8.896 -0.6369  0.3224  0.1271
 1665SOL     OW10956   8.016   4.060   0.729 -0.5885 -0.6750 -0.4147
 1665SOL    HW110957   8.022   3.974   0.770  2.3083 -0.2645  0.1970
 1665SOL    HW210958   8.021   4.122   0.801 -1.4194  0.0427 -0.9498
 1666SOL     OW10959   3.844   7.803   1.975  0.1444 -0.0287 -0.1535
 1666SOL    HW110960   3.870   7.884   2.019 -0.1723 -1.7321  3.5304
 1666SOL    HW210961   3.756   7.784   2.009 -0.0001 -1.6766 -1.3245
 1667SOL     OW10962   7.233   3.238   3.629  0.7156 -0.0162 -0.3193
 1667SOL    HW110963   7.304   3.298   3.605 -0.5484  1.4114 -0.6117
 1667SOL    HW210964   7.275   3.175   3.688  2.3926  0.3132 -1.0838
 1668SOL     OW10965   8.468   5.795   3.563 -0.0077  0.9088  0.0961
 1668SOL    HW110966   8.460   5.790   3.468  0.7927 -0.7366  0.0812
 1668SOL    HW210967   8.486   5.887   3.580 -0.4825  1.2919 -1.3091
 1669SOL     OW10968   2.513   2.272   1.956  0.1274  0.1795 -0.2900
 1669SOL    HW110969   2.507   2.193   1.904 -0.8119  0.3606 -0.4833
 1669SOL    HW210970   2.603   2.301   1.946  0.6905 -1.2459  0.3616
 1670SOL     OW10971   3.173   7.650   0.361  0.2507 -0.4080  0.2119
 1670SOL    HW110972   3.138   7.737   0.382  0.4582  0.0879 -1.3437
 1670SOL    HW210973   3.189   7.609   0.446  0.9701  1.4017  0.9946
 1671SOL     OW10974   7.578   2.727   8.350 -0.1236 -0.7138 -0.1035
 1671SOL    HW110975   7.494   2.693   8.318 -0.7731  0.5134  0.2114
 1671SOL    HW210976   7.627   2.748   8.270 -0.8679  0.2899 -0.3182
 1672SOL     OW10977   5.374   1.997   8.054 -0.2154 -0.5275  0.3303
 1672SOL    HW110978   5.458   1.952   8.065  0.7620  1.4264  1.3359
 1672SOL    HW210979   5.381   2.039   7.968  1.3056  2.3613  1.7302
 1673SOL     OW10980   4.277   8.854   0.872 -0.3008  0.0132 -0.1753
 1673SOL    HW110981   4.212   8.796   0.912 -2.2753  2.3154  0.2534
 1673SOL    HW210982   4.340   8.872   0.942 -0.6332 -0.2936  0.2033
 1674SOL     OW10983   0.136   6.390   6.460 -0.4835  0.0541 -0.1688
 1674SOL    HW110984   0.114   6.314   6.514 -0.2526 -1.2750 -1.8618
 1674SOL    HW210985   0.067   6.453   6.479 -0.2586 -0.2229  1.8627
 1675SOL     OW10986   8.278   6.414   5.734  0.4595  0.0235 -0.0807
 1675SOL    HW110987   8.283   6.355   5.659  1.9680  0.9380 -0.7458
 1675SOL    HW210988   8.335   6.373   5.800 -0.3314 -0.4331  0.3308
 1676SOL     OW10989   7.308   8.272   2.302 -0.7546 -0.3304 -1.3775
 1676SOL    HW110990   7.293   8.200   2.241 -0.5636 -1.5595 -0.0326
 1676SOL    HW210991   7.264   8.244   2.382  0.4344  0.4594 -0.4212
 1677SOL     OW10992   9.224   8.675   2.239  0.2070  0.4147  0.3330
 1677SOL    HW110993   9.297   8.679   2.177 -0.4659 -1.5466 -0.7131
 1677SOL    HW210994   9.248   8.734   2.310  2.3819  0.5142 -0.4165
 1678SOL     OW10995   0.326   5.422   3.966 -0.3944  0.1093  0.2974
 1678SOL    HW110996   0.266   5.468   4.024 -0.2004  0.7753 -0.0162
 1678SOL    HW210997   0.270   5.366   3.913 -1.0938  2.4443 -1.6375
 1679SOL     OW10998   8.126   8.824   5.861  0.3438 -0.1292  0.4606
 1679SOL    HW110999   8.170   8.760   5.917 -1.1240 -0.5618  1.1645
 1679SOL    HW211000   8.063   8.868   5.919  1.4063  2.0986  0.0407
 1680SOL     OW11001   1.258   8.983   4.356 -0.4186 -0.3602  0.3659
 1680SOL    HW111002   1.215   9.044   4.416  2.0933  0.6313  1.3224
 1680SOL    HW211003   1.320   9.037   4.307  0.2762 -1.7846 -0.3932
 1681SOL     OW11004   4.747   6.608   3.890  0.1033  0.2384  0.3144
 1681SOL    HW111005   4.819   6.551   3.862 -0.2884  0.7314 -1.8468
 1681SOL    HW211006   4.681   6.548   3.926  1.4023 -0.2459  2.0637
 1682SOL     OW11007   3.627   0.486   4.369 -0.1527  0.0069 -0.1436
 1682SOL    HW111008   3.614   0.471   4.463 -0.4959 -0.1180 -0.2121
 1682SOL    HW211009   3.680   0.412   4.340  0.0318  0.0926 -0.0335
 1683SOL     OW11010   2.550   9.113   5.121 -0.0108  0.4457 -0.6163
 1683SOL    HW111011   2.505   9.030   5.107 -0.9088  1.0783 -1.5763
 1683SOL    HW211012   2.567   9.115   5.216 -1.9208  0.1263 -0.2271
 1684SOL     OW11013   3.078   7.960   2.848  0.4883 -0.1572 -0.0421
 1684SOL    HW111014   3.134   7.948   2.771  0.0379 -1.2255 -0.2156
 1684SOL    HW211015   3.011   7.892   2.840 -1.2866  1.5058 -0.2305
 1685SOL     OW11016   0.115   4.349   1.544 -0.1073 -0.4565 -0.1595
 1685SOL    HW111017   0.125   4.255   1.530 -0.3332 -0.5180  0.0929
 1685SOL    HW211018   0.111   4.386   1.455 -0.3315 -0.7167 -0.2604
 1686SOL     OW11019   7.465   1.653   3.724 -0.6997  0.0148  0.0124
 1686SOL    HW111020   7.511   1.720   3.775 -0.2509 -1.8416  2.1698
 1686SOL    HW211021   7.471   1.685   3.634  1.5101  1.7225  0.6627
 1687SOL     OW11022   1.961   1.889   1.471  0.0148 -0.0736  0.0109
 1687SOL    HW111023   1.901   1.916   1.402 -0.9771  0.7331  1.1656
 1687SOL    HW211024   1.993   1.803   1.443 -0.1374  0.3617 -1.5772
 1688SOL     OW11025   4.186   3.195   5.355  0.2191 -0.1817  0.4262
 1688SOL    HW111026   4.229   3.281   5.358  1.0262 -0.5106 -1.1957
 1688SOL    HW211027   4.144   3.187   5.441 -0.9232  2.3706  0.2035
 1689SOL     OW11028   7.449   4.975   0.122 -0.4938 -0.4207 -1.0903
 1689SOL    HW111029   7.520   4.910   0.126  1.3268  1.4321 -1.5914
 1689SOL    HW211030   7.439   5.005   0.212  0.5936  0.5349 -1.2696
 1690SOL     OW11031   4.414   0.395   6.736  0.0996  0.5357  0.3437
 1690SOL    HW111032   4.347   0.362   6.676  0.3660 -0.6480  0.6683
 1690SOL    HW211033   4.410   0.336   6.811  1.2179  0.6985  0.5494
 1691SOL     OW11034   5.287   9.304   2.754 -0.2872 -0.3692 -0.1045
 1691SOL    HW111035   5.381   9.317   2.766 -0.8081  1.7040  2.7988
 1691SOL    HW211036   5.261   9.244   2.825 -1.1162 -1.2664 -1.1290
 1692SOL     OW11037   8.986   1.097   5.872  0.1164  0.3866  0.0027
 1692SOL    HW111038   8.930   1.077   5.948 -0.6518 -0.6406 -0.7976
 1692SOL    HW211039   9.050   1.160   5.905  0.6036 -0.9855  1.8570
 1693SOL     OW11040   0.428   1.425   0.791  0.0551 -0.6215 -0.4550
 1693SOL    HW111041   0.357   1.480   0.757 -0.7910  0.0678  2.1854
 1693SOL    HW211042   0.386   1.341   0.811  0.0279 -0.3589  0.6888
 1694SOL     OW11043   5.852   2.740   8.077 -0.2982  0.2408  0.3180
 1694SOL    HW111044   5.828   2.716   7.987  1.1228 -0.7140  0.1634
 1694SOL    HW211045   5.944   2.765   8.071 -0.3531  0.7369  1.4186
 1695SOL     OW11046   6.772   3.909   5.096  0.4222 -0.6424  0.2175
 1695SOL    HW111047   6.828   3.986   5.090 -0.3415 -0.1427 -0.8527
 1695SOL    HW211048   6.686   3.939   5.064 -0.3317 -1.5056  1.3579
 1696SOL     OW11049   9.010   5.287   5.385  0.4390 -0.8117 -0.1367
 1696SOL    HW111050   9.064   5.209   5.401  1.0602 -0.0558  1.7508
 1696SOL    HW211051   9.073   5.359   5.384 -0.3567 -0.0923  0.5081
 1697SOL     OW11052   5.929   2.699   1.414  0.5315 -0.1010 -0.2356
 1697SOL    HW111053   5.979   2.681   1.493 -1.7243  0.1827  1.3400
 1697SOL    HW211054   5.838   2.705   1.443 -0.1504  2.5026 -2.4156
 1698SOL     OW11055   7.021   3.118   8.858  0.4866  0.8392  0.1704
 1698SOL    HW111056   7.089   3.055   8.833  0.0341  0.5769 -0.4071
 1698SOL    HW211057   6.944   3.093   8.807  0.5565  2.4222 -0.8067
 1699SOL     OW11058   4.081   7.994   4.378 -0.4510 -0.0413  0.2064
 1699SOL    HW111059   4.123   7.989   4.464  0.3701  0.4026 -0.1546
 1699SOL    HW211060   4.122   7.923   4.327  1.0979  1.3862 -0.6470
 1700SOL     OW11061   1.426   7.135   6.616  0.5851  0.2103 -0.3571
 1700SOL    HW111062   1.410   7.041   6.603  0.6457  0.3110 -1.2615
 1700SOL    HW211063   1.461   7.142   6.704  0.0436 -0.5549 -0.0706
 1701SOL     OW11064   7.770   4.081   3.533 -0.3330  0.0468 -0.4875
 1701SOL    HW111065   7.831   4.144   3.494 -1.0126  0.7799 -0.4022
 1701SOL    HW211066   7.745   4.024   3.461  0.0984  0.0201 -0.6218
 1702SOL     OW11067   3.392   1.383   5.104  0.4655  0.5163 -0.0395
 1702SOL    HW111068   3.456   1.353   5.040  2.9794  3.7464  0.7219
 1702SOL    HW211069   3.346   1.455   5.060  0.5820  1.2133  0.9448
 1703SOL     OW11070   8.336   0.090   7.115 -0.3162  0.6037  0.4481
 1703SOL    HW111071   8.266   0.114   7.055 -0.2280 -2.6643 -1.1370
 1703SOL    HW211072   8.301   0.017   7.166  2.3569 -2.4706 -1.7317
 1704SOL     OW11073   8.093   2.174   0.330  0.0844 -0.0778 -0.4465
 1704SOL    HW111074   8.091   2.259   0.284 -2.3628  0.3760  0.3734
 1704SOL    HW211075   8.060   2.112   0.266 -1.9034  0.3101  0.1259
 1705SOL     OW11076   3.938   6.848   6.596 -0.0120 -0.3285 -0.5745
 1705SOL    HW111077   4.009   6.816   6.651 -1.7506 -1.6325  1.0436
 1705SOL    HW211078   3.905   6.770   6.551 -1.2078  0.0193 -0.3335
 1706SOL     OW11079   3.290   0.893   6.566  0.5177  0.4603 -0.6047
 1706SOL    HW111080   3.231   0.968   6.572 -1.2404 -0.8782 -0.4257
 1706SOL    HW211081   3.344   0.912   6.490  0.3265  2.0427 -0.3823
 1707SOL     OW11082   0.645   8.641   6.773  0.0139  0.7185 -0.2112
 1707SOL    HW111083   0.572   8.681   6.726  0.3871  0.6794 -0.8346
 1707SOL    HW211084   0.604   8.592   6.844 -0.6785 -0.2877 -1.2546
 1708SOL     OW11085   0.201   7.904   2.198 -0.2300  0.1585  0.1799
 1708SOL    HW111086   0.135   7.838   2.178 -1.9392  2.1239 -0.9946
 1708SOL    HW211087   0.250   7.867   2.272 -0.6217 -2.7053 -0.8638
 1709SOL     OW11088   6.967   1.098   5.758 -0.1029  0.2764 -0.6421
 1709SOL    HW111089   7.004   1.080   5.844 -1.5458  3.0278  0.6997
 1709SOL    HW211090   6.885   1.049   5.757  0.4773 -0.7193 -0.9952
 1710SOL     OW11091   4.986   1.805   8.300 -0.0545 -0.2443  0.3634
 1710SOL    HW111092   4.979   1.835   8.390  0.8697 -0.6347  0.5761
 1710SOL    HW211093   4.934   1.725   8.297 -0.8721  0.2781  0.2997
 1711SOL     OW11094   9.309   1.814   5.944 -0.0592  0.0041  0.9783
 1711SOL    HW111095   9.375   1.851   6.003  3.6749 -0.7720 -2.2765
 1711SOL    HW211096   9.348   1.731   5.915 -1.0540  0.7955 -3.2496
 1712SOL     OW11097   5.985   8.997   8.913 -0.2841 -0.8869 -0.0511
 1712SOL    HW111098   5.920   9.066   8.896 -0.6776 -1.5634 -1.4688
 1712SOL    HW211099   5.937   8.928   8.958 -0.1315 -0.6759  0.4424
 1713SOL     OW11100   3.148   1.549   1.141  0.2610  0.1880 -0.4018
 1713SOL    HW111101   3.206   1.598   1.199 -0.8033 -0.6618  1.4755
 1713SOL    HW211102   3.191   1.553   1.055  0.7495  3.4308 -0.1227
 1714SOL     OW11103   1.962   7.132   2.546 -0.2691 -0.2734 -0.2750
 1714SOL    HW111104   1.894   7.185   2.588 -0.0590  0.3246 -0.6807
 1714SOL    HW211105   1.915   7.059   2.506 -0.6191 -0.1096 -0.1648
 1715SOL     OW11106   9.278   3.874   6.447 -0.0367 -0.2047  0.1960
 1715SOL    HW111107   9.253   3.912   6.532 -1.1900  0.4355 -0.4164
 1715SOL    HW211108   9.373   3.889   6.442 -0.2875  1.7364  0.4194
 1716SOL     OW11109   5.231   4.780   3.846  0.4222  0.2127 -0.6239
 1716SOL    HW111110   5.250   4.686   3.838 -0.7419 -0.1060  0.1369
 1716SOL    HW211111   5.302   4.814   3.899  1.4511 -0.0112 -1.8020
 1717SOL     OW11112   8.416   9.202   3.917 -0.7846  0.0014  0.1734
 1717SOL    HW111113   8.420   9.107   3.904 -0.4748 -0.3005  2.0874
 1717SOL    HW211114   8.507   9.229   3.926 -0.9268 -0.0224  2.3603
 1718SOL     OW11115   3.608   3.845   1.989  0.1434 -0.0409  0.3080
 1718SOL    HW111116   3.555   3.826   2.067 -1.9114  0.0546 -0.9716
 1718SOL    HW211117   3.658   3.923   2.013 -0.6419  0.1476  1.4591
 1719SOL     OW11118   8.852   7.593   6.433 -0.3330 -0.2616 -0.1666
 1719SOL    HW111119   8.888   7.518   6.480  0.6799  1.2183  1.5895
 1719SOL    HW211120   8.863   7.571   6.340  2.6610 -1.0837  0.2680
 1720SOL     OW11121   3.346   7.120   7.562  0.2079 -0.7050  0.3848
 1720SOL    HW111122   3.280   7.187   7.546 -0.7013 -1.6751 -0.0350
 1720SOL    HW211123   3.400   7.120   7.483  1.4490  0.8600  1.1739
 1721SOL     OW11124   3.517   3.496   9.010  0.1411  0.2383 -0.0635
 1721SOL    HW111125   3.459   3.570   8.993  0.5668  0.9661  1.4629
 1721SOL    HW211126   3.544   3.467   8.923 -0.2536  1.7065 -0.7155
 1722SOL     OW11127   7.100   3.314   4.054  0.3095  0.3446 -0.4697
 1722SOL    HW111128   7.028   3.368   4.086 -0.8758 -1.0535 -0.7265
 1722SOL    HW211129   7.159   3.305   4.129 -0.9144 -0.3779  0.4213
 1723SOL     OW11130   8.088   3.908   3.575 -0.1322 -0.3814 -0.3432
 1723SOL    HW111131   8.062   3.897   3.484  0.6693  1.1183 -0.7824
 1723SOL    HW211132   8.064   3.998   3.597 -1.3823 -1.0599  1.3092
 1724SOL     OW11133   5.355   6.017   7.683 -0.3876 -0.1898 -0.0944
 1724SOL    HW111134   5.262   6.015   7.702 -0.4364  2.2651  0.1584
 1724SOL    HW211135   5.392   5.947   7.736 -1.9546 -0.6100  0.4851
 1725SOL     OW11136   3.681   5.910   5.994  0.0913  0.1138  0.4552
 1725SOL    HW111137   3.714   5.826   5.963 -1.8564 -0.5578  0.0271
 1725SOL    HW211138   3.661   5.895   6.087  1.1688  0.5945  0.7812
 1726SOL     OW11139   1.079   4.157   4.574  0.7046  0.1358  0.0817
 1726SOL    HW111140   1.083   4.217   4.500  0.3839 -1.3930 -1.2441
 1726SOL    HW211141   1.036   4.207   4.644 -2.3117  0.5853 -1.8924
 1727SOL     OW11142   8.418   1.330   2.199 -0.5268 -0.1512 -0.0880
 1727SOL    HW111143   8.467   1.257   2.160 -0.4541 -0.0143 -0.2576
 1727SOL    HW211144   8.366   1.365   2.127 -0.2238  0.2431 -0.1212
 1728SOL     OW11145   7.921   5.828   3.776 -0.4245 -0.2225 -0.1460
 1728SOL    HW111146   7.827   5.818   3.794 -0.2745 -0.7957  0.3600
 1728SOL    HW211147   7.953   5.881   3.849  0.2155 -2.6817  1.4936
 1729SOL     OW11148   4.578   2.189   5.279  0.0892 -0.3981 -0.1719
 1729SOL    HW111149   4.672   2.206   5.285  0.2095 -1.1793  0.2033
 1729SOL    HW211150   4.561   2.181   5.185  0.1616  0.9941 -0.3243
 1730SOL     OW11151   6.449   6.852   6.420  0.4426  0.3806 -0.4032
 1730SOL    HW111152   6.433   6.759   6.432  0.4334  0.3406 -0.7172
 1730SOL    HW211153   6.366   6.894   6.444 -0.0078  0.2059 -1.5983
 1731SOL     OW11154   5.410   0.734   5.957 -0.4724  0.1593  0.5015
 1731SOL    HW111155   5.450   0.686   5.885 -0.5632  0.3915  0.2931
 1731SOL    HW211156   5.446   0.694   6.036 -1.5330 -1.1282  0.3744
 1732SOL     OW11157   8.955   0.788   2.091  0.0106  0.2163  0.5853
 1732SOL    HW111158   8.861   0.803   2.083 -0.1065 -0.2171  1.1428
 1732SOL    HW211159   8.980   0.743   2.010 -0.5369 -1.0412  1.1104
 1733SOL     OW11160   8.940   9.359   0.220  0.5978  0.2182  0.2572
 1733SOL    HW111161   8.921   9.448   0.247 -0.6789  0.3555 -0.9671
 1733SOL    HW211162   8.925   9.359   0.126  1.5262 -1.0606  0.0814
 1734SOL     OW11163   7.844   4.541   7.000 -0.4966 -0.2839  0.2020
 1734SOL    HW111164   7.847   4.542   7.095  0.4215 -0.1241  0.1877
 1734SOL    HW211165   7.842   4.633   6.975  2.5794 -0.1528  0.0487
 1735SOL     OW11166   8.735   1.888   7.656  0.0720 -0.0204 -0.6075
 1735SOL    HW111167   8.741   1.807   7.708 -0.0214 -0.1646 -0.8204
 1735SOL    HW211168   8.676   1.866   7.585  0.2987  0.1401 -0.8462
 1736SOL     OW11169   3.402   3.784   3.208 -0.3863  0.2475  0.5361
 1736SOL    HW111170   3.338   3.720   3.176 -0.4414  0.7573 -0.4141
 1736SOL    HW211171   3.392   3.783   3.303 -1.2341 -0.2696  0.4527
 1737SOL     OW11172   1.354   8.824   3.158  0.1417 -0.3066 -0.4360
 1737SOL    HW111173   1.440   8.784   3.162  0.8503  1.1014 -1.0031
 1737SOL    HW211174   1.368   8.913   3.189 -1.1598 -0.1261 -0.3151
 1738SOL     OW11175   2.086   4.234   5.497  0.5803  0.6110  0.0658
 1738SOL    HW111176   2.113   4.326   5.505  0.5440  0.6337 -0.0595
 1738SOL    HW211177   2.039   4.231   5.414  1.1764  0.3408 -0.2713
 1739SOL     OW11178   1.510   5.784   3.923  0.3139 -0.1266 -0.5783
 1739SOL    HW111179   1.526   5.851   3.857 -1.7741 -0.1486 -1.1684
 1739SOL    HW211180   1.478   5.709   3.874 -2.0724  0.1275  0.4438
 1740SOL     OW11181   6.645   8.050   3.267 -0.2057  0.2922 -0.2744
 1740SOL    HW111182   6.595   7.972   3.244 -0.9711  0.3066  1.2137
 1740SOL    HW211183   6.727   8.042   3.218 -0.5536 -1.0963 -0.6639
 1741SOL     OW11184   0.530   1.702   2.042 -0.1335  0.9255 -0.3783
 1741SOL    HW111185   0.454   1.704   2.099 -0.3211  1.2928 -0.6354
 1741SOL    HW211186   0.602   1.675   2.098 -0.3263  1.2260  0.0128
 1742SOL     OW11187   0.887   2.366   3.543 -0.1888 -0.3743 -0.7942
 1742SOL    HW111188   0.873   2.272   3.550  0.2525 -0.4784 -1.2456
 1742SOL    HW211189   0.963   2.375   3.485 -0.6043  0.2748 -1.2508
 1743SOL     OW11190   2.096   0.689   7.278  0.1376  0.2337  0.4774
 1743SOL    HW111191   2.127   0.699   7.369 -0.2950  1.3033  0.5195
 1743SOL    HW211192   2.001   0.680   7.286 -0.2453  3.1298 -0.0022
 1744SOL     OW11193   6.886   7.276   3.549 -0.7561 -0.6482 -0.6990
 1744SOL    HW111194   6.902   7.213   3.619 -1.8017 -0.6735 -0.4573
 1744SOL    HW211195   6.968   7.280   3.500 -0.6141 -2.0703 -0.6220
 1745SOL     OW11196   6.024   0.424   0.864  0.0413 -0.4758  0.2605
 1745SOL    HW111197   6.090   0.492   0.879  2.3647 -2.1938 -1.4172
 1745SOL    HW211198   6.045   0.355   0.927  0.9160 -1.6878 -1.2814
 1746SOL     OW11199   7.238   6.397   3.138  0.1456 -0.0428  0.3002
 1746SOL    HW111200   7.324   6.432   3.163 -0.2391  2.5482 -1.5200
 1746SOL    HW211201   7.257   6.314   3.096  1.7269  0.2797  0.3192
 1747SOL     OW11202   3.407   5.753   2.477 -0.3889 -0.0474 -0.2790
 1747SOL    HW111203   3.381   5.687   2.412  0.2684  0.3997 -1.0199
 1747SOL    HW211204   3.365   5.724   2.558 -0.3131 -1.2406 -0.6363
 1748SOL     OW11205   2.782   6.008   1.527  0.0115 -0.3542  0.2540
 1748SOL    HW111206   2.783   5.922   1.569  1.5101 -0.3291  0.2914
 1748SOL    HW211207   2.718   5.999   1.456  0.7081 -1.7393 -0.2228
 1749SOL     OW11208   3.422   9.115   8.181 -0.6192 -0.7530  0.5180
 1749SOL    HW111209   3.426   9.032   8.229  0.8135 -0.7459  0.4560
 1749SOL    HW211210   3.486   9.104   8.111  1.5849  1.3689  2.0624
 1750SOL     OW11211   4.013   5.787   6.578  0.5994  0.1599 -0.4959
 1750SOL    HW111212   4.003   5.693   6.591 -2.9353  0.3645 -0.7212
 1750SOL    HW211213   3.996   5.801   6.485 -2.0503  1.1670  0.0230
 1751SOL     OW11214   8.042   4.848   7.025 -0.5918  0.0812 -0.5531
 1751SOL    HW111215   7.998   4.823   7.106  0.0209  1.6882  0.3205
 1751SOL    HW211216   7.983   4.911   6.983  0.2406  1.2758 -0.0020
 1752SOL     OW11217   5.796   3.745   1.917  0.0587 -0.2912  0.5926
 1752SOL    HW111218   5.871   3.730   1.859  0.0619 -1.3903  0.8592
 1752SOL    HW211219   5.830   3.800   1.986  0.1288  0.7992 -0.2779
 1753SOL     OW11220   5.065   6.618   3.061 -0.5009 -0.0770  0.1637
 1753SOL    HW111221   5.029   6.587   3.144  0.4678  0.8855  0.9702
 1753SOL    HW211222   5.081   6.711   3.075  0.6844 -0.1180 -0.7378
 1754SOL     OW11223   3.407   4.568   7.427  0.0715  0.6177  0.0397
 1754SOL    HW111224   3.430   4.629   7.357  0.7274  0.2850 -0.0434
 1754SOL    HW211225   3.455   4.487   7.405 -0.1042  0.3561  0.6087
 1755SOL     OW11226   8.592   8.746   9.239 -0.0310 -0.0236 -0.3197
 1755SOL    HW111227   8.527   8.792   9.292 -0.6720 -2.2145  0.9102
 1755SOL    HW211228   8.674   8.792   9.256 -0.6461  0.7366  0.7377
 1756SOL     OW11229   2.889   3.473   9.350  0.7443  0.0116  0.1621
 1756SOL    HW111230   2.799   3.443   9.335  1.1553 -1.3844  0.3840
 1756SOL    HW211231   2.882   3.534   9.423 -0.1051  0.4191 -0.2425
 1757SOL     OW11232   6.390   3.140   2.201 -0.2327  0.4137 -0.3995
 1757SOL    HW111233   6.475   3.133   2.243 -0.5366 -1.4804  0.0058
 1757SOL    HW211234   6.356   3.225   2.230  0.0697 -0.2870  2.2831
 1758SOL     OW11235   7.311   3.004   1.843  0.2351  0.4066 -0.5643
 1758SOL    HW111236   7.273   3.076   1.892  0.8724  0.1575  0.3295
 1758SOL    HW211237   7.389   3.041   1.802  0.4209  0.3013 -0.3136
 1759SOL     OW11238   1.006   0.580   8.440  0.1669  0.3290 -0.1739
 1759SOL    HW111239   0.979   0.502   8.487  0.5517 -0.6333 -1.4914
 1759SOL    HW211240   0.976   0.653   8.495 -0.9166 -0.7221  0.6805
 1760SOL     OW11241   5.377   3.027   0.300  0.4226  0.2842  0.4336
 1760SOL    HW111242   5.353   3.035   0.393  3.2299 -2.4396  1.5489
 1760SOL    HW211243   5.310   2.970   0.263 -0.0617  0.4304  1.0525
 1761SOL     OW11244   6.244   6.482   3.815  0.6451  0.0091  0.1414
 1761SOL    HW111245   6.243   6.526   3.900 -2.2027 -0.1602  0.2782
 1761SOL    HW211246   6.176   6.416   3.821  0.8730 -0.5069 -2.0480
 1762SOL     OW11247   4.572   0.258   7.575  0.6896  0.2552 -0.3387
 1762SOL    HW111248   4.523   0.337   7.552 -1.4167 -0.7354  0.4928
 1762SOL    HW211249   4.516   0.213   7.639  3.0462 -0.5990  1.2692
 1763SOL     OW11250   0.424   5.527   4.912  0.2312 -0.3775  0.2506
 1763SOL    HW111251   0.425   5.621   4.927 -0.3357 -0.5671  1.6139
 1763SOL    HW211252   0.516   5.504   4.901  0.3542  0.3613 -0.3403
 1764SOL     OW11253   5.334   0.932   3.100  0.6572 -0.5009  0.4526
 1764SOL    HW111254   5.248   0.974   3.108  0.7439 -0.4991  1.5594
 1764SOL    HW211255   5.377   0.980   3.029  0.3828  0.6580  1.0391
 1765SOL     OW11256   6.079   4.492   5.498 -0.0314 -0.3519  0.1251
 1765SOL    HW111257   6.037   4.518   5.416  0.4949  0.8035  0.2082
 1765SOL    HW211258   6.172   4.484   5.476  0.3324  1.3895  0.9143
 1766SOL     OW11259   1.714   6.308   4.245  0.1905 -0.5402 -0.4327
 1766SOL    HW111260   1.747   6.311   4.335 -0.3936 -0.8308 -0.2022
 1766SOL    HW211261   1.658   6.385   4.238 -2.5991 -2.3287  0.6070
 1767SOL     OW11262   5.776   3.712   6.002  0.5662  0.4008  0.0319
 1767SOL    HW111263   5.694   3.663   6.005  0.2192  0.9652 -0.0558
 1767SOL    HW211264   5.784   3.740   5.911  0.3212  1.2337  0.2632
 1768SOL     OW11265   8.520   6.338   6.854 -0.2144  0.0052 -0.2872
 1768SOL    HW111266   8.525   6.415   6.797  2.9698 -0.1201 -0.3124
 1768SOL    HW211267   8.557   6.267   6.802  1.0805 -0.5160  1.2919
 1769SOL     OW11268   9.361   7.472   8.001  0.3795  0.3916 -0.1951
 1769SOL    HW111269   9.332   7.382   8.016 -0.1410  0.5350 -0.3102
 1769SOL    HW211270   9.280   7.521   7.988  0.6322  0.9704  0.3592
 1770SOL     OW11271   3.721   1.415   6.549 -0.0527 -0.3950  0.2074
 1770SOL    HW111272   3.626   1.421   6.560  0.1134  0.3945  1.4196
 1770SOL    HW211273   3.736   1.435   6.456 -1.1471 -1.8798 -0.3386
 1771SOL     OW11274   6.942   6.985   8.927  0.3662 -0.1030 -0.3627
 1771SOL    HW111275   6.903   6.905   8.892 -0.1439 -0.3543  0.7225
 1771SOL    HW211276   6.983   6.957   9.009  0.8931  0.6013 -0.3730
 1772SOL     OW11277   7.941   2.867   3.322  0.6552 -0.3488 -0.0672
 1772SOL    HW111278   7.960   2.901   3.235  0.9948 -0.7332 -0.1480
 1772SOL    HW211279   8.027   2.862   3.365  0.4685 -0.0157  0.3394
 1773SOL     OW11280   8.130   0.068   2.093 -0.4799  1.0203  0.2540
 1773SOL    HW111281   8.192   0.078   2.021  0.2453 -1.5339  0.4126
 1773SOL    HW211282   8.099   0.156   2.111 -0.1000  1.8250 -2.6418
 1774SOL     OW11283   3.111   2.082   8.423 -0.6069 -0.8283 -0.5254
 1774SOL    HW111284   3.073   2.119   8.343 -0.1496  0.4808 -0.1507
 1774SOL    HW211285   3.176   2.146   8.452 -1.9924 -0.3956  1.8930
 1775SOL     OW11286   6.300   4.142   6.453 -0.4658  0.5543  0.0066
 1775SOL    HW111287   6.240   4.214   6.470  0.9868  1.7307  0.3697
 1775SOL    HW211288   6.244   4.066   6.439 -1.9987  1.3306  1.5776
 1776SOL     OW11289   6.686   0.052   8.627  0.3343  0.7834  0.0430
 1776SOL    HW111290   6.687  -0.010   8.700 -0.8198  1.8065  0.9510
 1776SOL    HW211291   6.738   0.008   8.559  3.1171  0.6061  2.0905
 1777SOL     OW11292   7.733   0.534   7.845  0.0299  0.1103  0.3183
 1777SOL    HW111293   7.784   0.612   7.827  0.9667 -0.4310  0.5227
 1777SOL    HW211294   7.673   0.526   7.771 -1.1835  1.8694  1.0438
 1778SOL     OW11295   6.894   0.268   3.877  0.3011 -0.4567  0.3699
 1778SOL    HW111296   6.842   0.198   3.916  1.5568  0.0833  3.3186
 1778SOL    HW211297   6.855   0.349   3.911  0.2359  0.1896 -1.1655
 1779SOL     OW11298   0.090   7.852   8.804  0.1333  0.5157  0.0690
 1779SOL    HW111299   0.087   7.817   8.893  1.8079  0.6423  0.1948
 1779SOL    HW211300   0.101   7.946   8.815 -0.8956  0.6918 -0.2860
 1780SOL     OW11301   2.777   4.387   8.391 -0.0715  0.4275  0.0931
 1780SOL    HW111302   2.780   4.327   8.317 -0.5763  2.2254 -1.4615
 1780SOL    HW211303   2.854   4.443   8.380 -1.0337  1.7656 -0.0529
 1781SOL     OW11304   1.062   8.982   4.138 -0.6206 -0.4697 -0.4275
 1781SOL    HW111305   1.075   8.961   4.230 -1.8734 -0.0727 -0.1332
 1781SOL    HW211306   1.140   8.949   4.094 -0.0424 -0.7366  0.7619
 1782SOL     OW11307   4.938   3.607   3.914  0.0615  0.4415 -0.9111
 1782SOL    HW111308   5.029   3.635   3.905  0.1563 -0.1458 -1.8904
 1782SOL    HW211309   4.909   3.645   3.997  1.6674 -0.6272  0.1922
 1783SOL     OW11310   4.121   1.709   0.953 -0.3409  0.5548 -0.1034
 1783SOL    HW111311   4.185   1.774   0.925 -0.3991  0.4444 -0.4951
 1783SOL    HW211312   4.041   1.732   0.906  0.2761 -1.2671 -2.2102
 1784SOL     OW11313   7.550   2.345   0.090 -0.0115  0.8308  0.3244
 1784SOL    HW111314   7.567   2.348  -0.004  1.7442 -1.1892  0.4949
 1784SOL    HW211315   7.592   2.423   0.125  2.1461 -0.0056 -0.2535
 1785SOL     OW11316   7.941   7.923   0.162  0.2968 -0.1202 -0.2166
 1785SOL    HW111317   7.981   7.842   0.194  0.6192  0.4528  0.8943
 1785SOL    HW211318   7.941   7.981   0.238  2.3654  1.8450 -1.5733
 1786SOL     OW11319   1.262   0.534   0.336 -0.2164 -0.2438 -0.1831
 1786SOL    HW111320   1.300   0.466   0.281 -0.3408 -0.5470  0.1012
 1786SOL    HW211321   1.337   0.576   0.378  0.1441  1.9820 -2.8154
 1787SOL     OW11322   2.880   2.317   2.784 -0.0761 -0.2567 -0.0450
 1787SOL    HW111323   2.914   2.324   2.874 -0.1129 -0.0401 -0.0470
 1787SOL    HW211324   2.885   2.406   2.750 -2.2269  0.1270  0.5171
 1788SOL     OW11325   5.922   3.411   4.467  0.6801  0.2374  0.3386
 1788SOL    HW111326   5.872   3.342   4.511  1.4050 -0.9924 -0.6725
 1788SOL    HW211327   5.858   3.480   4.448 -1.3438 -2.2464 -3.0701
 1789SOL     OW11328   1.235   2.742   3.172  0.0635 -0.0184  0.1768
 1789SOL    HW111329   1.198   2.654   3.177  1.1983 -0.5645 -0.6129
 1789SOL    HW211330   1.171   2.792   3.122 -0.3272 -0.5407  0.1406
 1790SOL     OW11331   8.744   0.565   5.379 -0.3040 -0.0033  0.1378
 1790SOL    HW111332   8.773   0.592   5.292  0.1098 -2.7786 -0.6718
 1790SOL    HW211333   8.805   0.495   5.404 -0.5579  0.5502  2.5969
 1791SOL     OW11334   5.464   6.816   0.907  0.1625 -0.3161 -0.5500
 1791SOL    HW111335   5.481   6.765   0.986  0.4089  2.1889  1.0927
 1791SOL    HW211336   5.424   6.897   0.938  0.3117  0.7873 -3.0020
 1792SOL     OW11337   5.560   6.425   0.521  0.1892 -0.2699 -0.2687
 1792SOL    HW111338   5.627   6.415   0.453  0.4097 -0.9302  0.0337
 1792SOL    HW211339   5.557   6.339   0.564 -2.4920 -1.0435 -1.7894
 1793SOL     OW11340   3.584   6.168   3.311  0.3728 -0.0650 -0.2465
 1793SOL    HW111341   3.660   6.189   3.364 -0.0057  1.8749 -0.4053
 1793SOL    HW211342   3.509   6.203   3.360 -0.1547  0.2573 -1.2531
 1794SOL     OW11343   7.084   0.456   7.176 -0.1932  0.1819 -0.0954
 1794SOL    HW111344   7.141   0.379   7.181  0.6132  0.8225  1.0612
 1794SOL    HW211345   7.144   0.530   7.168 -0.9763  0.6785 -1.8728
 1795SOL     OW11346   3.858   5.570   1.299 -0.8846  0.0336 -0.3218
 1795SOL    HW111347   3.791   5.565   1.368 -1.6899 -2.7433 -1.1962
 1795SOL    HW211348   3.927   5.511   1.328  0.0606  0.9555 -0.6425
 1796SOL     OW11349   1.535   3.102   6.509 -0.4432 -0.3045 -0.4252
 1796SOL    HW111350   1.483   3.035   6.554 -0.1275 -0.1536  0.1683
 1796SOL    HW211351   1.617   3.107   6.559  0.6681 -1.3861 -2.0143
 1797SOL     OW11352   7.232   6.240   8.167 -0.1625 -0.2499 -0.6207
 1797SOL    HW111353   7.277   6.325   8.164 -1.3586  0.3822 -1.2516
 1797SOL    HW211354   7.248   6.208   8.256  0.2574  0.6513 -0.3567
 1798SOL     OW11355   7.129   7.100   1.869  0.5597  0.0551 -0.0369
 1798SOL    HW111356   7.107   7.007   1.866  1.9119 -0.4071  2.0537
 1798SOL    HW211357   7.084   7.134   1.946  1.7423  0.6015  0.4517
 1799SOL     OW11358   0.067   2.560   5.296  0.3083 -0.1776 -0.0138
 1799SOL    HW111359   0.080   2.627   5.228 -2.5470  1.6567  1.0449
 1799SOL    HW211360   0.145   2.505   5.292  1.3834  1.3644 -3.0488
 1800SOL     OW11361   4.938   2.809   1.792  0.3854 -0.0128  0.3800
 1800SOL    HW111362   5.001   2.801   1.720  0.8925 -0.1763  0.8397
 1800SOL    HW211363   4.957   2.894   1.832  1.2507 -0.6572  1.3854
 1801SOL     OW11364   3.362   0.284   1.923 -0.6667 -0.1081  0.5676
 1801SOL    HW111365   3.413   0.349   1.876 -2.1818  1.4543  0.9928
 1801SOL    HW211366   3.325   0.229   1.854 -1.2623  0.9379  0.0342
 1802SOL     OW11367   6.740   7.751   8.120 -0.7150  0.4643  0.7895
 1802SOL    HW111368   6.771   7.696   8.192 -0.0712 -1.6005 -0.9227
 1802SOL    HW211369   6.645   7.744   8.124 -0.6625 -0.2605  1.0380
 1803SOL     OW11370   1.164   4.782   3.604 -0.2561  0.4583  0.4257
 1803SOL    HW111371   1.087   4.776   3.547  0.6675 -0.8180 -0.7599
 1803SOL    HW211372   1.161   4.703   3.658  0.1039  0.4886  0.4967
 1804SOL     OW11373   0.681   7.118   0.511  0.0443 -0.0938 -0.4889
 1804SOL    HW111374   0.629   7.041   0.532  1.4217 -1.0651 -0.4342
 1804SOL    HW211375   0.639   7.190   0.557 -0.7882 -0.9794  0.1670
 1805SOL     OW11376   4.049   5.664   5.903  0.0564  0.2357 -0.3487
 1805SOL    HW111377   4.084   5.621   5.825  1.3500  0.6687 -0.0357
 1805SOL    HW211378   4.081   5.611   5.976  0.8963  1.1822 -0.0030
 1806SOL     OW11379   9.353   7.268   2.644 -0.0288  0.1374  0.1419
 1806SOL    HW111380   9.391   7.336   2.588 -1.6439  0.2991 -0.8165
 1806SOL    HW211381   9.316   7.204   2.583  0.5486 -1.0829  1.0376
 1807SOL     OW11382   5.690   0.748   1.053  0.3859  0.1579  0.4877
 1807SOL    HW111383   5.641   0.768   1.133  0.7667 -0.9208  1.0017
 1807SOL    HW211384   5.641   0.676   1.012  1.4861 -0.9145  0.9919
 1808SOL     OW11385   5.966   1.648   8.141  0.7859 -0.8274 -0.0900
 1808SOL    HW111386   5.986   1.557   8.119  1.0186 -0.9750  0.6839
 1808SOL    HW211387   5.914   1.642   8.222  0.3934 -0.2943 -0.2946
 1809SOL     OW11388   7.593   5.620   6.155 -0.0817  0.1958 -0.3600
 1809SOL    HW111389   7.650   5.564   6.103  1.0126 -0.4375  1.4187
 1809SOL    HW211390   7.535   5.661   6.092  4.0293  3.0631 -2.7255
 1810SOL     OW11391   0.799   2.251   5.240 -0.1062 -0.0579  0.0849
 1810SOL    HW111392   0.864   2.235   5.172 -1.0527 -2.5297 -0.3707
 1810SOL    HW211393   0.715   2.240   5.196 -0.7760  0.1794  1.2558
 1811SOL     OW11394   1.816   0.513   9.266 -0.1249 -0.3690  0.2577
 1811SOL    HW111395   1.786   0.426   9.241  0.0336 -0.2445 -0.3815
 1811SOL    HW211396   1.747   0.572   9.235 -0.0354 -0.2297  0.3216
 1812SOL     OW11397   7.888   8.649   6.734  0.1100 -0.5034 -0.7418
 1812SOL    HW111398   7.829   8.580   6.704 -0.2230 -1.3123  1.5680
 1812SOL    HW211399   7.963   8.603   6.772  1.0564  0.4807 -1.3530
 1813SOL     OW11400   4.841   8.418   9.080  0.0166  0.2311 -0.0557
 1813SOL    HW111401   4.826   8.391   9.171  0.6275  0.3686  0.0891
 1813SOL    HW211402   4.855   8.337   9.033  0.8917  0.2183  0.2023
 1814SOL     OW11403   2.532   7.538   2.688 -0.3647  0.1458 -0.3372
 1814SOL    HW111404   2.456   7.596   2.695 -0.7756 -0.4866  0.6333
 1814SOL    HW211405   2.593   7.586   2.632 -0.6416  1.5686  0.5289
 1815SOL     OW11406   5.648   6.267   0.862 -0.3038 -0.1062  0.1810
 1815SOL    HW111407   5.596   6.226   0.931 -0.2217 -0.3612  0.0957
 1815SOL    HW211408   5.672   6.194   0.804 -2.4726  0.4192 -1.5029
 1816SOL     OW11409   5.998   8.876   0.503 -0.0721 -0.2904  0.0843
 1816SOL    HW111410   6.044   8.855   0.584  0.6865  2.4571  0.4612
 1816SOL    HW211411   5.958   8.793   0.476  0.2313 -1.4463  2.8621
 1817SOL     OW11412   8.927   6.844   5.558  0.2935  0.1788  0.1277
 1817SOL    HW111413   8.913   6.935   5.535  0.9961  0.3257  0.2830
 1817SOL    HW211414   8.906   6.795   5.478 -0.4271  0.4426  0.1498
 1818SOL     OW11415   3.867   5.807   1.172  0.3502  0.8211  0.1248
 1818SOL    HW111416   3.875   5.879   1.235  0.1973 -0.1066  1.2430
 1818SOL    HW211417   3.865   5.728   1.226  0.0198 -0.0005 -1.0458
 1819SOL     OW11418   8.263   5.098   8.951  0.3151  0.0814  0.0372
 1819SOL    HW111419   8.168   5.098   8.939  0.3414  0.8222 -0.2293
 1819SOL    HW211420   8.278   5.165   9.017  0.5674 -0.8477  0.9569
 1820SOL     OW11421   6.939   1.060   4.413 -0.4803  0.2984 -0.1786
 1820SOL    HW111422   6.860   1.109   4.392  0.0883 -0.0475 -3.7177
 1820SOL    HW211423   7.009   1.103   4.364  1.2146 -0.4422  1.4601
 1821SOL     OW11424   8.251   0.818   2.945  0.3804 -0.2547 -0.4691
 1821SOL    HW111425   8.287   0.893   2.896 -1.4710 -0.3803 -2.1577
 1821SOL    HW211426   8.276   0.835   3.036  2.3197  1.0067 -1.1667
 1822SOL     OW11427   1.101   2.721   7.808  0.0645 -0.0546  0.1643
 1822SOL    HW111428   1.153   2.733   7.888  0.8501 -0.8787 -0.2097
 1822SOL    HW211429   1.011   2.736   7.836  0.4025  0.4660  1.0300
 1823SOL     OW11430   9.146   8.888   5.388  0.8344 -0.0011 -0.3977
 1823SOL    HW111431   9.217   8.879   5.452 -0.2559  0.2787  0.9032
 1823SOL    HW211432   9.107   8.801   5.383  1.0021 -0.0546 -0.7991
 1824SOL     OW11433   0.156   4.722   0.979  0.4281  0.4522  0.1307
 1824SOL    HW111434   0.062   4.739   0.973  0.1887 -0.3477  1.3430
 1824SOL    HW211435   0.186   4.720   0.888 -0.9442 -0.4953 -0.3247
 1825SOL     OW11436   7.225   6.734   0.854 -0.1007  0.0718 -0.1390
 1825SOL    HW111437   7.316   6.706   0.868 -0.0761  0.4010  0.3915
 1825SOL    HW211438   7.231   6.829   0.849 -0.2675  0.0374 -1.2908
 1826SOL     OW11439   8.568   6.090   4.853  0.2651 -1.0616 -0.1126
 1826SOL    HW111440   8.633   6.156   4.876  0.6608 -2.0203  1.7211
 1826SOL    HW211441   8.488   6.119   4.897 -0.0562 -0.8434 -0.8365
 1827SOL     OW11442   4.522   8.549   8.680 -0.3366 -0.0843  0.0107
 1827SOL    HW111443   4.604   8.580   8.717 -0.9087  0.3173  0.9712
 1827SOL    HW211444   4.545   8.522   8.591  0.8722 -0.1775  0.3300
 1828SOL     OW11445   1.050   9.064   5.297 -0.2388  0.3679 -0.1071
 1828SOL    HW111446   1.145   9.062   5.286 -0.2959 -0.0208 -0.5957
 1828SOL    HW211447   1.017   9.084   5.209 -0.7301 -2.5905 -0.7032
 1829SOL     OW11448   4.975   6.640   8.167  0.0778  0.1770 -0.2360
 1829SOL    HW111449   4.994   6.610   8.256 -1.9862 -3.7816 -0.8565
 1829SOL    HW211450   4.906   6.705   8.178 -0.1233 -0.2307  1.1060
 1830SOL     OW11451   4.582   6.172   7.801  0.2700 -0.3929 -0.2587
 1830SOL    HW111452   4.663   6.224   7.797  0.0826 -0.0775  0.0052
 1830SOL    HW211453   4.588   6.113   7.726 -0.2351  1.0542 -1.4779
 1831SOL     OW11454   8.950   6.065   2.570  0.2851  0.1015  0.6008
 1831SOL    HW111455   8.886   6.121   2.526 -0.7548 -0.9335  0.7364
 1831SOL    HW211456   9.030   6.075   2.519 -0.5603 -0.1426 -0.8316
 1832SOL     OW11457   3.053   6.148   5.562 -0.4585  0.5523  0.0508
 1832SOL    HW111458   2.984   6.090   5.593  0.2577 -1.1280 -1.3488
 1832SOL    HW211459   3.134   6.097   5.573  0.1640  1.1577 -1.4640
 1833SOL     OW11460   5.356   0.165   8.455 -0.0115 -0.0200 -0.2831
 1833SOL    HW111461   5.433   0.205   8.413  1.5775  0.1992  2.6147
 1833SOL    HW211462   5.392   0.095   8.509 -1.8315  0.1038  1.1875
 1834SOL     OW11463   8.915   1.509   7.278 -0.3226 -0.0436 -0.1346
 1834SOL    HW111464   8.955   1.423   7.290  0.5895  0.4459  0.4288
 1834SOL    HW211465   8.911   1.546   7.366  0.0525  0.8248 -0.4760
 1835SOL     OW11466   2.919   0.442   1.317 -0.2977  0.2315  0.2415
 1835SOL    HW111467   2.905   0.535   1.331 -0.4285 -0.0062  1.8961
 1835SOL    HW211468   2.836   0.401   1.342  0.3063 -0.4514  1.1933
 1836SOL     OW11469   1.556   7.508   8.218  0.2813  0.3907  0.4339
 1836SOL    HW111470   1.548   7.563   8.139 -0.6403  0.3278  0.4698
 1836SOL    HW211471   1.561   7.571   8.290 -0.7389  0.4373  0.4718
 1837SOL     OW11472   2.420   4.668   5.167  0.4466 -0.5490 -0.1843
 1837SOL    HW111473   2.457   4.729   5.104  0.9632 -0.5827  0.0852
 1837SOL    HW211474   2.495   4.628   5.210  0.1142 -0.1174  0.8403
 1838SOL     OW11475   7.604   1.478   4.348 -0.4793  0.4953 -0.5536
 1838SOL    HW111476   7.593   1.449   4.439 -1.6460  0.7300 -0.5959
 1838SOL    HW211477   7.688   1.441   4.321 -1.4176 -2.0831 -0.2998
 1839SOL     OW11478   4.631   0.531   8.189 -0.2200  0.9518  0.1460
 1839SOL    HW111479   4.574   0.477   8.134  1.0060  0.2665 -0.4702
 1839SOL    HW211480   4.662   0.471   8.257 -0.9808  1.5647  1.0648
 1840SOL     OW11481   9.276   5.302   5.051  0.0712 -0.2933 -0.2445
 1840SOL    HW111482   9.196   5.283   5.001  0.1291 -0.6937 -0.1942
 1840SOL    HW211483   9.245   5.336   5.134 -0.0126  1.3539 -0.9232
 1841SOL     OW11484   5.728   7.786   0.969 -0.4198  0.9629 -0.0883
 1841SOL    HW111485   5.641   7.764   1.002 -1.0777  2.9727 -0.2946
 1841SOL    HW211486   5.722   7.880   0.947  2.0371  1.3756  0.6712
 1842SOL     OW11487   0.088   5.334   2.732  0.3083  0.5908 -0.3339
 1842SOL    HW111488   0.048   5.404   2.680 -2.1950 -0.0937  0.5389
 1842SOL    HW211489   0.051   5.253   2.696 -0.6814  0.0439  1.7615
 1843SOL     OW11490   5.457   5.577   6.678 -0.9023  0.2426  0.7447
 1843SOL    HW111491   5.550   5.563   6.695 -0.8403 -1.5570 -0.7685
 1843SOL    HW211492   5.425   5.622   6.756  0.8144 -0.9048  2.1920
 1844SOL     OW11493   9.009   5.903   4.164 -0.4133  0.0606 -0.4340
 1844SOL    HW111494   9.023   5.822   4.115 -0.7555  1.4305 -2.9629
 1844SOL    HW211495   9.035   5.972   4.104  2.1024  1.8618  2.3923
 1845SOL     OW11496   5.527   1.895   2.699  0.6930  0.3307 -0.0209
 1845SOL    HW111497   5.509   1.917   2.607  0.8299 -0.9606 -0.3739
 1845SOL    HW211498   5.560   1.805   2.696 -0.7221 -0.2839  1.4382
 1846SOL     OW11499   3.284   8.048   1.629  0.4961 -0.0604 -0.0558
 1846SOL    HW111500   3.346   8.025   1.698 -0.3206 -0.3463  0.5957
 1846SOL    HW211501   3.244   8.130   1.659  0.5485  0.1241 -0.4744
 1847SOL     OW11502   6.292   5.399   8.771 -0.3444 -0.3842  0.2240
 1847SOL    HW111503   6.228   5.414   8.701  1.5433 -0.4500 -1.5780
 1847SOL    HW211504   6.245   5.425   8.851 -2.2012  0.7554 -1.1446
 1848SOL     OW11505   2.921   7.484   3.745 -0.0036 -0.2002  0.4211
 1848SOL    HW111506   3.016   7.484   3.759  0.1274 -2.4507 -0.1177
 1848SOL    HW211507   2.907   7.557   3.685  1.3585  0.2802  0.6319
 1849SOL     OW11508   0.337   4.017   2.622  0.0345 -0.1067  0.0527
 1849SOL    HW111509   0.259   4.069   2.642 -1.5840 -2.9950  2.1533
 1849SOL    HW211510   0.410   4.077   2.632 -1.7945  2.2060  0.2910
 1850SOL     OW11511   4.559   8.659   1.590 -0.4167  0.5466 -0.2179
 1850SOL    HW111512   4.546   8.592   1.657 -1.8012  2.4221  1.4865
 1850SOL    HW211513   4.652   8.680   1.595  0.0536 -1.1893 -0.8011
 1851SOL     OW11514   9.152   8.066   4.528 -0.1442 -0.5295  0.6114
 1851SOL    HW111515   9.083   8.035   4.469  0.2783 -1.6006  0.6545
 1851SOL    HW211516   9.220   8.099   4.470 -0.2785 -0.3746  0.5407
 1852SOL     OW11517   4.375   1.945   5.533  0.2330  0.1289  0.3698
 1852SOL    HW111518   4.436   1.900   5.474  1.9826 -0.1979  2.3152
 1852SOL    HW211519   4.431   1.979   5.603 -1.8202 -0.1818  2.2589
 1853SOL     OW11520   7.574   6.163   0.176 -0.3756 -0.3975  0.3338
 1853SOL    HW111521   7.633   6.173   0.251  1.0534  0.7990 -0.8826
 1853SOL    HW211522   7.590   6.074   0.145  2.3948  0.5117 -1.1680
 1854SOL     OW11523   3.012   3.452   6.639  0.0890  0.2750 -0.1682
 1854SOL    HW111524   3.067   3.520   6.679 -1.6873  0.3720  2.3493
 1854SOL    HW211525   3.068   3.375   6.636  0.6519  0.5490  1.6735
 1855SOL     OW11526   4.692   3.849   7.056 -0.1945 -0.0653  1.0020
 1855SOL    HW111527   4.649   3.796   6.989  0.0984  1.2834 -0.3290
 1855SOL    HW211528   4.627   3.915   7.081  0.4312  0.8558  0.3112
 1856SOL     OW11529   4.730   1.492   1.542 -0.7121  0.1422  0.0108
 1856SOL    HW111530   4.700   1.583   1.548  0.9339  0.6836  0.6078
 1856SOL    HW211531   4.788   1.481   1.618  0.1876 -0.9878 -0.8021
 1857SOL     OW11532   2.084   0.322   5.649 -0.2350 -0.0135  0.2008
 1857SOL    HW111533   2.150   0.262   5.615 -1.4609 -0.1999 -2.0789
 1857SOL    HW211534   2.091   0.314   5.744  2.7715 -0.2255  0.0669
 1858SOL     OW11535   8.239   9.121   7.768  0.0676 -0.3434  0.0946
 1858SOL    HW111536   8.189   9.041   7.785  0.0545 -0.3678 -0.0613
 1858SOL    HW211537   8.290   9.134   7.848 -1.7201  0.8217  1.1108
 1859SOL     OW11538   6.757   6.672   8.234 -0.3648 -0.0855 -0.1732
 1859SOL    HW111539   6.664   6.691   8.241 -0.0214  1.5751  0.2515
 1859SOL    HW211540   6.791   6.738   8.173  0.5183 -0.7366 -0.4054
 1860SOL     OW11541   2.675   5.525   4.107  0.6236 -0.3049 -0.6709
 1860SOL    HW111542   2.649   5.433   4.114 -1.5521  0.2734 -0.2857
 1860SOL    HW211543   2.631   5.556   4.028  0.3659  0.6849 -0.1572
 1861SOL     OW11544   8.734   6.911   4.319  0.5661 -0.1706  0.1513
 1861SOL    HW111545   8.806   6.971   4.302 -0.6700  1.1993 -0.4035
 1861SOL    HW211546   8.670   6.929   4.251  0.4475 -2.6605 -0.4854
 1862SOL     OW11547   8.240   3.048   7.438 -0.2637  0.4520 -0.5885
 1862SOL    HW111548   8.206   3.083   7.521 -2.1316  0.9309 -1.4821
 1862SOL    HW211549   8.215   3.114   7.373 -0.7923 -0.9116 -1.8274
 1863SOL     OW11550   6.076   3.225   2.255  0.4474  0.1213  0.0278
 1863SOL    HW111551   6.127   3.305   2.244 -0.2686  0.3635 -1.7931
 1863SOL    HW211552   6.116   3.182   2.330  0.3466  2.5598  1.6052
 1864SOL     OW11553   8.887   0.750   0.856 -0.6382  0.5738 -0.2472
 1864SOL    HW111554   8.880   0.701   0.774  1.8276  1.7562 -1.2778
 1864SOL    HW211555   8.868   0.841   0.831 -1.0563  0.7754  0.7594
 1865SOL     OW11556   0.150   7.486   2.585 -0.2809  0.3533 -0.1035
 1865SOL    HW111557   0.154   7.489   2.681 -0.2785  0.5771 -0.1108
 1865SOL    HW211558   0.241   7.482   2.557 -0.2961 -0.3614 -0.0771
 1866SOL     OW11559   0.829   1.503   8.538 -0.7951  0.2132  0.4933
 1866SOL    HW111560   0.791   1.546   8.461 -1.2504  0.6633  0.9568
 1866SOL    HW211561   0.923   1.508   8.524 -0.8875 -0.7842 -0.6087
 1867SOL     OW11562   8.248   1.522   2.052 -0.8089 -0.0098 -0.2973
 1867SOL    HW111563   8.204   1.605   2.037 -0.1891  0.6528  1.2947
 1867SOL    HW211564   8.201   1.483   2.126 -1.5375 -1.4388 -1.4540
 1868SOL     OW11565   4.178   8.974   1.240  0.1038 -0.2452 -0.1268
 1868SOL    HW111566   4.092   8.952   1.277 -0.1758 -0.1460 -0.6983
 1868SOL    HW211567   4.240   8.925   1.294 -0.3683 -0.9423 -0.1904
 1869SOL     OW11568   1.127   6.097   0.471  1.0278 -0.0795 -0.1880
 1869SOL    HW111569   1.144   6.038   0.398  0.8366 -0.8011  0.3418
 1869SOL    HW211570   1.194   6.076   0.536  1.4206  0.8065 -0.2959
 1870SOL     OW11571   1.670   4.816   0.397  0.1447 -0.0275 -0.0278
 1870SOL    HW111572   1.641   4.830   0.307  1.6060  0.4713 -0.4636
 1870SOL    HW211573   1.765   4.827   0.393  0.1938  0.4890  1.6651
 1871SOL     OW11574   5.034   2.590   5.890 -0.1456 -0.3945 -0.2410
 1871SOL    HW111575   4.952   2.628   5.857  0.0732 -0.4199 -0.8314
 1871SOL    HW211576   5.097   2.605   5.819  0.5824  0.3879  0.5407
 1872SOL     OW11577   6.423   0.320   5.282  0.1948  0.7337 -0.1540
 1872SOL    HW111578   6.333   0.331   5.312  0.4521  0.3813  0.7730
 1872SOL    HW211579   6.463   0.406   5.295  0.5884  0.3236  1.5337
 1873SOL     OW11580   6.702   9.035   6.384  0.0014 -0.1219 -0.2829
 1873SOL    HW111581   6.711   8.965   6.448 -0.1209 -0.6722 -0.8600
 1873SOL    HW211582   6.676   9.111   6.436  1.4280 -0.1504  0.5255
 1874SOL     OW11583   4.114   4.181   4.545  0.2377  0.1524 -0.2025
 1874SOL    HW111584   4.129   4.230   4.625  0.9073 -0.7555  0.2452
 1874SOL    HW211585   4.046   4.230   4.499 -0.5717  0.3853  1.1831
 1875SOL     OW11586   9.159   1.039   6.184 -0.2968 -0.2248 -0.1163
 1875SOL    HW111587   9.203   0.996   6.257 -0.7173 -1.0586 -0.3444
 1875SOL    HW211588   9.096   1.099   6.226  0.3983  0.2999  0.2012
 1876SOL     OW11589   2.036   3.595   5.567 -0.0300  0.3973 -0.8597
 1876SOL    HW111590   2.070   3.648   5.495 -0.9173  0.2964 -1.3711
 1876SOL    HW211591   1.945   3.623   5.576  0.5370  1.7665  1.4959
 1877SOL     OW11592   5.465   5.514   4.067  0.5317  0.0389 -0.1449
 1877SOL    HW111593   5.523   5.559   4.129 -1.3796 -0.9949  2.6036
 1877SOL    HW211594   5.476   5.422   4.087 -0.9904 -0.2567 -0.5775
 1878SOL     OW11595   2.805   5.416   8.770 -0.6957 -0.4150 -0.0143
 1878SOL    HW111596   2.825   5.417   8.677  0.9262  1.4749  0.2777
 1878SOL    HW211597   2.777   5.505   8.790  0.2935 -0.3944  1.5253
 1879SOL     OW11598   0.792   3.275   3.911 -0.1066 -0.1398 -0.2594
 1879SOL    HW111599   0.771   3.182   3.907  1.5451 -0.5274 -1.0348
 1879SOL    HW211600   0.748   3.307   3.989 -1.0279 -1.4820 -0.2099
 1880SOL     OW11601   6.700   7.541   4.658  0.0169  0.0675 -0.0980
 1880SOL    HW111602   6.671   7.470   4.714  1.0036  1.0634  1.7588
 1880SOL    HW211603   6.793   7.524   4.644 -0.1245  0.0620 -1.1099
 1881SOL     OW11604   6.891   7.689   3.242 -0.1169  0.0906 -0.1910
 1881SOL    HW111605   6.966   7.649   3.198 -0.2013 -0.9315  0.5623
 1881SOL    HW211606   6.872   7.630   3.315 -1.6938  0.2915 -0.4107
 1882SOL     OW11607   4.361   5.931   6.922 -0.3359 -0.2716 -0.0160
 1882SOL    HW111608   4.301   5.958   6.853 -0.1167 -0.9080 -0.4661
 1882SOL    HW211609   4.434   5.889   6.876 -0.4115 -1.1309  0.6210
 1883SOL     OW11610   2.462   9.347   7.572 -0.5717  0.0250 -0.0840
 1883SOL    HW111611   2.392   9.413   7.572 -1.2203 -0.6225  0.9683
 1883SOL    HW211612   2.421   9.269   7.611  0.0557 -1.1427 -1.6349
 1884SOL     OW11613   1.933   8.570   1.541 -0.0264 -0.1889 -0.6949
 1884SOL    HW111614   1.914   8.608   1.455  0.1030 -0.7165 -0.9581
 1884SOL    HW211615   2.011   8.617   1.571  0.7865 -1.0010 -1.5053
 1885SOL     OW11616   7.732   1.711   7.012 -0.0499  0.1971  0.6963
 1885SOL    HW111617   7.676   1.702   7.089 -0.3961 -0.9471  0.3259
 1885SOL    HW211618   7.733   1.805   6.994  0.1530  0.4891  2.1737
 1886SOL     OW11619   0.969   2.013   1.824  0.1534  0.2683 -0.0364
 1886SOL    HW111620   0.898   1.975   1.876  0.2968 -0.4507 -0.3450
 1886SOL    HW211621   0.934   2.018   1.735  0.5579 -0.3014 -0.2350
 1887SOL     OW11622   6.657   1.632   3.283 -0.4016  0.1636 -1.0191
 1887SOL    HW111623   6.724   1.604   3.222  0.5237 -0.0538  0.0562
 1887SOL    HW211624   6.705   1.660   3.361 -1.5901 -0.9833  0.1824
 1888SOL     OW11625   8.518   0.442   5.051  0.6422 -0.1471 -0.0798
 1888SOL    HW111626   8.457   0.471   5.119  1.2450  0.7614  0.0830
 1888SOL    HW211627   8.520   0.514   4.988  0.8106 -0.5892 -0.5825
 1889SOL     OW11628   6.362   0.211   0.555 -0.8340 -0.3475  0.6891
 1889SOL    HW111629   6.364   0.143   0.623 -0.2469  1.0019  2.0903
 1889SOL    HW211630   6.286   0.264   0.576 -0.4649  0.2705  0.4902
 1890SOL     OW11631   3.843   1.198   5.098  0.0662 -0.1362  0.4472
 1890SOL    HW111632   3.767   1.228   5.148 -0.4367  0.1512 -0.4824
 1890SOL    HW211633   3.910   1.265   5.113 -1.0020  1.4497 -1.5160
 1891SOL     OW11634   8.061   3.725   8.858  0.3768 -0.0090  0.4947
 1891SOL    HW111635   7.983   3.681   8.826  0.0888  1.0657 -0.3331
 1891SOL    HW211636   8.028   3.798   8.910  0.8437 -0.8640  2.0721
 1892SOL     OW11637   5.361   3.172   7.938  0.5404  0.1148  0.0984
 1892SOL    HW111638   5.450   3.139   7.953 -0.5861 -3.1531  0.3941
 1892SOL    HW211639   5.312   3.146   8.016 -1.0575  0.3149 -0.7872
 1893SOL     OW11640   2.063   7.095   2.050 -0.1645  0.3516  0.0745
 1893SOL    HW111641   2.054   7.021   2.110  1.6809  0.8472  1.0329
 1893SOL    HW211642   2.023   7.169   2.096 -1.5966  0.0760 -0.6879
 1894SOL     OW11643   8.969   6.243   0.885 -0.1504  0.5024  0.0897
 1894SOL    HW111644   9.037   6.279   0.941 -0.0302 -0.0720  0.3295
 1894SOL    HW211645   8.908   6.200   0.946  0.0976 -0.3246 -0.2234
 1895SOL     OW11646   5.660   7.744   3.841  0.3598 -0.1166 -0.2998
 1895SOL    HW111647   5.742   7.787   3.820  0.5281 -1.1327 -1.8773
 1895SOL    HW211648   5.598   7.816   3.854  1.0041  0.6334 -1.2384
 1896SOL     OW11649   3.585   2.814   1.282  0.0920 -0.0217  0.3099
 1896SOL    HW111650   3.654   2.791   1.221 -2.0516 -0.1066 -2.2866
 1896SOL    HW211651   3.564   2.905   1.262 -0.7369 -0.0939  0.8004
 1897SOL     OW11652   5.546   0.639   4.048 -0.4231  0.3901 -0.0570
 1897SOL    HW111653   5.481   0.574   4.074 -1.9028  1.5187 -0.7899
 1897SOL    HW211654   5.532   0.651   3.954  0.5634  0.9684 -0.1417
 1898SOL     OW11655   2.479   5.702   5.931 -0.2520 -0.2396 -0.2695
 1898SOL    HW111656   2.451   5.706   6.022 -0.2872 -0.3935 -0.2732
 1898SOL    HW211657   2.454   5.614   5.902  0.2702 -0.3904 -0.2624
 1899SOL     OW11658   0.875   6.696   6.534 -0.2190 -0.1224  0.4507
 1899SOL    HW111659   0.880   6.710   6.629 -0.0661  1.2907  0.2542
 1899SOL    HW211660   0.951   6.743   6.499  0.4321 -1.6447 -0.2925
 1900SOL     OW11661   2.579   4.336   3.982 -0.5030 -0.2548  0.4653
 1900SOL    HW111662   2.624   4.420   3.976  2.8762 -1.9231  0.0362
 1900SOL    HW211663   2.500   4.354   4.033  1.0244  2.8163  1.9864
 1901SOL     OW11664   0.141   7.437   4.012  0.1231 -0.3255 -0.3968
 1901SOL    HW111665   0.188   7.360   4.046  2.2750  0.8852 -0.4354
 1901SOL    HW211666   0.109   7.482   4.089  0.1343 -0.4867 -0.2968
 1902SOL     OW11667   3.250   4.517   2.600 -0.3038 -0.8431  0.3532
 1902SOL    HW111668   3.267   4.424   2.584 -0.7914 -0.9321  0.3348
 1902SOL    HW211669   3.229   4.522   2.693 -0.9966 -0.8609  0.1984
 1903SOL     OW11670   2.496   1.656   2.429  0.4219 -0.0551 -0.7181
 1903SOL    HW111671   2.458   1.680   2.344  2.8311  1.5122 -1.4399
 1903SOL    HW211672   2.513   1.562   2.422 -0.7420 -0.2265 -1.3988
 1904SOL     OW11673   1.734   5.904   3.311 -0.5232 -0.5642 -0.1841
 1904SOL    HW111674   1.700   5.962   3.242  3.1940  0.5626 -1.2967
 1904SOL    HW211675   1.799   5.850   3.267  0.7079 -1.0602  2.0746
 1905SOL     OW11676   3.449   0.435   4.991  0.3742 -0.6237  0.1650
 1905SOL    HW111677   3.417   0.494   5.059 -1.6747 -0.5747 -0.7478
 1905SOL    HW211678   3.464   0.492   4.915 -1.0403 -1.1248 -0.5385
 1906SOL     OW11679   6.879   3.043   3.091 -0.0831  0.8959 -0.0426
 1906SOL    HW111680   6.940   3.099   3.043  0.8209 -0.6988 -0.8509
 1906SOL    HW211681   6.829   2.999   3.022  1.1797 -1.3846  0.4280
 1907SOL     OW11682   5.080   5.436   3.633  0.3353  0.4119 -0.2007
 1907SOL    HW111683   5.004   5.411   3.686 -0.1066 -0.2287 -1.1169
 1907SOL    HW211684   5.106   5.522   3.667  0.3391 -0.1627  1.3491
 1908SOL     OW11685   1.450   9.112   4.649 -0.1546 -0.5629 -0.0530
 1908SOL    HW111686   1.405   9.060   4.716  2.2008 -0.1787  1.9494
 1908SOL    HW211687   1.392   9.187   4.634 -0.1492  0.0914  2.6543
 1909SOL     OW11688   5.954   1.252   1.809  0.4428  0.2637  0.1445
 1909SOL    HW111689   5.987   1.163   1.820 -0.6403 -0.6378 -2.7417
 1909SOL    HW211690   6.019   1.295   1.753  1.2942  1.5684  2.0588
 1910SOL     OW11691   8.852   7.714   5.945 -0.0988 -0.5838  0.1600
 1910SOL    HW111692   8.814   7.796   5.915 -1.9623 -2.5162 -3.5190
 1910SOL    HW211693   8.937   7.708   5.901  0.5677 -0.1587  1.3568
 1911SOL     OW11694   3.519   5.999   0.532 -0.4851  0.7410  0.8999
 1911SOL    HW111695   3.602   5.966   0.499 -0.7026  1.0828 -0.0216
 1911SOL    HW211696   3.476   5.922   0.571 -0.0526  0.4137  0.7371
 1912SOL     OW11697   3.081   3.876   5.735  0.3916  0.1938 -0.2933
 1912SOL    HW111698   3.125   3.863   5.819 -1.4332 -1.0399  0.5262
 1912SOL    HW211699   2.989   3.891   5.758 -0.1806 -0.3614 -2.0665
 1913SOL     OW11700   6.605   3.971   8.451 -0.3327 -0.3548  0.6463
 1913SOL    HW111701   6.528   4.024   8.430  0.6405  0.8318 -0.0733
 1913SOL    HW211702   6.598   3.894   8.394 -0.0340  0.6669 -0.8300
 1914SOL     OW11703   3.206   8.465   2.929 -0.1550 -0.1050  0.3350
 1914SOL    HW111704   3.235   8.502   2.845  1.2038 -1.0558  0.3518
 1914SOL    HW211705   3.193   8.542   2.985  4.7015  0.5290  1.0452
 1915SOL     OW11706   1.593   7.492   7.086 -0.1899 -0.2446  0.2131
 1915SOL    HW111707   1.603   7.585   7.065 -0.1074 -0.3139 -0.0579
 1915SOL    HW211708   1.572   7.491   7.179 -0.0162  0.0373  0.2588
 1916SOL     OW11709   1.700   8.172   0.985  0.2441 -0.4062  0.0233
 1916SOL    HW111710   1.759   8.131   0.921  0.5794  0.8634 -0.5055
 1916SOL    HW211711   1.646   8.100   1.016  0.6563 -1.2179 -1.0549
 1917SOL     OW11712   7.066   6.905   6.576 -0.1189 -0.0021  0.4420
 1917SOL    HW111713   7.088   6.952   6.656  1.1977 -1.8977  1.2473
 1917SOL    HW211714   7.115   6.951   6.507  1.5372 -0.4186  1.2875
 1918SOL     OW11715   0.976   2.842   3.044 -0.4723 -0.1183  0.6665
 1918SOL    HW111716   0.891   2.887   3.040 -0.7729 -0.7982 -1.0498
 1918SOL    HW211717   0.955   2.749   3.037  0.4426 -0.2585 -0.6106
 1919SOL     OW11718   4.898   7.674   2.279 -0.4155  0.0662  0.0517
 1919SOL    HW111719   4.924   7.669   2.371 -0.8545 -3.4079  0.1263
 1919SOL    HW211720   4.816   7.625   2.275 -1.1692  1.3497 -1.9996
 1920SOL     OW11721   8.138   4.984   3.389 -0.2723 -0.4048 -0.4049
 1920SOL    HW111722   8.075   5.008   3.321 -1.1044 -0.1408  0.4456
 1920SOL    HW211723   8.139   4.888   3.389 -2.3114 -0.4876  1.0081
 1921SOL     OW11724   7.415   5.609   8.547 -0.0424 -0.1453  0.0810
 1921SOL    HW111725   7.426   5.522   8.585 -1.5582 -0.4186 -0.0500
 1921SOL    HW211726   7.406   5.667   8.623  1.9295  0.0808  0.1950
 1922SOL     OW11727   4.130   5.789   3.341 -0.3149 -0.1933 -0.5276
 1922SOL    HW111728   4.224   5.778   3.355 -0.3331  0.3129  0.0265
 1922SOL    HW211729   4.123   5.831   3.255  0.0897  1.7214  0.3248
 1923SOL     OW11730   5.188   2.920   4.038  0.1954  0.1091 -0.0334
 1923SOL    HW111731   5.098   2.943   4.016  0.3854  1.5377  0.5533
 1923SOL    HW211732   5.242   2.976   3.981  0.6831  0.6920  0.9565
 1924SOL     OW11733   7.423   5.804   2.882 -0.0091  0.0179 -0.1701
 1924SOL    HW111734   7.515   5.821   2.902  0.2505 -0.3655 -0.9739
 1924SOL    HW211735   7.379   5.888   2.895  0.0462 -0.2558  2.2574
 1925SOL     OW11736   7.744   1.275   1.006 -0.2094  0.2451  0.1730
 1925SOL    HW111737   7.797   1.354   1.000 -1.1181  0.8051 -1.0954
 1925SOL    HW211738   7.714   1.272   1.096 -0.2920  1.4560  0.1978
 1926SOL     OW11739   0.493   2.713   3.373  0.4616 -0.2212 -0.2207
 1926SOL    HW111740   0.415   2.745   3.419  0.0642 -1.9464  0.3709
 1926SOL    HW211741   0.504   2.624   3.404  1.9761 -0.4156 -1.2352
 1927SOL     OW11742   7.853   4.234   5.955 -0.0606  0.3746  1.0697
 1927SOL    HW111743   7.931   4.284   5.932  1.0381 -1.6102  0.3191
 1927SOL    HW211744   7.797   4.240   5.877  0.4265 -0.2315  0.6690
 1928SOL     OW11745   7.398   1.561   1.509  0.3042 -0.4888  0.5478
 1928SOL    HW111746   7.443   1.519   1.582  1.3557  0.7407  0.6507
 1928SOL    HW211747   7.331   1.615   1.551 -1.1280 -2.0983  0.4097
 1929SOL     OW11748   3.843   6.919   2.005  0.0767  0.6558  0.1388
 1929SOL    HW111749   3.880   7.002   1.974 -2.2773  1.6866 -0.1486
 1929SOL    HW211750   3.764   6.945   2.053 -1.1751 -1.4477 -0.6723
 1930SOL     OW11751   8.190   0.280   8.349 -0.3647  0.0804  0.1597
 1930SOL    HW111752   8.279   0.245   8.340 -0.7623 -0.6244 -1.2312
 1930SOL    HW211753   8.189   0.358   8.294 -0.9091 -0.5276 -0.7095
 1931SOL     OW11754   4.043   3.939   6.559  0.1227  0.3032 -0.7587
 1931SOL    HW111755   4.044   3.849   6.526  2.5883 -0.0894  0.1589
 1931SOL    HW211756   4.055   3.993   6.481 -2.3474 -0.0219 -1.4528
 1932SOL     OW11757   5.975   1.047   4.392  0.2896 -0.3283  0.8609
 1932SOL    HW111758   6.008   0.959   4.374  0.5743  0.1746 -1.2613
 1932SOL    HW211759   5.880   1.039   4.381  0.4362 -0.0787 -0.9044
 1933SOL     OW11760   0.701   4.494   8.391 -0.2013  0.1830  0.0736
 1933SOL    HW111761   0.765   4.455   8.332 -0.4849 -0.6632  0.2979
 1933SOL    HW211762   0.719   4.588   8.389  0.0407  0.1196 -1.0495
 1934SOL     OW11763   6.317   4.334   3.516 -0.0844 -0.1363 -0.0557
 1934SOL    HW111764   6.356   4.254   3.481 -1.1810  0.2820 -2.4203
 1934SOL    HW211765   6.237   4.305   3.560 -0.0837 -0.4360 -0.2492
 1935SOL     OW11766   7.976   0.045   3.427  0.1629 -0.2958  0.0489
 1935SOL    HW111767   8.067   0.036   3.455  0.5944  1.4064 -0.6332
 1935SOL    HW211768   7.949   0.130   3.463 -0.1094  0.6993 -2.2854
 1936SOL     OW11769   0.528   3.206   4.665  0.8366  0.0812  0.1934
 1936SOL    HW111770   0.499   3.291   4.630  1.5581 -0.1538 -1.0080
 1936SOL    HW211771   0.619   3.198   4.637  1.2959 -0.3729  1.7050
 1937SOL     OW11772   7.804   5.548   2.921  0.2084 -0.5594  0.1743
 1937SOL    HW111773   7.767   5.546   3.009  0.0662 -0.0085  0.1307
 1937SOL    HW211774   7.893   5.582   2.933  0.6859 -1.7873  0.2672
 1938SOL     OW11775   2.941   5.593   6.577 -0.6551  0.2214 -0.3334
 1938SOL    HW111776   2.983   5.679   6.573  0.6206 -0.4148 -1.2890
 1938SOL    HW211777   2.941   5.571   6.670 -0.6125  1.0667 -0.1235
 1939SOL     OW11778   5.346   2.517   4.182  0.0228  0.7925  0.3340
 1939SOL    HW111779   5.299   2.578   4.239  2.1677  2.5695  0.3350
 1939SOL    HW211780   5.331   2.552   4.094  0.7604  0.9688  0.2758
 1940SOL     OW11781   8.059   1.715   2.381  0.7255 -0.2462  0.2797
 1940SOL    HW111782   8.065   1.682   2.292  0.4772 -1.6355  0.7583
 1940SOL    HW211783   8.019   1.644   2.431 -1.3029  1.3125  1.0662
 1941SOL     OW11784   1.928   2.454   4.740 -0.1583  0.0206  0.7338
 1941SOL    HW111785   1.867   2.484   4.807 -1.0089 -0.0195 -0.0177
 1941SOL    HW211786   1.896   2.492   4.659  0.5320 -0.4071  0.2521
 1942SOL     OW11787   6.063   1.607   6.028  0.3428 -0.5015  0.0521
 1942SOL    HW111788   6.031   1.695   6.004 -4.6140 -2.1979 -0.7766
 1942SOL    HW211789   6.116   1.580   5.954 -0.1785  0.8608 -0.8679
 1943SOL     OW11790   2.819   8.222   4.856  0.1089 -0.1474  0.0961
 1943SOL    HW111791   2.788   8.313   4.860 -2.2419 -0.9062  0.6302
 1943SOL    HW211792   2.752   8.172   4.903  1.5321 -2.1333  0.1106
 1944SOL     OW11793   8.911   2.518   3.693  0.0327  0.1401  0.3063
 1944SOL    HW111794   8.868   2.602   3.675 -1.7365 -0.8326 -0.2745
 1944SOL    HW211795   9.003   2.533   3.675 -0.1228  2.1794  1.0204
 1945SOL     OW11796   6.612   2.187   3.379  0.1927 -0.1886  0.0729
 1945SOL    HW111797   6.568   2.194   3.464 -0.0211 -0.1885 -0.0373
 1945SOL    HW211798   6.546   2.148   3.321  0.8537 -1.7122  0.2913
 1946SOL     OW11799   3.632   8.902   8.408  0.1880  0.3883 -0.1577
 1946SOL    HW111800   3.672   8.857   8.483  0.2786  0.0268 -0.4223
 1946SOL    HW211801   3.598   8.831   8.353  1.8381  0.5444 -1.4538
 1947SOL     OW11802   6.143   8.126   7.554 -0.2927 -0.2114 -0.1197
 1947SOL    HW111803   6.183   8.123   7.641  0.8930 -0.2999 -0.6526
 1947SOL    HW211804   6.097   8.210   7.552  0.6790  0.3447  0.1743
 1948SOL     OW11805   6.187   8.885   3.555  0.1876  0.2534  0.2080
 1948SOL    HW111806   6.128   8.823   3.513  0.2057  1.2703 -1.3974
 1948SOL    HW211807   6.139   8.917   3.632 -1.0737  0.5137 -0.6571
 1949SOL     OW11808   2.881   1.579   7.722  0.4794  0.9537 -0.0186
 1949SOL    HW111809   2.969   1.560   7.689  0.4131  0.2503  0.2045
 1949SOL    HW211810   2.893   1.592   7.816  0.2149 -0.0210  0.1546
 1950SOL     OW11811   8.934   2.271   2.850  0.6187 -0.4500 -0.1457
 1950SOL    HW111812   8.851   2.258   2.804  0.2990  0.2157  0.2308
 1950SOL    HW211813   8.948   2.366   2.847  0.7187 -0.4201  0.9141
 1951SOL     OW11814   8.875   2.280   8.141  0.1859 -0.2391  0.7159
 1951SOL    HW111815   8.788   2.285   8.101  0.7836  0.5642 -0.5453
 1951SOL    HW211816   8.867   2.330   8.222 -0.3080  0.5449  0.1989
 1952SOL     OW11817   1.774   0.629   0.798  0.2583  0.1700  0.1574
 1952SOL    HW111818   1.776   0.554   0.740  0.9351  2.5203 -3.1723
 1952SOL    HW211819   1.687   0.667   0.786  0.0088  0.1082  1.5941
 1953SOL     OW11820   5.117   6.740   1.539  0.1513  0.0308  0.0928
 1953SOL    HW111821   5.165   6.675   1.487  0.6459 -0.1871  0.7984
 1953SOL    HW211822   5.095   6.694   1.620 -0.9247  0.2544 -0.0593
 1954SOL     OW11823   6.200   7.215   3.700  0.1738 -0.1466 -0.3276
 1954SOL    HW111824   6.268   7.194   3.764 -0.1134  0.5610  0.2240
 1954SOL    HW211825   6.148   7.135   3.694  0.8207 -0.5634 -0.4646
 1955SOL     OW11826   1.848   5.446   1.171  0.1571 -0.2655 -0.2003
 1955SOL    HW111827   1.903   5.467   1.096  0.0928  2.1325  0.3356
 1955SOL    HW211828   1.780   5.389   1.136  2.0034 -1.9490 -1.2114
 1956SOL     OW11829   7.314   4.218   1.304 -0.2409  0.1146 -0.0304
 1956SOL    HW111830   7.266   4.163   1.242  0.5107 -0.8782  0.2649
 1956SOL    HW211831   7.367   4.158   1.354  0.8326  1.1428  0.1021
 1957SOL     OW11832   6.105   3.583   8.229  0.7095 -0.7037 -0.5171
 1957SOL    HW111833   6.090   3.652   8.165 -1.7149  0.0543  0.7593
 1957SOL    HW211834   6.175   3.530   8.190  0.4385  0.6094 -3.0216
 1958SOL     OW11835   1.474   1.187   2.127  0.3927 -0.3552 -0.1078
 1958SOL    HW111836   1.540   1.119   2.114  0.7830 -0.1845  0.8695
 1958SOL    HW211837   1.502   1.259   2.070 -0.0321 -0.9953 -1.1576
 1959SOL     OW11838   5.652   4.048   2.542  0.4625 -0.3424 -0.0978
 1959SOL    HW111839   5.720   3.987   2.572  0.3717  0.0514  0.9322
 1959SOL    HW211840   5.701   4.120   2.501  0.5734 -1.0482 -1.2539
 1960SOL     OW11841   8.098   2.138   6.720 -0.0493 -0.8524 -0.0548
 1960SOL    HW111842   8.159   2.065   6.731 -0.6032 -1.3228 -0.0701
 1960SOL    HW211843   8.076   2.164   6.810  0.5638 -0.3455 -0.0454
 1961SOL     OW11844   0.016   3.968   7.317 -0.0146 -0.5300  0.1092
 1961SOL    HW111845  -0.071   3.985   7.281 -0.2023 -0.4525  0.5859
 1961SOL    HW211846   0.076   3.979   7.243 -0.5300 -1.9761 -0.5585
 1962SOL     OW11847   0.816   7.723   8.951 -0.2934  0.5126 -0.3349
 1962SOL    HW111848   0.783   7.812   8.962 -0.9345  0.0135  2.4814
 1962SOL    HW211849   0.901   7.734   8.909 -0.1956  2.4807  0.2731
 1963SOL     OW11850   4.926   6.286   6.716 -0.0167  0.5621 -0.0961
 1963SOL    HW111851   4.958   6.371   6.687  0.5565 -0.2140 -1.8826
 1963SOL    HW211852   4.941   6.228   6.642 -1.6115 -0.8219  0.5921
 1964SOL     OW11853   9.358   3.659   6.012  0.1849 -0.5743  0.2317
 1964SOL    HW111854   9.315   3.659   6.097  0.2967  1.0711  0.3148
 1964SOL    HW211855   9.360   3.751   5.985  2.3424 -0.7404 -0.4184
 1965SOL     OW11856   3.796   8.387   4.824 -0.7168 -0.6492 -0.3377
 1965SOL    HW111857   3.774   8.419   4.736 -1.3981 -1.4039 -0.4517
 1965SOL    HW211858   3.717   8.403   4.875  0.0152  0.7170  0.4168
 1966SOL     OW11859   5.057   3.803   4.268 -0.0668  0.0210 -0.3383
 1966SOL    HW111860   5.121   3.828   4.335 -0.6252 -1.4624  0.8221
 1966SOL    HW211861   5.110   3.769   4.196  0.6030  2.6477 -1.1991
 1967SOL     OW11862   7.863   4.111   3.798  0.2227 -0.3323  0.2137
 1967SOL    HW111863   7.827   4.082   3.714 -0.0770  1.6441 -0.3814
 1967SOL    HW211864   7.891   4.030   3.841 -0.2789 -1.4527 -1.4735
 1968SOL     OW11865   1.937   6.450   9.335  0.1997 -0.3846  0.0056
 1968SOL    HW111866   1.955   6.533   9.378 -2.3021  1.1255 -1.5967
 1968SOL    HW211867   1.853   6.422   9.370  1.3851 -2.7656  1.1464
 1969SOL     OW11868   8.518   4.231   9.095 -0.0967 -0.3109  0.2099
 1969SOL    HW111869   8.514   4.156   9.155 -2.5902  0.9247  1.7839
 1969SOL    HW211870   8.566   4.297   9.144  2.5775 -0.9424 -1.3896
 1970SOL     OW11871   2.165   2.820   0.509  0.0710 -0.4666  0.0840
 1970SOL    HW111872   2.165   2.779   0.423 -0.1752 -2.3063  0.9167
 1970SOL    HW211873   2.194   2.751   0.569 -1.0758  0.3474  1.6529
 1971SOL     OW11874   8.611   5.023   1.098  0.5408 -0.2923 -0.3240
 1971SOL    HW111875   8.597   4.928   1.100  0.3100 -0.2679 -0.6950
 1971SOL    HW211876   8.559   5.057   1.171  1.2499 -0.5266  0.3011
 1972SOL     OW11877   8.450   3.664   2.830 -0.0836  0.2408  0.1976
 1972SOL    HW111878   8.389   3.618   2.772 -0.8394  1.1239  0.2800
 1972SOL    HW211879   8.430   3.756   2.819  3.2187  0.8725 -2.0330
 1973SOL     OW11880   1.826   8.725   3.309 -0.1783  0.9399  0.4560
 1973SOL    HW111881   1.791   8.779   3.380 -0.7915  1.5985 -0.3304
 1973SOL    HW211882   1.910   8.766   3.286 -1.0359  2.1451 -0.7268
 1974SOL     OW11883   7.963   5.505   5.772  0.2508  0.2298 -0.0371
 1974SOL    HW111884   8.053   5.473   5.783  0.6511  0.5252 -2.0654
 1974SOL    HW211885   7.972   5.601   5.774  0.3214  0.3127 -2.1497
 1975SOL     OW11886   0.145   2.988   1.435 -0.1450 -0.3144  0.0802
 1975SOL    HW111887   0.059   3.018   1.466 -0.5770 -2.8494  1.6145
 1975SOL    HW211888   0.208   3.046   1.478 -1.0139  0.5049  0.2776
 1976SOL     OW11889   1.537   7.175   4.654  0.0834 -0.0164  0.1204
 1976SOL    HW111890   1.611   7.236   4.649 -1.1367  1.5537  0.3102
 1976SOL    HW211891   1.508   7.166   4.563 -0.2209  0.3106  0.1849
 1977SOL     OW11892   2.468   2.924   7.835 -0.2652  0.1669  0.1617
 1977SOL    HW111893   2.557   2.954   7.850  0.3214 -1.6190  0.4029
 1977SOL    HW211894   2.464   2.904   7.742 -1.0128  1.9935 -0.2533
 1978SOL     OW11895   5.666   9.211   4.119  0.5065 -0.1644  0.3944
 1978SOL    HW111896   5.695   9.301   4.133  0.4871  0.1205 -1.1651
 1978SOL    HW211897   5.718   9.158   4.179  3.8742  0.3757 -1.7758
 1979SOL     OW11898   1.837   0.187   5.549  0.4656 -0.8444 -0.0365
 1979SOL    HW111899   1.779   0.195   5.624  0.5259  0.1426 -0.0886
 1979SOL    HW211900   1.910   0.246   5.568 -0.0732  0.3082 -1.3604
 1980SOL     OW11901   2.371   2.877   1.752  0.0026  0.2081 -0.7074
 1980SOL    HW111902   2.349   2.794   1.794 -0.3042  0.6185 -0.0447
 1980SOL    HW211903   2.291   2.903   1.707 -0.0059  0.3098 -0.6340
 1981SOL     OW11904   5.442   3.619   3.587  0.2651 -0.2928  0.0534
 1981SOL    HW111905   5.508   3.680   3.619  0.1391  0.7242 -1.5183
 1981SOL    HW211906   5.458   3.538   3.636  3.1680 -0.3294 -0.7806
 1982SOL     OW11907   3.447   5.469   7.157 -0.1679  0.3936  0.4373
 1982SOL    HW111908   3.420   5.529   7.226 -0.8999  1.0407 -0.3931
 1982SOL    HW211909   3.368   5.454   7.106  0.1926 -0.6549  0.1556
 1983SOL     OW11910   6.350   1.170   1.319 -0.4702 -0.0949  0.0353
 1983SOL    HW111911   6.258   1.145   1.320 -0.6607  0.5553 -0.4193
 1983SOL    HW211912   6.378   1.152   1.229 -0.3869  0.5097 -0.0623
 1984SOL     OW11913   1.598   2.643   3.327  0.0327  0.5533  0.2209
 1984SOL    HW111914   1.540   2.595   3.268 -0.4999  1.4127  0.0290
 1984SOL    HW211915   1.683   2.641   3.284 -0.8127  3.2500 -1.9239
 1985SOL     OW11916   4.963   8.288   7.161  0.3453 -0.1140  0.4841
 1985SOL    HW111917   5.024   8.229   7.117  0.7251  0.2443  0.5243
 1985SOL    HW211918   5.018   8.343   7.216  0.0394  0.5596  0.1269
 1986SOL     OW11919   6.741   6.138   8.113  0.1455 -0.0019 -0.0579
 1986SOL    HW111920   6.751   6.048   8.082  0.4992  0.1487 -0.3907
 1986SOL    HW211921   6.647   6.148   8.129 -0.1817  0.1825 -1.9047
 1987SOL     OW11922   6.903   7.828   5.426  0.3400  0.1142  0.9695
 1987SOL    HW111923   6.832   7.870   5.379 -2.6373 -4.5824  0.5780
 1987SOL    HW211924   6.979   7.837   5.368 -1.5191  0.2012 -1.6056
 1988SOL     OW11925   6.785   9.154   3.647  0.1622  0.2154  0.6010
 1988SOL    HW111926   6.789   9.212   3.724  0.7947  0.3239  0.4901
 1988SOL    HW211927   6.691   9.138   3.635 -0.0882  1.7997  0.2047
 1989SOL     OW11928   9.023   0.083   8.483  0.1941  0.2741 -0.2770
 1989SOL    HW111929   9.027   0.112   8.392 -2.0971  1.2176 -0.1407
 1989SOL    HW211930   9.066  -0.002   8.482 -1.1604 -0.4842 -2.5853
 1990SOL     OW11931   5.913   5.162   4.691 -0.2720 -0.2282 -0.6244
 1990SOL    HW111932   5.858   5.120   4.625  0.5349  1.0817 -2.2186
 1990SOL    HW211933   5.894   5.256   4.682  0.3756  0.0412  0.5555
 1991SOL     OW11934   3.335   0.342   8.623  0.3863  0.2417  0.2480
 1991SOL    HW111935   3.393   0.414   8.648 -0.2063  0.2018  1.8928
 1991SOL    HW211936   3.385   0.263   8.640  0.7811  0.2295 -0.8839
 1992SOL     OW11937   0.515   6.865   3.814 -0.0533 -0.0473  0.1745
 1992SOL    HW111938   0.564   6.827   3.741  2.8970 -0.3019  2.1453
 1992SOL    HW211939   0.530   6.959   3.806 -0.8120  0.0400 -0.2645
 1993SOL     OW11940   1.021   4.827   3.900 -0.0498 -0.0070 -0.2411
 1993SOL    HW111941   1.021   4.850   3.807 -0.5314 -1.5709 -0.6582
 1993SOL    HW211942   1.113   4.826   3.925  0.1313 -0.2010 -0.8828
 1994SOL     OW11943   3.541   5.726   4.543  0.8116  0.0556  0.1770
 1994SOL    HW111944   3.583   5.804   4.507 -1.3347  0.8372 -0.7665
 1994SOL    HW211945   3.513   5.676   4.466 -1.2581  0.2951  0.7266
 1995SOL     OW11946   3.713   0.662   9.102  0.8201 -0.7109  0.0490
 1995SOL    HW111947   3.659   0.647   9.025  1.5017 -1.7325 -0.2448
 1995SOL    HW211948   3.769   0.585   9.108  2.7166  0.6070 -0.0391
 1996SOL     OW11949   4.511   5.052   0.169  0.2378 -0.1075 -0.8155
 1996SOL    HW111950   4.593   5.018   0.206 -0.2387 -0.3973  0.0175
 1996SOL    HW211951   4.522   5.147   0.171  0.0007 -0.0873  0.6695
 1997SOL     OW11952   6.227   8.191   4.941 -0.5857 -0.2285 -0.0402
 1997SOL    HW111953   6.226   8.286   4.953 -0.5437 -0.3347  0.8502
 1997SOL    HW211954   6.318   8.170   4.918  0.0298 -0.3311  2.2874
 1998SOL     OW11955   7.817   3.777   6.860  0.3515  0.2480 -0.5397
 1998SOL    HW111956   7.743   3.798   6.918  1.0907  1.1565  0.0890
 1998SOL    HW211957   7.812   3.842   6.790  0.5875  0.3357 -0.4741
 1999SOL     OW11958   0.536   2.629   7.247 -0.2011  0.0339 -0.4260
 1999SOL    HW111959   0.503   2.675   7.169 -0.4383  0.7877  0.1114
 1999SOL    HW211960   0.581   2.552   7.211 -1.1478 -0.1554 -1.2521
 2000SOL     OW11961   6.937   7.820   7.877  0.1365 -0.2795 -0.1452
 2000SOL    HW111962   6.919   7.760   7.950 -0.8403  0.1478 -0.0262
 2000SOL    HW211963   6.942   7.906   7.918  2.9228 -0.3639 -0.0924
 2001SOL     OW11964   6.200   8.843   1.143  0.5358  0.3841 -0.0978
 2001SOL    HW111965   6.233   8.756   1.121 -1.8762 -0.4558 -0.6751
 2001SOL    HW211966   6.212   8.895   1.063 -0.7295 -0.3249 -0.7877
 2002SOL     OW11967   5.344   4.301   0.640 -0.0128  0.0988 -0.0675
 2002SOL    HW111968   5.310   4.389   0.658 -1.7394 -0.6668  0.6185
 2002SOL    HW211969   5.370   4.304   0.548  0.8340  1.5817  0.1870
 2003SOL     OW11970   7.977   7.909   5.909 -0.2698 -0.4979  0.1795
 2003SOL    HW111971   7.968   7.916   5.814  2.0877  0.8833 -0.0086
 2003SOL    HW211972   7.913   7.970   5.945  0.7974  1.1739 -0.6590
 2004SOL     OW11973   2.664   4.017   8.419  0.7151 -0.0729  0.1066
 2004SOL    HW111974   2.656   4.080   8.490  0.3868 -1.8600  1.7389
 2004SOL    HW211975   2.694   4.068   8.344  0.0523  2.0635  1.2309
 2005SOL     OW11976   3.353   4.348   6.506 -0.0217  0.0704 -0.5385
 2005SOL    HW111977   3.370   4.350   6.600 -0.9785 -1.0452 -0.3220
 2005SOL    HW211978   3.263   4.379   6.497  0.3443  1.0058 -1.1857
 2006SOL     OW11979   2.805   6.880   2.160  0.0078 -0.1556  0.3230
 2006SOL    HW111980   2.760   6.839   2.234  1.2806  1.0579  1.8179
 2006SOL    HW211981   2.811   6.972   2.183  1.4310  0.0537 -0.7708
 2007SOL     OW11982   3.015   8.780   7.147 -0.3277 -0.3165 -0.2286
 2007SOL    HW111983   3.064   8.750   7.224 -1.8856 -2.0444  0.1558
 2007SOL    HW211984   3.001   8.873   7.162 -1.7328 -0.8400  2.3085
 2008SOL     OW11985   5.183   8.923   7.478 -0.0166  0.3213  0.2302
 2008SOL    HW111986   5.179   8.897   7.570  0.7091  0.8412  0.4107
 2008SOL    HW211987   5.140   8.851   7.431  1.7120 -1.1085  0.7521
 2009SOL     OW11988   1.918   1.038   0.982 -0.3121 -0.1249  0.1792
 2009SOL    HW111989   1.836   1.008   0.944 -0.1670 -1.2629  0.7264
 2009SOL    HW211990   1.897   1.123   1.021 -1.3428 -0.5936  0.6873
 2010SOL     OW11991   8.591   9.354   4.670 -0.3949 -0.2185 -0.4129
 2010SOL    HW111992   8.598   9.342   4.575 -0.6994  0.3245 -0.5099
 2010SOL    HW211993   8.657   9.295   4.707 -1.3942 -1.6981 -0.8822
 2011SOL     OW11994   0.159   1.136   3.818 -0.0837 -0.3717 -0.2594
 2011SOL    HW111995   0.231   1.073   3.820  1.7246  1.6237  0.3232
 2011SOL    HW211996   0.189   1.205   3.760 -0.9750  1.1381  1.0056
 2012SOL     OW11997   7.272   6.096   3.441  0.2903  0.4154  0.2415
 2012SOL    HW111998   7.302   6.180   3.475 -0.2791  0.8191 -0.2349
 2012SOL    HW211999   7.188   6.115   3.399  0.0261 -0.4379  0.3513
 2013SOL     OW12000   1.330   5.518   5.291  0.3287  0.4126  0.3391
 2013SOL    HW112001   1.258   5.568   5.330  0.8209  0.3679  1.3409
 2013SOL    HW212002   1.376   5.480   5.366  0.9924 -0.1177 -0.3242
 2014SOL     OW12003   0.679   2.045   8.428 -0.1201 -0.1469  0.3665
 2014SOL    HW112004   0.674   2.112   8.497 -0.0797  0.2305  0.0043
 2014SOL    HW212005   0.618   1.977   8.458  1.6894 -1.1417  2.0044
 2015SOL     OW12006   7.658   7.517   8.880 -0.5202 -0.3240 -0.3448
 2015SOL    HW112007   7.681   7.601   8.841 -0.7837 -0.0086  0.1650
 2015SOL    HW212008   7.564   7.524   8.897 -0.4634 -0.5558  0.0908
 2016SOL     OW12009   0.370   0.329   6.405 -0.4130  0.1397  0.2124
 2016SOL    HW112010   0.350   0.421   6.422  0.0896  0.0943  1.1648
 2016SOL    HW212011   0.450   0.331   6.352  0.5613  0.2659  1.6137
 2017SOL     OW12012   9.363   2.780   3.022 -0.2787  0.8596  0.1308
 2017SOL    HW112013   9.382   2.686   3.022  1.9348  1.2505 -0.5327
 2017SOL    HW212014   9.434   2.819   3.071 -0.4462  2.3057 -0.7229
 2018SOL     OW12015   6.903   0.477   7.417 -0.5400 -0.2453 -0.3645
 2018SOL    HW112016   6.993   0.447   7.400 -0.8825 -1.0705 -0.7356
 2018SOL    HW212017   6.902   0.567   7.385 -0.2886 -0.7470 -1.8214
 2019SOL     OW12018   7.272   4.963   2.518 -0.0894  0.3634 -0.3594
 2019SOL    HW112019   7.334   5.019   2.472 -0.3284 -1.2451 -2.8255
 2019SOL    HW212020   7.322   4.928   2.592  0.9598  1.4714 -0.5067
 2020SOL     OW12021   5.301   1.830   3.526 -0.2082  0.5219 -0.0181
 2020SOL    HW112022   5.315   1.766   3.456 -0.4517  0.4380  0.0087
 2020SOL    HW212023   5.298   1.778   3.606 -1.0179  0.4947 -0.0575
 2021SOL     OW12024   1.374   7.903   2.321 -0.1174  0.1477  0.2436
 2021SOL    HW112025   1.286   7.941   2.318 -0.3615 -0.3438  1.0122
 2021SOL    HW212026   1.413   7.929   2.237 -1.2461 -0.2443 -0.4374
 2022SOL     OW12027   7.600   0.355   6.204 -0.1369 -0.4602 -0.0476
 2022SOL    HW112028   7.621   0.326   6.115 -1.5402 -2.7092  0.2660
 2022SOL    HW212029   7.623   0.280   6.259  0.8090  0.9310  1.5475
 2023SOL     OW12030   8.064   3.033   5.395  0.3143 -0.1278 -0.1531
 2023SOL    HW112031   8.124   3.030   5.469  0.5639  0.3383 -0.3317
 2023SOL    HW212032   8.119   3.057   5.320 -0.1688  0.8466 -0.2189
 2024SOL     OW12033   7.021   3.607   8.492  0.3265 -0.0998  0.3144
 2024SOL    HW112034   7.042   3.660   8.569 -2.1210 -0.1079  1.0886
 2024SOL    HW212035   6.939   3.564   8.515  0.1652 -1.0696 -1.8596
 2025SOL     OW12036   4.860   1.292   2.416 -0.1151  0.4339 -0.3264
 2025SOL    HW112037   4.784   1.341   2.384 -0.4485  0.8786  1.0968
 2025SOL    HW212038   4.917   1.284   2.339 -1.0917  1.0494 -1.1451
 2026SOL     OW12039   3.485   5.543   2.021  0.2537  0.1310 -0.7651
 2026SOL    HW112040   3.570   5.568   2.057  0.4780  2.4771 -2.6647
 2026SOL    HW212041   3.443   5.626   1.999 -2.9520 -0.8891  0.8651
 2027SOL     OW12042   0.871   2.574   0.764  0.5427  0.1754 -0.1569
 2027SOL    HW112043   0.866   2.478   0.765  1.1441  0.0534 -2.5843
 2027SOL    HW212044   0.784   2.603   0.790  0.7462 -0.9755  1.9644
 2028SOL     OW12045   6.634   8.789   8.527  0.2343  0.6668  0.0424
 2028SOL    HW112046   6.620   8.707   8.574 -0.6605  0.4828 -0.5232
 2028SOL    HW212047   6.724   8.813   8.549  0.8778 -0.9926 -0.5751
 2029SOL     OW12048   5.141   7.870   3.678 -0.3556  0.1861  0.4707
 2029SOL    HW112049   5.140   7.787   3.631 -0.7846 -0.2730  1.2681
 2029SOL    HW212050   5.234   7.889   3.691 -0.2460  0.1140 -0.1893
 2030SOL     OW12051   7.388   0.289   3.076  0.2878 -0.2117  0.1542
 2030SOL    HW112052   7.378   0.384   3.077 -0.0625 -0.2306 -0.8724
 2030SOL    HW212053   7.400   0.266   3.168 -0.0181  0.7789  0.4601
 2031SOL     OW12054   8.199   3.993   2.537  0.2670 -0.4489 -0.2630
 2031SOL    HW112055   8.121   3.941   2.520 -0.4155  0.7361 -0.9291
 2031SOL    HW212056   8.170   4.057   2.602  0.3850  0.6105 -1.2226
 2032SOL     OW12057   8.686   7.413   7.848 -0.2455 -0.2470  0.1553
 2032SOL    HW112058   8.690   7.420   7.943  0.5755  0.4209  0.0791
 2032SOL    HW212059   8.668   7.502   7.818  1.1190 -0.1302 -0.3814
 2033SOL     OW12060   6.670   1.130   4.287 -0.1490 -0.5206  0.1667
 2033SOL    HW112061   6.577   1.134   4.264 -0.1811 -1.0268  0.1977
 2033SOL    HW212062   6.678   1.181   4.367 -0.2455  0.2550 -0.3089
 2034SOL     OW12063   0.289   8.709   4.080 -0.0693  0.6877 -0.1483
 2034SOL    HW112064   0.251   8.623   4.102  1.3179  0.2166  0.5144
 2034SOL    HW212065   0.229   8.745   4.014  1.1829 -2.3781 -3.2677
 2035SOL     OW12066   7.923   4.884   3.869 -0.1017 -0.2167  0.9080
 2035SOL    HW112067   7.928   4.891   3.774 -0.7618  0.2000  0.8974
 2035SOL    HW212068   7.928   4.790   3.887 -0.5718 -0.3377  0.4219
 2036SOL     OW12069   2.984   2.325   0.160  0.4561  0.6967 -0.0006
 2036SOL    HW112070   2.998   2.329   0.065 -0.7403 -1.8942 -0.3710
 2036SOL    HW212071   3.018   2.239   0.185 -0.2388  0.8906  1.7251
 2037SOL     OW12072   8.230   2.625   5.705  0.6311 -0.3011 -0.0604
 2037SOL    HW112073   8.169   2.646   5.776  2.2668  0.6364  1.1399
 2037SOL    HW212074   8.298   2.573   5.746  1.9123  0.7413 -0.7822
 2038SOL     OW12075   2.068   1.811   2.779  0.2676 -0.0973  0.6213
 2038SOL    HW112076   2.142   1.805   2.719 -1.9461  2.1926 -2.6619
 2038SOL    HW212077   2.076   1.897   2.819  0.2682 -0.5669  1.6966
 2039SOL     OW12078   3.005   6.226   4.852  0.3342 -0.0556 -0.3384
 2039SOL    HW112079   2.956   6.190   4.925  2.0368 -0.0480  0.8698
 2039SOL    HW212080   3.033   6.312   4.881  0.1513  0.3889 -1.4196
 2040SOL     OW12081   1.938   5.629   7.958  0.2368  0.1370 -0.5051
 2040SOL    HW112082   1.899   5.570   8.023 -1.1448 -1.0007 -2.2784
 2040SOL    HW212083   1.999   5.574   7.910  0.8697  0.8442 -0.5237
 2041SOL     OW12084   9.351   6.770   6.890 -0.2286  0.4879  0.2825
 2041SOL    HW112085   9.284   6.714   6.929 -0.0980 -0.6678 -1.0616
 2041SOL    HW212086   9.434   6.733   6.920  0.0370 -2.3368 -3.2036
 2042SOL     OW12087   7.751   6.322   2.830  0.1366 -0.4785  0.1842
 2042SOL    HW112088   7.781   6.394   2.884 -0.5854  0.5377 -0.7271
 2042SOL    HW212089   7.697   6.269   2.888 -1.8497  1.3908  0.1738
 2043SOL     OW12090   3.111   3.637   5.010 -0.5600 -0.6812 -0.3984
 2043SOL    HW112091   3.130   3.711   5.067  1.3975 -1.5137  0.1088
 2043SOL    HW212092   3.044   3.669   4.950  2.3146  2.5634 -2.2383
 2044SOL     OW12093   6.065   7.857   3.058 -0.0048  0.1195  0.1016
 2044SOL    HW112094   5.983   7.809   3.054 -0.0687  0.2589 -0.3431
 2044SOL    HW212095   6.113   7.817   3.130 -0.2355 -0.3210  0.0129
 2045SOL     OW12096   2.544   1.564   8.179  0.0443 -0.8784  0.4117
 2045SOL    HW112097   2.574   1.626   8.246 -1.4933 -0.8054  1.0822
 2045SOL    HW212098   2.587   1.593   8.099  0.8106 -0.0822  1.0871
 2046SOL     OW12099   0.167   4.715   6.357  0.7931  0.7811  0.2044
 2046SOL    HW112100   0.184   4.750   6.269  1.7172  1.0555  0.4763
 2046SOL    HW212101   0.244   4.662   6.377  0.3333  0.2652  0.6312
 2047SOL     OW12102   1.948   6.803   1.273  0.0662 -0.3125 -0.1320
 2047SOL    HW112103   1.904   6.826   1.191  0.9719  1.6813 -0.1180
 2047SOL    HW212104   1.885   6.823   1.341  0.0434 -0.0371 -0.2365
 2048SOL     OW12105   0.799   6.930   8.171  0.0033 -0.1192  0.0213
 2048SOL    HW112106   0.856   6.978   8.112  0.9908  0.7932  1.6487
 2048SOL    HW212107   0.791   6.986   8.248 -0.1062 -1.8726  1.3424
 2049SOL     OW12108   8.542   5.481   6.047 -0.0392  0.3212 -0.1421
 2049SOL    HW112109   8.613   5.546   6.043 -2.6025  3.2803 -2.3080
 2049SOL    HW212110   8.483   5.515   6.114 -1.0725 -0.1684 -0.7866
 2050SOL     OW12111   6.742   0.685   3.244 -0.2494 -0.6811 -0.2345
 2050SOL    HW112112   6.647   0.679   3.243 -0.3049  0.1718 -0.4135
 2050SOL    HW212113   6.771   0.620   3.180 -0.7417 -0.3964 -0.7555
 2051SOL     OW12114   7.162   2.088   0.538 -0.8364 -0.8442 -0.5600
 2051SOL    HW112115   7.253   2.067   0.518 -0.4227  0.1614  0.1593
 2051SOL    HW212116   7.147   2.172   0.494 -0.9836 -0.3479  0.4166
 2052SOL     OW12117   4.662   3.823   0.096  0.8236 -0.2960  0.1450
 2052SOL    HW112118   4.606   3.899   0.112 -0.1555 -0.6195 -1.5858
 2052SOL    HW212119   4.717   3.848   0.022  0.9965 -1.0231  0.0198
 2053SOL     OW12120   7.337   5.864   0.299  0.8135 -0.3361  0.1900
 2053SOL    HW112121   7.338   5.824   0.386 -1.7369  0.7668  0.8487
 2053SOL    HW212122   7.282   5.942   0.310 -0.2419 -0.5892 -2.5699
 2054SOL     OW12123   9.101   4.747   3.498  0.0367 -0.1248 -0.1160
 2054SOL    HW112124   9.082   4.777   3.410  0.0566 -0.7912 -0.3513
 2054SOL    HW212125   9.178   4.798   3.524  0.3377 -0.2833 -0.6765
 2055SOL     OW12126   6.468   8.745   0.070 -0.4645  0.6225 -0.2180
 2055SOL    HW112127   6.459   8.763   0.164 -0.7130 -0.2867 -0.0494
 2055SOL    HW212128   6.451   8.829   0.028  0.5643  1.2533  0.5815
 2056SOL     OW12129   0.928   9.214   7.361  0.4354  0.3277 -0.0496
 2056SOL    HW112130   0.839   9.249   7.363  0.8149  1.3669  2.3210
 2056SOL    HW212131   0.918   9.124   7.330 -1.8073 -0.3711  2.3395
 2057SOL     OW12132   8.152   3.152   7.679 -0.0833  0.1566 -0.4548
 2057SOL    HW112133   8.146   3.093   7.754 -0.5394  0.1992 -0.4532
 2057SOL    HW212134   8.130   3.238   7.714  1.3041  0.4750 -0.2998
 2058SOL     OW12135   2.785   6.458   5.545  0.2365  0.1418  0.9293
 2058SOL    HW112136   2.732   6.513   5.602  1.3254  2.3220 -0.0215
 2058SOL    HW212137   2.872   6.456   5.586 -0.0768 -2.0823  1.6472
 2059SOL     OW12138   8.898   4.971   2.304  0.2224 -0.5438 -0.8973
 2059SOL    HW112139   8.886   5.033   2.376  0.5974 -1.2539 -0.2143
 2059SOL    HW212140   8.962   4.908   2.336 -0.9214 -1.9105 -1.1577
 2060SOL     OW12141   6.226   7.625   0.812 -0.4835 -0.1784  0.4456
 2060SOL    HW112142   6.319   7.641   0.797 -0.2078 -1.0043  1.1893
 2060SOL    HW212143   6.183   7.657   0.732  0.5719 -1.0361 -0.5020
 2061SOL     OW12144   6.467   2.627   6.337 -0.2902  0.3038  0.3779
 2061SOL    HW112145   6.526   2.695   6.369  0.1450  0.7751 -1.3234
 2061SOL    HW212146   6.483   2.624   6.243 -0.6319 -1.8564  0.3491
 2062SOL     OW12147   8.671   8.400   3.941 -0.2255  0.0830 -0.4218
 2062SOL    HW112148   8.684   8.317   3.895  1.2434 -1.1257  1.9665
 2062SOL    HW212149   8.582   8.393   3.977 -0.4322 -0.0529 -0.9479
 2063SOL     OW12150   8.074   7.082   4.490 -0.0167 -0.0477 -0.7361
 2063SOL    HW112151   8.083   7.107   4.398  0.1179 -0.0435 -0.7222
 2063SOL    HW212152   8.035   6.994   4.488 -2.1478  0.8448 -0.7548
 2064SOL     OW12153   7.918   5.138   0.407 -0.7016  0.2352  0.3063
 2064SOL    HW112154   7.951   5.225   0.383 -1.1313 -0.0457 -1.4038
 2064SOL    HW212155   7.936   5.131   0.501  2.5749  0.7525 -0.1783
 2065SOL     OW12156   3.150   7.772   5.630 -0.3496  0.0150 -0.2236
 2065SOL    HW112157   3.215   7.709   5.662 -0.8169 -0.3843 -0.0509
 2065SOL    HW212158   3.066   7.738   5.661 -0.7107  0.1765 -1.0115
 2066SOL     OW12159   3.170   8.284   0.205 -0.4207  0.6031 -0.1746
 2066SOL    HW112160   3.098   8.261   0.147  1.0484 -0.8785 -1.4976
 2066SOL    HW212161   3.128   8.329   0.279 -3.0519 -2.6936  0.5690
 2067SOL     OW12162   5.545   5.550   7.870  0.0161  0.6086  0.3712
 2067SOL    HW112163   5.589   5.568   7.787  1.0281  0.0882  0.7689
 2067SOL    HW212164   5.452   5.555   7.850  0.1822  3.7762 -0.0766
 2068SOL     OW12165   6.987   0.191   2.524 -0.2770 -0.0169 -0.0450
 2068SOL    HW112166   6.931   0.252   2.477 -0.7354 -0.1786  0.2793
 2068SOL    HW212167   7.068   0.239   2.540 -0.3001  0.2036 -0.5579
 2069SOL     OW12168   7.541   3.915   9.240  0.2581 -0.2204 -0.0128
 2069SOL    HW112169   7.620   3.957   9.205 -0.3266 -0.0331 -1.1555
 2069SOL    HW212170   7.471   3.978   9.224 -0.2143 -0.5933  0.5360
 2070SOL     OW12171   7.396   3.732   6.210 -0.0956  0.1189  0.0486
 2070SOL    HW112172   7.433   3.817   6.236 -1.9460  1.7138 -2.1797
 2070SOL    HW212173   7.394   3.682   6.292  0.3366  2.4793  1.6210
 2071SOL     OW12174   6.687   1.019   4.013 -0.1874  0.4922 -0.5046
 2071SOL    HW112175   6.731   0.938   4.039 -0.8211  1.1389  3.0992
 2071SOL    HW212176   6.708   1.081   4.082 -2.1108  2.5427 -1.6334
 2072SOL     OW12177   8.978   1.676   3.422 -0.6173  0.7766 -0.0554
 2072SOL    HW112178   8.912   1.704   3.485 -1.2114 -0.3069 -0.1808
 2072SOL    HW212179   8.929   1.629   3.355 -0.1276  2.7178 -1.8615
 2073SOL     OW12180   1.160   6.152   8.178  0.1870  0.1928  0.1773
 2073SOL    HW112181   1.092   6.147   8.244 -0.1429 -0.6346 -0.2112
 2073SOL    HW212182   1.131   6.219   8.117  0.9646  1.6780  1.3716
 2074SOL     OW12183   6.069   4.515   1.310  0.2016  0.4003  0.2444
 2074SOL    HW112184   5.996   4.539   1.252 -0.0218  1.3953  0.9059
 2074SOL    HW212185   6.047   4.557   1.394  0.8995 -0.3703  0.8277
 2075SOL     OW12186   4.247   6.610   7.994 -0.5880 -0.3752  0.0769
 2075SOL    HW112187   4.174   6.628   7.935 -0.9950 -0.1625  0.6338
 2075SOL    HW212188   4.266   6.517   7.982  0.5791  0.0546 -1.7642
 2076SOL     OW12189   2.333   4.653   6.336 -0.5607  0.3286  0.0566
 2076SOL    HW112190   2.416   4.642   6.383 -0.9861  0.4747  0.8491
 2076SOL    HW212191   2.303   4.564   6.319 -0.2746  0.2752 -0.1819
 2077SOL     OW12192   8.413   0.747   8.093  0.1418  0.9443 -0.0886
 2077SOL    HW112193   8.356   0.799   8.036  0.1500  1.0092 -0.0386
 2077SOL    HW212194   8.452   0.811   8.153  1.2243  1.0713 -0.9100
 2078SOL     OW12195   5.937   5.055   3.417  0.2527 -0.2735  0.1613
 2078SOL    HW112196   5.941   4.993   3.344 -1.5161 -1.4827  1.0325
 2078SOL    HW212197   6.012   5.032   3.472  0.2358 -0.9180 -0.0769
 2079SOL     OW12198   6.241   8.468   4.948  0.2309  0.4211  0.4555
 2079SOL    HW112199   6.151   8.489   4.923  0.2951 -0.3364 -0.4948
 2079SOL    HW212200   6.251   8.504   5.036 -1.8696 -1.7390  1.7019
 2080SOL     OW12201   2.626   0.907   7.931 -0.3237  0.3793  0.2505
 2080SOL    HW112202   2.631   0.879   8.023 -0.0386  1.2085  0.5009
 2080SOL    HW212203   2.706   0.958   7.918  0.6871 -1.4487 -1.0744
 2081SOL     OW12204   1.259   7.797   8.139 -0.1178  0.3317 -0.2991
 2081SOL    HW112205   1.216   7.843   8.067 -1.6272 -1.9918 -1.0185
 2081SOL    HW212206   1.326   7.743   8.097  1.1509  1.2725  0.4432
 2082SOL     OW12207   1.248   4.461   6.203  0.1133  0.0799 -0.0202
 2082SOL    HW112208   1.342   4.443   6.204 -0.0270 -0.7033  1.2196
 2082SOL    HW212209   1.209   4.385   6.160 -0.1141 -0.5794  1.3203
 2083SOL     OW12210   2.262   4.788   7.626 -0.3664  0.1625  0.1381
 2083SOL    HW112211   2.352   4.758   7.639  0.6714  3.2694  1.1793
 2083SOL    HW212212   2.245   4.777   7.533  1.4564  0.3468 -0.2401
 2084SOL     OW12213   2.637   2.541   8.173 -0.4111 -0.5625  0.0993
 2084SOL    HW112214   2.632   2.509   8.263  1.8766 -1.8294 -0.1388
 2084SOL    HW212215   2.551   2.523   8.136 -1.4445  0.0644  2.0137
 2085SOL     OW12216   1.408   1.264   1.584  0.1613  0.8459 -0.1137
 2085SOL    HW112217   1.500   1.239   1.592  0.1701  0.6592 -0.7288
 2085SOL    HW212218   1.410   1.355   1.555  0.1643  0.7055 -0.5690
 2086SOL     OW12219   0.241   1.972   6.485  0.4043  0.4779 -0.4024
 2086SOL    HW112220   0.176   2.027   6.529  0.0394  0.7861 -1.3026
 2086SOL    HW212221   0.192   1.928   6.416  0.4548 -1.8326  0.9491
 2087SOL     OW12222   3.220   7.920   6.676  0.1036 -0.1248 -0.4693
 2087SOL    HW112223   3.142   7.944   6.726  0.6366  1.0054 -0.1476
 2087SOL    HW212224   3.185   7.889   6.592 -0.6735  0.8939 -0.5406
 2088SOL     OW12225   4.110   3.689   8.341 -0.1932 -0.0270  0.3608
 2088SOL    HW112226   4.154   3.617   8.387 -0.0472  0.1047  0.4297
 2088SOL    HW212227   4.024   3.654   8.319 -0.1844 -0.1676  0.5422
 2089SOL     OW12228   4.468   6.057   8.753  0.2003  0.0976 -0.1457
 2089SOL    HW112229   4.550   6.106   8.745  1.3252 -1.8336 -1.6276
 2089SOL    HW212230   4.489   5.986   8.814 -0.7223  0.1800  0.2837
 2090SOL     OW12231   7.355   3.026   9.174 -0.2728 -0.1435  0.0219
 2090SOL    HW112232   7.413   2.949   9.175  1.2527  0.9439  1.2782
 2090SOL    HW212233   7.386   3.077   9.099  0.6302  0.5605  0.8425
 2091SOL     OW12234   7.163   9.069   5.518 -0.1547 -0.0766 -0.1065
 2091SOL    HW112235   7.184   8.980   5.491  0.0035 -0.5291  1.3936
 2091SOL    HW212236   7.069   9.067   5.537 -0.1067  0.0181  0.1417
 2092SOL     OW12237   4.267   0.444   1.630 -0.2694  0.4218 -0.0956
 2092SOL    HW112238   4.274   0.539   1.636 -0.3770  0.4308 -0.1131
 2092SOL    HW212239   4.251   0.415   1.720  1.6391  0.2586  0.2415
 2093SOL     OW12240   7.843   1.026   6.605 -0.4448  0.0287  0.3012
 2093SOL    HW112241   7.822   1.047   6.514 -0.5665 -1.7238 -0.1103
 2093SOL    HW212242   7.765   1.049   6.654 -0.5481  0.5561 -0.1010
 2094SOL     OW12243   6.426   2.511   1.185  0.3123  0.2709 -0.1738
 2094SOL    HW112244   6.376   2.541   1.261 -0.7627 -0.6926 -0.4822
 2094SOL    HW212245   6.429   2.588   1.128  0.6881  0.8486  0.6033
 2095SOL     OW12246   2.468   3.513   7.457 -0.0104  0.1761  0.6211
 2095SOL    HW112247   2.437   3.582   7.514  0.7843 -0.1648  1.4886
 2095SOL    HW212248   2.478   3.437   7.514 -0.3970 -0.5262 -0.2161
 2096SOL     OW12249   8.798   6.297   7.649  0.5254  0.0099  0.3137
 2096SOL    HW112250   8.859   6.310   7.722  1.5437  0.8656 -0.6491
 2096SOL    HW212251   8.848   6.246   7.585 -0.1298 -0.1712 -0.0576
 2097SOL     OW12252   6.984   5.908   1.850 -0.4770 -0.0876 -0.0378
 2097SOL    HW112253   6.999   5.990   1.803 -0.4900 -0.0828 -0.0336
 2097SOL    HW212254   6.908   5.870   1.806 -2.3107  1.2777  1.7597
 2098SOL     OW12255   0.360   1.307   6.388  0.6127  0.3362 -0.0980
 2098SOL    HW112256   0.418   1.249   6.437  0.9577  1.0016  0.3003
 2098SOL    HW212257   0.325   1.252   6.318  0.8828 -0.3646  0.3006
 2099SOL     OW12258   3.767   8.564   2.024  0.0367 -0.2361  0.6522
 2099SOL    HW112259   3.796   8.653   2.046  0.2008 -0.0123 -0.4284
 2099SOL    HW212260   3.719   8.535   2.102 -0.7195  1.1040  0.7177
 2100SOL     OW12261   2.352   0.434   7.862  0.0103  0.0612 -0.1828
 2100SOL    HW112262   2.358   0.347   7.902  0.4013 -0.3870 -1.1625
 2100SOL    HW212263   2.344   0.494   7.936  1.9214 -0.6141  0.6446
 2101SOL     OW12264   1.974   7.061   3.760  0.1755 -0.5982  0.4633
 2101SOL    HW112265   1.890   7.017   3.776 -0.7233  0.7796 -0.2107
 2101SOL    HW212266   1.962   7.149   3.796  1.2360 -0.2822  0.0834
 2102SOL     OW12267   1.393   5.472   1.006  0.1065  0.0046  0.1187
 2102SOL    HW112268   1.317   5.424   1.040 -0.2984  0.1497 -0.5706
 2102SOL    HW212269   1.395   5.450   0.913  0.7849  0.1761  0.0882
 2103SOL     OW12270   3.331   3.300   0.836 -0.3841  0.4053  0.1869
 2103SOL    HW112271   3.376   3.370   0.883  1.3651 -0.9817  0.6907
 2103SOL    HW212272   3.253   3.283   0.888 -0.3518  1.3416  0.5703
 2104SOL     OW12273   0.393   1.644   0.417 -0.3562  0.0284 -0.2267
 2104SOL    HW112274   0.381   1.552   0.441 -1.8440  0.1735 -0.2908
 2104SOL    HW212275   0.415   1.687   0.500 -0.9388 -0.1893  0.0488
 2105SOL     OW12276   7.186   6.501   5.057  0.6025  0.0852 -0.3081
 2105SOL    HW112277   7.202   6.466   4.969  0.6018 -0.8138  0.0340
 2105SOL    HW212278   7.209   6.429   5.115  1.2824  0.9160  0.4668
 2106SOL     OW12279   1.587   1.849   1.048  0.8662 -0.0164 -0.0915
 2106SOL    HW112280   1.524   1.883   0.985  0.0276 -0.7635  0.3156
 2106SOL    HW212281   1.646   1.922   1.066  0.7431  0.3964 -1.2510
 2107SOL     OW12282   8.934   5.783   6.210 -0.1463  0.5210 -0.1128
 2107SOL    HW112283   8.899   5.815   6.126 -1.0977 -0.3740 -0.0622
 2107SOL    HW212284   8.966   5.695   6.190 -3.4346 -1.0995  1.1543
 2108SOL     OW12285   4.461   5.194   0.518  0.4330 -0.3328 -0.5501
 2108SOL    HW112286   4.411   5.116   0.539 -0.3837 -0.0728 -1.4348
 2108SOL    HW212287   4.547   5.161   0.493  0.9257 -0.7465  1.5231
 2109SOL     OW12288   7.263   8.866   4.411  0.0109  0.1523  0.3903
 2109SOL    HW112289   7.244   8.842   4.320  0.0844 -1.1065  0.6869
 2109SOL    HW212290   7.358   8.880   4.413  0.2027 -1.0954  0.5373
 2110SOL     OW12291   3.618   3.725   3.048 -0.4848 -0.5916  0.3534
 2110SOL    HW112292   3.594   3.751   2.959 -2.7063  0.5536  1.2124
 2110SOL    HW212293   3.535   3.725   3.096  0.5983 -1.5812  2.3482
 2111SOL     OW12294   7.581   6.290   8.102 -0.1978 -0.1225 -0.3144
 2111SOL    HW112295   7.611   6.239   8.177 -0.8615 -1.1792 -0.7341
 2111SOL    HW212296   7.497   6.327   8.129  1.3240  2.7315  0.8160
 2112SOL     OW12297   8.000   3.578   7.860 -0.2051 -0.7222  0.2830
 2112SOL    HW112298   8.050   3.624   7.927  0.8106 -3.6997  1.7687
 2112SOL    HW212299   8.064   3.560   7.791 -0.2632 -0.9617  0.2898
 2113SOL     OW12300   8.590   7.891   6.434  0.4381  0.1894  0.2500
 2113SOL    HW112301   8.639   7.813   6.459 -0.3799 -0.6593 -0.7504
 2113SOL    HW212302   8.545   7.867   6.353 -2.1733  0.7035  1.4570
 2114SOL     OW12303   7.191   8.909   3.602  0.2257 -0.4927  0.7162
 2114SOL    HW112304   7.172   8.985   3.658  1.6170 -1.3660  2.4803
 2114SOL    HW212305   7.108   8.862   3.597  0.2982 -1.0244  3.1434
 2115SOL     OW12306   2.068   0.107   0.760  0.4672 -0.1347  0.0759
 2115SOL    HW112307   2.007   0.139   0.693 -1.5354 -2.1995  0.7678
 2115SOL    HW212308   2.121   0.042   0.715 -0.1010 -0.6853  0.1740
 2116SOL     OW12309   4.613   2.187   3.553 -0.9111 -0.1124  0.3368
 2116SOL    HW112310   4.697   2.231   3.535 -0.8434 -0.5484 -0.4605
 2116SOL    HW212311   4.548   2.257   3.548 -0.7135  0.0398 -0.1306
 2117SOL     OW12312   2.588   8.836   2.755  0.1155 -0.1692 -0.8066
 2117SOL    HW112313   2.579   8.805   2.844 -2.0529 -0.5816 -1.1322
 2117SOL    HW212314   2.683   8.835   2.739  0.6654  1.0305  1.8329
 2118SOL     OW12315   8.409   7.002   0.756  0.3150  0.2732  0.2590
 2118SOL    HW112316   8.337   7.032   0.810  0.3725  0.4471  0.2399
 2118SOL    HW212317   8.372   6.932   0.702  0.2513  0.1199  0.5017
 2119SOL     OW12318   4.686   4.329   3.092 -0.1540  0.1280 -0.1370
 2119SOL    HW112319   4.671   4.245   3.136  1.1746 -0.7986 -1.3610
 2119SOL    HW212320   4.616   4.335   3.027 -0.9348  0.5466  0.7185
 2120SOL     OW12321   5.818   2.096   2.948 -0.1374  0.2365 -0.2405
 2120SOL    HW112322   5.852   2.021   2.899 -0.0095 -0.2255  0.5330
 2120SOL    HW212323   5.859   2.172   2.908  0.9115 -0.2217 -0.0729
 2121SOL     OW12324   4.799   5.384   7.709  0.2264 -0.0418 -0.0198
 2121SOL    HW112325   4.839   5.425   7.786  1.1063  0.5666 -0.7716
 2121SOL    HW212326   4.855   5.309   7.689 -0.5643 -0.7917  0.5019
 2122SOL     OW12327   8.499   5.392   1.628 -0.0276  0.3572 -0.1528
 2122SOL    HW112328   8.454   5.360   1.706 -0.4698  0.1046 -0.5110
 2122SOL    HW212329   8.555   5.319   1.602 -0.5333  0.1148 -0.5765
 2123SOL     OW12330   3.731   6.812   0.686 -0.6836  0.2868 -0.1516
 2123SOL    HW112331   3.821   6.810   0.652  0.0280  2.0485  1.4125
 2123SOL    HW212332   3.702   6.903   0.671 -2.2496 -0.2651 -0.6630
 2124SOL     OW12333   7.339   1.143   7.969  0.1189  0.8314 -0.2171
 2124SOL    HW112334   7.376   1.078   8.028 -0.2558  0.4215 -0.4300
 2124SOL    HW212335   7.261   1.101   7.932  0.9418  0.6573 -1.8404
 2125SOL     OW12336   8.640   3.141   1.147  0.2055  0.8742  0.3221
 2125SOL    HW112337   8.721   3.090   1.147 -0.1600  0.2828  0.6770
 2125SOL    HW212338   8.662   3.222   1.101  0.9074  0.5731  0.1266
 2126SOL     OW12339   7.249   7.959   4.339 -0.9400 -0.0899 -0.0821
 2126SOL    HW112340   7.259   7.987   4.430 -0.0727  1.9214 -0.7267
 2126SOL    HW212341   7.327   7.907   4.321 -0.7837  0.0610  0.1497
 2127SOL     OW12342   2.563   4.823   3.784 -0.2943 -0.4214  0.0474
 2127SOL    HW112343   2.479   4.780   3.771 -1.0585  0.4373  1.7219
 2127SOL    HW212344   2.616   4.796   3.710 -1.5285 -2.2457 -0.2439
 2128SOL     OW12345   3.257   7.345   7.827  0.1372 -0.2513  0.1540
 2128SOL    HW112346   3.299   7.424   7.862  0.0873  0.0169 -0.3778
 2128SOL    HW212347   3.276   7.347   7.733  2.0988 -2.0845  0.4426
 2129SOL     OW12348   5.232   1.131   4.566 -0.8088 -0.2671 -0.3322
 2129SOL    HW112349   5.218   1.039   4.545  0.8170 -0.6554  0.1931
 2129SOL    HW212350   5.162   1.177   4.519  0.4215 -1.4321 -3.5400
 2130SOL     OW12351   2.364   2.298   0.326 -0.2059  0.1673  0.0361
 2130SOL    HW112352   2.396   2.360   0.391  1.5868  0.5625 -1.1367
 2130SOL    HW212353   2.420   2.313   0.250 -1.5308 -1.0228 -1.2190
 2131SOL     OW12354   0.070   1.611   5.165 -0.3029 -0.1457  0.4172
 2131SOL    HW112355   0.032   1.623   5.253  1.8999  1.1698  1.2778
 2131SOL    HW212356   0.153   1.658   5.169  0.1768 -0.6527 -2.1974
 2132SOL     OW12357   0.496   7.290   4.559  0.0854  0.0458 -0.1163
 2132SOL    HW112358   0.524   7.376   4.590  0.7971 -0.0216 -0.5646
 2132SOL    HW212359   0.577   7.244   4.538 -0.3485  0.0934 -2.1119
 2133SOL     OW12360   2.841   6.965   1.633 -0.5163 -0.0414  0.4369
 2133SOL    HW112361   2.802   6.986   1.718  0.7642  0.2814  0.9750
 2133SOL    HW212362   2.825   6.871   1.622 -1.8353  0.1650  0.3976
 2134SOL     OW12363   1.010   6.630   1.741 -0.2903 -0.0966  0.3654
 2134SOL    HW112364   0.915   6.629   1.731 -0.4904 -2.6958  1.6904
 2134SOL    HW212365   1.044   6.631   1.651 -1.6996 -3.6256 -0.3594
 2135SOL     OW12366   5.081   2.823   2.043 -0.2945  0.2419  0.3105
 2135SOL    HW112367   5.131   2.825   2.124 -2.3799 -0.7852  1.6978
 2135SOL    HW212368   5.060   2.914   2.024  1.4414  0.6259  0.0600
 2136SOL     OW12369   7.517   0.010   3.669 -0.0110 -0.2708  0.4032
 2136SOL    HW112370   7.428  -0.011   3.697 -0.0650  0.1854  0.5874
 2136SOL    HW212371   7.530  -0.041   3.589  0.2338 -1.7504  1.3637
 2137SOL     OW12372   6.258   2.877   2.894  0.2489 -0.2933 -0.1115
 2137SOL    HW112373   6.223   2.848   2.978  1.3458 -0.4266  0.3194
 2137SOL    HW212374   6.277   2.796   2.847  0.2624 -0.2275 -0.2190
 2138SOL     OW12375   1.261   4.590   4.085 -0.1410  0.3587 -0.4096
 2138SOL    HW112376   1.264   4.500   4.119 -1.1385  0.8027  0.9246
 2138SOL    HW212377   1.305   4.642   4.152 -1.9406  1.2187  0.1459
 2139SOL     OW12378   6.889   4.590   7.263 -0.3182  0.0141  0.2583
 2139SOL    HW112379   6.913   4.598   7.355 -0.6706  2.2999  0.2108
 2139SOL    HW212380   6.839   4.509   7.258 -0.2692 -0.1604  2.0845
 2140SOL     OW12381   7.642   4.178   1.884 -0.7182 -0.2496 -0.0246
 2140SOL    HW112382   7.694   4.099   1.869  0.8539  0.5941  0.7009
 2140SOL    HW212383   7.553   4.154   1.859  0.0545 -1.6747 -1.5941
 2141SOL     OW12384   4.458   3.382   2.336 -0.5107  0.0739 -0.6503
 2141SOL    HW112385   4.470   3.312   2.273 -2.4825  1.4346 -2.6973
 2141SOL    HW212386   4.376   3.424   2.310 -1.1027  1.1269  2.4632
 2142SOL     OW12387   3.998   2.965   5.933  0.4863 -0.4816 -0.0648
 2142SOL    HW112388   4.005   3.053   5.972 -0.6255  0.0500 -0.9833
 2142SOL    HW212389   3.978   2.908   6.007 -2.2289  0.5971  0.1349
 2143SOL     OW12390   0.476   2.717   6.973  0.4320 -0.0433 -0.3943
 2143SOL    HW112391   0.428   2.639   6.946  0.2071  0.6244 -2.0428
 2143SOL    HW212392   0.552   2.721   6.915  1.0411  0.3909  0.3924
 2144SOL     OW12393   6.623   5.618   0.962 -0.0384 -0.5245 -0.1493
 2144SOL    HW112394   6.542   5.596   0.915  0.0427 -0.6464 -0.2311
 2144SOL    HW212395   6.609   5.586   1.051  0.5912 -2.1029 -0.5866
 2145SOL     OW12396   5.922   5.998   2.456 -0.3129  0.2138  0.1190
 2145SOL    HW112397   5.999   6.049   2.434  0.1447 -0.9299 -1.0482
 2145SOL    HW212398   5.950   5.907   2.448 -2.5882 -0.3901 -3.8918
 2146SOL     OW12399   4.617   4.757   8.901  0.4276 -0.1063  0.2451
 2146SOL    HW112400   4.677   4.730   8.832  0.4024 -0.2110  0.2634
 2146SOL    HW212401   4.535   4.711   8.881  0.1503  0.5485 -0.1566
 2147SOL     OW12402   2.916   7.533   0.346  0.1666 -0.2856 -0.5566
 2147SOL    HW112403   3.008   7.548   0.325  0.4180 -0.2409  0.4999
 2147SOL    HW212404   2.872   7.523   0.261  1.0703  0.1072 -1.0754
 2148SOL     OW12405   3.833   0.924   1.204 -0.0861  0.0538  1.1983
 2148SOL    HW112406   3.923   0.908   1.178 -0.4029  0.7952 -0.5727
 2148SOL    HW212407   3.805   0.843   1.247  0.9107 -0.8257  0.2542
 2149SOL     OW12408   2.964   5.117   5.205 -0.5224  0.1316  0.4496
 2149SOL    HW112409   2.887   5.088   5.155  0.2381 -1.8309  0.3059
 2149SOL    HW212410   2.937   5.199   5.246 -2.9597 -0.8452  0.9922
 2150SOL     OW12411   1.134   0.502   3.673 -0.3349  0.8048  0.5205
 2150SOL    HW112412   1.048   0.461   3.667 -0.5534  1.3725 -0.4798
 2150SOL    HW212413   1.192   0.432   3.701 -0.6692 -0.2801 -1.3138
 2151SOL     OW12414   6.510   7.562   0.706  0.2654  0.3183 -0.1282
 2151SOL    HW112415   6.553   7.506   0.642 -1.6611 -0.6754 -0.6508
 2151SOL    HW212416   6.561   7.552   0.786  1.3019 -0.3486 -0.8493
 2152SOL     OW12417   2.763   5.685   8.460  0.1610  0.6995  0.0377
 2152SOL    HW112418   2.786   5.595   8.437  1.1111  0.7326  0.8063
 2152SOL    HW212419   2.702   5.712   8.391 -1.7323 -1.1938  0.8413
 2153SOL     OW12420   1.293   3.566   0.530 -0.1588  0.8939 -0.0713
 2153SOL    HW112421   1.198   3.576   0.533 -0.2307  0.2364  1.6123
 2153SOL    HW212422   1.327   3.648   0.566 -0.0899  1.1317 -0.6800
 2154SOL     OW12423   2.176   6.793   6.658 -0.0384  0.1686  0.2862
 2154SOL    HW112424   2.182   6.888   6.660 -0.7007  0.2316 -0.1671
 2154SOL    HW212425   2.094   6.775   6.611  0.0815 -0.6218  0.3564
 2155SOL     OW12426   3.848   0.444   0.502 -0.2469 -0.3591  0.7560
 2155SOL    HW112427   3.818   0.517   0.557 -1.2935  0.0029 -0.2480
 2155SOL    HW212428   3.887   0.487   0.426  1.1005 -0.8538  1.1432
 2156SOL     OW12429   5.644   3.608   1.426  0.6683  0.6684  0.0199
 2156SOL    HW112430   5.710   3.669   1.460 -1.3062  1.9941  1.7175
 2156SOL    HW212431   5.628   3.548   1.499 -0.4715  0.7892 -0.1129
 2157SOL     OW12432   3.630   5.303   1.643  0.3506 -0.1562 -0.1152
 2157SOL    HW112433   3.572   5.339   1.710 -1.3176 -3.0951  0.1936
 2157SOL    HW212434   3.673   5.229   1.685  0.1815 -1.3429 -1.9156
 2158SOL     OW12435   5.814   0.516   2.325 -0.0437 -0.1610  0.5127
 2158SOL    HW112436   5.870   0.470   2.262  0.3497 -0.1125  0.8256
 2158SOL    HW212437   5.869   0.585   2.361 -0.9323  1.2519 -0.7133
 2159SOL     OW12438   7.802   3.036   0.090 -0.3040  0.2517  0.3104
 2159SOL    HW112439   7.785   3.025   0.183  0.2490 -0.2572  0.3666
 2159SOL    HW212440   7.717   3.052   0.051 -0.7285 -0.8641  0.7366
 2160SOL     OW12441   4.757   9.100   7.568 -0.1640 -0.2165 -0.3063
 2160SOL    HW112442   4.840   9.125   7.608 -0.2566  0.9487 -0.8055
 2160SOL    HW212443   4.722   9.182   7.532 -0.9224 -0.9094 -1.2014
 2161SOL     OW12444   6.175   1.111   8.068 -1.0381  0.2258 -0.0355
 2161SOL    HW112445   6.093   1.088   8.024 -1.2379 -0.6467  0.7525
 2161SOL    HW212446   6.174   1.060   8.149  1.1901 -1.4063 -0.9121
 2162SOL     OW12447   7.016   3.509   2.044 -0.1819  0.2598 -0.4153
 2162SOL    HW112448   6.947   3.574   2.038  0.8878  1.4969  0.3908
 2162SOL    HW212449   7.097   3.558   2.029  0.7827 -0.5625  1.7014
 2163SOL     OW12450   6.614   8.298   8.378  0.1358  0.4008 -0.3813
 2163SOL    HW112451   6.612   8.275   8.471 -0.1173 -1.9972 -0.9312
 2163SOL    HW212452   6.522   8.294   8.351  0.1024  1.9179 -0.5960
 2164SOL     OW12453   2.477   0.089   7.155  0.0120 -0.7138  0.2370
 2164SOL    HW112454   2.553   0.076   7.211 -0.0483 -0.6708  0.3297
 2164SOL    HW212455   2.424   0.155   7.201 -1.0558 -2.1605  1.2027
 2165SOL     OW12456   3.451   4.489   0.528  0.0361  0.4540  0.1373
 2165SOL    HW112457   3.487   4.454   0.610 -0.4794  0.5787  0.4180
 2165SOL    HW212458   3.529   4.514   0.477  0.5234 -2.1199 -0.5714
 2166SOL     OW12459   3.627   9.369   8.028 -0.1252  0.0668 -0.3399
 2166SOL    HW112460   3.670   9.371   8.114 -0.9084 -0.4955  0.0777
 2166SOL    HW212461   3.624   9.276   8.005  0.4144  0.2397 -1.1660
 2167SOL     OW12462   4.039   1.350   0.757 -0.0029  0.0445  0.2671
 2167SOL    HW112463   4.061   1.324   0.847  0.7606 -1.0372 -0.2042
 2167SOL    HW212464   4.118   1.328   0.707 -0.0461  1.5556 -0.5119
 2168SOL     OW12465   0.427   3.607   9.323  0.4254 -0.3415 -0.3241
 2168SOL    HW112466   0.401   3.689   9.280 -0.6532 -0.7193 -0.4063
 2168SOL    HW212467   0.424   3.542   9.254 -2.7216 -1.2486  0.5174
 2169SOL     OW12468   6.342   6.320   6.586  0.1911 -0.2492  0.4427
 2169SOL    HW112469   6.407   6.278   6.641 -0.4879  0.6078  1.9714
 2169SOL    HW212470   6.332   6.408   6.622 -0.5241  0.2491 -0.8618
 2170SOL     OW12471   1.971   5.543   6.091 -0.2189  0.7760  0.1377
 2170SOL    HW112472   1.925   5.471   6.047  1.0740 -1.3932  2.1209
 2170SOL    HW212473   1.901   5.602   6.119 -1.4538 -0.3808 -0.3781
 2171SOL     OW12474   8.362   7.720   8.542 -0.0039  0.2093 -0.5869
 2171SOL    HW112475   8.273   7.736   8.572 -0.1413 -0.9080 -0.3320
 2171SOL    HW212476   8.418   7.763   8.606 -0.3360 -0.5392  0.2287
 2172SOL     OW12477   3.143   3.259   6.321  0.2112  0.2412  0.7877
 2172SOL    HW112478   3.157   3.326   6.253 -0.2637 -1.5861 -1.2201
 2172SOL    HW212479   3.177   3.178   6.283 -0.3769 -0.9382  2.6190
 2173SOL     OW12480   5.155   1.526   5.401  0.1547 -0.0521 -0.5980
 2173SOL    HW112481   5.072   1.573   5.404  0.7907  1.0576  0.5898
 2173SOL    HW212482   5.220   1.595   5.388  1.0959 -0.6290  0.9054
 2174SOL     OW12483   1.371   8.592   2.396  0.0258  0.0924 -0.5963
 2174SOL    HW112484   1.425   8.655   2.444  0.3631 -1.1449  0.7334
 2174SOL    HW212485   1.416   8.508   2.409 -1.7881 -0.8565 -0.0798
 2175SOL     OW12486   8.379   0.298   5.952  0.0697  0.2775 -0.1557
 2175SOL    HW112487   8.361   0.343   6.035  1.2325 -0.8622  0.7568
 2175SOL    HW212488   8.299   0.250   5.932  0.3840 -0.9311  1.3230
 2176SOL     OW12489   8.575   2.870   2.041 -0.0662  0.2542  0.1305
 2176SOL    HW112490   8.605   2.799   2.097 -0.4375 -0.0627 -0.0647
 2176SOL    HW212491   8.644   2.936   2.046  1.0499 -0.7674 -0.9113
 2177SOL     OW12492   2.941   6.756   6.934 -0.0398 -0.1016 -0.4388
 2177SOL    HW112493   2.970   6.837   6.978  0.3251  0.1438 -1.1180
 2177SOL    HW212494   2.954   6.774   6.841 -2.2831 -0.0253 -0.7884
 2178SOL     OW12495   5.876   9.064   0.198 -0.2874  0.3353  0.9720
 2178SOL    HW112496   5.964   9.099   0.212 -0.1611  0.4798 -0.1045
 2178SOL    HW212497   5.889   8.988   0.140 -0.7825 -0.2014  1.5428
 2179SOL     OW12498   1.498   7.989   2.560 -0.3025 -0.2347  0.3517
 2179SOL    HW112499   1.478   7.964   2.470  2.9123 -1.0212 -0.2805
 2179SOL    HW212500   1.419   7.968   2.609 -1.8377 -0.6167 -2.1073
 2180SOL     OW12501   4.954   9.257   9.340  0.0451  0.3290  0.3176
 2180SOL    HW112502   4.884   9.290   9.283  1.2195  1.2407 -0.6506
 2180SOL    HW212503   5.017   9.329   9.345  1.8310 -1.0950 -0.4092
 2181SOL     OW12504   9.256   2.175   4.990  0.2178 -0.5371  0.6397
 2181SOL    HW112505   9.228   2.260   5.022  1.7721  0.0605  0.5213
 2181SOL    HW212506   9.271   2.123   5.070 -0.1390 -0.4986  0.7320
 2182SOL     OW12507   4.131   8.976   2.033 -0.0799 -0.1997  0.0878
 2182SOL    HW112508   4.204   8.952   1.975 -0.9161 -3.7581  0.3138
 2182SOL    HW212509   4.054   8.967   1.978 -0.8648 -3.3194  1.5005
 2183SOL     OW12510   3.308   5.634   1.599 -0.3130  0.3837 -0.5439
 2183SOL    HW112511   3.248   5.568   1.564  0.9962 -1.8735  1.1893
 2183SOL    HW212512   3.369   5.651   1.528 -1.0997  0.3245 -1.2545
 2184SOL     OW12513   8.735   4.265   3.831 -0.5197  0.1213 -0.0082
 2184SOL    HW112514   8.698   4.264   3.743 -1.0053  0.6022  0.1796
 2184SOL    HW212515   8.711   4.180   3.868  1.0055 -0.7147 -0.8492
 2185SOL     OW12516   3.259   3.028   7.158 -0.6123  0.0517 -0.0660
 2185SOL    HW112517   3.167   3.045   7.175 -0.6224  4.6237 -3.0536
 2185SOL    HW212518   3.306   3.090   7.215  0.5651 -1.1824  0.3552
 2186SOL     OW12519   7.306   8.364   7.898 -0.1021 -0.4995  0.4017
 2186SOL    HW112520   7.248   8.428   7.940  2.1175  0.8512  1.6225
 2186SOL    HW212521   7.279   8.280   7.935 -3.1227 -0.3995 -1.2776
 2187SOL     OW12522   4.163   5.569   4.713 -0.0799 -0.1637 -0.0534
 2187SOL    HW112523   4.131   5.554   4.624  1.6400 -1.7956 -0.4683
 2187SOL    HW212524   4.258   5.570   4.705  0.1034  0.9464  1.6147
 2188SOL     OW12525   8.952   3.214   3.090  0.1425 -0.3957  0.1592
 2188SOL    HW112526   8.928   3.121   3.092 -2.0175  0.0870 -0.7752
 2188SOL    HW212527   8.909   3.248   3.012  1.3617  1.3028  0.1740
 2189SOL     OW12528   3.608   0.197   9.266 -0.3464  0.1587 -1.1806
 2189SOL    HW112529   3.605   0.214   9.172 -1.8957 -0.5693 -1.2835
 2189SOL    HW212530   3.535   0.138   9.283 -0.3319  0.5703  0.5509
 2190SOL     OW12531   8.529   6.675   3.243 -0.1327 -0.0360 -0.0212
 2190SOL    HW112532   8.614   6.680   3.287 -0.6169 -2.0487  1.2683
 2190SOL    HW212533   8.548   6.631   3.160 -0.0649 -1.7475  0.8625
 2191SOL     OW12534   7.499   4.926   8.206  0.2890 -0.6118  0.4555
 2191SOL    HW112535   7.467   4.888   8.124  0.6156  0.7473 -0.3209
 2191SOL    HW212536   7.562   4.861   8.238  2.1531 -0.0336 -1.7325
 2192SOL     OW12537   8.139   4.711   3.372 -0.2054 -0.3254 -0.2295
 2192SOL    HW112538   8.174   4.638   3.321  1.2305  0.1596  0.0150
 2192SOL    HW212539   8.122   4.674   3.458  3.3335  0.1710  0.8505
 2193SOL     OW12540   8.271   4.575   2.540  0.2356 -0.4194 -0.0341
 2193SOL    HW112541   8.298   4.521   2.615 -0.5165 -1.0632 -0.2096
 2193SOL    HW212542   8.313   4.533   2.465 -0.6010 -0.9688 -0.2109
 2194SOL     OW12543   8.653   5.243   9.250  0.1659  0.2799  0.0770
 2194SOL    HW112544   8.642   5.226   9.343 -1.0475 -2.4555 -0.4763
 2194SOL    HW212545   8.569   5.279   9.221  0.5013  1.0171 -0.0101
 2195SOL     OW12546   0.675   3.789   6.933  0.0698 -0.1693 -0.1406
 2195SOL    HW112547   0.751   3.788   6.992  0.4009  1.6532 -0.4931
 2195SOL    HW212548   0.641   3.878   6.939 -0.8605 -0.4078 -1.4917
 2196SOL     OW12549   0.252   6.361   8.449  0.6603  0.2757  0.0209
 2196SOL    HW112550   0.200   6.282   8.441  0.5581  0.2378  1.0141
 2196SOL    HW212551   0.223   6.416   8.376 -1.5901  0.7223  1.1601
 2197SOL     OW12552   2.408   5.766   2.639  0.8632 -0.3463  0.1436
 2197SOL    HW112553   2.454   5.820   2.575  0.0861 -0.2052 -0.3050
 2197SOL    HW212554   2.455   5.682   2.638  2.0709  0.2948  0.8357
 2198SOL     OW12555   9.126   5.377   0.155  0.1307  0.1719  0.1363
 2198SOL    HW112556   9.113   5.397   0.063  0.0191 -2.6026 -0.5559
 2198SOL    HW212557   9.196   5.436   0.184 -0.2608  1.5053 -1.5309
 2199SOL     OW12558   6.237   4.695   6.540  0.4545  0.1497  0.2969
 2199SOL    HW112559   6.274   4.644   6.612  2.0633  0.0956 -0.5456
 2199SOL    HW212560   6.219   4.781   6.580  0.0670 -0.2810  1.0846
 2200SOL     OW12561   3.842   0.414   7.899 -0.4894 -0.2267 -0.4359
 2200SOL    HW112562   3.801   0.486   7.851  1.2370 -0.2309 -2.0419
 2200SOL    HW212563   3.892   0.458   7.968 -1.5998 -0.0987  0.3051
 2201SOL     OW12564   0.234   5.163   2.096  0.3182  0.0372 -0.3641
 2201SOL    HW112565   0.175   5.187   2.024  0.9051  1.6419 -0.3490
 2201SOL    HW212566   0.318   5.147   2.055  0.5521  0.5419 -0.0941
 2202SOL     OW12567   9.335   8.428   1.277 -0.3548 -0.1344 -0.0734
 2202SOL    HW112568   9.241   8.415   1.267 -0.1476 -1.0724 -0.9005
 2202SOL    HW212569   9.352   8.409   1.370 -0.9980  0.2533  0.1323
 2203SOL     OW12570   1.836   4.965   3.101 -0.2345 -0.5753  0.0171
 2203SOL    HW112571   1.767   4.926   3.048 -0.6659 -0.5892  0.5770
 2203SOL    HW212572   1.804   4.956   3.191 -0.4145  1.1996  0.1614
 2204SOL     OW12573   2.162   0.016   1.616 -0.4241  0.2336 -0.3591
 2204SOL    HW112574   2.198  -0.018   1.534  2.4957  2.5846 -0.2154
 2204SOL    HW212575   2.177   0.110   1.612  0.0887  0.4046  2.9809
 2205SOL     OW12576   5.402   2.605   2.603 -0.0535 -0.4729  0.2148
 2205SOL    HW112577   5.451   2.560   2.673 -0.5352  1.1599  1.6560
 2205SOL    HW212578   5.457   2.679   2.579 -1.3724  0.8743  1.2273
 2206SOL     OW12579   8.596   5.529   8.132 -0.9548  0.0896  0.0695
 2206SOL    HW112580   8.607   5.530   8.227 -1.5832  0.3635  0.1439
 2206SOL    HW212581   8.593   5.436   8.108  0.8395 -0.0194  0.1078
 2207SOL     OW12582   6.734   5.200   7.569 -0.2594 -0.3618  0.1719
 2207SOL    HW112583   6.747   5.256   7.492  0.0791  0.6088  0.9054
 2207SOL    HW212584   6.655   5.150   7.550 -0.7417  0.5829 -0.4090
 2208SOL     OW12585   0.579   7.378   6.383  0.0546  0.2232 -0.5700
 2208SOL    HW112586   0.652   7.440   6.381 -0.2639  0.5989 -0.9815
 2208SOL    HW212587   0.601   7.317   6.453 -0.3748  1.7381  0.9712
 2209SOL     OW12588   2.459   2.122   6.073  0.1488  0.3128 -0.8336
 2209SOL    HW112589   2.453   2.086   6.161  0.0998 -0.2323 -1.0535
 2209SOL    HW212590   2.482   2.214   6.086 -0.4408  0.3821 -0.2354
 2210SOL     OW12591   1.985   2.854   7.319 -0.1252  0.2932 -0.3849
 2210SOL    HW112592   1.911   2.794   7.332  1.3482 -1.1727  1.9470
 2210SOL    HW212593   1.958   2.935   7.364 -0.5460 -0.0334 -0.0327
 2211SOL     OW12594   6.922   2.987   5.267  0.4156 -0.6184 -0.2813
 2211SOL    HW112595   6.977   3.062   5.245 -1.5576  0.9619 -0.0684
 2211SOL    HW212596   6.964   2.949   5.345 -0.1674  2.1450  1.5151
 2212SOL     OW12597   4.038   4.576   5.430  0.4221  0.1232  0.0372
 2212SOL    HW112598   4.108   4.517   5.402 -0.8467 -2.6226  2.0979
 2212SOL    HW212599   3.958   4.527   5.413 -0.9380  2.4555 -0.6306
 2213SOL     OW12600   1.181   1.364   6.695 -0.1504 -0.2433 -0.1247
 2213SOL    HW112601   1.149   1.303   6.762  0.0255  0.3109  0.4798
 2213SOL    HW212602   1.272   1.380   6.719  0.2476 -0.8972 -1.1520
 2214SOL     OW12603   6.525   6.732   3.602 -0.2636  0.2524 -0.0861
 2214SOL    HW112604   6.564   6.675   3.668 -0.8660 -0.8544 -0.6560
 2214SOL    HW212605   6.436   6.747   3.633 -0.4409  0.0074 -0.4660
 2215SOL     OW12606   0.826   6.177   7.474 -0.0833 -0.3471  0.2088
 2215SOL    HW112607   0.842   6.086   7.498 -1.8203 -0.8449 -0.4077
 2215SOL    HW212608   0.731   6.185   7.472 -0.0019  0.7650 -2.3768
 2216SOL     OW12609   6.550   4.237   6.649  0.2389 -0.0014  0.3533
 2216SOL    HW112610   6.480   4.182   6.615 -1.7830  2.2669  0.5620
 2216SOL    HW212611   6.523   4.257   6.739  1.3679  0.5963  0.5784
 2217SOL     OW12612   8.168   8.287   2.895  0.0899  0.1590 -0.0290
 2217SOL    HW112613   8.251   8.277   2.942 -0.7261  1.1000  1.7380
 2217SOL    HW212614   8.128   8.365   2.934 -1.6465 -0.2965 -0.7995
 2218SOL     OW12615   6.968   5.730   6.454 -0.2943 -0.2405  0.3154
 2218SOL    HW112616   6.874   5.739   6.469 -0.3530  0.0122 -0.1819
 2218SOL    HW212617   7.004   5.815   6.475 -0.1497 -0.3982  0.7031
 2219SOL     OW12618   3.848   0.373   9.063  0.1915 -0.5516  0.2788
 2219SOL    HW112619   3.922   0.335   9.014 -0.0105  2.1444 -2.4247
 2219SOL    HW212620   3.776   0.312   9.048  0.7849 -1.0390 -0.7335
 2220SOL     OW12621   7.920   7.157   0.762  0.0100 -0.6085  0.0071
 2220SOL    HW112622   7.946   7.233   0.815  0.3777 -1.5837  1.2988
 2220SOL    HW212623   7.921   7.189   0.672  0.3784  0.8528  0.4964
 2221SOL     OW12624   7.721   4.399   0.296  0.3069 -0.1111  0.4234
 2221SOL    HW112625   7.662   4.351   0.353  0.5133 -1.9135 -0.7994
 2221SOL    HW212626   7.808   4.385   0.334  0.5972 -2.3148 -0.8840
 2222SOL     OW12627   0.526   0.933   0.504  0.1900 -0.2898 -0.0180
 2222SOL    HW112628   0.561   0.943   0.416 -1.2324 -1.5758 -0.7619
 2222SOL    HW212629   0.490   0.845   0.506 -2.4870  0.7280  0.8663
 2223SOL     OW12630   6.500   7.410   0.250  0.6227 -0.1694  0.7080
 2223SOL    HW112631   6.448   7.484   0.281  0.8207  0.8655 -1.2503
 2223SOL    HW212632   6.487   7.409   0.155  2.1105 -1.4961  0.4586
 2224SOL     OW12633   5.853   0.764   4.749  0.0919  0.5112  0.1557
 2224SOL    HW112634   5.903   0.701   4.801 -0.9053  1.4797  2.4109
 2224SOL    HW212635   5.877   0.849   4.784  0.1593  1.3188 -1.7284
 2225SOL     OW12636   1.429   7.165   4.135  0.3424  0.3727 -0.2542
 2225SOL    HW112637   1.403   7.256   4.152  0.3865  0.1445  1.1548
 2225SOL    HW212638   1.444   7.162   4.041  0.1893  1.7892 -0.3507
 2226SOL     OW12639   6.897   9.029   5.589 -0.6370 -0.3163 -0.5093
 2226SOL    HW112640   6.832   9.012   5.521  0.1555  0.6204 -1.5365
 2226SOL    HW212641   6.879   8.963   5.656 -4.3307  1.4498  0.5249
 2227SOL     OW12642   3.194   2.842   1.614 -0.2339 -0.2437 -0.9707
 2227SOL    HW112643   3.234   2.774   1.667 -0.8097 -0.6215 -1.0123
 2227SOL    HW212644   3.100   2.828   1.624 -0.3776 -1.2481 -3.2354
 2228SOL     OW12645   9.162   7.664   0.935  0.3284  0.2082 -0.0634
 2228SOL    HW112646   9.160   7.729   0.865 -0.1866  2.2860  1.7672
 2228SOL    HW212647   9.086   7.609   0.920 -1.2036  2.1647  0.1861
 2229SOL     OW12648   6.775   3.424   1.002  0.5073  0.4019  0.1716
 2229SOL    HW112649   6.740   3.390   1.084  2.0137  0.3456  0.8208
 2229SOL    HW212650   6.779   3.348   0.944  1.8338 -0.1023  0.9044
 2230SOL     OW12651   6.785   2.733   5.054  0.1763 -0.2241 -0.4149
 2230SOL    HW112652   6.782   2.805   5.117  0.6219 -1.4275  1.0715
 2230SOL    HW212653   6.875   2.732   5.023  0.4486 -0.7480  0.3542
 2231SOL     OW12654   6.898   1.364   6.594 -0.4207 -0.2032  0.1896
 2231SOL    HW112655   6.845   1.407   6.661 -1.8849 -2.1545  0.3876
 2231SOL    HW212656   6.878   1.412   6.514 -4.3788 -2.0458 -0.2150
 2232SOL     OW12657   7.188   0.834   6.554 -0.4294  0.5197  0.0947
 2232SOL    HW112658   7.219   0.749   6.585 -0.2462  0.3846 -0.4408
 2232SOL    HW212659   7.130   0.813   6.481 -2.9932  0.6904  1.9755
 2233SOL     OW12660   0.459   7.343   5.828 -0.0905  0.2192 -0.0656
 2233SOL    HW112661   0.522   7.332   5.899  0.7984  0.8502 -0.7292
 2233SOL    HW212662   0.513   7.345   5.749 -0.9552  0.7010 -0.6522
 2234SOL     OW12663   5.730   4.140   8.014 -0.1868 -0.6123 -0.4491
 2234SOL    HW112664   5.673   4.149   7.938 -0.4751 -2.2168 -0.4546
 2234SOL    HW212665   5.685   4.077   8.071 -0.2446  0.9518  1.3307
 2235SOL     OW12666   7.477   5.651   5.174 -0.3736  0.2780 -0.5284
 2235SOL    HW112667   7.458   5.564   5.207  0.4155  0.4683  0.4751
 2235SOL    HW212668   7.559   5.676   5.217 -1.5517  2.2809  0.7277
 2236SOL     OW12669   0.845   8.530   3.087 -0.3900  0.3711  0.4360
 2236SOL    HW112670   0.765   8.529   3.138 -0.5764 -0.6123  0.1501
 2236SOL    HW212671   0.823   8.483   3.006  1.1976 -2.6201  1.5590
 2237SOL     OW12672   2.169   3.913   1.507  0.1847  0.5066 -0.0028
 2237SOL    HW112673   2.107   3.960   1.562  1.9401  0.0632  2.5084
 2237SOL    HW212674   2.192   3.835   1.557 -0.0269 -1.3167 -2.5322
 2238SOL     OW12675   2.094   0.486   7.759  0.5081 -0.2672  0.1282
 2238SOL    HW112676   2.183   0.471   7.790  1.5779  0.8673 -2.1137
 2238SOL    HW212677   2.101   0.563   7.702 -2.0299  0.2130  0.3398
 2239SOL     OW12678   1.105   4.758   3.196 -0.0250 -0.5660 -0.5936
 2239SOL    HW112679   1.196   4.770   3.170  0.4471 -1.9481  0.3507
 2239SOL    HW212680   1.079   4.675   3.157 -1.2696  0.3484 -1.8062
 2240SOL     OW12681   3.693   3.164   2.138  0.1836 -0.6006  0.1542
 2240SOL    HW112682   3.633   3.090   2.150 -0.0326 -0.3560  0.6241
 2240SOL    HW212683   3.778   3.124   2.123  0.2671 -0.9446  1.4484
 2241SOL     OW12684   8.534   5.023   7.880 -0.0685 -0.1242  0.0086
 2241SOL    HW112685   8.457   5.076   7.858 -0.2606 -0.6692 -0.6422
 2241SOL    HW212686   8.577   5.006   7.796  0.9532  0.4503  0.3990
 2242SOL     OW12687   1.847   5.747   6.243  0.2623 -0.1710  0.0138
 2242SOL    HW112688   1.916   5.813   6.259  0.5443 -0.3879 -0.2952
 2242SOL    HW212689   1.797   5.746   6.324  0.9961 -0.4512  0.4770
 2243SOL     OW12690   2.710   7.880   6.910  0.1324 -0.3002  0.5407
 2243SOL    HW112691   2.651   7.806   6.924 -2.5329  1.5721  0.0225
 2243SOL    HW212692   2.754   7.891   6.995 -0.1559 -1.8406  0.9236
 2244SOL     OW12693   5.709   5.155   5.542 -0.6343  0.0144 -0.2915
 2244SOL    HW112694   5.742   5.188   5.459  1.0746 -3.1920 -1.0594
 2244SOL    HW212695   5.685   5.064   5.524 -1.0552 -0.5447  2.5406
 2245SOL     OW12696   1.803   7.035   6.567  0.0270 -0.2136  0.3204
 2245SOL    HW112697   1.804   7.012   6.474  0.7648 -0.4958  0.3955
 2245SOL    HW212698   1.828   6.955   6.612  0.1536  0.0549  0.7353
 2246SOL     OW12699   1.417   2.417   8.728 -0.2213 -0.3148 -0.1681
 2246SOL    HW112700   1.434   2.341   8.783 -1.3143 -0.7781 -0.4599
 2246SOL    HW212701   1.322   2.426   8.727 -0.1305  0.8505 -0.4224
 2247SOL     OW12702   0.595   7.078   9.306  0.5095 -0.2899 -0.2520
 2247SOL    HW112703   0.662   7.019   9.269  2.6682  1.7420  0.1925
 2247SOL    HW212704   0.607   7.071   9.401  0.2998  0.3135 -0.1794
 2248SOL     OW12705   3.007   3.664   5.404  0.1206  0.1763 -0.2739
 2248SOL    HW112706   2.937   3.720   5.372 -1.0260  0.0135  1.7677
 2248SOL    HW212707   3.071   3.724   5.442  0.2072  0.2409 -0.5247
 2249SOL     OW12708   3.912   0.998   6.216  0.1246  0.5514  0.6136
 2249SOL    HW112709   4.002   1.011   6.188  0.5517 -0.9599  1.1698
 2249SOL    HW212710   3.896   1.067   6.280  1.2475  0.1963  1.2900
 2250SOL     OW12711   5.285   2.546   7.843 -0.2125  0.1120 -0.7702
 2250SOL    HW112712   5.276   2.499   7.926  0.4260  0.8428 -0.2666
 2250SOL    HW212713   5.368   2.515   7.807 -0.0936  0.3932 -0.7384
 2251SOL     OW12714   1.022   7.451   7.983  0.0946  0.0245  0.0759
 2251SOL    HW112715   0.951   7.391   7.960  0.7234 -0.5339 -0.4589
 2251SOL    HW212716   1.102   7.400   7.968  0.6028  0.3042  1.6037
 2252SOL     OW12717   1.083   6.518   4.955  0.4976 -0.0388 -0.6929
 2252SOL    HW112718   1.025   6.444   4.973 -0.6826  1.0102 -0.0456
 2252SOL    HW212719   1.167   6.492   4.992 -0.7468  0.2944  2.6863
 2253SOL     OW12720   4.118   2.906   1.199  0.3676 -0.0282 -0.2388
 2253SOL    HW112721   4.053   2.845   1.234 -0.9557  1.0325 -0.7421
 2253SOL    HW212722   4.199   2.855   1.192  0.0370 -0.9451  1.9550
 2254SOL     OW12723   2.020   1.192   7.268 -0.4578  0.3409  0.1270
 2254SOL    HW112724   2.077   1.246   7.323  2.1271 -1.9588 -0.0340
 2254SOL    HW212725   2.044   1.217   7.178 -1.0731  0.6339  0.0385
 2255SOL     OW12726   8.373   6.987   4.851 -0.0032 -0.3378 -0.3245
 2255SOL    HW112727   8.391   7.025   4.765  1.2209 -1.3245 -0.5251
 2255SOL    HW212728   8.359   7.063   4.908 -1.9035  0.3372 -1.5675
 2256SOL     OW12729   2.194   5.442   1.744  0.0667  0.4770  0.9310
 2256SOL    HW112730   2.137   5.498   1.692  0.2363 -0.7754 -0.6785
 2256SOL    HW212731   2.139   5.413   1.817 -1.4589 -0.7875 -0.6284
 2257SOL     OW12732   6.591   4.779   9.092 -0.3758  0.2052  0.6551
 2257SOL    HW112733   6.668   4.810   9.140  0.3305 -0.9770  0.3292
 2257SOL    HW212734   6.530   4.853   9.093  0.6253  1.0417  1.2187
 2258SOL     OW12735   4.270   5.957   1.707  0.0212 -0.2307  0.1504
 2258SOL    HW112736   4.219   5.918   1.636 -0.0127 -0.1758  0.1435
 2258SOL    HW212737   4.273   6.050   1.685 -2.9974  0.4324  1.9838
 2259SOL     OW12738   1.525   3.657   6.443 -0.0383  0.3197 -0.1080
 2259SOL    HW112739   1.530   3.704   6.527  0.5755 -1.5587  0.9684
 2259SOL    HW212740   1.502   3.567   6.467 -1.3440  0.0534 -2.1090
 2260SOL     OW12741   1.938   0.863   7.673 -0.0786  0.6535 -0.2035
 2260SOL    HW112742   1.933   0.835   7.765  0.7803  0.7224 -0.1282
 2260SOL    HW212743   1.858   0.828   7.633  1.5495 -3.2169 -0.4843
 2261SOL     OW12744   8.931   1.914   0.140 -0.3646  0.5673 -0.0383
 2261SOL    HW112745   8.985   1.990   0.163  0.2154 -0.0404  0.6906
 2261SOL    HW212746   8.936   1.858   0.217  0.9347 -1.1668 -1.2927
 2262SOL     OW12747   3.278   3.941   0.068  0.9258  0.6016 -0.2843
 2262SOL    HW112748   3.238   4.003   0.008 -1.1390 -0.4441 -0.0897
 2262SOL    HW212749   3.311   3.995   0.140  3.9612  1.9270 -2.4912
 2263SOL     OW12750   8.838   5.653   2.027  0.1262  0.2348  0.5530
 2263SOL    HW112751   8.877   5.604   1.955 -2.1250 -1.8488  0.5992
 2263SOL    HW212752   8.839   5.744   1.997  0.0327 -0.4555 -1.7769
 2264SOL     OW12753   4.019   6.985   3.339 -0.4408  1.0791 -0.3498
 2264SOL    HW112754   4.062   6.999   3.423 -0.0880  1.3627 -0.5790
 2264SOL    HW212755   3.985   6.895   3.344  0.4455  0.7429 -0.2933
 2265SOL     OW12756   9.153   6.305   8.596  0.2521 -0.2527 -0.5080
 2265SOL    HW112757   9.145   6.331   8.688  0.7027 -1.7494 -0.0163
 2265SOL    HW212758   9.246   6.317   8.576  0.0791  0.4550 -0.8978
 2266SOL     OW12759   0.998   4.282   8.888  0.0431 -0.1711  1.0910
 2266SOL    HW112760   1.020   4.199   8.845 -0.6417  1.0724 -1.9227
 2266SOL    HW212761   0.973   4.340   8.816 -0.8435  2.2576  3.2128
 2267SOL     OW12762   4.020   3.271   8.238  0.5937 -0.2769 -0.3267
 2267SOL    HW112763   4.079   3.199   8.216  0.6624 -0.6299  0.9450
 2267SOL    HW212764   4.068   3.322   8.303 -0.6364 -0.8018  1.0377
 2268SOL     OW12765   4.860   5.892   8.243  0.6686 -0.1140 -0.1969
 2268SOL    HW112766   4.837   5.861   8.331  0.2786 -0.5873 -0.4636
 2268SOL    HW212767   4.951   5.865   8.231  1.0455  0.8142  0.4392
 2269SOL     OW12768   0.344   8.276   6.715 -0.4204 -0.1929  0.6016
 2269SOL    HW112769   0.409   8.332   6.672  0.3397 -0.9103  0.7829
 2269SOL    HW212770   0.315   8.216   6.646 -1.1041  0.3039  0.4510
 2270SOL     OW12771   1.835   3.409   2.058  0.0746 -0.0308  0.0216
 2270SOL    HW112772   1.784   3.364   1.990  0.5127 -0.7501  0.1625
 2270SOL    HW212773   1.913   3.354   2.070  0.4521  0.5867  0.4436
 2271SOL     OW12774   4.489   3.894   6.713 -0.4470  0.7999  0.4128
 2271SOL    HW112775   4.467   3.877   6.621 -0.3440  1.0717  0.3366
 2271SOL    HW212776   4.541   3.974   6.710 -0.2356  0.6728  0.6843
 2272SOL     OW12777   1.661   4.739   8.296  0.2101  0.0988 -0.1258
 2272SOL    HW112778   1.756   4.743   8.309 -0.0041  0.7882  1.4299
 2272SOL    HW212779   1.632   4.666   8.352 -0.3840  1.1126  0.9296
 2273SOL     OW12780   1.939   3.277   1.125  0.5989  0.3277 -0.2268
 2273SOL    HW112781   1.972   3.339   1.060  1.9213 -0.1688 -0.0567
 2273SOL    HW212782   1.882   3.219   1.075 -1.3136  2.1213 -0.2416
 2274SOL     OW12783   6.958   8.504   4.819 -0.0369 -1.0285  0.3296
 2274SOL    HW112784   6.902   8.459   4.883 -2.4913  1.2275 -0.0684
 2274SOL    HW212785   6.968   8.441   4.748 -2.7204 -1.3140  0.1137
 2275SOL     OW12786   9.340   1.022   3.361  0.0709 -0.4093 -0.0443
 2275SOL    HW112787   9.336   1.039   3.267 -2.9997 -3.6307 -0.7178
 2275SOL    HW212788   9.261   1.062   3.397  0.6317 -0.1726  0.9712
 2276SOL     OW12789   5.796   5.150   8.042  0.1945  0.1418  0.1272
 2276SOL    HW112790   5.742   5.118   8.114 -0.2293  0.0351 -0.2398
 2276SOL    HW212791   5.734   5.179   7.976  0.5591 -1.1475 -0.8225
 2277SOL     OW12792   6.271   2.485   3.864  0.2438 -0.4373 -0.1440
 2277SOL    HW112793   6.300   2.541   3.791  0.5739 -2.0226 -1.2941
 2277SOL    HW212794   6.342   2.422   3.875 -0.5576 -1.2615  0.4154
 2278SOL     OW12795   1.257   4.918   4.007  0.6069 -0.2686  0.5198
 2278SOL    HW112796   1.335   4.892   3.958 -0.2141 -0.9357 -0.4897
 2278SOL    HW212797   1.258   4.862   4.085  1.3033 -0.0415  0.6798
 2279SOL     OW12798   7.356   3.807   1.322  0.7769 -0.0715  0.0693
 2279SOL    HW112799   7.423   3.742   1.302  1.0017 -0.2045  1.1459
 2279SOL    HW212800   7.307   3.769   1.395 -0.3545  0.1115 -0.5696
 2280SOL     OW12801   8.526   1.370   8.666 -0.0822 -0.1429 -0.3729
 2280SOL    HW112802   8.459   1.433   8.642  0.9621  1.9037  1.6159
 2280SOL    HW212803   8.491   1.326   8.744  0.6271  0.6292  0.4143
 2281SOL     OW12804   6.807   6.577   6.208 -0.9302 -0.1977  0.0717
 2281SOL    HW112805   6.867   6.587   6.134 -1.7769  1.3469 -0.4514
 2281SOL    HW212806   6.721   6.601   6.172 -1.9893 -2.7789  0.6819
 2282SOL     OW12807   4.348   5.762   6.029  0.0066  0.2599 -0.0543
 2282SOL    HW112808   4.355   5.688   5.969  1.4175  0.1472  0.2034
 2282SOL    HW212809   4.439   5.783   6.052 -0.4361  1.1522  0.9986
 2283SOL     OW12810   7.868   6.631   4.965 -0.1984 -0.3841 -0.6241
 2283SOL    HW112811   7.939   6.582   4.924  0.2280 -0.4821  0.2172
 2283SOL    HW212812   7.863   6.713   4.914  0.1920 -0.5791 -0.9814
 2284SOL     OW12813   7.450   4.575   2.626 -0.0441  0.9453  0.4317
 2284SOL    HW112814   7.383   4.540   2.567  0.1561  0.2860  0.5872
 2284SOL    HW212815   7.518   4.609   2.569 -1.1015  2.8452  0.2429
 2285SOL     OW12816   8.090   7.117   9.344 -0.0319 -0.1000 -0.0163
 2285SOL    HW112817   8.074   7.206   9.311 -2.1077 -0.3926  0.1031
 2285SOL    HW212818   8.135   7.131   9.428 -1.2000  0.8846  0.4715
 2286SOL     OW12819   3.334   9.240   6.261 -0.5704  0.0867 -0.2064
 2286SOL    HW112820   3.383   9.223   6.341  1.3583 -0.3798 -1.4140
 2286SOL    HW212821   3.313   9.334   6.265  0.6343  0.3539  0.2683
 2287SOL     OW12822   0.349   8.085   2.023  0.3835 -0.3296 -0.1733
 2287SOL    HW112823   0.287   8.035   2.076 -1.0415  0.0551 -1.4146
 2287SOL    HW212824   0.296   8.152   1.980  1.8354  0.6742 -0.5040
 2288SOL     OW12825   5.808   8.746   1.802  0.0155  0.3847  0.0869
 2288SOL    HW112826   5.775   8.836   1.808  1.4380  0.9353 -0.0517
 2288SOL    HW212827   5.879   8.743   1.865  0.3780 -0.4684 -0.3579
 2289SOL     OW12828   0.233   0.344   9.306  0.2515  0.3813  0.4889
 2289SOL    HW112829   0.202   0.434   9.315  0.5249  0.4236  1.0389
 2289SOL    HW212830   0.162   0.299   9.259  0.6473  1.1684 -0.9176
 2290SOL     OW12831   5.864   0.052   4.054 -0.6148  0.4913 -0.0240
 2290SOL    HW112832   5.872   0.099   3.971 -0.8800  3.0956  1.3074
 2290SOL    HW212833   5.932  -0.015   4.051 -1.3409 -0.2359 -2.7507
 2291SOL     OW12834   0.389   5.019   7.685  0.2615  0.0561  0.4247
 2291SOL    HW112835   0.398   5.018   7.780  1.9007  1.2954  0.3192
 2291SOL    HW212836   0.421   5.105   7.659  2.1314 -1.1205 -1.4399
 2292SOL     OW12837   8.651   0.243   5.146  0.0717 -0.2380  0.0858
 2292SOL    HW112838   8.622   0.330   5.119  1.1292  0.2436  0.4501
 2292SOL    HW212839   8.585   0.213   5.209 -1.0008 -0.2672 -1.0391
 2293SOL     OW12840   1.726   9.124   3.292  0.1468  0.2786 -0.4081
 2293SOL    HW112841   1.796   9.108   3.354 -0.3108  0.0473  0.0525
 2293SOL    HW212842   1.646   9.118   3.343 -0.3277 -1.2962 -1.2589
 2294SOL     OW12843   3.659   7.520   6.883  0.5325  0.7511 -0.0569
 2294SOL    HW112844   3.722   7.561   6.943  1.5640  2.1559 -2.0139
 2294SOL    HW212845   3.687   7.429   6.878  1.6162  1.0626  0.1139
 2295SOL     OW12846   7.903   1.131   4.968 -0.0754  0.2680 -0.3653
 2295SOL    HW112847   7.871   1.209   5.014  0.2780  0.3557 -0.2696
 2295SOL    HW212848   7.997   1.144   4.961 -0.0064 -0.1830 -0.2932
 2296SOL     OW12849   6.794   8.284   4.915  0.0811 -0.4418  0.2563
 2296SOL    HW112850   6.852   8.212   4.939  1.6183  0.7966  0.4735
 2296SOL    HW212851   6.738   8.297   4.991 -0.4991 -1.6558  0.0502
 2297SOL     OW12852   2.331   4.102   5.362 -0.5407  0.1639 -0.2143
 2297SOL    HW112853   2.258   4.155   5.393 -0.9454 -0.3785 -0.2253
 2297SOL    HW212854   2.294   4.050   5.290  0.3637  1.3529 -1.5985
 2298SOL     OW12855   0.082   7.901   3.991 -0.3423  0.6760 -0.1065
 2298SOL    HW112856   0.018   7.918   3.922 -0.7874  1.7930  0.5667
 2298SOL    HW212857   0.040   7.835   4.046 -0.4282  0.5548 -0.3159
 2299SOL     OW12858   5.326   2.051   9.249  0.1332 -0.6750  0.1146
 2299SOL    HW112859   5.254   2.031   9.309 -0.0830 -0.9988 -0.2473
 2299SOL    HW212860   5.285   2.103   9.179  0.8044  1.7192  1.3810
 2300SOL     OW12861   5.210   1.866   0.990 -0.1168  0.4458  0.4239
 2300SOL    HW112862   5.176   1.955   0.988  2.2611  1.4448 -0.7776
 2300SOL    HW212863   5.149   1.817   1.045 -2.7755  2.2407 -0.7584
 2301SOL     OW12864   5.638   3.761   2.375  0.0261 -0.7316  0.1710
 2301SOL    HW112865   5.726   3.792   2.396 -0.0036  0.4330 -1.2991
 2301SOL    HW212866   5.646   3.665   2.378  0.6444 -0.6891  2.6297
 2302SOL     OW12867   1.871   8.912   4.344 -0.1558 -0.7342  0.5921
 2302SOL    HW112868   1.828   8.828   4.361 -1.6614 -0.0410  0.3880
 2302SOL    HW212869   1.896   8.944   4.430  0.3990 -1.3707  0.6756
 2303SOL     OW12870   8.368   3.644   4.470  0.2487  0.5051  0.1803
 2303SOL    HW112871   8.351   3.737   4.485  1.4566  0.7965 -0.1360
 2303SOL    HW212872   8.294   3.599   4.510  1.0433  1.4624  2.9172
 2304SOL     OW12873   7.535   5.545   5.456  0.2845 -0.6555 -0.1666
 2304SOL    HW112874   7.478   5.607   5.501 -1.7131 -1.4247 -1.4432
 2304SOL    HW212875   7.624   5.572   5.478 -0.5576  0.8246  1.6702
 2305SOL     OW12876   7.199   4.180   4.233  0.3696  0.5759  0.1521
 2305SOL    HW112877   7.292   4.159   4.243  0.3687  0.3366 -0.3038
 2305SOL    HW212878   7.197   4.254   4.173  0.2274 -0.0245 -0.6072
 2306SOL     OW12879   8.850   5.610   8.010 -0.1187 -0.1202 -0.1371
 2306SOL    HW112880   8.763   5.625   8.047 -0.2553 -0.5978 -0.2490
 2306SOL    HW212881   8.838   5.616   7.915 -0.3011 -1.4298 -0.2238
 2307SOL     OW12882   8.511   8.226   8.132 -0.2811 -0.0427 -0.3369
 2307SOL    HW112883   8.578   8.166   8.100  0.6863  0.5015  0.6173
 2307SOL    HW212884   8.536   8.312   8.097 -1.9896 -0.2215 -2.2112
 2308SOL     OW12885   3.735   2.997   6.523 -0.5748 -0.3093  0.2841
 2308SOL    HW112886   3.817   3.025   6.563 -0.5640 -0.6914  0.5306
 2308SOL    HW212887   3.751   3.003   6.429 -0.2370 -0.4623  0.3309
 2309SOL     OW12888   2.767   7.894   0.048  0.7168 -0.4491 -0.3815
 2309SOL    HW112889   2.679   7.892   0.011  1.1182 -1.8656 -1.3259
 2309SOL    HW212890   2.754   7.883   0.142 -0.3703  3.7675  0.1636
 2310SOL     OW12891   8.633   7.919   1.164 -0.1209 -0.5557 -0.1738
 2310SOL    HW112892   8.629   8.000   1.113  0.7869  0.9990  2.0349
 2310SOL    HW212893   8.547   7.913   1.206 -0.1066 -0.5892 -0.1491
 2311SOL     OW12894   3.719   7.376   9.207  0.0983 -0.3243 -0.1135
 2311SOL    HW112895   3.716   7.471   9.213  0.3245 -0.3844  4.0723
 2311SOL    HW212896   3.636   7.347   9.243  0.3227 -1.7491 -0.6573
 2312SOL     OW12897   1.319   2.182   8.238 -0.1582 -0.4120 -0.8006
 2312SOL    HW112898   1.257   2.247   8.272  1.8305  1.6187 -0.8219
 2312SOL    HW212899   1.263   2.113   8.201 -2.4305  1.6939 -1.6017
 2313SOL     OW12900   3.623   5.494   4.279 -0.3228 -0.5094 -0.4712
 2313SOL    HW112901   3.669   5.471   4.360 -0.2742  1.4029  0.0973
 2313SOL    HW212902   3.532   5.470   4.295 -0.5721  1.0789  0.7282
 2314SOL     OW12903   0.221   1.390   9.098  0.2983  0.1884 -0.1739
 2314SOL    HW112904   0.170   1.411   9.020 -0.8266 -1.0514  0.1910
 2314SOL    HW212905   0.164   1.334   9.150  1.4146  0.1488  1.0632
 2315SOL     OW12906   1.762   3.872   3.338 -0.0706 -0.2259  0.3548
 2315SOL    HW112907   1.846   3.877   3.293 -0.8426 -0.3125 -1.1550
 2315SOL    HW212908   1.729   3.962   3.335 -0.7780 -0.5003 -0.5940
 2316SOL     OW12909   4.329   1.632   1.575 -0.0231  0.6881 -0.2470
 2316SOL    HW112910   4.369   1.567   1.517  0.7479  0.2760  0.7097
 2316SOL    HW212911   4.276   1.687   1.517  1.7613  1.1331 -1.5607
 2317SOL     OW12912   6.942   0.134   3.658 -0.0273 -0.5590  0.3671
 2317SOL    HW112913   6.969   0.189   3.731  0.7004 -0.2530 -0.1163
 2317SOL    HW212914   6.906   0.055   3.699  0.7439 -0.5691  1.0444
 2318SOL     OW12915   7.473   4.590   0.329  0.1592  0.1614  0.2248
 2318SOL    HW112916   7.431   4.576   0.414 -0.1110 -2.2360 -0.2262
 2318SOL    HW212917   7.538   4.520   0.323 -0.2522 -0.1038 -1.7766
 2319SOL     OW12918   2.688   2.219   4.296  0.2498 -0.5240  0.0602
 2319SOL    HW112919   2.651   2.174   4.221  1.5268 -0.3891 -0.6860
 2319SOL    HW212920   2.736   2.151   4.344 -0.9603 -0.7144  1.0556
 2320SOL     OW12921   4.935   0.502   8.187 -0.0454 -0.3225  0.2560
 2320SOL    HW112922   4.869   0.433   8.199  0.2505 -0.6748 -0.1300
 2320SOL    HW212923   5.017   0.460   8.211 -0.1027  0.5040  2.0809
 2321SOL     OW12924   4.420   8.287   3.824  0.0541 -0.5146 -0.6799
 2321SOL    HW112925   4.363   8.213   3.846 -0.6681 -0.1962 -1.4456
 2321SOL    HW212926   4.500   8.247   3.792 -0.2212 -0.9746 -0.8015
 2322SOL     OW12927   8.548   4.290   5.081 -0.6178  0.2158  0.3511
 2322SOL    HW112928   8.611   4.263   5.148  0.9245  3.4926  0.4486
 2322SOL    HW212929   8.464   4.295   5.128 -0.1183 -0.2024  1.3306
 2323SOL     OW12930   4.342   8.782   1.394 -0.3696  0.1901 -1.0095
 2323SOL    HW112931   4.272   8.778   1.458  0.6881 -0.8073  0.1369
 2323SOL    HW212932   4.376   8.693   1.389  0.6145  0.5825 -1.7498
 2324SOL     OW12933   3.707   4.586   8.647 -0.3169 -0.3470 -0.0683
 2324SOL    HW112934   3.742   4.668   8.610 -1.3561 -0.1569 -0.6558
 2324SOL    HW212935   3.766   4.567   8.720  0.8976  0.0713 -0.8934
 2325SOL     OW12936   0.658   0.575   7.667 -0.4480 -0.5815 -0.5180
 2325SOL    HW112937   0.733   0.553   7.722 -1.0476  0.3054  0.7039
 2325SOL    HW212938   0.683   0.655   7.622 -1.0178  0.3069  0.6904
 2326SOL     OW12939   5.849   0.208   7.739  0.1279  0.7897 -0.0323
 2326SOL    HW112940   5.834   0.282   7.799  1.1931  0.2388  0.9451
 2326SOL    HW212941   5.776   0.148   7.757  1.5722 -0.4109  2.4039
 2327SOL     OW12942   8.408   8.662   8.766  0.0168  0.1864  0.6111
 2327SOL    HW112943   8.401   8.757   8.775 -1.3076 -0.0282  2.2924
 2327SOL    HW212944   8.455   8.649   8.683 -0.3691  2.2770  0.0105
 2328SOL     OW12945   6.601   6.321   2.598  1.1646  0.4990  0.3463
 2328SOL    HW112946   6.549   6.286   2.526  1.1525  1.8164 -0.3026
 2328SOL    HW212947   6.592   6.255   2.668 -1.4210  0.7029  0.3032
 2329SOL     OW12948   2.365   8.107   8.300 -0.3818 -0.6028 -0.2854
 2329SOL    HW112949   2.282   8.142   8.331  0.5521 -0.1792  1.9053
 2329SOL    HW212950   2.375   8.145   8.212 -1.9703  0.2124 -0.1500
 2330SOL     OW12951   9.290   3.637   0.106 -0.5851  0.3200 -0.6577
 2330SOL    HW112952   9.227   3.597   0.045  0.3874 -0.7716 -0.9782
 2330SOL    HW212953   9.252   3.621   0.193 -1.0038  0.1202 -0.8722
 2331SOL     OW12954   6.733   2.559   8.554 -0.1682  0.0693  0.0259
 2331SOL    HW112955   6.790   2.483   8.565  1.3421  1.1229 -0.2218
 2331SOL    HW212956   6.666   2.548   8.621 -1.0878 -2.4060 -1.1845
 2332SOL     OW12957   5.477   8.058   8.338 -0.3813  0.0724 -0.3328
 2332SOL    HW112958   5.507   7.975   8.375 -1.4771 -0.1118  0.1948
 2332SOL    HW212959   5.382   8.056   8.349 -0.4024  1.5348 -0.0185
 2333SOL     OW12960   1.454   3.336   3.088 -0.3067 -0.1376  0.1437
 2333SOL    HW112961   1.466   3.426   3.059 -1.2044 -0.2870 -0.7380
 2333SOL    HW212962   1.541   3.297   3.082 -0.3095  0.0584 -1.6469
 2334SOL     OW12963   0.303   8.688   8.988  0.0985  0.3455  0.1777
 2334SOL    HW112964   0.381   8.727   8.948  0.3229  0.4041  0.6683
 2334SOL    HW212965   0.242   8.677   8.915  1.0169 -0.8513 -0.4614
 2335SOL     OW12966   5.940   7.677   4.107  0.3627  0.4955  0.4923
 2335SOL    HW112967   5.979   7.763   4.125 -0.3676  1.3394 -1.6366
 2335SOL    HW212968   5.845   7.692   4.111  0.1101  0.6903 -3.1302
 2336SOL     OW12969   0.917   8.247   4.491  0.1722  0.1696  0.2912
 2336SOL    HW112970   0.858   8.294   4.550 -0.7450  1.6028 -1.6585
 2336SOL    HW212971   1.005   8.272   4.520 -0.1099 -1.3881  2.7462
 2337SOL     OW12972   3.523   5.785   7.291 -0.0466 -0.4773 -0.6329
 2337SOL    HW112973   3.493   5.860   7.342  1.5452 -0.3542  0.1999
 2337SOL    HW212974   3.560   5.822   7.211  2.3797 -0.1021  0.5442
 2338SOL     OW12975   3.846   1.201   1.423 -0.0320 -0.2662 -0.0938
 2338SOL    HW112976   3.864   1.112   1.452  2.1301 -0.6456 -2.2396
 2338SOL    HW212977   3.908   1.255   1.473 -0.3411 -0.1556  0.1708
 2339SOL     OW12978   5.427   5.561   0.355  0.6107  0.1610 -0.4485
 2339SOL    HW112979   5.350   5.526   0.310  1.0633 -0.2859 -0.8715
 2339SOL    HW212980   5.390   5.622   0.420 -0.0112  1.3981 -1.9090
 2340SOL     OW12981   0.898   1.517   5.933  0.5316  0.0421 -0.5000
 2340SOL    HW112982   0.932   1.484   6.016  0.9386  0.4286 -0.5072
 2340SOL    HW212983   0.976   1.550   5.888  0.5049 -1.2101 -1.5346
 2341SOL     OW12984   0.582   7.691   6.513 -0.3567  0.5051 -0.4408
 2341SOL    HW112985   0.594   7.626   6.583  0.1093 -0.4154 -1.3439
 2341SOL    HW212986   0.489   7.687   6.492 -0.4313  0.5255 -0.1242
 2342SOL     OW12987   0.288   5.978   0.918 -0.5271 -0.4267  0.6283
 2342SOL    HW112988   0.195   5.971   0.941 -0.3653  1.3930  2.0141
 2342SOL    HW212989   0.309   6.070   0.929  1.3406 -0.6981 -0.2323
 2343SOL     OW12990   4.193   2.964   5.201  0.0424  0.5773 -0.3566
 2343SOL    HW112991   4.201   3.054   5.233  1.7102  0.2526  0.1878
 2343SOL    HW212992   4.260   2.956   5.134 -0.4726 -0.1062 -0.8035
 2344SOL     OW12993   2.723   5.643   0.723  0.2156  0.7750  0.6796
 2344SOL    HW112994   2.721   5.553   0.756  2.1628  1.2563  2.3438
 2344SOL    HW212995   2.805   5.648   0.674 -0.2886  1.4272 -0.1077
 2345SOL     OW12996   5.863   3.859   2.162  0.5985 -0.6085 -0.3774
 2345SOL    HW112997   5.957   3.872   2.158  0.4196  2.4258  1.9787
 2345SOL    HW212998   5.846   3.835   2.254 -0.9061 -1.3971 -0.8220
 2346SOL     OW12999   1.428   5.813   4.800 -0.0794  0.1824  0.3459
 2346SOL    HW113000   1.402   5.747   4.736  2.5485  0.4410 -1.0906
 2346SOL    HW213001   1.406   5.773   4.885 -1.0287 -1.3498 -0.5674
 2347SOL     OW13002   1.503   3.724   7.371 -0.3383 -0.4413 -0.2625
 2347SOL    HW113003   1.449   3.655   7.334  0.6690 -0.4425 -1.8067
 2347SOL    HW213004   1.474   3.804   7.327 -1.9330  0.3059  1.9618
 2348SOL     OW13005   6.709   7.946   6.399 -0.1143  0.3750  0.0464
 2348SOL    HW113006   6.792   7.930   6.355  0.9860  1.8612  1.4501
 2348SOL    HW213007   6.696   7.870   6.455  1.6502  1.1926  1.7012
 2349SOL     OW13008   2.669   6.202   4.290 -0.2200 -0.8131  0.1216
 2349SOL    HW113009   2.678   6.118   4.246 -3.5127 -2.7444  2.6738
 2349SOL    HW213010   2.598   6.246   4.243 -0.1237 -0.5085  0.2597
 2350SOL     OW13011   0.014   5.910   8.759  0.2977 -0.2518 -0.1905
 2350SOL    HW113012   0.086   5.859   8.795  0.5587 -0.0200 -0.3841
 2350SOL    HW213013  -0.055   5.845   8.741  1.0120 -0.7010 -1.4282
 2351SOL     OW13014   1.170   5.958   3.881  0.3437 -0.0141  0.1748
 2351SOL    HW113015   1.248   5.959   3.826  0.7089 -1.1606  0.6489
 2351SOL    HW213016   1.102   5.919   3.826 -0.2317  1.9907 -0.6256
 2352SOL     OW13017   7.735   0.555   4.121 -0.2981  0.0381  0.3321
 2352SOL    HW113018   7.685   0.577   4.042  0.6820  0.2231 -0.2581
 2352SOL    HW213019   7.791   0.482   4.094 -2.6028 -2.4829  1.9261
 2353SOL     OW13020   5.025   6.320   5.011 -0.5484  0.6335  0.5007
 2353SOL    HW113021   4.989   6.312   5.099 -1.2075  0.0608  0.1901
 2353SOL    HW213022   5.021   6.231   4.975 -2.4133  1.2161 -0.9047
 2354SOL     OW13023   7.240   5.319   4.047  0.3495 -0.2019  0.2088
 2354SOL    HW113024   7.275   5.377   3.980  0.2029 -1.4330 -0.9851
 2354SOL    HW213025   7.175   5.371   4.093  0.9290  0.8735 -0.1554
 2355SOL     OW13026   0.799   4.566   2.054 -0.4601 -0.1486 -0.2828
 2355SOL    HW113027   0.743   4.496   2.023  0.5335 -0.4263 -1.5285
 2355SOL    HW213028   0.778   4.574   2.147 -0.5613 -2.1368 -0.0845
 2356SOL     OW13029   1.749   6.302   2.479 -0.3072 -0.3225  0.3058
 2356SOL    HW113030   1.722   6.384   2.521  0.2739  1.2531 -2.1860
 2356SOL    HW213031   1.701   6.302   2.396  0.7479 -1.8565 -0.3324
 2357SOL     OW13032   0.459   5.602   1.096 -0.5044  0.4194 -0.1327
 2357SOL    HW113033   0.397   5.645   1.155 -1.4405 -2.1476  0.9222
 2357SOL    HW213034   0.476   5.666   1.027 -2.7287  1.9669  0.6528
 2358SOL     OW13035   5.251   5.604   5.326 -0.1194  0.3081  0.3135
 2358SOL    HW113036   5.214   5.567   5.406 -1.2387  1.0251  0.1421
 2358SOL    HW213037   5.310   5.536   5.293 -1.6695 -1.0843  0.3216
 2359SOL     OW13038   5.004   6.906   2.769 -0.2999  0.1507  0.1616
 2359SOL    HW113039   5.025   6.816   2.745 -1.2627  0.0107 -0.2031
 2359SOL    HW213040   5.001   6.906   2.864 -0.4188 -0.2296  0.1579
 2360SOL     OW13041   5.319   5.613   2.303  0.2908  0.0367  0.1425
 2360SOL    HW113042   5.279   5.559   2.372  0.5668  0.9844  1.0818
 2360SOL    HW213043   5.375   5.674   2.351 -0.1088  1.2284 -0.8683
 2361SOL     OW13044   5.140   6.406   7.226 -0.5381  0.2665  0.0167
 2361SOL    HW113045   5.131   6.501   7.238 -0.0457  0.5436 -1.5654
 2361SOL    HW213046   5.085   6.386   7.151 -0.0819 -0.5804 -0.1065
 2362SOL     OW13047   5.388   6.916   6.479 -0.2426  0.1679 -0.3023
 2362SOL    HW113048   5.468   6.877   6.443 -0.9728 -1.0287 -0.7035
 2362SOL    HW213049   5.384   7.003   6.440  1.3395  0.6119  0.4600
 2363SOL     OW13050   9.172   0.835   1.481 -0.0009  0.2538  0.4499
 2363SOL    HW113051   9.224   0.756   1.467 -0.4877 -0.1287  0.7912
 2363SOL    HW213052   9.203   0.869   1.565 -0.8170 -0.3925  1.0296
 2364SOL     OW13053   5.797   8.244   6.528  0.2611 -0.3730  0.4169
 2364SOL    HW113054   5.795   8.164   6.475 -0.2713 -0.7045  0.9189
 2364SOL    HW213055   5.712   8.286   6.511  1.1285  0.9039 -1.0343
 2365SOL     OW13056   3.803   8.489   4.171  0.4583 -0.7504 -0.2337
 2365SOL    HW113057   3.713   8.480   4.200  0.4277 -1.2939 -0.4913
 2365SOL    HW213058   3.804   8.453   4.083  0.1972  2.3222 -1.6161
 2366SOL     OW13059   8.111   3.417   8.865 -0.0145  0.0001  0.6890
 2366SOL    HW113060   8.018   3.430   8.887  0.0329  0.8709  0.3962
 2366SOL    HW213061   8.136   3.496   8.818  0.5059 -0.8166 -0.4848
 2367SOL     OW13062   7.252   7.645   0.552  0.2110 -0.4468  0.9217
 2367SOL    HW113063   7.222   7.666   0.641 -0.7459 -1.3875  0.8398
 2367SOL    HW213064   7.288   7.727   0.519 -2.8099  0.9684  0.8369
 2368SOL     OW13065   4.676   3.562   6.364  0.3337 -1.0050  0.3327
 2368SOL    HW113066   4.587   3.532   6.348 -0.0403 -0.3859  1.1844
 2368SOL    HW213067   4.705   3.595   6.279 -0.1986 -1.3183  0.0199
 2369SOL     OW13068   2.179   8.751   1.829  0.1787 -0.0188  0.6086
 2369SOL    HW113069   2.087   8.768   1.808 -0.3965 -1.4440  1.7890
 2369SOL    HW213070   2.224   8.833   1.809 -0.9467  0.0681 -2.1144
 2370SOL     OW13071   4.775   2.331   7.886 -0.3913 -0.4732  0.6331
 2370SOL    HW113072   4.855   2.351   7.836 -1.4999 -0.0640 -1.0366
 2370SOL    HW213073   4.763   2.237   7.875 -0.6151 -0.3893  0.1451
 2371SOL     OW13074   3.876   1.680   4.526  0.0874  0.2467 -0.0756
 2371SOL    HW113075   3.887   1.631   4.608 -0.9609  1.1455  0.6384
 2371SOL    HW213076   3.943   1.645   4.468 -0.1629 -1.5193  0.6322
 2372SOL     OW13077   7.292   6.748   5.059 -0.2332  0.3285 -0.5485
 2372SOL    HW113078   7.249   6.663   5.058  0.1660  0.1038  0.2930
 2372SOL    HW213079   7.224   6.810   5.086  0.0251 -0.0839  1.1911
 2373SOL     OW13080   7.484   7.841   6.743  0.8623 -0.1335  0.2370
 2373SOL    HW113081   7.560   7.840   6.802 -0.6090 -2.4151  2.3110
 2373SOL    HW213082   7.502   7.771   6.680  0.5556 -0.6060  0.6665
 2374SOL     OW13083   3.288   1.500   6.652  0.1352 -0.0591  0.1222
 2374SOL    HW113084   3.238   1.419   6.643  2.3243 -1.4579 -0.1954
 2374SOL    HW213085   3.344   1.503   6.574 -0.0165  1.8927  0.0236
 2375SOL     OW13086   6.897   5.679   0.924  0.1811  0.3980 -0.0612
 2375SOL    HW113087   6.803   5.659   0.933  0.3481 -1.7436 -2.1957
 2375SOL    HW213088   6.940   5.621   0.987  0.1792 -0.3991 -0.7720
 2376SOL     OW13089   0.985   8.424   0.936  0.3216 -0.2568 -0.1388
 2376SOL    HW113090   1.067   8.473   0.929  0.3519 -0.5136 -2.5956
 2376SOL    HW213091   1.012   8.333   0.945  0.2523 -0.0909  2.4810
 2377SOL     OW13092   2.409   2.897   2.775  0.1795 -0.3092 -0.5594
 2377SOL    HW113093   2.350   2.839   2.726  0.3834  0.1000 -1.2895
 2377SOL    HW213094   2.373   2.984   2.763  0.9479 -0.0520 -1.0290
 2378SOL     OW13095   2.303   5.135   4.842  0.2597  0.2206 -0.0912
 2378SOL    HW113096   2.235   5.073   4.869 -0.3621  0.4161 -1.1374
 2378SOL    HW213097   2.333   5.175   4.923 -1.1069  0.3565  0.3771
 2379SOL     OW13098   3.401   6.247   6.547 -0.1088  0.0666  0.1172
 2379SOL    HW113099   3.325   6.304   6.560 -0.7546 -0.5686 -0.8281
 2379SOL    HW213100   3.395   6.183   6.618 -1.8989 -1.5084 -1.3537
 2380SOL     OW13101   5.729   1.014   7.352  0.0174 -0.2641 -0.0237
 2380SOL    HW113102   5.727   0.923   7.322  1.6373 -0.2259 -0.3149
 2380SOL    HW213103   5.814   1.047   7.324 -0.9657  1.7033 -0.9446
 2381SOL     OW13104   7.219   5.075   5.052 -0.4473  0.4829 -0.1597
 2381SOL    HW113105   7.225   5.159   5.007 -3.3106  0.4968 -0.6846
 2381SOL    HW213106   7.249   5.093   5.141 -2.8032  2.6266  0.3213
 2382SOL     OW13107   1.547   3.439   4.393  0.4026  0.1361 -0.1756
 2382SOL    HW113108   1.505   3.424   4.477  0.0239 -0.0926 -0.4020
 2382SOL    HW213109   1.620   3.497   4.413 -0.4355  1.1220  0.1246
 2383SOL     OW13110   3.925   5.009   7.930 -0.5278 -0.2875 -0.2305
 2383SOL    HW113111   3.969   5.062   7.864 -0.3152 -0.9904 -0.6672
 2383SOL    HW213112   3.867   5.070   7.975 -0.3991  0.2788 -0.8158
 2384SOL     OW13113   7.773   2.139   3.008  0.3580 -0.5708 -0.6243
 2384SOL    HW113114   7.844   2.111   3.065  0.2120 -1.9562 -1.0994
 2384SOL    HW213115   7.805   2.122   2.919 -0.4171 -0.8401 -0.8568
 2385SOL     OW13116   0.483   6.582   3.348 -0.1240 -0.4610  0.3390
 2385SOL    HW113117   0.430   6.661   3.344 -1.6959 -1.5053 -0.5875
 2385SOL    HW213118   0.483   6.556   3.440 -1.0596 -0.3316  0.3747
 2386SOL     OW13119   2.932   6.768   5.194 -0.4221  0.0459  0.4708
 2386SOL    HW113120   2.838   6.786   5.196 -0.2842  0.8791  0.1194
 2386SOL    HW213121   2.950   6.722   5.275 -1.1549 -0.2103  0.4901
 2387SOL     OW13122   0.988   6.487   2.716 -0.2831  0.3146  0.1749
 2387SOL    HW113123   0.893   6.500   2.718 -0.2710  0.3301  0.7232
 2387SOL    HW213124   1.010   6.454   2.803  0.1581 -0.1163 -0.0979
 2388SOL     OW13125   0.237   1.830   3.239 -0.2500 -0.0530 -0.3170
 2388SOL    HW113126   0.217   1.878   3.319 -0.6646 -0.4978 -0.1467
 2388SOL    HW213127   0.180   1.753   3.242 -0.3861  0.0001 -1.1140
 2389SOL     OW13128   4.556   7.725   2.012  0.6647 -0.2543 -0.3948
 2389SOL    HW113129   4.498   7.747   1.939  0.8047 -2.0851 -1.0994
 2389SOL    HW213130   4.506   7.749   2.090  1.0899  3.1616 -1.0056
 2390SOL     OW13131   0.002   7.916   5.954 -0.0768  0.3495  0.2235
 2390SOL    HW113132  -0.021   7.841   6.009 -0.4804 -0.4947 -1.0612
 2390SOL    HW213133  -0.004   7.992   6.013  2.4553 -0.7875  2.1427
 2391SOL     OW13134   8.684   8.403   1.621  0.1043  0.1375 -0.1696
 2391SOL    HW113135   8.655   8.347   1.550 -1.0426  1.8665 -1.1443
 2391SOL    HW213136   8.717   8.482   1.578  2.1407  0.0887  1.1274
 2392SOL     OW13137   7.888   7.583   6.868  0.2100  0.7874  0.2582
 2392SOL    HW113138   7.816   7.612   6.812 -0.9672 -3.1003 -0.5419
 2392SOL    HW213139   7.865   7.614   6.955 -1.1982  1.6449 -0.3895
 2393SOL     OW13140   3.606   7.827   8.038  0.6010  0.5866  0.0795
 2393SOL    HW113141   3.636   7.815   8.128  0.0022  0.7526  0.3025
 2393SOL    HW213142   3.631   7.746   7.993  1.7108  0.8717  0.1645
 2394SOL     OW13143   5.453   7.197   3.707  0.0261 -0.7009 -0.2656
 2394SOL    HW113144   5.473   7.120   3.761 -0.5166 -2.8647 -2.9527
 2394SOL    HW213145   5.360   7.213   3.721  0.0707 -0.7062  0.0549
 2395SOL     OW13146   5.368   1.846   2.928  0.1707 -0.0613  0.5395
 2395SOL    HW113147   5.425   1.875   2.857  0.7875  0.3921  1.2015
 2395SOL    HW213148   5.316   1.775   2.891  1.5269 -0.8246  0.0621
 2396SOL     OW13149   4.425   2.481   4.957  0.2691  0.3135  0.3612
 2396SOL    HW113150   4.464   2.536   5.025  0.4727 -0.6993  1.0892
 2396SOL    HW213151   4.460   2.393   4.974 -1.0949 -0.3221  0.0654
 2397SOL     OW13152   4.525   4.840   2.201 -0.3959 -0.3313  0.0937
 2397SOL    HW113153   4.594   4.796   2.153 -0.4245 -0.5905  0.2852
 2397SOL    HW213154   4.530   4.931   2.174  0.2270 -0.2863  0.3457
 2398SOL     OW13155   0.380   5.763   2.840 -0.3883 -0.5546  0.6929
 2398SOL    HW113156   0.323   5.839   2.855  0.4427  0.0957  0.6645
 2398SOL    HW213157   0.378   5.716   2.923  0.8752  0.7508  1.5132
 2399SOL     OW13158   1.452   3.032   3.880 -0.1575  0.3470 -0.6721
 2399SOL    HW113159   1.426   2.957   3.826 -0.4228  0.4267 -0.6544
 2399SOL    HW213160   1.466   3.103   3.817  2.7075 -0.3765 -1.0216
 2400SOL     OW13161   9.075   1.547   1.206 -0.2300 -0.2323  0.0109
 2400SOL    HW113162   9.020   1.470   1.189 -1.6924  0.7328  0.1811
 2400SOL    HW213163   9.024   1.620   1.171  1.5495  0.5830 -1.0001
 2401SOL     OW13164   2.533   5.762   7.593 -0.0299 -0.2668  0.0810
 2401SOL    HW113165   2.615   5.783   7.638 -1.0522  0.9678  1.4908
 2401SOL    HW213166   2.556   5.765   7.500  1.6213 -0.4417  0.4405
 2402SOL     OW13167   6.020   0.554   6.161  0.1987 -0.3953  0.0791
 2402SOL    HW113168   5.953   0.511   6.215 -0.0526 -0.2567 -0.1175
 2402SOL    HW213169   6.017   0.646   6.188  0.6153 -0.4655  0.3766
 2403SOL     OW13170   2.964   4.494   4.836 -0.0385  0.4696  0.1495
 2403SOL    HW113171   2.899   4.455   4.896  1.5412 -2.4112  0.1689
 2403SOL    HW213172   2.913   4.518   4.759 -1.2402 -1.5885  0.2109
 2404SOL     OW13173   0.547   2.259   8.218  0.0618 -0.3016  0.2066
 2404SOL    HW113174   0.639   2.281   8.204 -0.2801  1.8651  0.9305
 2404SOL    HW213175   0.548   2.182   8.274  1.4349 -0.0122  0.5947
 2405SOL     OW13176   0.899   5.163   5.362 -0.3199  0.7822  0.3156
 2405SOL    HW113177   0.932   5.245   5.324 -0.6920  1.7619  1.9787
 2405SOL    HW213178   0.844   5.125   5.294  0.5081  1.4999 -0.7857
 2406SOL     OW13179   7.399   2.848   7.186  0.3945  0.1499 -0.1718
 2406SOL    HW113180   7.323   2.792   7.168  0.2376  0.7058 -1.3354
 2406SOL    HW213181   7.362   2.925   7.230  0.6987 -0.9164  2.1224
 2407SOL     OW13182   9.334   8.919   3.517  0.2386  0.2246 -0.3043
 2407SOL    HW113183   9.307   8.854   3.453 -1.5637  0.4641  0.1612
 2407SOL    HW213184   9.255   8.970   3.534  1.9093  3.7658 -2.0033
 2408SOL     OW13185   5.252   4.915   7.838  0.2191  0.2854 -0.4146
 2408SOL    HW113186   5.241   4.977   7.910  0.8726  2.0416 -1.7547
 2408SOL    HW213187   5.179   4.932   7.779  0.7683  0.2634 -1.1236
 2409SOL     OW13188   0.226   4.683   6.076 -0.2009  0.2043  0.2676
 2409SOL    HW113189   0.168   4.607   6.075  0.5459 -0.3778 -0.4829
 2409SOL    HW213190   0.184   4.745   6.016  0.1629 -0.3886 -0.6178
 2410SOL     OW13191   8.820   4.794   6.336  0.4603 -0.3881  0.2285
 2410SOL    HW113192   8.731   4.823   6.352  0.3999 -0.7640  0.6020
 2410SOL    HW213193   8.845   4.837   6.254 -0.1474 -0.4712 -0.0066
 2411SOL     OW13194   7.277   4.877   1.612 -0.2033  0.1128  0.2549
 2411SOL    HW113195   7.205   4.834   1.659 -0.4741 -0.1215 -0.3660
 2411SOL    HW213196   7.346   4.810   1.608 -0.3035  0.0221  0.0352
 2412SOL     OW13197   4.309   6.574   4.802  0.7533  0.0158 -0.6333
 2412SOL    HW113198   4.373   6.522   4.851  0.5040  1.1132  0.9358
 2412SOL    HW213199   4.355   6.656   4.783  0.5161 -0.0217 -1.4147
 2413SOL     OW13200   8.342   6.896   5.326 -0.0164  0.3071  0.3886
 2413SOL    HW113201   8.348   6.814   5.277  0.5146 -0.5408  1.8064
 2413SOL    HW213202   8.418   6.947   5.297 -0.2083  0.2045 -0.3150
 2414SOL     OW13203   6.482   4.346   7.972 -0.3216 -0.0576  0.0860
 2414SOL    HW113204   6.431   4.276   7.932 -0.8695  1.7599 -2.6902
 2414SOL    HW213205   6.431   4.373   8.048 -0.1760 -2.4547  1.1383
 2415SOL     OW13206   7.793   3.993   8.415  0.2275 -0.1228  0.0782
 2415SOL    HW113207   7.707   4.000   8.459  0.4652 -0.7406  0.6750
 2415SOL    HW213208   7.850   4.052   8.464  0.0758  0.5255 -0.5147
 2416SOL     OW13209   5.424   5.484   1.630 -0.4391 -0.4001 -0.9102
 2416SOL    HW113210   5.484   5.426   1.583 -0.0306 -0.3098 -0.5103
 2416SOL    HW213211   5.393   5.432   1.704  0.7833  0.2432  0.0757
 2417SOL     OW13212   5.973   7.120   2.206 -0.2520 -0.3117  0.6202
 2417SOL    HW113213   5.939   7.057   2.271  0.8027 -1.3152  0.2308
 2417SOL    HW213214   6.066   7.125   2.225  0.0136 -0.3859 -0.6261
 2418SOL     OW13215   9.331   2.571   7.559  0.1503 -0.0434  0.1545
 2418SOL    HW113216   9.330   2.666   7.544 -0.4392 -0.0465  0.1479
 2418SOL    HW213217   9.401   2.557   7.622 -1.2542  0.6843  1.9706
 2419SOL     OW13218   2.807   6.399   1.518 -0.0135  0.1981 -0.0507
 2419SOL    HW113219   2.716   6.369   1.510  0.4089 -0.9160 -0.9481
 2419SOL    HW213220   2.844   6.343   1.587  0.5493 -0.8472 -1.1573
 2420SOL     OW13221   8.931   4.238   7.484 -0.6144 -0.4432 -0.5961
 2420SOL    HW113222   8.994   4.213   7.552  1.3138  0.5879 -1.8888
 2420SOL    HW213223   8.855   4.183   7.500  0.9105 -2.3271  0.6019
 2421SOL     OW13224   2.705   5.666   1.454  0.2836 -0.1511 -0.0209
 2421SOL    HW113225   2.682   5.733   1.390 -0.1513  0.0181  0.3071
 2421SOL    HW213226   2.664   5.586   1.421 -0.0671 -0.0318  0.1185
 2422SOL     OW13227   6.623   2.703   2.280 -0.0091 -0.0016 -0.3731
 2422SOL    HW113228   6.534   2.738   2.287 -0.0557 -0.2548  0.3396
 2422SOL    HW213229   6.652   2.692   2.371 -0.5885 -3.3361 -0.4823
 2423SOL     OW13230   2.931   8.359   8.517 -0.0393  0.2614 -0.3692
 2423SOL    HW113231   2.960   8.447   8.495  2.3917 -0.4200 -0.2017
 2423SOL    HW213232   2.909   8.318   8.433  2.1473 -0.0082 -0.8738
 2424SOL     OW13233   1.330   7.910   6.158  0.3939 -0.4288 -0.8966
 2424SOL    HW113234   1.316   8.004   6.174  1.2133  0.1079 -2.9856
 2424SOL    HW213235   1.276   7.866   6.224 -0.1289  1.5027  0.0392
 2425SOL     OW13236   9.263   4.756   6.188  0.2145 -0.6268 -0.4865
 2425SOL    HW113237   9.192   4.694   6.204 -1.3090  1.0400 -0.4974
 2425SOL    HW213238   9.327   4.736   6.256 -0.9140 -1.2385  0.4494
 2426SOL     OW13239   1.868   3.616   4.949  0.7113  0.0746  0.3725
 2426SOL    HW113240   1.825   3.660   4.876  2.5887 -2.0935 -2.2655
 2426SOL    HW213241   1.952   3.662   4.959  1.2248 -0.7186 -0.1184
 2427SOL     OW13242   9.153   3.201   3.257  0.0435  0.5338  0.6766
 2427SOL    HW113243   9.196   3.283   3.230  0.5223  0.1669  0.3030
 2427SOL    HW213244   9.085   3.188   3.191  0.4043  0.2857  0.3483
 2428SOL     OW13245   3.052   0.527   5.887 -0.4423  0.0025 -0.1061
 2428SOL    HW113246   2.988   0.591   5.917  0.2859  1.2476 -1.1012
 2428SOL    HW213247   3.123   0.579   5.849  0.0686 -1.3870 -1.1681
 2429SOL     OW13248   8.035   1.411   5.677 -0.3133 -0.0175 -0.3575
 2429SOL    HW113249   8.050   1.503   5.699 -0.1893 -0.1926  0.3181
 2429SOL    HW213250   8.052   1.364   5.759  0.4447 -0.7275 -0.8998
 2430SOL     OW13251   6.209   1.713   1.224 -0.5929  0.1989  0.0282
 2430SOL    HW113252   6.232   1.774   1.153  1.1605 -0.0092  0.3597
 2430SOL    HW213253   6.223   1.763   1.304  0.8112 -0.5829  0.3023
 2431SOL     OW13254   3.034   0.243   4.729  0.3969 -0.7955 -0.5404
 2431SOL    HW113255   2.982   0.231   4.808 -1.8704  0.1554 -1.8036
 2431SOL    HW213256   3.049   0.154   4.696 -2.1795 -1.0643 -1.1766
 2432SOL     OW13257   2.157   9.181   9.032 -0.0467 -0.3684  0.1697
 2432SOL    HW113258   2.181   9.153   9.120  1.2168  2.6856  0.9304
 2432SOL    HW213259   2.203   9.120   8.974 -0.8903 -2.4289  1.5335
 2433SOL     OW13260   6.729   1.992   9.097  0.0101 -0.3685  0.2378
 2433SOL    HW113261   6.681   1.978   9.179 -0.5069 -1.5276 -0.2532
 2433SOL    HW213262   6.789   1.919   9.091 -0.1533 -0.4469 -0.5610
 2434SOL     OW13263   5.673   3.096   4.109 -0.2519  0.4670  0.8960
 2434SOL    HW113264   5.685   3.134   4.022 -1.8037  1.5013  1.0866
 2434SOL    HW213265   5.605   3.030   4.097  0.8561 -0.7391  1.0040
 2435SOL     OW13266   2.902   2.220   7.562 -0.0878  0.1268 -0.2077
 2435SOL    HW113267   2.885   2.314   7.551  2.2205  0.8483  1.5478
 2435SOL    HW213268   2.967   2.199   7.495  1.5188  0.5256  1.1651
 2436SOL     OW13269   1.356   9.138   7.599 -0.2558 -0.2050 -0.1856
 2436SOL    HW113270   1.262   9.121   7.591 -0.4020  1.0558 -1.3728
 2436SOL    HW213271   1.383   9.167   7.512  1.0805  0.2407  0.3541
 2437SOL     OW13272   6.168   6.671   7.469 -0.7413 -0.3593  0.0011
 2437SOL    HW113273   6.256   6.633   7.456 -0.2750  0.9919 -1.0118
 2437SOL    HW213274   6.114   6.596   7.496  1.0086 -0.9602  2.1636
 2438SOL     OW13275   6.282   2.649   4.101  0.2713 -0.0894  0.1152
 2438SOL    HW113276   6.265   2.576   4.042  0.2988 -0.5244  0.6443
 2438SOL    HW213277   6.244   2.725   4.056  0.2590 -0.4179 -0.4430
 2439SOL     OW13278   8.827   0.037   0.614 -0.2844 -0.2940 -0.2844
 2439SOL    HW113279   8.853   0.024   0.523  1.3818 -0.7707  0.2258
 2439SOL    HW213280   8.803  -0.051   0.645 -1.7527  0.0016 -0.4909
 2440SOL     OW13281   0.480   2.823   7.754  0.1089  0.2183  0.1106
 2440SOL    HW113282   0.449   2.776   7.832  0.2355 -1.4359 -0.7923
 2440SOL    HW213283   0.405   2.821   7.694  0.5439 -0.0021 -0.4336
 2441SOL     OW13284   0.301   7.958   2.628 -0.7337  0.2471  0.3334
 2441SOL    HW113285   0.210   7.980   2.651 -0.3176  2.9918 -0.1963
 2441SOL    HW213286   0.293   7.886   2.565 -2.3880 -0.9691  1.8494
 2442SOL     OW13287   1.379   5.293   1.733 -0.1208 -0.0677 -0.2078
 2442SOL    HW113288   1.427   5.371   1.761 -1.2229 -0.3081  2.6616
 2442SOL    HW213289   1.291   5.324   1.714  0.0128 -0.2968 -1.2535
 2443SOL     OW13290   4.644   6.824   0.433 -0.3690  0.1469  0.3886
 2443SOL    HW113291   4.569   6.771   0.461  0.0795 -1.3815 -1.1130
 2443SOL    HW213292   4.669   6.786   0.348  0.7906  1.9794 -0.1350
 2444SOL     OW13293   8.163   0.278   1.282  0.1559  0.2287 -0.0707
 2444SOL    HW113294   8.120   0.236   1.208  0.2738 -0.2972  0.1530
 2444SOL    HW213295   8.176   0.369   1.254  0.4032 -0.0198 -0.7812
 2445SOL     OW13296   7.922   1.856   7.637  0.2100  0.6559 -0.0857
 2445SOL    HW113297   7.928   1.773   7.589  0.3578  0.1104  0.8397
 2445SOL    HW213298   7.928   1.924   7.570 -0.0932 -0.0863 -0.8792
 2446SOL     OW13299   3.206   1.203   1.015  0.3511 -0.4912 -0.0280
 2446SOL    HW113300   3.233   1.146   1.087 -0.8006  0.2757  1.0503
 2446SOL    HW213301   3.283   1.259   1.000  0.0769  0.4814  1.8001
 2447SOL     OW13302   0.902   3.222   2.426  0.3930  0.2740 -0.4572
 2447SOL    HW113303   0.937   3.156   2.485  0.8597  0.9729  0.0716
 2447SOL    HW213304   0.978   3.274   2.399 -0.1921  1.9662  0.9101
 2448SOL     OW13305   5.195   2.041   2.248 -0.7362  0.1055  0.1824
 2448SOL    HW113306   5.218   2.118   2.196  1.4205  0.4520  1.5023
 2448SOL    HW213307   5.252   1.972   2.213 -2.1350 -0.7247 -0.5111
 2449SOL     OW13308   1.415   5.058   4.388  0.1166 -0.6431  0.1218
 2449SOL    HW113309   1.424   5.129   4.452  0.5629 -0.0316 -0.5932
 2449SOL    HW213310   1.323   5.062   4.361  0.4570  0.6521 -0.9879
 2450SOL     OW13311   5.905   0.155   5.128 -0.0795 -0.7659 -0.2945
 2450SOL    HW113312   5.986   0.191   5.094 -0.2047  1.6684  1.7068
 2450SOL    HW213313   5.899   0.067   5.090  2.5387 -0.3280 -1.8973
 2451SOL     OW13314   0.665   0.030   1.498 -0.3147 -0.0840 -0.4579
 2451SOL    HW113315   0.602   0.060   1.564 -0.3475 -1.1957  0.0405
 2451SOL    HW213316   0.746   0.076   1.519 -0.2745 -0.5666  0.4887
 2452SOL     OW13317   4.662   8.040   8.678 -0.1905  0.4656 -0.1786
 2452SOL    HW113318   4.635   8.068   8.590 -2.9896  0.6180  0.6488
 2452SOL    HW213319   4.602   8.084   8.737  0.9631 -0.4623  1.7756
 2453SOL     OW13320   1.384   1.235   3.276  0.3589  0.1610 -0.3390
 2453SOL    HW113321   1.293   1.205   3.281  0.2242  0.4440 -0.9691
 2453SOL    HW213322   1.379   1.318   3.228  1.0591 -0.3134 -1.2480
 2454SOL     OW13323   7.448   3.524   1.248  0.6252  0.0933 -0.2204
 2454SOL    HW113324   7.384   3.453   1.247 -0.2845  0.8925 -1.2309
 2454SOL    HW213325   7.519   3.493   1.192 -1.5774  1.4767 -4.2091
 2455SOL     OW13326   8.896   0.400   6.981 -0.8262  0.8054  0.1870
 2455SOL    HW113327   8.806   0.434   6.985 -0.7889  1.1034 -0.9504
 2455SOL    HW213328   8.951   0.476   7.003 -0.8429  0.7224  0.5117
 2456SOL     OW13329   7.443   2.113   4.303 -0.0512 -0.4292  0.1941
 2456SOL    HW113330   7.534   2.141   4.313 -0.0883  0.1198 -0.9019
 2456SOL    HW213331   7.392   2.192   4.321 -0.2954 -0.6087  0.3003
 2457SOL     OW13332   8.645   1.690   4.273 -0.2364  0.4844  0.5085
 2457SOL    HW113333   8.672   1.624   4.208  0.4978 -0.9357  2.1848
 2457SOL    HW213334   8.701   1.765   4.255 -0.9455  0.6387 -1.3134
 2458SOL     OW13335   6.870   8.639   3.877  0.0137 -0.0080  0.3550
 2458SOL    HW113336   6.918   8.714   3.843  2.5685  0.0498  3.5772
 2458SOL    HW213337   6.812   8.675   3.944 -1.1184 -0.6214 -0.2584
 2459SOL     OW13338   7.987   1.847   4.591  0.2394 -0.5728  0.2947
 2459SOL    HW113339   7.913   1.870   4.535  0.5075 -2.1612 -0.7484
 2459SOL    HW213340   8.026   1.932   4.613 -0.5411  0.1652 -0.9935
 2460SOL     OW13341   7.661   7.688   4.552  0.0487 -0.4635 -0.0083
 2460SOL    HW113342   7.635   7.653   4.638  0.5603  0.7232  0.6544
 2460SOL    HW213343   7.755   7.670   4.546  0.3326  0.7905  0.3673
 2461SOL     OW13344   8.258   3.801   0.709 -0.1131 -0.5786  0.0143
 2461SOL    HW113345   8.334   3.811   0.766  0.0557  0.8008 -0.4018
 2461SOL    HW213346   8.282   3.730   0.650  1.2796  0.4271 -0.7055
 2462SOL     OW13347   3.981   2.174   9.212 -0.0662 -0.0856 -0.0565
 2462SOL    HW113348   4.057   2.142   9.260 -0.9858 -1.0011  0.8360
 2462SOL    HW213349   3.961   2.105   9.149 -1.1783 -0.6594  0.8849
 2463SOL     OW13350   4.225   5.067   0.544  0.5097 -0.0154 -0.4490
 2463SOL    HW113351   4.243   5.002   0.476  1.0536 -0.8440  0.4525
 2463SOL    HW213352   4.171   5.020   0.608  0.3121  0.6373 -0.1271
 2464SOL     OW13353   8.997   1.337   4.743 -0.0028 -0.5555 -0.0329
 2464SOL    HW113354   9.033   1.421   4.774 -1.3493 -0.1870  0.6103
 2464SOL    HW213355   8.993   1.283   4.822  0.6591 -1.1645 -0.4081
 2465SOL     OW13356   3.655   3.827   1.465 -0.1680  0.0304 -0.9737
 2465SOL    HW113357   3.700   3.839   1.548 -0.5903  0.5307 -0.8074
 2465SOL    HW213358   3.658   3.733   1.449 -0.7935 -0.1753  0.0213
 2466SOL     OW13359   7.214   1.621   0.661 -0.0558 -0.5241 -0.1779
 2466SOL    HW113360   7.291   1.675   0.643 -0.1625 -0.2373  0.2320
 2466SOL    HW213361   7.236   1.572   0.740 -1.1817  1.3237  1.3762
 2467SOL     OW13362   4.507   5.989   0.639  0.8008  0.2458 -0.2037
 2467SOL    HW113363   4.447   5.965   0.709  2.2772  1.2188  1.4754
 2467SOL    HW213364   4.456   6.049   0.583  1.0539  3.9944  3.1355
 2468SOL     OW13365   2.131   4.188   8.058 -0.6137 -0.3535  0.3355
 2468SOL    HW113366   2.100   4.254   8.120  2.6204  1.8223 -0.1259
 2468SOL    HW213367   2.170   4.239   7.987  0.3956 -2.7851 -0.9470
 2469SOL     OW13368   6.118   8.464   4.404  0.5086  0.5697  0.3726
 2469SOL    HW113369   6.109   8.406   4.328  3.1153  0.2209  0.2311
 2469SOL    HW213370   6.197   8.433   4.448  2.7378  4.5862 -0.2865
 2470SOL     OW13371   8.486   9.256   2.005  0.3056 -0.2411  0.2873
 2470SOL    HW113372   8.395   9.286   2.002  0.2366 -0.1466  2.2136
 2470SOL    HW213373   8.524   9.301   2.080  1.0026 -2.6968  1.5199
 2471SOL     OW13374   5.844   2.100   5.090  0.4266  0.1384  0.4579
 2471SOL    HW113375   5.917   2.084   5.151  0.3275  0.3133  0.6233
 2471SOL    HW213376   5.866   2.049   5.013 -0.4907 -1.8172  1.4279
 2472SOL     OW13377   4.600   5.678   8.855 -0.0111  0.5156 -0.2081
 2472SOL    HW113378   4.682   5.725   8.840  1.5691 -1.7955  0.6214
 2472SOL    HW213379   4.612   5.594   8.809 -2.4052  0.5562 -1.0337
 2473SOL     OW13380   4.215   4.276   8.255 -0.0486  0.0880 -0.9288
 2473SOL    HW113381   4.142   4.215   8.264  0.3234 -0.1015  1.2424
 2473SOL    HW213382   4.173   4.360   8.236 -1.0641  0.3450  1.9042
 2474SOL     OW13383   2.617   5.506   3.456  0.3149 -0.5034  0.5962
 2474SOL    HW113384   2.542   5.482   3.510  0.6093 -0.3204  1.1070
 2474SOL    HW213385   2.580   5.545   3.378 -0.1229 -0.5757  0.7647
 2475SOL     OW13386   3.176   4.853   5.617  0.2031 -0.4740 -0.6043
 2475SOL    HW113387   3.141   4.941   5.598 -2.8519 -1.2298  0.7995
 2475SOL    HW213388   3.117   4.794   5.571  0.3849 -1.8600  0.8649
 2476SOL     OW13389   8.405   5.212   6.228  0.0793 -0.2179  0.1603
 2476SOL    HW113390   8.448   5.205   6.143 -0.2655 -1.7051  0.0796
 2476SOL    HW213391   8.399   5.306   6.244  0.0589  0.0923 -1.4925
 2477SOL     OW13392   8.364   1.089   7.009  0.2831 -0.0268 -0.2599
 2477SOL    HW113393   8.309   1.147   6.956 -0.2257 -0.8375 -0.6263
 2477SOL    HW213394   8.344   1.114   7.100  1.3018  1.4979 -0.4189
 2478SOL     OW13395   5.456   7.570   5.577 -0.3328 -0.3061 -0.3922
 2478SOL    HW113396   5.447   7.482   5.613 -2.0903  0.1228  0.3269
 2478SOL    HW213397   5.434   7.628   5.650  2.5443  0.8478 -0.3167
 2479SOL     OW13398   7.095   1.985   8.882 -0.4121  0.3359  0.0542
 2479SOL    HW113399   7.146   1.937   8.817 -0.2415 -0.6428  0.8917
 2479SOL    HW213400   7.140   2.069   8.891  0.1769  0.0606 -0.2961
 2480SOL     OW13401   2.762   2.096   8.717  0.1617 -0.1810 -0.0166
 2480SOL    HW113402   2.787   2.182   8.684 -0.8538  0.2063  0.2093
 2480SOL    HW213403   2.724   2.113   8.803 -1.5273 -0.6535 -0.6259
 2481SOL     OW13404   2.678   7.745   4.472  0.1859 -0.2238  0.9035
 2481SOL    HW113405   2.738   7.776   4.405  1.1664 -0.9753  1.3947
 2481SOL    HW213406   2.724   7.761   4.555 -0.6439 -0.0724  1.3502
 2482SOL     OW13407   0.592   2.486   2.825 -0.1287  0.4259  0.0147
 2482SOL    HW113408   0.554   2.543   2.758 -0.3953  0.3114  0.0661
 2482SOL    HW213409   0.548   2.402   2.813  0.8179  0.0039 -0.5546
 2483SOL     OW13410   1.522   2.346   6.741 -0.0691 -0.2683  0.2551
 2483SOL    HW113411   1.570   2.286   6.685  1.4948  1.0883  0.0597
 2483SOL    HW213412   1.564   2.431   6.726 -0.9668  0.5094  1.9198
 2484SOL     OW13413   9.025   8.768   4.619  0.0926  0.3738  0.3499
 2484SOL    HW113414   8.959   8.729   4.562  0.6882 -0.5108  0.2406
 2484SOL    HW213415   9.100   8.784   4.562  0.2702  0.5822  0.6391
 2485SOL     OW13416   7.035   1.846   0.540 -0.3286 -0.4440 -0.2140
 2485SOL    HW113417   7.075   1.927   0.569 -1.8324  0.3062 -0.1429
 2485SOL    HW213418   7.091   1.777   0.577  1.4171  0.5210 -0.9376
 2486SOL     OW13419   5.614   1.620   8.026 -0.2435 -0.5531 -0.1538
 2486SOL    HW113420   5.695   1.660   7.994  0.7564 -2.0499  0.3861
 2486SOL    HW213421   5.591   1.671   8.103 -1.1570  1.3579 -1.6191
 2487SOL     OW13422   6.019   7.572   9.300  0.3281  0.1428 -0.8519
 2487SOL    HW113423   6.026   7.557   9.206  1.1344  0.8024 -0.9084
 2487SOL    HW213424   6.067   7.654   9.315 -0.2629  0.3398  0.0502
 2488SOL     OW13425   0.514   9.190   6.492 -0.1812  0.1363  0.2797
 2488SOL    HW113426   0.466   9.118   6.450  0.0517 -0.0690  0.3659
 2488SOL    HW213427   0.468   9.203   6.576 -0.0953 -0.0520  0.3569
 2489SOL     OW13428   4.762   4.478   0.125 -0.4145  0.5742  0.3939
 2489SOL    HW113429   4.725   4.553   0.077  0.1426 -0.9263 -2.6056
 2489SOL    HW213430   4.795   4.420   0.056  1.5397 -1.2360  2.7052
 2490SOL     OW13431   3.454   6.769   6.116  0.5189 -0.5026  0.0475
 2490SOL    HW113432   3.434   6.817   6.036  0.1713 -0.9869 -0.1554
 2490SOL    HW213433   3.538   6.726   6.098 -0.4226 -2.1095 -0.7540
 2491SOL     OW13434   4.368   8.120   7.045  0.3630  0.8672 -0.7735
 2491SOL    HW113435   4.276   8.135   7.020 -0.0002 -0.6862 -0.4446
 2491SOL    HW213436   4.383   8.183   7.116 -0.9362  0.1133  0.2208
 2492SOL     OW13437   0.484   7.308   0.717 -0.3710  0.0904 -0.1924
 2492SOL    HW113438   0.444   7.378   0.768 -1.3073 -0.6787  0.1575
 2492SOL    HW213439   0.450   7.320   0.629 -0.9287 -0.2176 -0.0220
 2493SOL     OW13440   1.019   8.145   5.208 -0.3272  0.0466 -0.3980
 2493SOL    HW113441   1.034   8.228   5.252 -0.5746  0.2587 -0.7051
 2493SOL    HW213442   0.942   8.161   5.153  0.1322 -0.1201 -1.1132
 2494SOL     OW13443   2.959   5.382   3.248 -0.7409  0.3231 -0.3496
 2494SOL    HW113444   2.879   5.349   3.290  0.1211 -2.2513 -0.5738
 2494SOL    HW213445   2.977   5.464   3.294 -3.0418  0.5640  0.2627
 2495SOL     OW13446   7.134   7.721   1.416 -0.1885  0.0370 -0.1559
 2495SOL    HW113447   7.047   7.682   1.418  0.3972 -1.3396  0.4326
 2495SOL    HW213448   7.127   7.799   1.471 -0.9408 -0.3322  0.2927
 2496SOL     OW13449   8.917   7.444   5.064 -0.1181  0.9892  0.1453
 2496SOL    HW113450   8.998   7.445   5.114 -0.5986 -0.5157  1.0367
 2496SOL    HW213451   8.868   7.520   5.095 -0.5081 -0.0395  2.2015
 2497SOL     OW13452   5.371   3.188   3.268 -0.0020 -0.1113 -0.5479
 2497SOL    HW113453   5.411   3.118   3.319  0.4168  1.3902  1.3147
 2497SOL    HW213454   5.402   3.269   3.309 -1.7371  1.1668 -1.5785
 2498SOL     OW13455   7.890   3.547   6.289 -0.0335 -0.3042 -0.7557
 2498SOL    HW113456   7.947   3.621   6.311  0.4047 -0.9136  0.2042
 2498SOL    HW213457   7.809   3.588   6.258 -0.4684  0.6283  1.4234
 2499SOL     OW13458   3.610   0.584   6.149  0.2519 -0.5648 -0.4544
 2499SOL    HW113459   3.521   0.550   6.140 -0.2429  0.6529 -0.3413
 2499SOL    HW213460   3.625   0.588   6.244 -0.9500  2.5227 -0.2756
 2500SOL     OW13461   4.073   8.322   3.859  0.1993 -0.1172 -0.0422
 2500SOL    HW113462   3.978   8.326   3.866  0.1662  0.0463 -0.5565
 2500SOL    HW213463   4.094   8.376   3.783  0.9223  2.0918  1.6294
 2501SOL     OW13464   5.927   3.540   0.171  0.2400  0.1311  0.0029
 2501SOL    HW113465   5.996   3.511   0.112 -1.0382 -0.5048 -1.2452
 2501SOL    HW213466   5.918   3.634   0.154  0.2434  0.0534 -0.4365
 2502SOL     OW13467   8.286   0.767   6.442 -0.6345  0.5899  0.6307
 2502SOL    HW113468   8.281   0.740   6.350  1.0481  1.2473  0.3092
 2502SOL    HW213469   8.196   0.758   6.474 -0.6689 -3.3334  0.0148
 2503SOL     OW13470   7.868   6.804   3.106 -0.4620 -0.2514 -0.4931
 2503SOL    HW113471   7.865   6.899   3.100  0.8354 -0.0663  1.0728
 2503SOL    HW213472   7.962   6.783   3.104 -0.7165 -1.4679 -0.4283
 2504SOL     OW13473   8.415   2.839   3.008 -0.4931 -0.4761  0.1260
 2504SOL    HW113474   8.440   2.786   3.083  0.9741  0.4734  0.3726
 2504SOL    HW213475   8.321   2.850   3.015 -0.7164 -2.3456  0.4980
 2505SOL     OW13476   0.213   7.586   6.560  0.6231 -0.8807 -0.0558
 2505SOL    HW113477   0.119   7.573   6.544  0.0998  2.0504  0.1538
 2505SOL    HW213478   0.252   7.586   6.473  0.0407  0.2241 -0.3334
 2506SOL     OW13479   8.905   3.076   4.559  0.2194  0.1317 -0.2813
 2506SOL    HW113480   8.915   3.129   4.638 -1.0637 -1.0769  0.7278
 2506SOL    HW213481   8.827   3.111   4.516 -0.3842 -0.6628  0.1654
 2507SOL     OW13482   3.499   6.630   9.167 -0.5971 -0.5278  0.4974
 2507SOL    HW113483   3.557   6.585   9.105  0.1068 -1.4442  1.7881
 2507SOL    HW213484   3.435   6.563   9.193 -2.5131  0.5403 -1.1481
 2508SOL     OW13485   2.683   9.067   4.336  0.1662 -0.4440  0.3959
 2508SOL    HW113486   2.751   9.000   4.341  1.2023  0.5498  5.0647
 2508SOL    HW213487   2.731   9.148   4.321 -0.1928 -0.0080  1.4874
 2509SOL     OW13488   7.814   1.619   9.151 -0.3030  0.7806  0.2753
 2509SOL    HW113489   7.762   1.650   9.225 -2.8928 -2.9533  0.2460
 2509SOL    HW213490   7.763   1.642   9.074 -0.9298 -1.0733  0.1086
 2510SOL     OW13491   7.396   0.443   8.793 -0.0502 -0.4314 -0.0101
 2510SOL    HW113492   7.422   0.369   8.738  1.3674 -0.5830  0.8052
 2510SOL    HW213493   7.406   0.410   8.883 -1.8578 -0.0430  0.3806
 2511SOL     OW13494   7.487   6.956   5.037  0.0971  0.0148  0.5116
 2511SOL    HW113495   7.431   6.882   5.058 -1.9732  1.3655  0.0060
 2511SOL    HW213496   7.530   6.979   5.119 -0.0569 -1.0469  0.8992
 2512SOL     OW13497   8.113   7.610   3.395 -0.0600 -0.5358 -0.2652
 2512SOL    HW113498   8.058   7.678   3.434 -1.2463 -2.3541  1.4805
 2512SOL    HW213499   8.190   7.606   3.452 -0.7562 -1.6695  0.6755
 2513SOL     OW13500   9.290   9.016   2.317 -0.4850  0.5187  0.1260
 2513SOL    HW113501   9.208   9.065   2.307 -0.5144  0.2818 -0.8369
 2513SOL    HW213502   9.322   9.042   2.404 -2.0356 -0.1051  0.9168
 2514SOL     OW13503   1.234   5.724   1.176 -0.1400 -0.6928  0.3185
 2514SOL    HW113504   1.147   5.698   1.208 -0.3350  0.8330  1.0828
 2514SOL    HW213505   1.220   5.746   1.084 -1.5174  3.4791  1.3474
 2515SOL     OW13506   8.994   2.568   6.494 -0.5281  0.9170 -0.0200
 2515SOL    HW113507   9.029   2.480   6.492 -1.0870  0.6928 -1.6840
 2515SOL    HW213508   8.937   2.570   6.571 -0.9105 -0.3390 -0.2602
 2516SOL     OW13509   5.641   3.383   8.156  0.4118  0.1459 -0.4539
 2516SOL    HW113510   5.700   3.437   8.209  1.3300 -1.4966  0.2730
 2516SOL    HW213511   5.583   3.342   8.220 -1.4742  1.6009 -1.1474
 2517SOL     OW13512   5.174   1.950   5.306  0.0537  0.0377 -0.0223
 2517SOL    HW113513   5.100   1.921   5.253 -2.1738  1.3928  2.1703
 2517SOL    HW213514   5.197   2.036   5.270  1.1933 -0.7266 -1.2250
 2518SOL     OW13515   2.498   8.462   8.440 -0.2143 -0.0100  0.1138
 2518SOL    HW113516   2.534   8.392   8.495 -4.5754 -1.8081  1.0969
 2518SOL    HW213517   2.501   8.426   8.351  0.4663 -0.0580  0.1523
 2519SOL     OW13518   0.664   7.398   5.349  0.0611  0.0020  0.0700
 2519SOL    HW113519   0.591   7.439   5.396 -0.6066 -0.0199 -0.9154
 2519SOL    HW213520   0.740   7.414   5.405 -0.7531 -0.3138  1.3124
 2520SOL     OW13521   9.246   5.972   7.256  0.0076  0.6081 -0.2630
 2520SOL    HW113522   9.338   5.952   7.238  0.2481  0.8947  0.5967
 2520SOL    HW213523   9.235   6.063   7.231  0.2006  0.8449  0.4954
 2521SOL     OW13524   1.043   9.349   7.137  0.1014 -0.8039 -0.4442
 2521SOL    HW113525   1.048   9.321   7.229 -0.7113 -1.9490 -0.7202
 2521SOL    HW213526   0.982   9.287   7.097  1.2347 -0.9754 -1.9963
 2522SOL     OW13527   1.403   4.077   8.362 -0.4349 -0.0521  0.0458
 2522SOL    HW113528   1.321   4.030   8.373 -0.2575 -0.4272 -0.2372
 2522SOL    HW213529   1.445   4.072   8.448 -0.5331 -0.1920  0.0860
 2523SOL     OW13530   3.242   2.402   8.281  0.1341 -0.5616 -0.3120
 2523SOL    HW113531   3.275   2.327   8.331  0.8551 -1.0427 -1.4698
 2523SOL    HW213532   3.208   2.462   8.348 -0.2725 -1.8171  0.6538
 2524SOL     OW13533   6.901   8.166   2.352 -0.5928  0.0400 -0.5061
 2524SOL    HW113534   6.925   8.175   2.444 -1.8148 -2.4389  0.1438
 2524SOL    HW213535   6.806   8.153   2.353 -0.3933 -1.8993 -1.9306
 2525SOL     OW13536   3.814   1.361   3.246  0.8505  0.3089 -0.5959
 2525SOL    HW113537   3.791   1.345   3.155  1.7824 -2.1835 -0.4905
 2525SOL    HW213538   3.736   1.337   3.295  0.6518  0.7494 -0.6991
 2526SOL     OW13539   4.805   7.092   3.044  0.0191  0.2876 -0.8877
 2526SOL    HW113540   4.828   7.010   3.088 -0.3282  0.5895 -0.1303
 2526SOL    HW213541   4.713   7.106   3.066 -0.2328  0.3125 -1.9346
 2527SOL     OW13542   5.267   8.681   2.728  0.3741  0.5159  0.0623
 2527SOL    HW113543   5.281   8.620   2.800  1.9251  1.0262  0.2177
 2527SOL    HW213544   5.321   8.647   2.656  0.3282  1.0623 -0.2352
 2528SOL     OW13545   0.154   6.242   3.007  0.2263  0.5971  0.2198
 2528SOL    HW113546   0.222   6.261   2.943 -0.4534  0.5702 -0.5339
 2528SOL    HW213547   0.089   6.191   2.958  0.6198 -1.1809  1.4403
 2529SOL     OW13548   8.147   4.653   0.461  0.1358 -0.0558  0.4035
 2529SOL    HW113549   8.153   4.564   0.426 -1.1627  0.3227 -0.8842
 2529SOL    HW213550   8.226   4.697   0.429  0.1814 -0.4064  0.0260
 2530SOL     OW13551   4.114   8.802   2.453  0.5263  0.1003  0.3583
 2530SOL    HW113552   4.106   8.748   2.373  0.7682  1.2927 -0.4977
 2530SOL    HW213553   4.197   8.774   2.492 -0.2735 -1.5083  1.0053
 2531SOL     OW13554   2.731   5.552   0.167  0.4674 -0.3309  0.2403
 2531SOL    HW113555   2.713   5.546   0.073 -1.6121 -0.3105  0.5768
 2531SOL    HW213556   2.704   5.641   0.191  1.4642 -0.1645  0.7710
 2532SOL     OW13557   2.810   3.247   7.134  0.8781 -0.9441  0.8159
 2532SOL    HW113558   2.724   3.258   7.094  1.4753  1.4249  0.0176
 2532SOL    HW213559   2.804   3.297   7.215  1.3668 -1.1738  0.9933
 2533SOL     OW13560   4.591   1.429   5.069  0.0652 -0.6015 -0.1205
 2533SOL    HW113561   4.572   1.407   4.978 -0.7432  0.8785 -0.3467
 2533SOL    HW213562   4.686   1.427   5.075  0.2791  1.4680 -1.6339
 2534SOL     OW13563   5.341   0.028   1.338  0.8860  0.4411  0.5107
 2534SOL    HW113564   5.269   0.004   1.396  1.4002 -2.9368 -0.0725
 2534SOL    HW213565   5.420   0.007   1.388  1.5033  2.5353  0.5123
 2535SOL     OW13566   6.164   6.298   0.192 -0.6031 -0.7506  0.4686
 2535SOL    HW113567   6.117   6.335   0.267 -0.2821  0.5374  0.0556
 2535SOL    HW213568   6.133   6.207   0.187 -1.7507 -0.4193  1.2350
 2536SOL     OW13569   5.928   8.144   0.156 -0.0481  0.0281  0.2584
 2536SOL    HW113570   5.846   8.126   0.110  0.9179 -0.9483 -1.1932
 2536SOL    HW213571   5.942   8.238   0.144  0.1151 -0.1766 -1.4292
 2537SOL     OW13572   7.979   5.166   5.176 -0.3736  0.0161 -0.0738
 2537SOL    HW113573   7.886   5.151   5.157 -0.5941 -0.7728  1.4281
 2537SOL    HW213574   7.991   5.260   5.167 -1.2638  0.0915 -0.5568
 2538SOL     OW13575   4.379   7.444   8.902 -0.1626 -0.1334 -0.1532
 2538SOL    HW113576   4.469   7.456   8.931  0.3488 -0.7788 -1.3746
 2538SOL    HW213577   4.387   7.399   8.818 -1.6237 -0.0725 -0.3536
 2539SOL     OW13578   6.651   5.247   4.477 -0.2137 -0.0702 -0.3546
 2539SOL    HW113579   6.669   5.250   4.383 -0.7592 -0.9992 -0.5059
 2539SOL    HW213580   6.653   5.339   4.505  1.8456  0.0878 -0.8857
 2540SOL     OW13581   7.235   7.224   0.331 -0.5654 -0.1920 -0.0642
 2540SOL    HW113582   7.280   7.308   0.317 -1.0315 -0.3111 -2.7662
 2540SOL    HW213583   7.144   7.240   0.306 -0.9820 -1.1650  0.7536
 2541SOL     OW13584   8.501   8.170   7.403  0.2775 -0.2564  0.3441
 2541SOL    HW113585   8.541   8.249   7.368  0.2119 -0.4421 -0.1609
 2541SOL    HW213586   8.545   8.155   7.487  0.9059 -0.1784  0.0290
 2542SOL     OW13587   0.086   3.093   6.967  0.3447 -0.5911  0.4004
 2542SOL    HW113588  -0.008   3.090   6.954 -0.1126  1.9730  2.3720
 2542SOL    HW213589   0.101   3.042   7.046  0.6860 -1.2245 -0.0587
 2543SOL     OW13590   0.281   2.910   8.669 -0.4011 -0.2643 -0.3889
 2543SOL    HW113591   0.358   2.914   8.725 -0.0112  0.8628 -0.9668
 2543SOL    HW213592   0.306   2.851   8.598 -1.0768 -2.1174  0.8164
 2544SOL     OW13593   0.803   5.667   5.829 -0.4950 -0.4262 -0.3738
 2544SOL    HW113594   0.850   5.589   5.799 -1.5635 -1.2247  0.0145
 2544SOL    HW213595   0.837   5.737   5.772  1.8544 -0.7592  0.5019
 2545SOL     OW13596   8.076   8.933   2.738  0.4249  0.3076 -0.3146
 2545SOL    HW113597   8.026   8.863   2.696 -0.4530  0.9580 -0.3716
 2545SOL    HW213598   8.011   8.982   2.789  1.3120  0.0978  1.0581
 2546SOL     OW13599   5.766   1.618   2.157  0.0185  0.1850 -0.2752
 2546SOL    HW113600   5.823   1.671   2.214 -0.4911  0.0406  0.3801
 2546SOL    HW213601   5.680   1.660   2.165 -0.1486 -0.1021 -0.5970
 2547SOL     OW13602   7.328   7.169   4.199  0.4246  0.0127  0.3063
 2547SOL    HW113603   7.269   7.138   4.268  2.5685 -2.2130  1.3036
 2547SOL    HW213604   7.316   7.106   4.128 -0.7975  1.5331 -0.9045
 2548SOL     OW13605   3.058   8.119   1.963 -0.2129  0.5814 -0.0703
 2548SOL    HW113606   3.073   8.190   1.900 -0.9729  1.3488  0.5820
 2548SOL    HW213607   3.044   8.164   2.046  1.1320 -0.4225  0.7364
 2549SOL     OW13608   0.282   7.316   2.162 -0.1915 -0.2512 -0.2287
 2549SOL    HW113609   0.206   7.267   2.130 -0.5462 -0.8269  1.3941
 2549SOL    HW213610   0.282   7.301   2.256  1.5107  0.3701 -0.1000
 2550SOL     OW13611   0.153   0.788   2.822 -0.1960 -0.2627  0.1108
 2550SOL    HW113612   0.128   0.755   2.909 -0.5723 -0.7007 -0.1567
 2550SOL    HW213613   0.243   0.819   2.833 -0.4952  0.4012  0.8495
 2551SOL     OW13614   5.013   7.902   3.119 -0.0916 -0.0165 -0.2446
 2551SOL    HW113615   5.079   7.955   3.164  0.4465 -1.5076  0.7982
 2551SOL    HW213616   5.059   7.823   3.092 -1.1724 -0.5686 -0.5414
 2552SOL     OW13617   7.978   7.071   8.653  0.4278  0.4157 -0.0576
 2552SOL    HW113618   7.958   7.164   8.649  1.3675  0.6734  0.8619
 2552SOL    HW213619   7.978   7.050   8.747  1.7473 -0.1450 -0.1574
 2553SOL     OW13620   4.694   8.851   3.777 -0.5444 -0.0063  0.5252
 2553SOL    HW113621   4.774   8.882   3.735  0.4910 -1.7923  1.1032
 2553SOL    HW213622   4.710   8.861   3.871 -0.8648 -0.6665  0.6603
 2554SOL     OW13623   7.301   0.666   7.557 -0.0594 -0.2867 -0.2690
 2554SOL    HW113624   7.226   0.708   7.514  0.0811  0.5353  0.2759
 2554SOL    HW213625   7.261   0.608   7.622 -0.2417 -0.4879 -0.5580
 2555SOL     OW13626   8.268   0.275   8.960 -0.0309 -0.5553 -0.2200
 2555SOL    HW113627   8.238   0.298   9.048  0.6098 -0.7990  0.0686
 2555SOL    HW213628   8.229   0.341   8.903 -1.2521 -0.9701  0.1120
 2556SOL     OW13629   5.835   2.907   4.974 -0.4170  0.2821  0.4779
 2556SOL    HW113630   5.846   2.821   4.933 -1.6373 -0.0057  0.7085
 2556SOL    HW213631   5.882   2.967   4.917  0.8384 -0.5832  0.5494
 2557SOL     OW13632   6.474   2.899   5.842 -0.7760  0.1228  0.3394
 2557SOL    HW113633   6.444   2.824   5.893 -2.1117  1.1232  1.0915
 2557SOL    HW213634   6.552   2.867   5.796 -0.0202 -1.0801  2.3149
 2558SOL     OW13635   8.880   4.804   2.685 -0.3034  0.1587 -0.1537
 2558SOL    HW113636   8.815   4.792   2.754 -1.5764  1.8469 -1.0041
 2558SOL    HW213637   8.877   4.722   2.635  0.1937 -0.8385  1.3670
 2559SOL     OW13638   9.297   4.571   9.336  0.1393  0.4864 -0.1801
 2559SOL    HW113639   9.312   4.642   9.398 -0.0458 -0.4246  0.9228
 2559SOL    HW213640   9.256   4.614   9.260 -2.2716  1.1982  1.4285
 2560SOL     OW13641   8.985   3.127   7.321  0.3070  0.0597  0.0338
 2560SOL    HW113642   9.028   3.041   7.316 -0.9453 -0.6359  0.6570
 2560SOL    HW213643   9.030   3.181   7.256  0.4781 -1.3561 -1.0641
 2561SOL     OW13644   4.280   3.115   1.225  0.3464  0.1107  0.1424
 2561SOL    HW113645   4.194   3.078   1.208 -0.8994  0.9064  3.6742
 2561SOL    HW213646   4.270   3.209   1.206  0.5588  0.1291  0.1202
 2562SOL     OW13647   0.802   7.072   1.310  0.0025  0.1862  0.5536
 2562SOL    HW113648   0.741   6.999   1.326  0.0381 -0.0974 -0.5445
 2562SOL    HW213649   0.819   7.069   1.216  0.3873  1.3223  0.5739
 2563SOL     OW13650   2.649   3.591   8.131  0.3724 -0.4631  0.8734
 2563SOL    HW113651   2.609   3.542   8.059  0.9998 -0.4092  0.4757
 2563SOL    HW213652   2.605   3.559   8.210 -0.4436 -0.3973  0.4534
 2564SOL     OW13653   5.308   6.450   7.732  0.1815  0.4483  0.0018
 2564SOL    HW113654   5.318   6.536   7.774 -0.9728  0.9125 -0.6192
 2564SOL    HW213655   5.288   6.471   7.640 -2.3263 -0.3953  0.2888
 2565SOL     OW13656   9.160   6.773   1.042  0.0060 -0.2144 -0.5674
 2565SOL    HW113657   9.230   6.836   1.058 -0.2483  0.0671 -0.5535
 2565SOL    HW213658   9.174   6.704   1.107 -0.8005  0.7379  0.6672
 2566SOL     OW13659   9.089   4.933   4.491 -0.1431  0.2853  0.6251
 2566SOL    HW113660   9.073   4.967   4.578  1.5405 -0.5037  1.2959
 2566SOL    HW213661   9.124   4.845   4.505 -1.0683 -0.3840 -0.9108
 2567SOL     OW13662   0.095   0.226   1.401  0.2396  0.4265  0.2751
 2567SOL    HW113663   0.112   0.243   1.309  1.5087  1.3900  0.6652
 2567SOL    HW213664   0.128   0.137   1.415 -0.8564 -0.1163 -0.3868
 2568SOL     OW13665   3.069   1.786   0.414  0.4764  0.2375  0.4477
 2568SOL    HW113666   3.134   1.847   0.378 -0.2773  0.7267 -0.1136
 2568SOL    HW213667   3.073   1.711   0.355  0.1344  0.5075  0.0760
 2569SOL     OW13668   0.637   4.062   6.965 -0.3943 -0.1510 -0.7353
 2569SOL    HW113669   0.695   4.100   7.030  0.1855 -0.8914 -0.8111
 2569SOL    HW213670   0.604   4.137   6.916 -0.0235  0.3279 -0.2651
 2570SOL     OW13671   0.288   4.114   3.360  0.0855  0.1316 -0.0305
 2570SOL    HW113672   0.220   4.147   3.419  0.4228  1.6033 -0.4215
 2570SOL    HW213673   0.247   4.038   3.318 -0.7480  0.0486  0.8822
 2571SOL     OW13674   6.362   3.350   0.799  0.4972 -0.3713  0.1977
 2571SOL    HW113675   6.279   3.368   0.843  0.9311 -0.8924  1.2580
 2571SOL    HW213676   6.418   3.424   0.822  0.8398 -0.8213  0.8383
 2572SOL     OW13677   9.358   0.198   9.199 -0.0314  0.0130  0.1741
 2572SOL    HW113678   9.275   0.183   9.154 -1.1795  0.7645  1.9174
 2572SOL    HW213679   9.369   0.122   9.256 -1.1357  1.2642  2.1798
 2573SOL     OW13680   8.683   7.192   0.361 -0.2661  0.2194 -0.9509
 2573SOL    HW113681   8.618   7.259   0.381 -0.3591 -0.2492  0.4676
 2573SOL    HW213682   8.767   7.236   0.374 -0.2930 -0.3536  1.9272
 2574SOL     OW13683   3.081   1.829   1.625 -0.4316  0.1058 -0.0101
 2574SOL    HW113684   3.059   1.833   1.532  1.7057 -0.3099 -0.5730
 2574SOL    HW213685   3.176   1.824   1.628 -0.3024  2.0813  2.2968
 2575SOL     OW13686   3.566   6.098   3.950  0.0182  0.1594 -0.4276
 2575SOL    HW113687   3.626   6.088   3.876 -0.3971  0.2192 -0.7740
 2575SOL    HW213688   3.527   6.184   3.938  0.6971  0.6040  0.4217
 2576SOL     OW13689   8.776   8.663   5.950  0.3405  0.3601 -0.7112
 2576SOL    HW113690   8.774   8.744   6.000  0.9958  1.0473 -1.7594
 2576SOL    HW213691   8.851   8.614   5.986  0.0852  0.3216 -0.2318
 2577SOL     OW13692   1.637   3.057   8.942  0.4849  0.0653 -0.8600
 2577SOL    HW113693   1.700   3.065   8.871  0.1620 -1.3973 -1.3334
 2577SOL    HW213694   1.586   3.138   8.937  1.6899  0.8442 -1.0600
 2578SOL     OW13695   0.750   7.404   3.847  0.6011  0.2545 -0.5248
 2578SOL    HW113696   0.749   7.497   3.828  2.0007 -0.0640 -2.4197
 2578SOL    HW213697   0.814   7.394   3.917  0.2286  0.7343 -0.1113
 2579SOL     OW13698   2.113   8.059   1.388  0.3241 -0.4880 -0.0701
 2579SOL    HW113699   2.033   8.007   1.377  0.2921 -0.2465 -1.0143
 2579SOL    HW213700   2.082   8.143   1.424 -0.1154  0.3353 -2.2185
 2580SOL     OW13701   7.495   7.591   8.437  0.1473 -0.1044  0.5812
 2580SOL    HW113702   7.547   7.669   8.419  0.9579 -0.9892 -1.1076
 2580SOL    HW213703   7.406   7.624   8.449  0.7776  1.2581  1.9228
 2581SOL     OW13704   1.450   4.602   5.925  0.0039  0.2276  0.0327
 2581SOL    HW113705   1.488   4.648   5.851 -0.3092  0.2907 -0.0894
 2581SOL    HW213706   1.389   4.666   5.964  0.4343  0.3282  0.5635
 2582SOL     OW13707   7.741   8.985   5.490 -0.2757 -0.3565  0.0607
 2582SOL    HW113708   7.708   8.925   5.558 -0.0677  1.5086  1.9101
 2582SOL    HW213709   7.687   8.965   5.413 -1.0773 -2.0178  0.9742
 2583SOL     OW13710   3.075   5.147   5.811  0.8281  0.2340  0.2073
 2583SOL    HW113711   3.085   5.133   5.716  1.5509  0.8927  0.1763
 2583SOL    HW213712   3.007   5.085   5.837 -0.4338  1.0505 -1.0014
 2584SOL     OW13713   9.005   3.267   1.294  0.2270 -0.2920  0.7013
 2584SOL    HW113714   9.046   3.351   1.315 -0.5213 -0.0147  1.0903
 2584SOL    HW213715   8.933   3.289   1.236  0.1157 -0.6802  0.6899
 2585SOL     OW13716   9.168   1.946   2.187 -0.1116 -0.4241  0.6409
 2585SOL    HW113717   9.122   1.864   2.167 -1.3475 -0.0856  1.9601
 2585SOL    HW213718   9.210   1.970   2.104 -0.4130 -1.9556  0.0083
 2586SOL     OW13719   8.958   7.431   2.861  0.1025 -0.6636 -0.3577
 2586SOL    HW113720   8.996   7.492   2.798  0.0098  0.0808  0.2883
 2586SOL    HW213721   8.864   7.438   2.848  0.1427 -2.4108 -1.8667
 2587SOL     OW13722   6.086   6.121   4.497  0.2635 -0.1056  0.0325
 2587SOL    HW113723   6.111   6.201   4.543  0.4859 -0.1770  0.0362
 2587SOL    HW213724   6.040   6.070   4.563  2.2497 -1.0608  0.7688
 2588SOL     OW13725   1.822   3.255   5.186 -0.4844  0.6693 -0.3208
 2588SOL    HW113726   1.885   3.184   5.194 -0.7790  0.4097 -0.2994
 2588SOL    HW213727   1.807   3.264   5.092 -2.0463 -0.7190 -0.2444
 2589SOL     OW13728   1.881   9.280   7.991 -0.0253  0.0453  0.0209
 2589SOL    HW113729   1.831   9.356   8.021 -0.0139 -0.3858  1.1649
 2589SOL    HW213730   1.957   9.318   7.946 -1.2393  0.7126 -1.5993
 2590SOL     OW13731   6.761   0.704   2.828 -0.2703  0.7173 -0.5975
 2590SOL    HW113732   6.706   0.699   2.749 -0.2991 -0.4571 -0.5263
 2590SOL    HW213733   6.751   0.794   2.858 -0.7438  1.0179 -1.5955
 2591SOL     OW13734   1.312   1.467   6.459  0.5303 -0.0157 -0.2499
 2591SOL    HW113735   1.405   1.444   6.456  0.7540  0.7265  0.6861
 2591SOL    HW213736   1.298   1.501   6.547 -0.5294  0.3440 -0.5396
 2592SOL     OW13737   3.741   0.900   4.445 -0.3189 -0.0497  0.5912
 2592SOL    HW113738   3.711   0.984   4.479  0.8055  1.2461 -1.3915
 2592SOL    HW213739   3.809   0.872   4.505 -1.4339 -0.1219  1.8672
 2593SOL     OW13740   5.840   4.712   5.660 -0.4596  0.5957 -0.2126
 2593SOL    HW113741   5.916   4.658   5.682 -0.3673  0.0308 -1.7469
 2593SOL    HW213742   5.823   4.763   5.739  2.7625  2.2277 -0.3908
 2594SOL     OW13743   2.644   6.549   8.319 -0.1786 -0.0341 -0.2926
 2594SOL    HW113744   2.690   6.526   8.400  0.3344  0.3592 -0.4656
 2594SOL    HW213745   2.558   6.579   8.348 -1.3190 -3.0990 -0.1064
 2595SOL     OW13746   5.052   8.603   0.798  0.5136 -0.2310  0.3106
 2595SOL    HW113747   5.145   8.580   0.797  0.2811 -1.2792  1.0489
 2595SOL    HW213748   5.044   8.673   0.733  1.4786 -1.4541 -1.2081
 2596SOL     OW13749   6.003   2.448   3.783 -0.5786 -0.2698 -0.0516
 2596SOL    HW113750   5.946   2.502   3.838 -0.9029  0.4970 -1.1091
 2596SOL    HW213751   6.092   2.472   3.811 -0.7395 -0.6686  0.8495
 2597SOL     OW13752   8.160   8.625   1.695  0.3126 -0.0333  0.1746
 2597SOL    HW113753   8.224   8.574   1.645  2.5713  1.5352  1.3380
 2597SOL    HW213754   8.149   8.576   1.776  2.0958  0.9578  1.0746
 2598SOL     OW13755   1.951   4.935   8.657 -1.0424  0.2646 -0.2540
 2598SOL    HW113756   2.016   4.888   8.711  0.4089  0.5135 -1.7067
 2598SOL    HW213757   1.948   4.886   8.575 -2.6808  0.3119 -0.2467
 2599SOL     OW13758   5.926   2.340   4.303 -0.0739  0.1555 -0.0189
 2599SOL    HW113759   5.844   2.386   4.286  0.2416  0.9707  0.6082
 2599SOL    HW213760   5.986   2.372   4.235 -0.4650 -1.0217 -0.9660
 2600SOL     OW13761   8.985   6.321   7.853 -0.5249 -0.3095  0.2879
 2600SOL    HW113762   8.976   6.226   7.861  1.2208 -0.4185  1.4614
 2600SOL    HW213763   9.058   6.333   7.793 -0.7182  0.3063  0.1697
 2601SOL     OW13764   4.035   6.528   3.867  0.3497  0.1406 -0.2752
 2601SOL    HW113765   4.013   6.482   3.786 -1.4059  2.9247 -1.5282
 2601SOL    HW213766   4.124   6.499   3.888 -0.6068 -3.7378 -0.8522
 2602SOL     OW13767   5.153   1.492   4.563 -0.3917  0.4365  0.1552
 2602SOL    HW113768   5.208   1.443   4.501 -0.2060  0.4713  0.2929
 2602SOL    HW213769   5.073   1.441   4.569 -0.1382  0.0711  0.4136
 2603SOL     OW13770   0.336   2.714   5.800 -0.1014  0.6568  0.1948
 2603SOL    HW113771   0.249   2.700   5.765  0.7976 -1.0822 -1.5476
 2603SOL    HW213772   0.335   2.672   5.886 -1.1055  1.1344  0.4309
 2604SOL     OW13773   1.222   2.830   8.032 -0.2123 -0.6123 -0.2589
 2604SOL    HW113774   1.295   2.873   8.077  0.4479 -1.1190 -0.8211
 2604SOL    HW213775   1.151   2.893   8.037 -0.1199 -0.5864  1.3476
 2605SOL     OW13776   5.641   5.507   2.424  0.1500  0.4421  0.0975
 2605SOL    HW113777   5.595   5.451   2.361  0.3358  0.7982 -0.3557
 2605SOL    HW213778   5.600   5.593   2.414 -0.7508  0.1995  1.4244
 2606SOL     OW13779   5.809   3.481   3.231  0.3460 -0.3530  0.0197
 2606SOL    HW113780   5.834   3.550   3.169 -1.7020  0.6714  0.2694
 2606SOL    HW213781   5.892   3.448   3.264  1.4403  2.8765  0.8520
 2607SOL     OW13782   0.369   3.377   1.279  0.1886 -0.3075 -0.0259
 2607SOL    HW113783   0.436   3.442   1.298  1.6881 -1.5700 -0.8063
 2607SOL    HW213784   0.346   3.340   1.364  0.6637 -0.0308  0.2249
 2608SOL     OW13785   5.082   0.497   9.362  0.2014 -0.3253  0.4220
 2608SOL    HW113786   5.164   0.451   9.349  0.0301 -1.0472  1.7502
 2608SOL    HW213787   5.017   0.443   9.316  0.6395  1.1273 -2.1203
 2609SOL     OW13788   2.822   2.505   7.631 -0.5699 -0.7511 -0.2383
 2609SOL    HW113789   2.909   2.538   7.655  0.3138 -2.8936 -0.2807
 2609SOL    HW213790   2.765   2.536   7.702 -0.0287  1.5184 -0.7128
 2610SOL     OW13791   2.299   3.169   2.842 -0.0963  0.4954  0.1497
 2610SOL    HW113792   2.261   3.192   2.927 -1.6745 -0.3036 -0.3163
 2610SOL    HW213793   2.230   3.185   2.779  1.1955  1.4797 -1.0787
 2611SOL     OW13794   2.521   0.834   5.236  0.0129 -0.3505 -0.1250
 2611SOL    HW113795   2.501   0.799   5.323 -0.6729  2.4430  0.9314
 2611SOL    HW213796   2.435   0.846   5.195  0.2585 -0.3106 -0.6267
 2612SOL     OW13797   3.281   6.250   0.992 -0.3852 -0.4031  0.1478
 2612SOL    HW113798   3.250   6.194   0.920  0.0266 -0.4376 -0.0056
 2612SOL    HW213799   3.321   6.189   1.054 -1.4495 -0.4675  0.8013
 2613SOL     OW13800   7.992   3.889   3.312  0.2808  0.2115  0.2437
 2613SOL    HW113801   8.018   3.815   3.257  1.5721 -0.2458  1.4095
 2613SOL    HW213802   7.896   3.892   3.305  0.2617 -1.1815 -0.3159
 2614SOL     OW13803   0.837   2.372   5.648 -0.5248  0.0725  0.1219
 2614SOL    HW113804   0.890   2.436   5.601  1.2389  1.4941  3.6763
 2614SOL    HW213805   0.748   2.408   5.645 -0.6246 -0.2237 -2.4867
 2615SOL     OW13806   3.233   4.937   8.877 -0.2601  0.2502  0.3756
 2615SOL    HW113807   3.166   4.994   8.840  0.2602  0.7661  0.2163
 2615SOL    HW213808   3.210   4.849   8.845 -1.1876  0.3308  0.8081
 2616SOL     OW13809   0.344   5.913   9.039 -0.0672  0.0281  0.4528
 2616SOL    HW113810   0.374   6.004   9.044  2.5641 -0.7435  0.3239
 2616SOL    HW213811   0.322   5.890   9.129  0.2162  0.5118  0.6493
 2617SOL     OW13812   5.017   5.198   2.788 -0.1645  0.1499 -0.0496
 2617SOL    HW113813   5.061   5.128   2.740  0.3573 -0.9309  1.9198
 2617SOL    HW213814   5.080   5.269   2.790 -0.7523  0.8092 -2.1883
 2618SOL     OW13815   0.420   0.543   1.856 -0.0626  0.6159  0.3675
 2618SOL    HW113816   0.465   0.606   1.799  0.7235 -0.4286 -0.2071
 2618SOL    HW213817   0.490   0.501   1.905 -0.7071  1.2100  1.8346
 2619SOL     OW13818   2.720   7.414   9.253  0.4232 -0.6340  0.0101
 2619SOL    HW113819   2.662   7.372   9.189 -0.4068  0.9795 -0.3565
 2619SOL    HW213820   2.752   7.492   9.209  0.9783 -0.2405  1.0756
 2620SOL     OW13821   6.166   0.883   6.130  0.3853 -0.2257 -0.1254
 2620SOL    HW113822   6.209   0.910   6.211 -1.3477  0.4580  0.6201
 2620SOL    HW213823   6.132   0.965   6.093 -2.1031 -0.9099  0.4568
 2621SOL     OW13824   5.913   1.649   1.873 -0.3157  0.0004  0.4787
 2621SOL    HW113825   5.988   1.591   1.886 -0.1469  0.6231  2.6517
 2621SOL    HW213826   5.848   1.620   1.938 -1.7047 -0.0594 -0.8600
 2622SOL     OW13827   7.217   5.499   5.475  0.2160  0.2054 -0.3358
 2622SOL    HW113828   7.270   5.566   5.518 -0.5697  1.7576 -1.6618
 2622SOL    HW213829   7.152   5.474   5.541  0.3686  0.9309  0.1024
 2623SOL     OW13830   4.956   8.510   0.062 -0.0216 -0.5034 -0.9623
 2623SOL    HW113831   4.949   8.538   0.153  1.7540  0.4687 -1.0922
 2623SOL    HW213832   4.865   8.500   0.033 -0.7446  2.5555 -0.1124
 2624SOL     OW13833   3.445   8.201   7.294 -0.0753 -0.1595  0.4360
 2624SOL    HW113834   3.355   8.179   7.269 -0.2847  0.7936  0.3076
 2624SOL    HW213835   3.476   8.257   7.223  0.4301 -0.0285  0.7583
 2625SOL     OW13836   2.583   6.854   7.189 -0.3898  0.2328  0.1930
 2625SOL    HW113837   2.658   6.878   7.243 -0.2962  0.8299 -0.1876
 2625SOL    HW213838   2.616   6.859   7.099 -0.8163  0.2431  0.0340
 2626SOL     OW13839   8.293   1.817   2.653 -0.1089 -0.2640  0.0175
 2626SOL    HW113840   8.319   1.725   2.654  0.1851 -0.1817  0.0225
 2626SOL    HW213841   8.322   1.850   2.568  2.8067  0.6693  1.2439
 2627SOL     OW13842   7.745   7.348   6.441  0.2989  0.3975  0.3376
 2627SOL    HW113843   7.696   7.344   6.523 -0.8414  1.5761 -0.2519
 2627SOL    HW213844   7.816   7.410   6.459 -0.4826  1.3621  0.1948
 2628SOL     OW13845   5.011   7.014   5.893  0.4935  0.4013  0.7825
 2628SOL    HW113846   5.035   7.027   5.984  0.4487 -0.1264  0.8698
 2628SOL    HW213847   5.040   7.094   5.849  0.2693  0.7722  1.3038
 2629SOL     OW13848   0.576   9.258   0.039  0.0185 -0.5807  0.2354
 2629SOL    HW113849   0.534   9.203  -0.027  1.5448 -0.7097 -0.6540
 2629SOL    HW213850   0.655   9.210   0.064  1.0924  0.9103 -0.1473
 2630SOL     OW13851   5.757   7.493   3.915  0.1288  0.2584  0.5084
 2630SOL    HW113852   5.698   7.424   3.947 -0.7610  0.9996  0.4953
 2630SOL    HW213853   5.705   7.541   3.851  0.6531  1.1068  0.7123
 2631SOL     OW13854   8.846   0.428   6.645  0.6358  0.2025  0.4051
 2631SOL    HW113855   8.868   0.518   6.623  1.0639  0.0456  0.1852
 2631SOL    HW213856   8.890   0.413   6.729 -0.2484  0.5095  0.9393
 2632SOL     OW13857   4.433   0.099   9.342 -0.0437 -0.4746 -0.1859
 2632SOL    HW113858   4.437   0.159   9.267  1.6905  0.7005  0.7648
 2632SOL    HW213859   4.414   0.156   9.417 -1.5218 -1.5980  0.3272
 2633SOL     OW13860   3.035   2.049   0.218 -0.4047 -0.5653  0.3928
 2633SOL    HW113861   2.986   1.990   0.160 -2.1705 -1.2634  2.4397
 2633SOL    HW213862   3.114   2.001   0.241 -0.5072 -0.9763 -0.1127
 2634SOL     OW13863   6.393   3.000   2.528  0.5694  0.4333 -0.5114
 2634SOL    HW113864   6.386   2.923   2.472  0.4236  0.4685 -0.5425
 2634SOL    HW213865   6.474   2.987   2.577 -0.4261 -0.7063  0.9330
 2635SOL     OW13866   7.950   5.242   6.019 -0.0234 -0.1460  0.6321
 2635SOL    HW113867   7.940   5.244   5.924 -2.0826  1.2694  0.8090
 2635SOL    HW213868   8.038   5.278   6.035  1.9859 -3.8712 -0.7711
 2636SOL     OW13869   1.859   6.352   2.125  0.7101 -0.0115 -0.1656
 2636SOL    HW113870   1.793   6.292   2.159 -2.0426  1.7841 -1.9611
 2636SOL    HW213871   1.897   6.306   2.050  1.5795 -1.0384  0.8599
 2637SOL     OW13872   5.068   1.398   1.764 -0.0329  0.0211 -0.1091
 2637SOL    HW113873   5.017   1.317   1.764  0.7413 -0.4710 -0.0309
 2637SOL    HW213874   5.004   1.466   1.786 -1.1013 -0.2792 -2.0382
 2638SOL     OW13875   9.078   9.158   7.744 -0.2176  0.5242 -0.5616
 2638SOL    HW113876   9.001   9.116   7.707 -0.2646  2.1105 -2.4597
 2638SOL    HW213877   9.152   9.104   7.714 -0.5116 -0.9464  1.1892
 2639SOL     OW13878   0.884   5.410   1.144 -0.0396 -0.0769  0.6143
 2639SOL    HW113879   0.883   5.400   1.049  0.1903 -1.3398  0.7304
 2639SOL    HW213880   0.794   5.392   1.171 -0.4449  1.6853  0.5248
 2640SOL     OW13881   8.059   0.899   1.597 -0.0019  0.4228 -0.5886
 2640SOL    HW113882   8.088   0.922   1.686 -0.6389 -1.2133  0.0727
 2640SOL    HW213883   7.966   0.880   1.606  0.5133 -2.7752 -0.9327
 2641SOL     OW13884   4.010   1.350   4.410  0.6797 -0.8896  0.0568
 2641SOL    HW113885   4.054   1.291   4.472  0.7184  0.0471  0.9508
 2641SOL    HW213886   4.075   1.417   4.389  0.1947 -0.3692  0.1737
 2642SOL     OW13887   5.282   2.121   8.341  0.0209 -0.2890  0.3967
 2642SOL    HW113888   5.352   2.171   8.384 -1.2590  1.3974  0.5975
 2642SOL    HW213889   5.321   2.091   8.259  0.6602  1.6276 -0.0536
 2643SOL     OW13890   8.294   2.569   4.498 -0.4359 -0.2777 -0.3053
 2643SOL    HW113891   8.261   2.617   4.422 -0.5124  1.9896  1.0782
 2643SOL    HW213892   8.381   2.539   4.471 -0.4756  0.4717 -1.3129
 2644SOL     OW13893   0.890   5.760   0.906  0.2337 -0.0456 -0.4542
 2644SOL    HW113894   0.907   5.830   0.843  0.3962  0.3918  0.0670
 2644SOL    HW213895   0.959   5.695   0.890  1.4331  0.9238  0.4998
 2645SOL     OW13896   0.562   3.671   7.338 -0.4006 -0.2482  0.2335
 2645SOL    HW113897   0.509   3.744   7.306 -1.2097 -0.8134  0.2588
 2645SOL    HW213898   0.520   3.645   7.420  1.6706  1.2141  1.8693
 2646SOL     OW13899   0.758   0.612   8.598  0.2659 -0.3864 -0.1233
 2646SOL    HW113900   0.825   0.673   8.628  0.3499 -0.9479  0.8421
 2646SOL    HW213901   0.805   0.529   8.585 -0.2034 -0.7441  0.4172
 2647SOL     OW13902   6.569   2.282   8.857 -0.3276 -0.0179 -0.2247
 2647SOL    HW113903   6.543   2.329   8.778 -0.9747 -1.0206 -0.6228
 2647SOL    HW213904   6.637   2.338   8.896  0.9988 -0.1416 -2.1860
 2648SOL     OW13905   9.290   3.606   5.735 -0.2214 -0.0871  0.0895
 2648SOL    HW113906   9.273   3.520   5.697 -2.6349  0.1993  0.3475
 2648SOL    HW213907   9.299   3.589   5.829 -0.4770 -0.1040  0.1129
 2649SOL     OW13908   9.272   3.943   1.555  0.1363 -0.3733 -0.3766
 2649SOL    HW113909   9.363   3.972   1.554 -0.3130  1.1775 -0.5575
 2649SOL    HW213910   9.222   4.023   1.538 -1.1623 -1.5663 -2.7376
 2650SOL     OW13911   3.559   0.877   9.145  0.2807  0.5965 -0.4712
 2650SOL    HW113912   3.620   0.804   9.143 -1.7615 -1.1897 -1.3208
 2650SOL    HW213913   3.519   0.878   9.058 -2.3265  0.3481  0.6323
 2651SOL     OW13914   7.478   5.638   1.857 -0.5918 -0.2791 -0.0386
 2651SOL    HW113915   7.534   5.643   1.779  0.0749 -1.3193  0.3490
 2651SOL    HW213916   7.461   5.545   1.869 -0.5964 -0.1544  1.1111
 2652SOL     OW13917   7.713   8.776   2.449  0.7470 -0.5007  0.1977
 2652SOL    HW113918   7.708   8.820   2.365  1.7355 -0.5195  0.1121
 2652SOL    HW213919   7.714   8.683   2.427  2.0473 -0.4903  0.1445
 2653SOL     OW13920   1.516   4.001   8.113  0.1651  0.8625 -0.6577
 2653SOL    HW113921   1.502   4.025   8.204  0.8383  1.7847 -0.7876
 2653SOL    HW213922   1.590   3.940   8.115 -0.7449 -0.2604 -0.4549
 2654SOL     OW13923   3.681   7.451   7.675 -0.3325 -0.0402 -0.0312
 2654SOL    HW113924   3.769   7.412   7.673  0.2711  1.2974 -1.1718
 2654SOL    HW213925   3.682   7.514   7.603 -2.1780  0.1382  0.0748
 2655SOL     OW13926   5.065   6.624   8.436  0.5145  0.5039 -0.0752
 2655SOL    HW113927   4.987   6.611   8.490  0.4929  1.0600  0.0335
 2655SOL    HW213928   5.117   6.546   8.450  0.4170  0.5547  0.6065
 2656SOL     OW13929   7.095   0.474   9.075  0.1410  0.2254  0.0649
 2656SOL    HW113930   7.064   0.394   9.117  1.7612 -0.9196 -0.8502
 2656SOL    HW213931   7.172   0.500   9.126  0.7067  0.1591 -0.7393
 2657SOL     OW13932   7.023   3.371   3.271  0.4861 -0.4915  0.7818
 2657SOL    HW113933   7.062   3.450   3.307 -0.5917  0.2076  0.4539
 2657SOL    HW213934   7.070   3.355   3.190  0.8790 -0.3358  0.9793
 2658SOL     OW13935   7.663   7.613   8.161  0.0856  0.4127 -0.0714
 2658SOL    HW113936   7.585   7.609   8.105 -0.0471 -3.3232  0.0881
 2658SOL    HW213937   7.644   7.680   8.226 -2.0307  1.1108 -1.3325
 2659SOL     OW13938   1.191   1.289   8.826  0.4935  0.0275 -0.2788
 2659SOL    HW113939   1.272   1.254   8.790 -0.6256 -0.2186 -2.7685
 2659SOL    HW213940   1.162   1.354   8.762  0.5102  2.8542  2.3020
 2660SOL     OW13941   1.654   1.280   8.615  0.2198  0.1077 -0.8870
 2660SOL    HW113942   1.682   1.363   8.653 -0.5581  0.2565 -0.6218
 2660SOL    HW213943   1.567   1.265   8.651  1.1557 -1.8790  0.7310
 2661SOL     OW13944   4.807   4.295   1.088 -0.2340 -0.1496 -0.3932
 2661SOL    HW113945   4.813   4.218   1.032 -0.7957  0.3037 -1.1024
 2661SOL    HW213946   4.756   4.266   1.164  0.3184 -0.7033 -0.2235
 2662SOL     OW13947   0.270   3.376   0.116 -0.4676  0.0478 -0.1425
 2662SOL    HW113948   0.321   3.353   0.039 -0.3925  0.4478 -0.2125
 2662SOL    HW213949   0.254   3.470   0.108  1.7124  0.6548  1.5825
 2663SOL     OW13950   6.879   8.778   6.076  0.3399 -0.4044  0.1479
 2663SOL    HW113951   6.798   8.762   6.028 -0.3417 -2.4655  1.8190
 2663SOL    HW213952   6.854   8.838   6.146  0.3886 -0.5742  0.3120
 2664SOL     OW13953   4.061   5.066   2.282  0.3353  0.0102  0.4448
 2664SOL    HW113954   3.967   5.069   2.302 -0.8071  1.8341 -3.9554
 2664SOL    HW213955   4.094   5.150   2.314  0.1545 -0.0369  0.7661
 2665SOL     OW13956   4.383   8.213   3.313 -0.7036  0.1080 -0.3743
 2665SOL    HW113957   4.435   8.179   3.386 -0.3467  0.5699 -0.4125
 2665SOL    HW213958   4.364   8.303   3.337  0.1701  0.5452 -1.2597
 2666SOL     OW13959   8.242   4.909   7.186 -0.2148 -0.6139  0.0247
 2666SOL    HW113960   8.201   4.977   7.239 -0.3090 -1.6248  1.3231
 2666SOL    HW213961   8.176   4.886   7.121  0.1190  1.0521 -0.9590
 2667SOL     OW13962   4.104   3.780   7.790 -0.3826 -0.5903  0.4879
 2667SOL    HW113963   4.044   3.727   7.738  1.1854 -2.7585  0.7452
 2667SOL    HW213964   4.087   3.756   7.880 -0.8228  0.6803  0.7614
 2668SOL     OW13965   5.098   8.746   7.711 -0.2220 -0.2955  0.2099
 2668SOL    HW113966   5.015   8.707   7.686 -1.4838  1.5875  1.1647
 2668SOL    HW213967   5.164   8.682   7.686 -1.6956 -0.7321 -3.1068
 2669SOL     OW13968   7.214   7.158   7.081  0.4587 -0.0826  0.6307
 2669SOL    HW113969   7.211   7.207   6.999  1.9548 -2.4347 -0.9836
 2669SOL    HW213970   7.298   7.181   7.120 -0.1772  0.9023  1.4736
 2670SOL     OW13971   0.734   0.761   8.982  0.3379 -0.0186  0.6378
 2670SOL    HW113972   0.798   0.821   8.943 -1.6503  0.9345 -1.3546
 2670SOL    HW213973   0.651   0.784   8.941 -1.0359 -2.2749  1.9383
 2671SOL     OW13974   1.012   2.326   6.385  0.4300 -0.3153  0.3786
 2671SOL    HW113975   1.070   2.254   6.360  0.5547 -0.2571  0.4990
 2671SOL    HW213976   0.941   2.323   6.321  0.1109 -0.9292  0.7542
 2672SOL     OW13977   1.700   3.613   0.042  0.3173 -0.2217  0.0755
 2672SOL    HW113978   1.611   3.609   0.008 -0.2923 -0.8928  1.6858
 2672SOL    HW213979   1.754   3.581  -0.030 -0.8810 -1.2596 -0.3992
 2673SOL     OW13980   0.562   3.545   2.176 -0.1026 -0.5673  0.0275
 2673SOL    HW113981   0.643   3.550   2.227 -1.0237 -0.0254  1.4762
 2673SOL    HW213982   0.513   3.624   2.200 -1.3403 -1.1988 -0.3427
 2674SOL     OW13983   7.309   7.803   3.402  0.5000  0.2047  0.4080
 2674SOL    HW113984   7.349   7.759   3.476  0.1459  1.2114  1.2259
 2674SOL    HW213985   7.220   7.823   3.431  0.3601  0.6211 -0.2824
 2675SOL     OW13986   5.772   0.359   7.986  0.2899  0.9292  0.2580
 2675SOL    HW113987   5.772   0.455   7.984 -2.3412  0.9969 -0.6671
 2675SOL    HW213988   5.680   0.335   8.003  0.7755 -1.4290 -0.0842
 2676SOL     OW13989   8.192   2.702   6.272 -0.1008 -0.3110 -0.3279
 2676SOL    HW113990   8.249   2.677   6.345 -0.5177  0.6636  0.3417
 2676SOL    HW213991   8.105   2.708   6.310 -0.4686 -0.6321 -1.0992
 2677SOL     OW13992   1.905   1.536   7.932  0.4500  0.5961 -0.0366
 2677SOL    HW113993   1.965   1.598   7.973  0.8981 -0.3749  0.8551
 2677SOL    HW213994   1.899   1.464   7.996  0.8002 -0.7622 -1.4655
 2678SOL     OW13995   1.608   5.503   5.005  0.0714  0.1646  0.7656
 2678SOL    HW113996   1.570   5.462   4.928  1.2895 -2.3872  1.4326
 2678SOL    HW213997   1.535   5.549   5.046 -0.9711  0.1241 -0.9610
 2679SOL     OW13998   2.733   2.221   0.918  0.0476 -0.4936 -0.3513
 2679SOL    HW113999   2.752   2.139   0.872  2.5285 -1.0263  1.4146
 2679SOL    HW214000   2.793   2.221   0.993 -0.0864  2.8004 -0.0903
 2680SOL     OW14001   2.151   6.836   3.637 -0.1083  0.1967  0.0117
 2680SOL    HW114002   2.243   6.860   3.652 -0.0621 -0.8360  1.5352
 2680SOL    HW214003   2.102   6.892   3.697 -0.1698 -1.7270  1.8575
 2681SOL     OW14004   6.778   1.267   4.531 -0.5747 -0.0521 -0.3826
 2681SOL    HW114005   6.829   1.195   4.567  1.0073  0.3889 -1.6330
 2681SOL    HW214006   6.779   1.334   4.599  1.1147  0.1952 -0.5991
 2682SOL     OW14007   9.097   4.818   2.009  0.2425  0.8157  0.5950
 2682SOL    HW114008   9.038   4.749   2.038  1.2658  0.0846  0.9933
 2682SOL    HW214009   9.057   4.852   1.929 -1.3239  1.1559  1.4757
 2683SOL     OW14010   0.451   8.407   9.350  0.4552  0.2643 -0.3698
 2683SOL    HW114011   0.427   8.496   9.321 -0.6287 -0.2139 -1.0020
 2683SOL    HW214012   0.498   8.370   9.275 -0.0950 -0.0805 -0.5502
 2684SOL     OW14013   9.264   0.965   1.702  0.4472 -0.2726 -0.3787
 2684SOL    HW114014   9.351   0.995   1.677  1.4108 -2.0669  0.5878
 2684SOL    HW214015   9.244   1.015   1.781  0.1638  0.8374 -1.1420
 2685SOL     OW14016   8.931   9.239   3.049  0.1483  0.2042  0.0541
 2685SOL    HW114017   9.021   9.260   3.074  0.6171  0.0743 -1.4377
 2685SOL    HW214018   8.908   9.165   3.106  0.4847  1.0743  1.3755
 2686SOL     OW14019   3.987   2.648   0.959 -0.3518 -0.0769  0.6700
 2686SOL    HW114020   3.963   2.733   0.996  0.7590 -0.1402  1.5918
 2686SOL    HW214021   3.904   2.609   0.930 -1.0037  0.8140  1.3101
 2687SOL     OW14022   3.426   9.102   2.511  0.0493  0.2231 -0.0367
 2687SOL    HW114023   3.478   9.040   2.562 -0.1134  0.8694  0.9505
 2687SOL    HW214024   3.477   9.183   2.511  1.7618 -0.6356 -3.9021
 2688SOL     OW14025   6.784   8.933   1.520 -0.0232 -0.0230 -0.0672
 2688SOL    HW114026   6.689   8.925   1.508 -0.3901  0.7397  1.8893
 2688SOL    HW214027   6.797   9.023   1.548  0.9887 -0.6821  1.7729
 2689SOL     OW14028   0.893   7.788   5.101  0.1879 -0.2260  0.3737
 2689SOL    HW114029   0.886   7.744   5.185 -0.4161  0.2871  0.5922
 2689SOL    HW214030   0.986   7.812   5.095  0.8367 -2.5994 -0.3126
 2690SOL     OW14031   7.724   4.765   8.294  0.2045  0.0687  0.4160
 2690SOL    HW114032   7.761   4.818   8.223 -1.6671  0.4786 -0.3059
 2690SOL    HW214033   7.735   4.675   8.264 -0.1259  0.2211 -0.1881
 2691SOL     OW14034   0.520   0.388   6.686 -0.5886  0.4610 -0.6121
 2691SOL    HW114035   0.615   0.396   6.694 -0.5071 -1.3552  1.1885
 2691SOL    HW214036   0.489   0.477   6.671  1.3668  1.1252 -0.9549
 2692SOL     OW14037   5.121   9.226   4.879 -0.6122  0.3793 -0.3617
 2692SOL    HW114038   5.137   9.200   4.970 -0.4484  1.8477  0.0454
 2692SOL    HW214039   5.156   9.314   4.872 -1.1080  0.4981 -1.7137
 2693SOL     OW14040   1.416   7.546   1.183  0.9466  0.3887 -0.0964
 2693SOL    HW114041   1.371   7.611   1.238  1.4940 -0.2942  1.2234
 2693SOL    HW214042   1.500   7.533   1.227  2.9056  2.2939 -2.9679
 2694SOL     OW14043   1.433   3.349   2.716 -0.0201  0.4367  0.1038
 2694SOL    HW114044   1.403   3.258   2.712  1.0536  0.0861 -0.1975
 2694SOL    HW214045   1.453   3.363   2.809 -0.4939  0.4728  0.2032
 2695SOL     OW14046   7.543   6.410   6.775 -0.2133  0.2743  0.0891
 2695SOL    HW114047   7.603   6.403   6.849 -1.4247  0.8072  1.1622
 2695SOL    HW214048   7.588   6.466   6.712  0.2989  0.9077  0.9963
 2696SOL     OW14049   2.389   2.211   5.445 -0.1850  0.1634 -0.3484
 2696SOL    HW114050   2.416   2.119   5.445  0.0198  0.1824 -2.4638
 2696SOL    HW214051   2.421   2.245   5.528  3.5357 -0.6228 -1.3067
 2697SOL     OW14052   0.296   3.428   0.937  0.0407 -0.0174  0.0894
 2697SOL    HW114053   0.360   3.358   0.947 -0.3523 -0.3793  0.1010
 2697SOL    HW214054   0.310   3.460   0.848 -1.3144 -1.6677 -0.7710
 2698SOL     OW14055   4.015   3.223   8.946 -0.1934  0.3518  0.3667
 2698SOL    HW114056   4.056   3.194   8.865  0.8520 -0.7257  1.2379
 2698SOL    HW214057   3.984   3.143   8.987 -0.0116  0.7812  1.3854
 2699SOL     OW14058   6.561   8.132   0.220 -0.4860 -0.4550  0.5414
 2699SOL    HW114059   6.600   8.210   0.180  1.4812 -0.4104  2.3251
 2699SOL    HW214060   6.467   8.143   0.208 -0.1586  1.2181 -0.9402
 2700SOL     OW14061   1.696   8.793   7.694  0.5469 -0.4275 -0.1341
 2700SOL    HW114062   1.607   8.802   7.729  1.3287 -1.3494  2.3077
 2700SOL    HW214063   1.728   8.883   7.687  0.5158 -0.1714  2.2043
 2701SOL     OW14064   3.730   8.370   8.270 -0.3692 -0.0337 -0.1411
 2701SOL    HW114065   3.647   8.368   8.222 -1.2141  0.2712  1.2549
 2701SOL    HW214066   3.718   8.439   8.335  0.9881  0.0003  0.0894
 2702SOL     OW14067   4.275   6.276   2.263  0.0151 -0.2213  0.0685
 2702SOL    HW114068   4.184   6.273   2.232 -0.3393 -0.0447  1.0501
 2702SOL    HW214069   4.328   6.266   2.184 -0.8520  0.4372 -0.6169
 2703SOL     OW14070   4.811   5.661   4.140 -0.1699  0.2949 -0.5327
 2703SOL    HW114071   4.779   5.608   4.214  1.3659 -0.7280 -0.5634
 2703SOL    HW214072   4.731   5.690   4.096 -1.1101  0.1891  1.0029
 2704SOL     OW14073   9.174   1.300   0.972  0.7306  0.2995  0.4446
 2704SOL    HW114074   9.167   1.242   0.896  1.1132 -1.0343  1.3953
 2704SOL    HW214075   9.090   1.291   1.016  1.1853 -0.3936  1.1842
 2705SOL     OW14076   0.263   7.131   7.129 -0.1394  0.4388 -0.0463
 2705SOL    HW114077   0.173   7.099   7.137  0.3364 -0.6256  1.5863
 2705SOL    HW214078   0.312   7.057   7.093  0.2732  0.6467  0.0753
 2706SOL     OW14079   8.759   0.968   5.388 -1.0202  0.0958 -0.4055
 2706SOL    HW114080   8.826   0.946   5.454  0.1286 -0.9376 -1.8342
 2706SOL    HW214081   8.681   0.922   5.418 -1.7524  2.7959  2.2979
 2707SOL     OW14082   7.926   7.712   2.491 -0.3931 -0.0857 -0.3878
 2707SOL    HW114083   8.020   7.710   2.473 -0.1256  1.4775  0.6855
 2707SOL    HW214084   7.915   7.655   2.568 -0.2660  0.0592 -0.2630
 2708SOL     OW14085   1.818   2.851   8.647 -0.2737  0.7200 -0.8471
 2708SOL    HW114086   1.778   2.924   8.695  1.6083  0.2922  1.6074
 2708SOL    HW214087   1.912   2.866   8.655  0.2114 -2.3344  0.4841
 2709SOL     OW14088   8.060   8.202   5.591 -0.2725  0.0777 -0.1746
 2709SOL    HW114089   8.031   8.266   5.656  1.1719  0.4887  0.0956
 2709SOL    HW214090   8.017   8.121   5.616  0.5557  0.1312  1.5526
 2710SOL     OW14091   7.410   0.597   2.781  0.3278  0.0034  0.2300
 2710SOL    HW114092   7.318   0.579   2.765  0.2066 -0.0067  0.8882
 2710SOL    HW214093   7.443   0.630   2.698 -0.3363  0.2803  0.0671
 2711SOL     OW14094   3.513   6.554   1.923 -0.1495 -0.0325 -0.1775
 2711SOL    HW114095   3.525   6.630   1.979 -1.1724 -0.3368  0.4789
 2711SOL    HW214096   3.422   6.558   1.896 -0.6888 -1.8499  1.1536
 2712SOL     OW14097   0.882   9.346   6.850  0.4347  0.0459 -0.1770
 2712SOL    HW114098   0.870   9.279   6.917  0.2727 -1.8105 -1.9788
 2712SOL    HW214099   0.799   9.394   6.850  1.0991  1.3910  2.2026
 2713SOL     OW14100   4.520   4.079   3.570 -0.1298 -0.0183  0.2628
 2713SOL    HW114101   4.520   4.025   3.491 -1.8882  0.2994  0.0026
 2713SOL    HW214102   4.428   4.100   3.584  0.1548  0.0512  2.3264
 2714SOL     OW14103   4.286   7.684   7.844 -0.2883  0.3148  0.1648
 2714SOL    HW114104   4.201   7.724   7.827 -0.7139 -0.5988  0.0836
 2714SOL    HW214105   4.269   7.617   7.909  0.0764 -0.9069 -0.9480
 2715SOL     OW14106   7.967   4.302   0.423  0.5588  0.3310 -0.3086
 2715SOL    HW114107   8.049   4.297   0.373  0.7459  1.2720 -0.1214
 2715SOL    HW214108   7.990   4.354   0.500 -0.0833  0.1305  0.0233
 2716SOL     OW14109   6.485   4.409   0.555  0.6001  0.2645  0.2251
 2716SOL    HW114110   6.540   4.486   0.562 -0.0820  0.8309 -0.4169
 2716SOL    HW214111   6.544   4.335   0.566  0.8921  0.8700  3.4554
 2717SOL     OW14112   7.588   2.789   5.917 -0.5559 -0.3166  0.1695
 2717SOL    HW114113   7.617   2.705   5.881  0.6024  0.1315  0.0109
 2717SOL    HW214114   7.525   2.766   5.984 -1.5762 -1.2391 -1.0677
 2718SOL     OW14115   0.714   3.594   0.527 -0.0638 -0.1532 -0.0138
 2718SOL    HW114116   0.636   3.649   0.534  0.0229 -0.1063  0.6034
 2718SOL    HW214117   0.764   3.613   0.606  1.8266  1.6965 -1.5498
 2719SOL     OW14118   7.334   0.402   5.985  0.0310 -0.3227  0.2878
 2719SOL    HW114119   7.239   0.390   5.986  0.1527 -1.3188  0.8745
 2719SOL    HW214120   7.368   0.324   5.942  0.6213 -0.3185  0.7335
 2720SOL     OW14121   9.086   2.250   1.917 -0.1769  0.8949  0.3238
 2720SOL    HW114122   9.153   2.232   1.850 -1.4248  1.1689 -1.0600
 2720SOL    HW214123   9.092   2.344   1.932 -1.5701  1.2858 -1.3299
 2721SOL     OW14124   5.846   8.952   7.649  0.5854 -0.4108 -0.5093
 2721SOL    HW114125   5.848   8.970   7.555  0.4115 -0.0261 -0.4438
 2721SOL    HW214126   5.754   8.961   7.673  0.5409 -1.0923 -0.4068
 2722SOL     OW14127   8.866   3.166   8.058 -0.8903  0.0405 -0.3554
 2722SOL    HW114128   8.955   3.144   8.032 -0.3734  0.0223  1.3460
 2722SOL    HW214129   8.816   3.161   7.976  0.8600  1.2443 -1.5670
 2723SOL     OW14130   2.517   5.020   3.943  0.2847  0.1431  0.0676
 2723SOL    HW114131   2.563   4.990   4.021  0.7876 -0.2141 -0.3585
 2723SOL    HW214132   2.543   4.959   3.875 -0.7465 -0.0096 -0.2122
 2724SOL     OW14133   2.126   2.423   8.938 -0.1619  0.0742 -0.6970
 2724SOL    HW114134   2.068   2.381   9.002  0.8751  1.9190  1.6333
 2724SOL    HW214135   2.085   2.507   8.921  0.9522  0.7181 -0.2946
 2725SOL     OW14136   0.439   6.095   2.464 -0.9114 -0.4224  0.2198
 2725SOL    HW114137   0.515   6.040   2.446  0.2629  1.0364  0.5819
 2725SOL    HW214138   0.365   6.045   2.429  0.1643 -1.9826  0.0720
 2726SOL     OW14139   7.921   3.300   9.359  0.0123 -0.2330  0.1032
 2726SOL    HW114140   7.960   3.231   9.413  1.2579  0.5069  0.1872
 2726SOL    HW214141   7.838   3.262   9.329  1.1201 -2.1768 -0.7137
 2727SOL     OW14142   8.694   2.270   7.704 -0.1513 -0.6998 -0.4289
 2727SOL    HW114143   8.620   2.282   7.765 -0.8177 -0.6393 -1.2336
 2727SOL    HW214144   8.724   2.181   7.720  0.7586 -0.1588  1.1428
 2728SOL     OW14145   3.693   3.530   2.491 -0.2237  0.2286  0.3785
 2728SOL    HW114146   3.689   3.480   2.410 -1.4430  2.9806 -1.4286
 2728SOL    HW214147   3.604   3.561   2.505 -0.3022 -1.0109  3.4654
 2729SOL     OW14148   7.508   7.974   7.097  0.2616  0.3995 -0.0236
 2729SOL    HW114149   7.428   7.963   7.149 -0.3096  2.8644 -0.2209
 2729SOL    HW214150   7.578   7.980   7.162  0.2833 -1.4225  0.1680
 2730SOL     OW14151   7.939   7.365   8.662  0.4667 -0.4495  0.2350
 2730SOL    HW114152   8.006   7.378   8.595  0.6539  1.5807  0.7594
 2730SOL    HW214153   7.867   7.423   8.636 -0.4366 -1.3774  0.5732
 2731SOL     OW14154   4.951   1.153   5.253  0.3088 -0.6319  0.1292
 2731SOL    HW114155   5.028   1.097   5.260  1.2532  0.5233 -0.6019
 2731SOL    HW214156   4.946   1.198   5.338  0.7591 -0.3393  0.0084
 2732SOL     OW14157   1.624   4.165   5.631 -0.3695  0.1403  0.0891
 2732SOL    HW114158   1.664   4.088   5.592  0.2364  0.9093 -0.8284
 2732SOL    HW214159   1.676   4.238   5.600 -0.6294  0.8930  1.3465
 2733SOL     OW14160   1.973   6.288   0.817 -0.2489 -0.3441 -0.1975
 2733SOL    HW114161   2.000   6.377   0.841  0.7544 -0.0361 -2.2631
 2733SOL    HW214162   1.983   6.238   0.898  2.9569  0.6019  0.1552
 2734SOL     OW14163   4.995   9.148   8.885  0.0980 -0.2844 -0.6702
 2734SOL    HW114164   4.929   9.195   8.834 -0.6014  0.7050  1.0754
 2734SOL    HW214165   4.952   9.067   8.910 -0.5929  0.4555  0.6518
 2735SOL     OW14166   2.907   8.315   4.056 -0.2417 -0.4310 -0.9963
 2735SOL    HW114167   2.934   8.264   3.980  0.3649  0.3020 -1.2871
 2735SOL    HW214168   2.937   8.404   4.037 -1.5574  0.1030 -0.6364
 2736SOL     OW14169   5.524   5.260   2.501 -0.1901 -0.6906  0.1908
 2736SOL    HW114170   5.555   5.350   2.503 -2.2239  0.0894 -0.4680
 2736SOL    HW214171   5.600   5.209   2.472  0.6990  0.9541 -0.5203
 2737SOL     OW14172   3.460   0.371   3.633  0.0377  0.3616 -0.5542
 2737SOL    HW114173   3.447   0.284   3.672  0.0900  0.7172  0.2809
 2737SOL    HW214174   3.546   0.365   3.590 -0.0650 -0.0698 -0.7079
 2738SOL     OW14175   5.456   8.020   2.062 -0.1483 -0.0990 -0.3991
 2738SOL    HW114176   5.417   7.965   1.994  0.5152 -0.0239 -0.8483
 2738SOL    HW214177   5.549   8.024   2.040  0.0182  0.1999  0.3283
 2739SOL     OW14178   4.594   5.257   6.443 -0.1203 -0.1310  0.1774
 2739SOL    HW114179   4.627   5.168   6.426  0.6346  0.4999 -1.9748
 2739SOL    HW214180   4.622   5.276   6.532 -0.3040 -2.0410  0.6897
 2740SOL     OW14181   8.987   1.814   4.155  0.3426 -0.0520 -0.0791
 2740SOL    HW114182   9.045   1.747   4.190  0.9256  0.1024 -0.7351
 2740SOL    HW214183   8.958   1.864   4.232  0.1346 -0.8669  0.3764
 2741SOL     OW14184   8.608   5.608   3.013 -0.1550  0.1459  0.1849
 2741SOL    HW114185   8.599   5.581   3.104 -0.5457  0.8443  0.3587
 2741SOL    HW214186   8.586   5.701   3.013  0.2956  0.2617 -0.5449
 2742SOL     OW14187   7.156   4.990   1.950 -0.3186 -0.4294 -0.0584
 2742SOL    HW114188   7.247   4.994   1.978  0.3072 -0.5027 -1.9166
 2742SOL    HW214189   7.150   4.910   1.899 -1.7487 -1.0318  0.9971
 2743SOL     OW14190   0.162   0.370   2.554 -0.4617 -0.2366  0.3151
 2743SOL    HW114191   0.165   0.274   2.561 -0.6445 -0.1536  2.0091
 2743SOL    HW214192   0.072   0.389   2.529 -0.2923 -0.5182 -0.5368
 2744SOL     OW14193   2.349   1.454   9.149 -0.1280 -0.4009 -0.2148
 2744SOL    HW114194   2.278   1.510   9.117 -0.1214  0.3554  1.0084
 2744SOL    HW214195   2.339   1.455   9.244  1.0875 -0.8849 -0.0589
 2745SOL     OW14196   6.903   4.539   6.928 -0.3148  0.1647  0.2214
 2745SOL    HW114197   6.998   4.546   6.916 -0.2198  0.4807  1.0693
 2745SOL    HW214198   6.888   4.566   7.019 -1.2928  0.7545 -0.1033
 2746SOL     OW14199   1.371   4.322   5.548  0.4377 -0.2620 -0.4636
 2746SOL    HW114200   1.445   4.284   5.500  1.4566  0.9761  0.0366
 2746SOL    HW214201   1.385   4.417   5.540 -2.1852  0.0860 -1.9985
 2747SOL     OW14202   5.737   5.752   0.476  0.0782 -0.5316  0.1165
 2747SOL    HW114203   5.781   5.685   0.424 -0.5349 -0.5079 -0.4438
 2747SOL    HW214204   5.706   5.707   0.554  0.5620 -0.6780  0.2249
 2748SOL     OW14205   7.212   0.849   7.335 -0.2090  0.0865 -0.2387
 2748SOL    HW114206   7.124   0.883   7.351 -0.2233  0.0726 -0.2899
 2748SOL    HW214207   7.253   0.914   7.278 -0.6871 -0.6535 -1.4586
 2749SOL     OW14208   3.178   4.465   7.213 -0.3476  0.1303  0.0505
 2749SOL    HW114209   3.141   4.535   7.267  1.9091  3.1116 -1.8900
 2749SOL    HW214210   3.245   4.425   7.268 -0.2992  0.9001  0.5755
 2750SOL     OW14211   0.581   5.492   8.825  0.1009 -0.4008  0.0649
 2750SOL    HW114212   0.491   5.470   8.849 -0.5210  2.7777  1.0843
 2750SOL    HW214213   0.631   5.481   8.906  0.2382 -0.2850 -0.0034
 2751SOL     OW14214   4.906   6.692   4.683 -0.1452 -0.4141  0.5502
 2751SOL    HW114215   4.874   6.605   4.704 -0.7916 -0.0485  1.1238
 2751SOL    HW214216   4.973   6.710   4.749 -0.7248 -0.0844  1.0612
 2752SOL     OW14217   8.424   2.948   8.788  0.2513 -0.1161 -0.4618
 2752SOL    HW114218   8.360   3.011   8.823  1.0096  0.3806  0.0712
 2752SOL    HW214219   8.441   2.979   8.699 -0.3157 -0.3060 -0.6396
 2753SOL     OW14220   2.214   2.759   7.260 -0.4298 -0.6418 -0.4182
 2753SOL    HW114221   2.125   2.793   7.269 -0.1604  0.1387 -0.6003
 2753SOL    HW214222   2.246   2.753   7.350 -0.2361  0.2969 -0.4072
 2754SOL     OW14223   9.243   5.378   2.444  0.2945  0.4644  0.0585
 2754SOL    HW114224   9.173   5.389   2.379  0.7411  0.7408 -0.3867
 2754SOL    HW214225   9.229   5.291   2.480 -0.1135  0.4072 -0.2284
 2755SOL     OW14226   1.117   4.978   1.676 -0.2867  0.0205  0.4276
 2755SOL    HW114227   1.091   5.017   1.592 -0.4699 -0.5302  0.2245
 2755SOL    HW214228   1.057   5.017   1.740 -1.1416 -0.6598  0.0752
 2756SOL     OW14229   1.123   2.130   5.504 -0.6521  0.6579  0.1498
 2756SOL    HW114230   1.050   2.192   5.511 -0.1247  1.7715 -2.5772
 2756SOL    HW214231   1.198   2.176   5.542 -0.4368  1.4305 -1.1512
 2757SOL     OW14232   4.333   6.695   6.466  0.5640  0.8893 -0.4882
 2757SOL    HW114233   4.347   6.779   6.424 -0.7683  1.1199 -0.5181
 2757SOL    HW214234   4.401   6.690   6.534  3.4717  0.0196 -3.2489
 2758SOL     OW14235   3.282   6.999   0.647 -0.3965 -0.6589 -0.6066
 2758SOL    HW114236   3.320   6.916   0.620 -2.2340 -1.6740 -0.2412
 2758SOL    HW214237   3.194   6.977   0.678 -0.5036  1.2563  0.6607
 2759SOL     OW14238   3.128   4.245   6.007 -0.5573  0.4697  0.0027
 2759SOL    HW114239   3.075   4.325   6.010 -0.5972  0.5157 -1.3045
 2759SOL    HW214240   3.102   4.202   5.926  0.8580  0.1262 -0.3011
 2760SOL     OW14241   2.937   6.882   0.525  0.1403  0.2792 -0.5463
 2760SOL    HW114242   2.902   6.941   0.592 -0.4980 -0.9313  0.2172
 2760SOL    HW214243   2.917   6.794   0.557 -0.0942 -0.3380 -2.2874
 2761SOL     OW14244   0.532   3.195   2.096  0.5426 -0.2493  0.5626
 2761SOL    HW114245   0.523   3.181   2.190  2.2137 -1.3119  0.5963
 2761SOL    HW214246   0.573   3.281   2.088 -0.7726  0.4245  0.7199
 2762SOL     OW14247   8.499   2.986   3.276 -0.4161  0.2405  0.0859
 2762SOL    HW114248   8.566   3.049   3.303  0.0511 -0.9160  1.7579
 2762SOL    HW214249   8.418   3.036   3.277  0.0413  1.0006  0.7635
 2763SOL     OW14250   7.692   4.515   9.151 -0.0173 -0.0069  0.5259
 2763SOL    HW114251   7.724   4.483   9.236 -1.3351 -0.9036  0.7180
 2763SOL    HW214252   7.756   4.482   9.088  0.0135 -0.9010  0.9966
 2764SOL     OW14253   8.706   8.266   9.301  0.0894  0.2238 -0.0454
 2764SOL    HW114254   8.765   8.311   9.361 -1.3337 -1.1024  2.4929
 2764SOL    HW214255   8.626   8.318   9.302 -0.3652 -0.4693  0.1811
 2765SOL     OW14256   0.908   4.867   1.010 -0.4830 -0.1035  0.1881
 2765SOL    HW114257   0.814   4.863   0.994 -0.8029 -0.4032  1.9098
 2765SOL    HW214258   0.938   4.776   0.999 -0.0036  0.2812 -2.2190
 2766SOL     OW14259   6.091   2.472   3.498 -0.1486 -0.1062 -0.3213
 2766SOL    HW114260   6.030   2.450   3.568 -1.2401  1.4947 -0.7047
 2766SOL    HW214261   6.094   2.393   3.443 -0.2349 -0.9375  0.8326
 2767SOL     OW14262   0.970   4.658   1.825  0.6631  0.1808 -0.5102
 2767SOL    HW114263   0.933   4.593   1.765  1.9675  0.1961 -1.3574
 2767SOL    HW214264   0.921   4.645   1.907  0.1727 -1.1350 -0.9859
 2768SOL     OW14265   3.331   9.040   5.730  0.4603  0.2505 -0.9674
 2768SOL    HW114266   3.407   8.999   5.688 -0.2825 -0.4542 -1.6673
 2768SOL    HW214267   3.317   8.989   5.809 -0.0315 -0.4258 -1.4765
 2769SOL     OW14268   8.023   7.661   6.195 -0.3977 -0.5545 -0.0175
 2769SOL    HW114269   8.019   7.746   6.239  0.4253 -1.1077  1.2059
 2769SOL    HW214270   8.108   7.661   6.150 -1.6485  0.4054 -2.5789
 2770SOL     OW14271   3.168   1.745   9.344 -0.0141  0.3262  0.0524
 2770SOL    HW114272   3.237   1.789   9.293 -0.0575  0.3138 -0.0181
 2770SOL    HW214273   3.119   1.695   9.278 -0.2037  0.4816  0.0757
 2771SOL     OW14274   2.895   6.255   3.236 -0.1476  0.2223 -0.4392
 2771SOL    HW114275   2.911   6.237   3.329 -1.9079  1.2876  0.1207
 2771SOL    HW214276   2.978   6.288   3.203  0.2856  0.6246  0.9768
 2772SOL     OW14277   2.196   1.963   0.198  0.1838 -0.1311  0.0742
 2772SOL    HW114278   2.179   1.881   0.152 -1.2704  0.5413 -0.6670
 2772SOL    HW214279   2.252   2.013   0.138  2.3374 -1.1098  1.1621
 2773SOL     OW14280   8.674   2.474   8.130 -0.4267 -0.6491  0.0092
 2773SOL    HW114281   8.686   2.484   8.225 -0.4300 -0.9064  0.0371
 2773SOL    HW214282   8.579   2.466   8.119 -0.3893 -1.2140  0.0457
 2774SOL     OW14283   7.366   7.693   4.717 -0.0097 -0.2006  1.0042
 2774SOL    HW114284   7.376   7.619   4.776  0.8204 -0.5695  0.4243
 2774SOL    HW214285   7.325   7.656   4.639 -0.3534  0.1225  1.0260
 2775SOL     OW14286   3.148   0.392   2.725  0.2263  0.2391 -0.1823
 2775SOL    HW114287   3.223   0.420   2.778 -0.3714  2.3004 -0.3511
 2775SOL    HW214288   3.115   0.314   2.770  2.0546 -0.3285  0.2587
 2776SOL     OW14289   0.991   5.939   5.779  0.2489 -0.1120  0.4323
 2776SOL    HW114290   0.992   5.969   5.688  1.1807  1.2833  0.8682
 2776SOL    HW214291   1.045   5.860   5.778  0.2776 -0.0904 -0.2155
 2777SOL     OW14292   5.456   2.915   1.916  0.0641 -0.2100  0.3040
 2777SOL    HW114293   5.429   2.887   2.003 -0.3346  1.8256  0.8906
 2777SOL    HW214294   5.378   2.906   1.862 -0.3091  0.5406  0.6989
 2778SOL     OW14295   5.553   0.342   5.115  0.0680  0.5455  0.7484
 2778SOL    HW114296   5.612   0.291   5.171  0.8894 -0.7042 -1.1745
 2778SOL    HW214297   5.467   0.302   5.128  0.2085  0.3866  1.2186
 2779SOL     OW14298   3.248   4.406   7.838  0.2170  0.2544 -0.1650
 2779SOL    HW114299   3.276   4.342   7.771  0.4217 -0.2344  0.3779
 2779SOL    HW214300   3.322   4.467   7.845  0.9095 -0.6577  0.7952
 2780SOL     OW14301   7.219   8.457   2.931  0.5972 -0.0614  0.1432
 2780SOL    HW114302   7.180   8.415   3.008 -0.1403  0.0495 -0.1612
 2780SOL    HW214303   7.212   8.551   2.949 -1.4912  0.0535 -0.9328
 2781SOL     OW14304   1.574   7.138   1.648  0.2248 -0.2910 -0.7321
 2781SOL    HW114305   1.516   7.089   1.706 -0.4790  0.3110 -0.9171
 2781SOL    HW214306   1.662   7.112   1.676 -0.1120 -0.5316  0.1589
 2782SOL     OW14307   0.063   0.881   7.916 -0.3044 -0.2077 -0.3396
 2782SOL    HW114308   0.144   0.836   7.895 -0.0394 -0.9591  1.9581
 2782SOL    HW214309   0.000   0.811   7.934 -0.0378  0.2040  2.7324
 2783SOL     OW14310   4.532   4.880   3.124  0.1122 -0.3701 -0.5086
 2783SOL    HW114311   4.498   4.795   3.152  0.5272 -0.5813 -0.6393
 2783SOL    HW214312   4.573   4.862   3.039 -0.5982  0.1410 -0.9693
 2784SOL     OW14313   0.540   8.258   3.420 -0.1598 -0.4070  0.0762
 2784SOL    HW114314   0.622   8.269   3.467 -0.5277  0.1431  0.6158
 2784SOL    HW214315   0.565   8.251   3.328  0.5990 -1.8084  0.3594
 2785SOL     OW14316   9.153   9.197   8.496  0.0883 -0.1415 -0.1960
 2785SOL    HW114317   9.247   9.203   8.481 -0.1375  1.2951 -1.3037
 2785SOL    HW214318   9.128   9.112   8.459  0.7205  0.1486 -1.3389
 2786SOL     OW14319   7.578   3.428   2.422  0.4572  0.4141 -0.3105
 2786SOL    HW114320   7.616   3.476   2.495  1.8604 -0.9990 -0.0656
 2786SOL    HW214321   7.625   3.345   2.420 -1.4965 -0.7386 -1.0820
 2787SOL     OW14322   8.199   0.519   8.223 -0.1603 -0.1719  0.1894
 2787SOL    HW114323   8.163   0.566   8.148 -0.2993 -0.7725 -0.1292
 2787SOL    HW214324   8.234   0.587   8.280 -1.1183  0.3721  0.1425
 2788SOL     OW14325   1.939   1.060   0.194  0.1543  0.3799  0.1294
 2788SOL    HW114326   1.927   0.968   0.215 -0.1450  0.4494  0.2817
 2788SOL    HW214327   1.878   1.106   0.253 -0.4986  0.5997 -0.6931
 2789SOL     OW14328   8.146   9.007   0.565 -0.4717  0.0621 -0.2499
 2789SOL    HW114329   8.141   8.930   0.622 -3.4613  1.4102  1.5651
 2789SOL    HW214330   8.230   8.999   0.520  0.5298 -2.8285  1.8691
 2790SOL     OW14331   8.608   4.988   6.356  0.4000  0.6843 -0.0841
 2790SOL    HW114332   8.544   4.954   6.293  1.9582 -0.6739 -1.0018
 2790SOL    HW214333   8.555   5.035   6.420 -1.4798 -0.0352 -1.0241
 2791SOL     OW14334   9.224   4.481   8.232  0.3053  0.4131 -0.7724
 2791SOL    HW114335   9.312   4.469   8.197 -0.8420  0.1903 -3.8513
 2791SOL    HW214336   9.202   4.572   8.212 -0.4178  0.2792 -0.6240
 2792SOL     OW14337   8.244   7.309   3.512  0.5151  0.1085  0.6317
 2792SOL    HW114338   8.303   7.248   3.557 -0.1835  0.2217  1.7350
 2792SOL    HW214339   8.243   7.387   3.567  0.3920  0.6258 -0.0925
 2793SOL     OW14340   5.024   5.128   0.623 -0.1309 -0.5038 -0.5121
 2793SOL    HW114341   4.992   5.168   0.543  0.9211 -1.5895 -1.5359
 2793SOL    HW214342   5.118   5.147   0.623 -0.0296 -0.9632  0.1922
 2794SOL     OW14343   2.500   4.413   2.047  0.2670 -0.8277 -0.0892
 2794SOL    HW114344   2.461   4.448   1.967  1.1863 -1.2256 -0.7323
 2794SOL    HW214345   2.427   4.375   2.095 -0.4919  0.4826 -0.1572
 2795SOL     OW14346   2.904   4.447   1.512 -0.2930 -0.7794 -0.3631
 2795SOL    HW114347   2.976   4.489   1.561 -0.2029 -0.4416 -0.7829
 2795SOL    HW214348   2.911   4.483   1.424  0.9509 -3.0600 -1.2811
 2796SOL     OW14349   3.709   7.723   3.305  0.1924 -0.4241  0.0418
 2796SOL    HW114350   3.705   7.663   3.380  0.2386  0.7184  0.9813
 2796SOL    HW214351   3.792   7.770   3.317 -1.2634  2.0751  1.1280
 2797SOL     OW14352   2.582   6.008   3.504  0.1038 -0.2761 -0.2224
 2797SOL    HW114353   2.508   5.964   3.462  0.2542 -0.4497 -0.3065
 2797SOL    HW214354   2.552   6.028   3.592 -0.0493 -0.3317 -0.2617
 2798SOL     OW14355   0.590   8.295   5.711  0.2613 -0.2800  0.6446
 2798SOL    HW114356   0.513   8.350   5.697  0.6297  0.4535  1.4113
 2798SOL    HW214357   0.608   8.303   5.805  1.8454  0.3299  0.3142
 2799SOL     OW14358   1.177   7.133   2.439 -0.1886 -0.0206 -0.1080
 2799SOL    HW114359   1.102   7.078   2.462 -0.3912 -0.0750 -0.8894
 2799SOL    HW214360   1.158   7.217   2.482  0.1206 -0.5413  1.0820
 2800SOL     OW14361   1.518   3.261   5.684  0.5675 -0.1929  0.4509
 2800SOL    HW114362   1.499   3.168   5.678  0.3532 -0.1860  0.9629
 2800SOL    HW214363   1.503   3.283   5.776 -2.2105  0.9269 -0.1437
 2801SOL     OW14364   9.242   6.235   7.192  0.0285  0.1236  0.3219
 2801SOL    HW114365   9.192   6.230   7.111  0.3327 -0.0618  0.1414
 2801SOL    HW214366   9.188   6.287   7.251  0.9347  2.5296 -0.8372
 2802SOL     OW14367   2.348   0.799   6.148 -0.1771 -0.0285  0.2222
 2802SOL    HW114368   2.396   0.739   6.204 -0.8316 -0.9991 -0.2342
 2802SOL    HW214369   2.256   0.776   6.161 -0.4023  0.4905 -0.3894
 2803SOL     OW14370   0.351   6.820   3.502  0.2854  0.2936  0.2534
 2803SOL    HW114371   0.266   6.863   3.490  0.6972  1.0829  0.0559
 2803SOL    HW214372   0.382   6.851   3.587 -0.9798 -2.4215  1.8245
 2804SOL     OW14373   7.985   0.381   5.973  0.2637 -0.5290  0.7742
 2804SOL    HW114374   7.922   0.365   5.903 -0.0876 -1.6950  1.3410
 2804SOL    HW214375   7.965   0.315   6.039  1.1769 -0.0217  1.5788
 2805SOL     OW14376   6.246   7.240   8.194 -0.5735 -0.2611  0.0991
 2805SOL    HW114377   6.261   7.334   8.195  0.7091 -0.3964 -1.6916
 2805SOL    HW214378   6.163   7.230   8.146 -0.3297 -0.0805 -0.3611
 2806SOL     OW14379   0.727   8.312   0.589 -0.5535  0.4253  0.3432
 2806SOL    HW114380   0.778   8.264   0.524 -0.1517 -0.6697  1.4276
 2806SOL    HW214381   0.713   8.398   0.550 -0.3407 -0.2037 -1.1837
 2807SOL     OW14382   6.554   3.529   0.402  0.4860  0.2359  0.1476
 2807SOL    HW114383   6.465   3.524   0.369 -0.2542 -0.6444  2.1196
 2807SOL    HW214384   6.601   3.460   0.354 -0.2454 -0.2253  0.0782
 2808SOL     OW14385   1.539   2.718   6.498 -0.2339  0.3653  0.1301
 2808SOL    HW114386   1.460   2.671   6.471 -0.8075 -0.1892  2.5328
 2808SOL    HW214387   1.509   2.805   6.521  0.4729  1.2859 -2.1522
 2809SOL     OW14388   8.745   7.323   9.182  0.0971  1.1735 -0.3725
 2809SOL    HW114389   8.696   7.244   9.162 -0.1987  1.6886 -1.8050
 2809SOL    HW214390   8.730   7.338   9.276 -0.7455  0.1579 -0.3324
 2810SOL     OW14391   9.135   8.621   3.178  0.5174  0.1872  0.4457
 2810SOL    HW114392   9.054   8.648   3.220  0.2117  1.4822 -0.8855
 2810SOL    HW214393   9.140   8.526   3.192 -2.5157 -0.3864 -1.5149
 2811SOL     OW14394   5.914   1.112   5.383  0.2998  0.6731  0.2961
 2811SOL    HW114395   5.837   1.083   5.333  0.9086 -0.0866 -0.2169
 2811SOL    HW214396   5.899   1.205   5.397 -0.9247  0.4533  0.5836
 2812SOL     OW14397   4.086   9.236   7.589  0.1062 -0.2425  0.1346
 2812SOL    HW114398   4.178   9.255   7.611 -0.7992  3.7061  1.2571
 2812SOL    HW214399   4.054   9.316   7.549 -2.8614 -1.5546 -0.3428
 2813SOL     OW14400   7.208   2.873   4.506 -0.1059 -0.1251  0.2394
 2813SOL    HW114401   7.224   2.897   4.415  0.6534  1.8444  0.8337
 2813SOL    HW214402   7.291   2.837   4.537  0.3101  1.2038  0.7165
 2814SOL     OW14403   3.677   5.537   0.102  0.1861 -0.5564 -0.3355
 2814SOL    HW114404   3.772   5.545   0.088 -0.1228  2.0923 -1.4763
 2814SOL    HW214405   3.642   5.515   0.016 -0.2639 -1.3880  0.0546
 2815SOL     OW14406   6.633   3.397   8.042  0.0113  0.3755  1.2416
 2815SOL    HW114407   6.556   3.347   8.012  0.7882 -0.0365 -0.1866
 2815SOL    HW214408   6.600   3.486   8.054 -0.3478  0.6798 -1.2761
 2816SOL     OW14409   2.922   4.723   1.941 -0.4388 -0.0820  0.0409
 2816SOL    HW114410   2.949   4.784   1.871  1.2520  1.0194  1.5563
 2816SOL    HW214411   3.003   4.679   1.966 -1.3716 -1.8761  0.0501
 2817SOL     OW14412   4.928   1.642   2.523  0.1611  0.7283 -0.4900
 2817SOL    HW114413   4.977   1.707   2.474  1.2550  0.2507 -0.0479
 2817SOL    HW214414   4.878   1.594   2.457 -0.5282  1.8919 -0.8346
 2818SOL     OW14415   7.232   7.010   0.871 -0.4298 -0.4820 -0.2808
 2818SOL    HW114416   7.188   7.077   0.818 -1.1157 -0.0799  0.7567
 2818SOL    HW214417   7.268   7.059   0.946  0.1808 -1.0861 -0.1793
 2819SOL     OW14418   5.331   4.478   1.381 -0.3616 -0.1867  0.1847
 2819SOL    HW114419   5.412   4.526   1.370 -0.0532 -0.4310  1.3159
 2819SOL    HW214420   5.354   4.387   1.362 -0.5397 -0.1484 -0.2200
 2820SOL     OW14421   9.344   2.355   3.630  0.1543  0.2153 -0.4929
 2820SOL    HW114422   9.275   2.417   3.653  1.2028  0.1077  3.9698
 2820SOL    HW214423   9.419   2.410   3.606  0.1166  0.6085  0.2511
 2821SOL     OW14424   2.011   2.883   2.869 -0.0238 -0.0801 -0.0863
 2821SOL    HW114425   2.083   2.820   2.868  0.0102 -0.0439 -0.9541
 2821SOL    HW214426   1.971   2.873   2.955  2.0227  1.0768  1.0734
 2822SOL     OW14427   7.064   2.668   0.522  0.5830  0.0212 -0.4906
 2822SOL    HW114428   7.090   2.665   0.430 -0.8634  0.1708 -0.9282
 2822SOL    HW214429   7.014   2.748   0.530 -0.0233 -0.4176  0.2278
 2823SOL     OW14430   0.895   6.247   7.217 -0.1061  1.0896 -0.2955
 2823SOL    HW114431   0.989   6.261   7.207  0.6899 -2.9639  0.1139
 2823SOL    HW214432   0.884   6.226   7.310 -1.6917  2.6231 -0.0730
 2824SOL     OW14433   6.274   6.855   1.095 -0.2308  0.0168 -0.3615
 2824SOL    HW114434   6.238   6.781   1.144  0.7874  0.1763  0.6767
 2824SOL    HW214435   6.334   6.897   1.157 -1.6805  2.4693 -0.4636
 2825SOL     OW14436   2.220   8.488   1.882 -0.2052 -0.8758 -0.2592
 2825SOL    HW114437   2.166   8.441   1.945 -0.5285  0.6051  0.5935
 2825SOL    HW214438   2.189   8.578   1.885  1.0387 -0.3854 -1.1673
 2826SOL     OW14439   9.213   2.989   7.255 -0.5036 -0.2068  0.4627
 2826SOL    HW114440   9.302   2.994   7.221 -1.3290  4.2565 -1.8072
 2826SOL    HW214441   9.170   2.923   7.201  1.0187 -1.3776  0.6215
 2827SOL     OW14442   0.557   5.578   1.962 -0.7012  0.4358  0.1094
 2827SOL    HW114443   0.524   5.490   1.944 -2.0558  1.1456 -1.0466
 2827SOL    HW214444   0.636   5.585   1.909 -0.4804 -0.1514  0.3544
 2828SOL     OW14445   2.688   0.344   6.765 -0.5376  0.0485  0.2959
 2828SOL    HW114446   2.667   0.375   6.853 -0.1710 -0.7906  0.6917
 2828SOL    HW214447   2.620   0.280   6.744  0.3970 -1.1386  0.7461
 2829SOL     OW14448   1.566   5.184   1.382 -0.5601  0.2117  0.1545
 2829SOL    HW114449   1.499   5.247   1.407 -0.6414  1.0244 -1.9629
 2829SOL    HW214450   1.521   5.122   1.324  0.4834  0.8662 -1.4389
 2830SOL     OW14451   5.100   3.178   1.245  0.0354  0.0706 -0.3163
 2830SOL    HW114452   5.035   3.136   1.188  1.6226  0.4669 -2.5411
 2830SOL    HW214453   5.085   3.272   1.232  1.4609  0.1682 -1.3883
 2831SOL     OW14454   0.295   6.555   1.421 -0.4210 -0.4325  0.2112
 2831SOL    HW114455   0.204   6.561   1.393 -0.8902  1.2061  1.8768
 2831SOL    HW214456   0.317   6.462   1.412 -3.0455 -1.3645  2.0330
 2832SOL     OW14457   0.923   9.031   3.092  0.1342 -0.4613 -0.1309
 2832SOL    HW114458   0.944   8.943   3.061  0.0434 -0.9181  1.0591
 2832SOL    HW214459   0.830   9.026   3.115  0.1564 -0.0878  0.0408
 2833SOL     OW14460   2.328   7.614   6.404 -0.6643 -0.7434 -0.2431
 2833SOL    HW114461   2.328   7.669   6.482 -3.2135  0.3667 -0.9341
 2833SOL    HW214462   2.421   7.595   6.388 -0.0646 -1.4495  3.2754
 2834SOL     OW14463   2.494   6.339   7.350  0.5030  0.1651 -0.3129
 2834SOL    HW114464   2.578   6.317   7.390 -0.0311 -0.7068  0.3588
 2834SOL    HW214465   2.509   6.424   7.309  1.2771  0.7395  1.0879
 2835SOL     OW14466   1.332   6.470   5.096  0.5454 -0.1058  0.2994
 2835SOL    HW114467   1.351   6.562   5.113  0.9698  0.5151 -2.9737
 2835SOL    HW214468   1.414   6.435   5.062  0.2603 -1.6264  1.0979
 2836SOL     OW14469   6.752   7.219   2.392  0.2661 -0.1539  0.0288
 2836SOL    HW114470   6.710   7.176   2.466 -0.9509  0.3758 -0.3231
 2836SOL    HW214471   6.685   7.221   2.323  0.6012  1.3804 -0.3079
 2837SOL     OW14472   0.870   6.109   4.762 -0.6832 -0.3464  0.2216
 2837SOL    HW114473   0.902   6.126   4.673 -0.1293 -0.4394  0.3972
 2837SOL    HW214474   0.778   6.135   4.760 -0.2313  1.3955  0.1124
 2838SOL     OW14475   5.313   6.403   5.103  0.1812 -0.4186  0.3077
 2838SOL    HW114476   5.371   6.328   5.107 -0.5988 -1.0802 -0.2558
 2838SOL    HW214477   5.237   6.372   5.053 -0.9896  0.1854  1.6301
 2839SOL     OW14478   3.925   1.799   4.041  0.1579  0.1693 -0.3296
 2839SOL    HW114479   3.993   1.851   4.000  0.4841 -0.7435 -0.9767
 2839SOL    HW214480   3.944   1.802   4.135  2.2830 -1.6607 -0.6195
 2840SOL     OW14481   8.976   1.571   7.533  0.2686 -0.3332 -0.1978
 2840SOL    HW114482   8.904   1.606   7.587  0.2343  0.3715 -0.6817
 2840SOL    HW214483   8.980   1.478   7.556  0.8174  0.0940  1.6479
 2841SOL     OW14484   2.560   4.447   0.180  0.0382 -0.3116 -0.1578
 2841SOL    HW114485   2.483   4.502   0.193 -0.3295 -0.8486 -0.0164
 2841SOL    HW214486   2.618   4.499   0.123 -0.8724 -0.3138 -1.1197
 2842SOL     OW14487   3.082   3.552   7.140  0.1288 -0.6355 -0.1858
 2842SOL    HW114488   3.023   3.583   7.071 -0.5794 -1.0278  0.2349
 2842SOL    HW214489   3.107   3.464   7.112 -0.3951 -0.9130  0.1868
 2843SOL     OW14490   0.750   7.607   6.250  0.4835  0.1704  0.0672
 2843SOL    HW114491   0.704   7.685   6.281  1.1981 -0.2320  2.3540
 2843SOL    HW214492   0.840   7.619   6.280  1.3486 -0.1727 -2.2106
 2844SOL     OW14493   8.269   7.180   0.194 -0.0482 -0.0425  0.5015
 2844SOL    HW114494   8.270   7.269   0.159 -0.3963 -0.3536 -0.3075
 2844SOL    HW214495   8.268   7.193   0.289  0.0516  0.8161  0.3989
 2845SOL     OW14496   6.159   3.938   9.091 -0.0998  0.0669 -0.0085
 2845SOL    HW114497   6.096   4.009   9.103 -0.8146 -0.7419  1.4416
 2845SOL    HW214498   6.151   3.913   8.999 -0.8233  0.9645 -0.2006
 2846SOL     OW14499   3.256   0.052   4.278 -0.0579  0.2883 -0.3083
 2846SOL    HW114500   3.259   0.055   4.374  0.0244 -0.9915 -0.2572
 2846SOL    HW214501   3.165   0.073   4.257 -0.4631 -0.9109  0.1452
 2847SOL     OW14502   5.944   4.583   1.664  0.4005 -0.0925  0.5826
 2847SOL    HW114503   5.851   4.563   1.664 -0.1389  2.1587  0.1372
 2847SOL    HW214504   5.971   4.571   1.756  0.4969 -3.7979  0.2151
 2848SOL     OW14505   1.015   6.106   6.097  0.2694 -0.1155 -0.0068
 2848SOL    HW114506   0.960   6.124   6.173 -0.4119 -0.1487 -0.4778
 2848SOL    HW214507   1.081   6.044   6.128  0.6653  0.7016  0.8265
 2849SOL     OW14508   8.424   7.656   9.246 -0.0486  0.1376 -0.3845
 2849SOL    HW114509   8.432   7.561   9.242  0.1150  0.2039 -2.8762
 2849SOL    HW214510   8.347   7.676   9.192 -0.5700  1.3958  0.7583
 2850SOL     OW14511   8.510   4.967   8.599  0.2387 -0.4022  0.2405
 2850SOL    HW114512   8.469   5.028   8.659  1.2542  0.2635  0.2687
 2850SOL    HW214513   8.480   4.881   8.629  1.4246 -0.1677  2.2754
 2851SOL     OW14514   2.884   3.903   2.584  0.0899  0.0383  0.2105
 2851SOL    HW114515   2.909   3.856   2.664  0.5505  2.0609  1.3189
 2851SOL    HW214516   2.792   3.928   2.599  0.4020  1.0726  0.4617
 2852SOL     OW14517   5.075   1.287   2.581 -0.1353 -0.2069  0.8651
 2852SOL    HW114518   5.142   1.300   2.514 -0.1453 -2.5950  0.2863
 2852SOL    HW214519   4.995   1.269   2.532 -0.3815 -0.8971  1.4905
 2853SOL     OW14520   7.016   7.708   1.775  0.0310 -0.1994 -0.1391
 2853SOL    HW114521   6.942   7.658   1.810  0.4313  0.3302  1.5438
 2853SOL    HW214522   7.001   7.798   1.806  1.6295 -0.1864  0.7026
 2854SOL     OW14523   6.022   8.537   9.261 -0.0345  0.2577 -0.3387
 2854SOL    HW114524   5.985   8.509   9.344 -0.6112  1.3192 -0.2148
 2854SOL    HW214525   5.958   8.510   9.195 -0.2931  0.7195 -0.2813
 2855SOL     OW14526   9.104   6.935   3.130 -0.4128 -0.2428 -0.4825
 2855SOL    HW114527   9.178   6.899   3.180 -0.0173  0.2504 -0.6992
 2855SOL    HW214528   9.118   7.030   3.133 -0.0897 -0.2252 -1.9774
 2856SOL     OW14529   8.012   8.356   4.170 -0.2054 -0.1846 -0.6151
 2856SOL    HW114530   7.950   8.425   4.148 -0.2944  0.3741  1.2383
 2856SOL    HW214531   7.960   8.290   4.216  0.6488  0.6738  1.7017
 2857SOL     OW14532   5.397   5.253   2.786  0.0243  0.0211  0.2839
 2857SOL    HW114533   5.360   5.340   2.803 -4.0120 -1.4378  0.0632
 2857SOL    HW214534   5.434   5.260   2.698 -1.4920  1.2055 -0.3161
 2858SOL     OW14535   0.709   5.613   3.972 -0.0861 -0.3261 -0.3294
 2858SOL    HW114536   0.755   5.533   3.949  0.3808  0.1780 -1.1940
 2858SOL    HW214537   0.756   5.683   3.926  0.0663  0.5692  1.0964
 2859SOL     OW14538   2.945   1.030   6.326  0.2436 -0.4397 -0.5181
 2859SOL    HW114539   3.011   0.984   6.274  0.9304 -2.3755  1.8867
 2859SOL    HW214540   2.990   1.109   6.357  0.5639 -0.4374 -0.9766
 2860SOL     OW14541   2.627   7.229   7.758 -0.2221 -0.0933 -0.5530
 2860SOL    HW114542   2.555   7.182   7.801  0.2736 -2.5606 -2.2233
 2860SOL    HW214543   2.621   7.203   7.666  1.9951  0.7221 -0.9822
 2861SOL     OW14544   0.480   3.217   1.019 -0.5171 -0.2555 -0.7217
 2861SOL    HW114545   0.566   3.259   1.024 -0.6985  0.2871 -1.8331
 2861SOL    HW214546   0.440   3.234   1.104  0.2853 -0.1126 -0.3588
 2862SOL     OW14547   3.055   7.491   2.742 -0.1656  0.0966 -0.3240
 2862SOL    HW114548   3.086   7.516   2.655  0.1569  0.4851 -0.1037
 2862SOL    HW214549   2.964   7.522   2.746 -0.6535 -1.1766 -1.0274
 2863SOL     OW14550   5.110   7.208   5.167 -0.6190 -0.5470  0.0594
 2863SOL    HW114551   5.140   7.121   5.139  1.2357 -0.1126  0.5976
 2863SOL    HW214552   5.080   7.195   5.257 -0.6142 -0.6815  0.0413
 2864SOL     OW14553   4.879   0.106   2.420  0.3728  0.2017 -0.7515
 2864SOL    HW114554   4.888   0.197   2.393  0.7605 -0.2950 -2.3548
 2864SOL    HW214555   4.968   0.077   2.438  0.2846  0.0172 -0.6081
 2865SOL     OW14556   3.836   6.981   4.087  0.0871  0.1913 -0.1781
 2865SOL    HW114557   3.848   7.024   4.002 -0.8164 -0.3790 -0.6058
 2865SOL    HW214558   3.892   6.904   4.084 -2.3115 -1.6247 -1.5721
 2866SOL     OW14559   1.497   2.490   9.330 -0.0344 -0.1137  0.4847
 2866SOL    HW114560   1.530   2.580   9.338  0.3777 -0.0713 -1.2886
 2866SOL    HW214561   1.500   2.472   9.236  1.0954 -2.4242  0.8930
 2867SOL     OW14562   6.680   7.236   7.207  0.6255  0.3662  0.1871
 2867SOL    HW114563   6.738   7.297   7.162  1.0767 -0.3309 -0.1989
 2867SOL    HW214564   6.708   7.149   7.178  0.0916 -0.0418  0.8300
 2868SOL     OW14565   3.632   0.589   7.226 -0.3734 -0.1808  0.8538
 2868SOL    HW114566   3.574   0.563   7.297 -0.5893 -0.8807  0.4253
 2868SOL    HW214567   3.616   0.525   7.157 -2.6825  2.3628 -1.1768
 2869SOL     OW14568   1.853   4.788   5.216 -0.5205  0.0036  0.2910
 2869SOL    HW114569   1.780   4.726   5.224 -0.0962 -0.4433  0.6857
 2869SOL    HW214570   1.844   4.846   5.291  0.4774 -1.0596  1.2658
 2870SOL     OW14571   4.983   2.525   0.149 -0.1598 -0.2212 -0.5421
 2870SOL    HW114572   4.938   2.440   0.154  0.2857 -0.4269  0.1037
 2870SOL    HW214573   4.967   2.566   0.234  1.1940 -0.4770 -0.1325
 2871SOL     OW14574   3.703   9.342   1.524 -0.6500  0.2834 -0.1675
 2871SOL    HW114575   3.743   9.256   1.513  0.1175  0.2242  2.2916
 2871SOL    HW214576   3.738   9.395   1.453  2.6973 -0.1902  0.9832
 2872SOL     OW14577   7.164   4.153   6.482  0.5524  0.2460  0.3129
 2872SOL    HW114578   7.196   4.078   6.532  0.2560  0.7613  1.2957
 2872SOL    HW214579   7.243   4.201   6.456  0.6803  0.3051  0.8119
 2873SOL     OW14580   3.685   8.526   1.765 -0.4708  0.6393 -0.3015
 2873SOL    HW114581   3.728   8.444   1.741 -0.4422  0.6580 -0.3156
 2873SOL    HW214582   3.723   8.550   1.849  0.4937  1.3234 -0.9188
 2874SOL     OW14583   8.606   8.701   8.206 -0.6423  0.5505 -0.2136
 2874SOL    HW114584   8.514   8.722   8.192 -0.6858  0.3234 -0.2690
 2874SOL    HW214585   8.623   8.627   8.149 -1.0966 -1.0759  1.6533
 2875SOL     OW14586   0.057   2.297   7.738  0.9794  0.4088  0.0948
 2875SOL    HW114587  -0.030   2.316   7.702 -1.0279 -1.0085  3.6891
 2875SOL    HW214588   0.102   2.250   7.668 -1.8934 -0.5448 -1.2869
 2876SOL     OW14589   6.138   2.264   1.206  0.6037  0.2847  0.1697
 2876SOL    HW114590   6.140   2.258   1.110 -0.2952 -0.9708  0.1949
 2876SOL    HW214591   6.045   2.266   1.228  0.6883 -1.9673  1.0769
 2877SOL     OW14592   0.498   4.365   2.183  0.4092  0.6058 -0.0827
 2877SOL    HW114593   0.424   4.327   2.233  0.2872  1.5228  0.4507
 2877SOL    HW214594   0.459   4.391   2.100  0.2543  0.5617 -0.0262
 2878SOL     OW14595   7.232   0.179   4.157 -0.0590  0.6313  0.0755
 2878SOL    HW114596   7.208   0.243   4.089  1.1670  1.1514  0.0969
 2878SOL    HW214597   7.153   0.168   4.209 -0.8055  0.8023 -0.9803
 2879SOL     OW14598   6.596   4.846   6.941  0.5550  0.8902 -0.3402
 2879SOL    HW114599   6.611   4.760   6.980  0.5726  1.7017  1.5350
 2879SOL    HW214600   6.601   4.831   6.847 -2.3563 -1.7356 -0.2500
 2880SOL     OW14601   8.259   3.121   1.523  0.1597  0.3293 -0.2270
 2880SOL    HW114602   8.222   3.186   1.463  1.1231  1.8308  0.7042
 2880SOL    HW214603   8.183   3.083   1.567 -0.4850  0.0239 -1.5775
 2881SOL     OW14604   6.392   7.859   7.848 -0.4019  0.4046  0.3354
 2881SOL    HW114605   6.474   7.908   7.845 -0.4493  0.4461 -0.5331
 2881SOL    HW214606   6.331   7.918   7.893 -0.9427  1.9637 -2.1997
 2882SOL     OW14607   2.614   8.850   9.265 -0.1116  0.2882 -0.2671
 2882SOL    HW114608   2.659   8.772   9.297 -0.6678  0.5037  1.0988
 2882SOL    HW214609   2.636   8.854   9.172  2.6744  0.3976  0.3200
 2883SOL     OW14610   3.290   5.559   6.675  0.0147  0.4943  0.1607
 2883SOL    HW114611   3.236   5.522   6.744  2.6937 -0.9099  1.6879
 2883SOL    HW214612   3.324   5.483   6.628  1.6629  1.2174  0.1088
 2884SOL     OW14613   0.125   8.661   7.285 -0.4691  0.2400 -0.6327
 2884SOL    HW114614   0.211   8.630   7.313 -1.2882 -1.0557  0.6247
 2884SOL    HW214615   0.064   8.594   7.317 -2.0301  1.5407 -0.7398
 2885SOL     OW14616   6.494   7.075   5.039 -0.1040 -0.8108 -0.0687
 2885SOL    HW114617   6.433   7.024   4.987 -0.8009  0.5998 -0.6817
 2885SOL    HW214618   6.439   7.131   5.093  0.6349  0.0173 -0.1430
 2886SOL     OW14619   0.544   8.741   8.854 -0.3137 -0.1437 -0.5514
 2886SOL    HW114620   0.567   8.826   8.817 -0.5435  0.5401  0.8054
 2886SOL    HW214621   0.628   8.701   8.877 -0.2736  0.6054  0.6709
 2887SOL     OW14622   8.981   0.004   2.670  0.4324  0.0952 -0.2478
 2887SOL    HW114623   9.027   0.084   2.694  0.1050  0.2458 -0.1152
 2887SOL    HW214624   9.045  -0.047   2.621  1.0840 -0.1963  0.8882
 2888SOL     OW14625   1.853   3.008   9.149 -0.2892 -0.7281 -0.3282
 2888SOL    HW114626   1.909   2.991   9.074  0.4800 -0.7384  0.2309
 2888SOL    HW214627   1.771   3.040   9.112  1.2171  2.6027 -1.0797
 2889SOL     OW14628   3.487   4.612   8.052 -0.3151 -0.3261  0.4280
 2889SOL    HW114629   3.556   4.632   8.115  0.2886  0.6850 -0.5105
 2889SOL    HW214630   3.426   4.685   8.060  0.5095  0.6050 -1.1211
 2890SOL     OW14631   3.057   4.270   3.655  0.2312 -0.4572 -0.4656
 2890SOL    HW114632   3.094   4.347   3.611 -0.1749 -0.3780 -0.6714
 2890SOL    HW214633   3.130   4.209   3.661  0.4832 -0.1719 -0.5684
 2891SOL     OW14634   7.094   5.023   5.960  0.0688  0.2979 -0.4970
 2891SOL    HW114635   7.183   4.993   5.973 -0.8288 -1.2220  3.3906
 2891SOL    HW214636   7.086   5.102   6.013 -1.4416 -0.9487  1.2649
 2892SOL     OW14637   4.681   4.810   4.387 -0.1157 -0.1276 -0.1621
 2892SOL    HW114638   4.704   4.867   4.460  0.8986 -1.4086  0.5592
 2892SOL    HW214639   4.587   4.822   4.376 -0.0126  1.3097  0.2589
 2893SOL     OW14640   5.301   4.590   2.965  0.3429  0.0468  0.2306
 2893SOL    HW114641   5.225   4.591   2.908  0.4873  2.4049 -0.0096
 2893SOL    HW214642   5.266   4.608   3.052  0.5289  0.2559  0.2632
 2894SOL     OW14643   5.198   5.203   2.220 -0.2643 -0.7780 -0.5365
 2894SOL    HW114644   5.149   5.129   2.183  1.0854 -0.5726 -2.9152
 2894SOL    HW214645   5.221   5.174   2.309 -0.2783 -2.9916 -1.1861
 2895SOL     OW14646   4.878   8.356   1.574 -0.1530  0.5931 -0.0150
 2895SOL    HW114647   4.949   8.380   1.633  1.3768 -0.9596 -1.1508
 2895SOL    HW214648   4.804   8.337   1.632  1.1991 -0.5746  1.3959
 2896SOL     OW14649   7.632   1.756   2.742  0.0515 -0.2948 -0.4617
 2896SOL    HW114650   7.567   1.791   2.803 -0.3035 -0.9310 -0.4597
 2896SOL    HW214651   7.714   1.756   2.791  0.3537  1.6993 -0.8703
 2897SOL     OW14652   7.040   1.717   7.481  0.3696  0.2115 -0.1113
 2897SOL    HW114653   7.126   1.679   7.464  0.6406  0.3628  0.8507
 2897SOL    HW214654   7.028   1.708   7.575  0.5485  2.6825  0.2242
 2898SOL     OW14655   9.250   9.224   4.328  0.0665  0.3310 -0.2684
 2898SOL    HW114656   9.209   9.285   4.266 -0.5216  0.5114  0.2881
 2898SOL    HW214657   9.220   9.138   4.300  0.9285  0.2760 -1.0815
 2899SOL     OW14658   0.863   1.383   2.964 -0.4045  0.0472 -0.1705
 2899SOL    HW114659   0.834   1.408   3.052 -0.3754 -2.2238  0.5572
 2899SOL    HW214660   0.818   1.443   2.905  0.1936  2.1428  1.4107
 2900SOL     OW14661   1.107   2.386   4.512 -0.0776  0.3136  0.4393
 2900SOL    HW114662   1.194   2.362   4.479 -0.1968  0.4982 -0.0124
 2900SOL    HW214663   1.065   2.303   4.532  0.7311  0.2428  2.0644
 2901SOL     OW14664   9.361   0.464   5.668 -0.1589  0.3253  0.0738
 2901SOL    HW114665   9.308   0.518   5.727  1.5258  1.2363  0.8043
 2901SOL    HW214666   9.421   0.417   5.725  0.5205  0.0880 -0.8143
 2902SOL     OW14667   8.479   1.484   6.094 -0.1083 -0.4210 -0.3933
 2902SOL    HW114668   8.433   1.426   6.033  0.1301 -1.1327  0.0872
 2902SOL    HW214669   8.484   1.434   6.175 -1.0263  0.7675  0.4392
 2903SOL     OW14670   5.705   2.607   5.136 -0.0792 -0.5126  0.2535
 2903SOL    HW114671   5.625   2.658   5.123  1.6568  1.9905 -1.7064
 2903SOL    HW214672   5.725   2.618   5.229 -1.2146  0.1081  0.4496
 2904SOL     OW14673   7.030   8.267   8.078 -0.0607  0.0815  0.1850
 2904SOL    HW114674   6.983   8.350   8.072  1.6038  1.0034 -1.3812
 2904SOL    HW214675   7.033   8.247   8.172  0.2657  2.2882  0.7024
 2905SOL     OW14676   9.085   4.719   2.339 -0.1240  0.4649 -0.5002
 2905SOL    HW114677   9.096   4.657   2.266  1.7645  0.3879 -0.2039
 2905SOL    HW214678   8.999   4.699   2.375 -0.0263 -1.2209 -1.1241
 2906SOL     OW14679   6.978   1.078   8.222 -0.1750 -0.7099  0.0368
 2906SOL    HW114680   6.982   1.053   8.315  0.1827  0.7535  0.4470
 2906SOL    HW214681   6.904   1.138   8.217  0.4834  0.0979 -0.3728
 2907SOL     OW14682   9.108   6.835   5.886  0.1369  0.1693  0.2557
 2907SOL    HW114683   9.109   6.840   5.791 -0.1285  0.3987  0.2653
 2907SOL    HW214684   9.020   6.862   5.911  0.4331  0.8476  0.6078
 2908SOL     OW14685   7.842   3.779   2.040 -0.9401  0.5815 -0.5088
 2908SOL    HW114686   7.915   3.786   1.978 -0.8581 -1.3953 -0.7082
 2908SOL    HW214687   7.834   3.685   2.056 -2.1158  0.9223  1.1293
 2909SOL     OW14688   2.380   4.946   0.824 -0.0130 -0.3054  0.0673
 2909SOL    HW114689   2.462   4.913   0.860 -0.1797 -0.5452  0.2304
 2909SOL    HW214690   2.396   4.953   0.730  0.9957  1.9496  0.3492
 2910SOL     OW14691   1.898   7.229   9.030 -0.5656  0.5914 -0.3150
 2910SOL    HW114692   1.972   7.168   9.032 -1.3781 -0.4810 -1.7157
 2910SOL    HW214693   1.835   7.192   9.092 -0.4963  0.7711 -0.1345
 2911SOL     OW14694   4.523   7.596   2.976  0.3326 -0.0401 -0.1785
 2911SOL    HW114695   4.505   7.685   3.004  1.6035  0.4396 -0.8069
 2911SOL    HW214696   4.437   7.555   2.968 -0.2268  0.9067  0.7902
 2912SOL     OW14697   8.264   5.546   8.486 -0.2736  0.4280  0.0219
 2912SOL    HW114698   8.308   5.575   8.566  0.4834  0.8872 -0.5544
 2912SOL    HW214699   8.170   5.552   8.506 -0.0953 -0.3207  1.1742
 2913SOL     OW14700   3.576   1.338   0.463  0.3351  0.1202  0.0086
 2913SOL    HW114701   3.501   1.385   0.500  0.3366 -0.3756  0.6761
 2913SOL    HW214702   3.637   1.332   0.536  2.0738  2.5656 -1.1171
 2914SOL     OW14703   6.083   5.492   3.035 -0.2791  0.2819 -0.4755
 2914SOL    HW114704   6.064   5.532   3.119  0.8926  1.2936 -0.6637
 2914SOL    HW214705   6.036   5.546   2.971  0.4762  0.7771 -0.6338
 2915SOL     OW14706   2.117   0.142   4.797 -0.5875  0.0838  0.4071
 2915SOL    HW114707   2.071   0.224   4.785 -0.0033  0.6295  1.7679
 2915SOL    HW214708   2.048   0.077   4.813 -0.9651  0.6087  0.9321
 2916SOL     OW14709   2.947   6.017   4.654 -0.4824  0.1621 -0.1293
 2916SOL    HW114710   2.986   6.099   4.685  1.0644 -1.4056  2.4524
 2916SOL    HW214711   2.861   6.014   4.697  0.0651 -0.2075  0.9734
 2917SOL     OW14712   8.169   8.501   3.971  0.7952  0.0856  0.2175
 2917SOL    HW114713   8.127   8.558   3.906 -1.4750 -1.3039  0.3658
 2917SOL    HW214714   8.135   8.531   4.055 -0.2043 -1.2502  0.3196
 2918SOL     OW14715   4.587   5.683   6.161 -0.0327  0.2246  0.0655
 2918SOL    HW114716   4.573   5.592   6.189  0.7296  0.6159  1.8386
 2918SOL    HW214717   4.632   5.675   6.077 -0.4500 -1.0218 -0.0669
 2919SOL     OW14718   0.067   1.442   0.555 -0.0252 -0.1945  0.1541
 2919SOL    HW114719  -0.006   1.414   0.500 -1.6775  2.0202  1.0995
 2919SOL    HW214720   0.058   1.537   0.561  1.1023 -0.1734  2.8256
 2920SOL     OW14721   7.047   2.670   2.588  0.1627 -0.8474  0.6852
 2920SOL    HW114722   6.986   2.733   2.550  3.0890  2.4941  1.0288
 2920SOL    HW214723   7.119   2.665   2.525  1.4445 -1.3750  2.1180
 2921SOL     OW14724   4.568   9.216   6.871 -0.3920 -0.5294  0.2465
 2921SOL    HW114725   4.573   9.257   6.957 -0.4444  1.0765 -0.4762
 2921SOL    HW214726   4.479   9.236   6.840  0.2048  0.5050 -0.8952
 2922SOL     OW14727   4.835   7.527   2.833  0.5019 -0.1733 -0.0297
 2922SOL    HW114728   4.848   7.622   2.822  1.6580 -0.1601  1.1537
 2922SOL    HW214729   4.742   7.518   2.853  0.8708  1.0593  2.6253
 2923SOL     OW14730   7.073   9.138   1.297  0.4509  0.2030 -0.5931
 2923SOL    HW114731   6.978   9.131   1.289  0.5763  0.3003 -2.6240
 2923SOL    HW214732   7.105   9.137   1.207  2.4253 -0.3582  0.0673
 2924SOL     OW14733   0.023   4.443   1.295 -0.4221 -0.2621  0.0453
 2924SOL    HW114734  -0.010   4.353   1.287 -1.6117  0.3095 -2.4600
 2924SOL    HW214735   0.099   4.446   1.237 -0.8787  0.5391 -0.5311
 2925SOL     OW14736   5.617   0.546   9.328 -0.0225 -0.3517  0.0096
 2925SOL    HW114737   5.624   0.600   9.249  0.0839 -0.3400  0.0266
 2925SOL    HW214738   5.569   0.469   9.300 -0.5229 -0.0695  0.0783
 2926SOL     OW14739   8.435   9.263   1.517 -0.0093 -0.0478  0.0688
 2926SOL    HW114740   8.498   9.329   1.545 -1.2243 -0.2046  3.7070
 2926SOL    HW214741   8.374   9.310   1.461  2.2716  0.4824 -2.1421
 2927SOL     OW14742   3.617   2.459   2.695 -0.7385  0.0542  0.0823
 2927SOL    HW114743   3.688   2.455   2.759 -0.2970 -0.8667 -0.4500
 2927SOL    HW214744   3.600   2.368   2.673 -1.8737  0.2816 -0.0426
 2928SOL     OW14745   8.671   3.741   9.243  0.6020 -0.0812  0.5499
 2928SOL    HW114746   8.765   3.744   9.256  0.4446 -1.0052  2.2422
 2928SOL    HW214747   8.635   3.723   9.330 -1.0796 -0.7352 -0.2185
 2929SOL     OW14748   2.116   5.746   8.354 -0.3118 -0.0491  0.3478
 2929SOL    HW114749   2.048   5.770   8.417  1.6815  2.4087  1.7240
 2929SOL    HW214750   2.131   5.652   8.369 -0.0808  0.3908  3.4237
 2930SOL     OW14751   5.083   3.861   1.396  0.4695 -0.1499 -0.2945
 2930SOL    HW114752   5.175   3.843   1.415  0.9478  1.4103 -0.9244
 2930SOL    HW214753   5.079   3.871   1.301 -1.2244 -4.3783 -0.9012
 2931SOL     OW14754   8.671   7.400   0.100  0.5529 -0.4723  0.1706
 2931SOL    HW114755   8.712   7.484   0.118  1.9975 -1.3251  0.9959
 2931SOL    HW214756   8.675   7.352   0.183 -1.5801 -0.8325  0.1207
 2932SOL     OW14757   1.658   4.133   6.558  0.7534  0.2420  0.4326
 2932SOL    HW114758   1.712   4.062   6.520  0.0079  0.9050 -2.0514
 2932SOL    HW214759   1.568   4.108   6.537  0.5285  2.3839 -1.4878
 2933SOL     OW14760   2.739   0.103   7.517  0.1643  0.8038  0.0785
 2933SOL    HW114761   2.803   0.056   7.571 -0.1887  1.0103  0.6868
 2933SOL    HW214762   2.654   0.076   7.552 -0.2793 -1.7331 -2.5147
 2934SOL     OW14763   1.772   8.608   3.080 -0.4894  0.1117 -0.4583
 2934SOL    HW114764   1.786   8.517   3.108 -0.5607 -0.0560 -0.9664
 2934SOL    HW214765   1.792   8.659   3.158 -1.4133 -0.3948  0.1332
 2935SOL     OW14766   2.525   5.374   7.322  0.3204 -0.3180 -0.4570
 2935SOL    HW114767   2.585   5.347   7.392 -1.1824 -0.1245  0.9601
 2935SOL    HW214768   2.450   5.411   7.368 -0.4375  0.4125 -2.2131
 2936SOL     OW14769   6.535   5.061   6.086 -0.5382 -0.4647 -0.3817
 2936SOL    HW114770   6.507   4.976   6.051 -0.1671 -0.1454 -1.5078
 2936SOL    HW214771   6.487   5.125   6.034  0.0438  0.0309 -0.3150
 2937SOL     OW14772   1.306   6.473   3.519  0.0915 -0.4630  0.2753
 2937SOL    HW114773   1.242   6.494   3.451 -0.3588 -1.1439  0.4787
 2937SOL    HW214774   1.373   6.421   3.474  1.0602  1.1141 -0.1665
 2938SOL     OW14775   7.048   4.415   2.013  0.3330 -0.1854  0.2008
 2938SOL    HW114776   7.013   4.503   1.999 -0.4360 -0.2478  1.5645
 2938SOL    HW214777   7.128   4.413   1.961 -1.3970  0.1174 -2.6878
 2939SOL     OW14778   0.043   9.148   8.405 -0.2252 -0.2384  0.2993
 2939SOL    HW114779   0.126   9.197   8.406 -1.3935  1.8379  0.2085
 2939SOL    HW214780   0.070   9.057   8.414  2.0284  0.4323  1.1205
 2940SOL     OW14781   0.168   5.026   2.813 -0.1954 -0.0691  0.3157
 2940SOL    HW114782   0.150   4.980   2.732 -0.6616  2.1671 -0.9336
 2940SOL    HW214783   0.091   5.011   2.867 -0.1656 -1.0365  0.0971
 2941SOL     OW14784   1.424   6.336   4.782  0.2427  0.3365  0.0185
 2941SOL    HW114785   1.502   6.283   4.798  0.2666  0.6887  1.1994
 2941SOL    HW214786   1.351   6.275   4.790  0.3886 -0.0131 -1.1827
 2942SOL     OW14787   0.406   5.288   3.581 -0.0417 -0.0289  0.0192
 2942SOL    HW114788   0.340   5.270   3.648  1.2905  0.7525  1.6268
 2942SOL    HW214789   0.430   5.202   3.546 -0.1752 -0.5492  1.1571
 2943SOL     OW14790   8.557   2.592   0.210 -0.0694  0.3260 -0.3820
 2943SOL    HW114791   8.508   2.562   0.133 -0.9705  1.2180 -0.1611
 2943SOL    HW214792   8.648   2.570   0.189 -0.5541 -1.5924 -0.6816
 2944SOL     OW14793   9.272   8.074   3.148 -0.0269  0.2077 -0.3145
 2944SOL    HW114794   9.326   8.152   3.158  1.2919 -0.9028  1.8394
 2944SOL    HW214795   9.325   8.014   3.095 -0.5491  0.2933 -0.9599
 2945SOL     OW14796   6.045   0.696   1.825 -0.0088  0.0393  0.1422
 2945SOL    HW114797   6.084   0.732   1.745 -1.6047 -0.8035 -1.0815
 2945SOL    HW214798   6.111   0.636   1.859  0.4083 -0.1744 -0.9943
 2946SOL     OW14799   6.356   5.771   8.028 -0.4180  0.2545 -0.3792
 2946SOL    HW114800   6.293   5.754   7.958 -0.7206  1.8246 -0.5362
 2946SOL    HW214801   6.303   5.792   8.105 -0.1184  1.4402 -0.4709
 2947SOL     OW14802   1.055   4.535   5.083  0.9560  0.6060 -0.2453
 2947SOL    HW114803   1.139   4.488   5.084  1.6091  1.6777  1.4035
 2947SOL    HW214804   1.080   4.627   5.095 -0.4584  0.9242  0.4437
 2948SOL     OW14805   1.459   3.968   2.333 -0.0050 -0.3154 -0.2170
 2948SOL    HW114806   1.383   4.027   2.339 -0.4815 -1.0519  2.3539
 2948SOL    HW214807   1.502   3.977   2.418  0.0600 -3.4620  0.1680
 2949SOL     OW14808   0.040   4.942   8.345  0.5583 -0.2720  0.2055
 2949SOL    HW114809  -0.030   5.003   8.369  0.7306  0.7280 -1.6506
 2949SOL    HW214810   0.020   4.918   8.255  1.7505 -1.2149  0.1690
 2950SOL     OW14811   8.422   2.181   1.263 -0.3588 -0.4873  0.2194
 2950SOL    HW114812   8.355   2.221   1.319 -0.1071 -0.2243  0.3375
 2950SOL    HW214813   8.496   2.166   1.322  0.6283  1.5603 -0.4036
 2951SOL     OW14814   7.563   6.728   6.832  0.5000 -0.6338 -0.0071
 2951SOL    HW114815   7.649   6.761   6.857 -0.1977  1.0644  0.2591
 2951SOL    HW214816   7.508   6.806   6.825 -1.6411 -1.7934  2.2192
 2952SOL     OW14817   3.649   3.017   7.407  0.1823  0.4825 -0.2023
 2952SOL    HW114818   3.634   3.102   7.450 -3.0355 -1.0986  2.1870
 2952SOL    HW214819   3.744   3.014   7.395  0.4696  4.2947 -0.2517
 2953SOL     OW14820   5.741   0.517   6.891 -0.4307 -0.4758 -0.2006
 2953SOL    HW114821   5.819   0.560   6.855  0.8611  0.6402  3.4097
 2953SOL    HW214822   5.762   0.424   6.890  0.2545 -0.3220 -0.8017
 2954SOL     OW14823   3.744   4.327   0.895 -0.2113 -0.1689  0.3376
 2954SOL    HW114824   3.706   4.380   0.964  0.9519  1.2935 -0.0815
 2954SOL    HW214825   3.835   4.356   0.890  0.5666 -2.4162  0.2557
 2955SOL     OW14826   7.267   5.815   8.030 -0.6640  0.4228  0.2796
 2955SOL    HW114827   7.281   5.790   8.121  1.0286  0.9184  0.1824
 2955SOL    HW214828   7.226   5.739   7.990  1.8218 -1.2153  0.6384
 2956SOL     OW14829   6.902   1.950   7.847  0.3338 -0.2058 -0.0950
 2956SOL    HW114830   6.829   1.924   7.790  1.0278  0.0581 -1.1268
 2956SOL    HW214831   6.862   2.010   7.910 -0.6408 -1.2530  0.3284
 2957SOL     OW14832   0.960   1.095   3.034  0.2016 -0.3790 -0.0766
 2957SOL    HW114833   0.965   1.096   2.939 -2.4384 -0.4042 -0.2893
 2957SOL    HW214834   0.968   1.187   3.059 -2.1157  0.0288 -0.6206
 2958SOL     OW14835   1.425   3.333   2.042 -0.3326  0.3444  0.6567
 2958SOL    HW114836   1.454   3.242   2.038 -0.5991  0.2384  1.0217
 2958SOL    HW214837   1.374   3.346   1.962 -2.7320 -0.6988  1.9327
 2959SOL     OW14838   0.463   7.729   9.353  0.2862 -0.2370  0.0478
 2959SOL    HW114839   0.503   7.713   9.439 -0.3848  1.4636  0.7342
 2959SOL    HW214840   0.488   7.654   9.300  2.1884 -0.4805  1.2094
 2960SOL     OW14841   6.870   6.742   6.870 -0.4370  0.3959 -0.9128
 2960SOL    HW114842   6.828   6.723   6.954  2.1698  0.2639  0.4416
 2960SOL    HW214843   6.936   6.674   6.860  3.3006  3.5776 -0.1085
 2961SOL     OW14844   5.709   7.314   8.683  0.4794  0.1202  0.2757
 2961SOL    HW114845   5.762   7.275   8.613  0.3415 -1.9722  1.2528
 2961SOL    HW214846   5.771   7.325   8.756  0.8170  3.0428 -0.3501
 2962SOL     OW14847   7.971   6.066   0.217  0.0054 -0.0112 -0.3393
 2962SOL    HW114848   7.977   6.130   0.146 -1.9903 -0.3758 -0.8997
 2962SOL    HW214849   7.983   6.118   0.297  0.2745  0.7463 -0.8636
 2963SOL     OW14850   1.577   4.634   8.801  0.2055  0.7714 -0.4724
 2963SOL    HW114851   1.611   4.578   8.870 -0.7855  0.6131 -0.0956
 2963SOL    HW214852   1.505   4.683   8.842 -0.4128  0.6597 -1.3861
 2964SOL     OW14853   1.309   8.500   8.242  0.0574  0.0212 -0.1763
 2964SOL    HW114854   1.250   8.563   8.284  0.0499  0.4203 -0.7655
 2964SOL    HW214855   1.281   8.415   8.275  0.6368  0.3775  1.3338
 2965SOL     OW14856   2.600   8.718   5.350  0.2176  0.0267  0.2535
 2965SOL    HW114857   2.521   8.752   5.308 -0.1312 -0.6858  0.3092
 2965SOL    HW214858   2.661   8.791   5.350 -0.2744  0.4460 -0.2253
 2966SOL     OW14859   2.743   7.948   0.342 -0.6770 -0.1630 -0.3269
 2966SOL    HW114860   2.822   7.894   0.334 -1.4376 -1.4923  0.8152
 2966SOL    HW214861   2.699   7.915   0.420 -1.2887  2.0021  0.3067
 2967SOL     OW14862   0.123   5.413   9.056 -0.2340  0.7847  0.9921
 2967SOL    HW114863   0.119   5.471   9.133  0.6567  0.8807  0.9658
 2967SOL    HW214864   0.044   5.435   9.006 -1.4917 -0.1395  2.4815
 2968SOL     OW14865   5.797   6.534   2.047  0.4512  0.8892 -0.1960
 2968SOL    HW114866   5.858   6.512   1.976  0.0531 -0.4035 -0.1657
 2968SOL    HW214867   5.821   6.623   2.073  1.1151  1.0911 -1.4255
 2969SOL     OW14868   0.423   4.703   8.430 -0.3728  0.3295  0.5052
 2969SOL    HW114869   0.450   4.740   8.346 -1.2692  0.7635  0.3989
 2969SOL    HW214870   0.460   4.763   8.496  0.0304  0.1834  0.4167
 2970SOL     OW14871   9.338   2.634   5.918 -0.2696  0.6152  0.0074
 2970SOL    HW114872   9.399   2.640   5.992 -2.7815  3.1541  2.0862
 2970SOL    HW214873   9.272   2.701   5.936 -3.8414 -2.0273 -1.9715
 2971SOL     OW14874   3.873   0.042   0.530 -0.1404 -0.3588  0.0314
 2971SOL    HW114875   3.941   0.107   0.545  1.1575 -1.5699 -0.3907
 2971SOL    HW214876   3.915  -0.042   0.547 -1.6935 -1.1189  0.2971
 2972SOL     OW14877   5.375   9.225   3.308  0.0881 -0.1452  0.6846
 2972SOL    HW114878   5.317   9.232   3.233  0.5093 -0.1937  0.3486
 2972SOL    HW214879   5.321   9.187   3.377 -0.5793  0.8094  0.7142
 2973SOL     OW14880   9.192   2.456   4.422  0.1849  0.2669 -0.2878
 2973SOL    HW114881   9.271   2.402   4.434 -0.4803 -0.4628  0.9899
 2973SOL    HW214882   9.119   2.395   4.430 -0.5970  1.3457  1.2967
 2974SOL     OW14883   4.428   1.137   4.943  0.1538 -0.0455 -0.0812
 2974SOL    HW114884   4.469   1.200   4.884  0.6340 -2.1677 -2.1528
 2974SOL    HW214885   4.336   1.135   4.916 -0.0175  0.2734  0.4648
 2975SOL     OW14886   5.861   7.502   5.276  0.9129 -0.0051  0.4758
 2975SOL    HW114887   5.900   7.436   5.333  1.4442 -0.8882 -0.8633
 2975SOL    HW214888   5.926   7.518   5.208 -0.1250  0.1900 -0.5174
 2976SOL     OW14889   4.807   5.592   7.937 -0.3225 -0.3933 -0.5738
 2976SOL    HW114890   4.774   5.605   8.026 -1.1070 -1.2487 -0.7181
 2976SOL    HW214891   4.900   5.575   7.948 -0.0889  1.0897 -0.0625
 2977SOL     OW14892   8.481   0.569   0.169 -0.5385  0.4279  0.0420
 2977SOL    HW114893   8.430   0.495   0.201 -1.4148  0.2171 -1.7268
 2977SOL    HW214894   8.549   0.581   0.234  0.5995 -2.9285 -0.3414
 2978SOL     OW14895   6.428   7.765   3.473 -0.2379  0.0953 -0.2645
 2978SOL    HW114896   6.400   7.850   3.507 -0.4001 -0.2348  0.4485
 2978SOL    HW214897   6.468   7.785   3.388 -2.1021  0.6648 -1.0734
 2979SOL     OW14898   0.586   4.736   0.473 -0.1872 -0.4163  0.5861
 2979SOL    HW114899   0.653   4.682   0.431 -0.5892 -1.7054  1.5020
 2979SOL    HW214900   0.505   4.712   0.428 -0.3238 -0.3778  0.8103
 2980SOL     OW14901   2.483   6.338   4.035 -0.2760  0.0019 -0.0592
 2980SOL    HW114902   2.522   6.323   3.949 -0.1465 -1.1945  0.1925
 2980SOL    HW214903   2.507   6.428   4.057  0.2772  0.0837 -0.9649
 2981SOL     OW14904   0.336   3.561   0.685 -0.4013 -0.2582 -0.2403
 2981SOL    HW114905   0.311   3.582   0.595  0.7161  1.5851 -0.1792
 2981SOL    HW214906   0.432   3.563   0.684 -0.2906 -2.2544  0.5811
 2982SOL     OW14907   0.890   2.286   1.497 -0.3191 -0.3134  0.5046
 2982SOL    HW114908   0.946   2.294   1.574  1.2294 -1.7948 -0.3924
 2982SOL    HW214909   0.808   2.248   1.531 -0.9581  2.0430  1.8551
 2983SOL     OW14910   1.492   5.872   8.479 -0.4211 -0.0341 -0.0319
 2983SOL    HW114911   1.556   5.801   8.487 -0.7608 -0.5762 -1.7754
 2983SOL    HW214912   1.471   5.875   8.386 -1.5468  1.3777  0.2386
 2984SOL     OW14913   3.638   8.779   2.406 -0.2051 -0.3008  0.2120
 2984SOL    HW114914   3.712   8.762   2.464 -0.8272 -1.5935  0.6482
 2984SOL    HW214915   3.583   8.840   2.455  0.7925  1.0857 -0.3263
 2985SOL     OW14916   0.555   5.785   8.915 -0.1872 -0.4650 -0.2233
 2985SOL    HW114917   0.522   5.763   8.828  1.3203  0.1862 -0.9898
 2985SOL    HW214918   0.482   5.831   8.957 -1.2503 -1.5717 -0.7776
 2986SOL     OW14919   8.568   8.222   0.280  0.6147 -0.3053  0.2384
 2986SOL    HW114920   8.629   8.289   0.312  3.9398 -2.8716 -0.1846
 2986SOL    HW214921   8.526   8.262   0.204  0.5565  2.1083  1.4474
 2987SOL     OW14922   4.327   8.833   1.885 -0.6209  0.0959  0.5580
 2987SOL    HW114923   4.287   8.747   1.895 -0.6902 -0.2185 -1.7422
 2987SOL    HW214924   4.408   8.816   1.836 -0.6137  1.3245  0.1160
 2988SOL     OW14925   6.065   7.280   3.053 -0.4244 -0.3234  0.4336
 2988SOL    HW114926   5.996   7.246   3.110 -1.0595 -0.2110 -0.2439
 2988SOL    HW214927   6.146   7.259   3.098 -0.7994 -2.3088  0.3027
 2989SOL     OW14928   4.664   2.558   3.837 -0.2712 -0.2247  0.3392
 2989SOL    HW114929   4.676   2.471   3.798 -0.1105  0.3956 -1.0639
 2989SOL    HW214930   4.747   2.577   3.880 -0.4109 -0.8865  0.9091
 2990SOL     OW14931   2.246   4.251   0.557  0.0153  0.5963  0.2719
 2990SOL    HW114932   2.209   4.171   0.594  3.2595 -2.1014 -1.7550
 2990SOL    HW214933   2.192   4.270   0.480  0.1990 -0.6987 -0.1914
 2991SOL     OW14934   9.009   4.206   3.873  0.7526  0.1817 -0.4387
 2991SOL    HW114935   9.026   4.239   3.961  1.4831 -0.2846 -0.3997
 2991SOL    HW214936   8.925   4.245   3.849 -0.4894 -1.2395  1.2659
 2992SOL     OW14937   5.198   2.171   7.323  0.3880  0.7378 -0.7165
 2992SOL    HW114938   5.110   2.210   7.327 -0.0122 -0.1688  0.1300
 2992SOL    HW214939   5.181   2.077   7.309  1.2197  0.5459 -0.4805
 2993SOL     OW14940   9.096   0.166   6.348 -0.3721 -0.4899 -0.0992
 2993SOL    HW114941   9.031   0.237   6.341 -0.9921 -0.8631  1.5081
 2993SOL    HW214942   9.181   0.210   6.342 -0.7545  0.2001 -0.5934
 2994SOL     OW14943   5.187   7.058   3.216 -0.3596 -0.5306  0.1005
 2994SOL    HW114944   5.213   7.139   3.173  0.0863 -0.4383  0.5291
 2994SOL    HW214945   5.231   7.061   3.301  0.3295 -1.5979 -0.2017
 2995SOL     OW14946   1.547   7.676   4.430 -0.0266 -0.0975 -0.0467
 2995SOL    HW114947   1.527   7.755   4.481  1.4441 -1.0616  2.1804
 2995SOL    HW214948   1.473   7.618   4.445 -1.7707  1.2253 -2.7711
 2996SOL     OW14949   4.008   7.424   0.690  0.2612  0.0129  0.5133
 2996SOL    HW114950   3.923   7.383   0.679  0.3011  0.1694 -0.4848
 2996SOL    HW214951   4.026   7.418   0.784 -0.4001 -0.8985  0.5929
 2997SOL     OW14952   8.691   0.223   4.784 -0.1681  0.0414  0.3573
 2997SOL    HW114953   8.704   0.189   4.873 -1.4605 -0.1626  0.4752
 2997SOL    HW214954   8.633   0.160   4.742  1.2193 -0.4025 -0.9893
 2998SOL     OW14955   8.529   2.062   9.326 -0.2193  0.6006 -0.1119
 2998SOL    HW114956   8.597   2.113   9.282  1.0990  0.0262  1.1890
 2998SOL    HW214957   8.447   2.093   9.287  0.7691  1.2996 -1.7366
 2999SOL     OW14958   2.318   5.997   4.127  0.1290 -0.3977 -0.1106
 2999SOL    HW114959   2.281   5.915   4.092  0.7984 -0.7782  0.0519
 2999SOL    HW214960   2.412   5.991   4.106 -0.0397  1.0139 -1.4364
 3000SOL     OW14961   3.398   7.695   1.820 -0.2389 -0.0594  0.1188
 3000SOL    HW114962   3.384   7.717   1.728 -0.0685  2.6400  0.6714
 3000SOL    HW214963   3.475   7.638   1.819 -0.7082 -0.7337 -1.4446
 3001SOL     OW14964   6.530   5.301   5.754  0.3507  0.0787  0.9486
 3001SOL    HW114965   6.517   5.332   5.665  0.1178  0.2369  1.0360
 3001SOL    HW214966   6.563   5.377   5.802  0.6596 -0.0562  0.9557
 3002SOL     OW14967   8.095   2.028   3.894 -0.8277 -0.0545  0.2937
 3002SOL    HW114968   8.053   1.978   3.824 -0.9656  2.2783 -1.3903
 3002SOL    HW214969   8.184   1.994   3.898 -0.8568 -0.3219 -0.9281
 3003SOL     OW14970   4.169   2.001   0.440 -0.1057 -0.0149  0.2229
 3003SOL    HW114971   4.142   1.970   0.527  0.7755 -1.4867  0.0060
 3003SOL    HW214972   4.130   1.938   0.379 -1.9187  1.7964 -0.6100
 3004SOL     OW14973   8.374   5.090   4.021  0.0996 -0.3571 -0.1166
 3004SOL    HW114974   8.287   5.089   3.981  0.2408 -0.9324 -0.4180
 3004SOL    HW214975   8.422   5.157   3.973  0.9432 -2.4617 -2.4092
 3005SOL     OW14976   3.326   7.050   6.441 -0.6792  0.5089 -0.2022
 3005SOL    HW114977   3.405   7.011   6.477 -1.0080  0.1219  0.1096
 3005SOL    HW214978   3.318   7.134   6.487  0.0907  1.0026 -0.9585
 3006SOL     OW14979   2.859   1.058   7.945 -0.1952 -0.9566  0.0115
 3006SOL    HW114980   2.869   0.996   8.018  1.4763 -1.9807 -1.0184
 3006SOL    HW214981   2.883   1.142   7.982 -1.0717 -1.1512  1.0748
 3007SOL     OW14982   6.843   4.328   3.798  0.2598 -0.1186  0.1138
 3007SOL    HW114983   6.885   4.414   3.794 -0.2907  0.1861  0.7939
 3007SOL    HW214984   6.883   4.279   3.726  0.5601  0.7099 -0.2968
 3008SOL     OW14985   0.581   4.555   5.212 -0.4019 -0.6406 -0.4742
 3008SOL    HW114986   0.631   4.522   5.288  0.0930 -0.9561 -0.9296
 3008SOL    HW214987   0.490   4.555   5.241 -0.4327 -2.4989 -0.4812
 3009SOL     OW14988   1.615   3.599   9.133 -0.0972  0.0156  0.0981
 3009SOL    HW114989   1.689   3.659   9.126  1.3144 -1.6094  0.5060
 3009SOL    HW214990   1.646   3.518   9.092 -2.0126 -0.4163 -0.6138
 3010SOL     OW14991   4.360   6.877   8.406 -0.1200  0.7275 -0.3157
 3010SOL    HW114992   4.300   6.894   8.333 -1.0339  0.1493  0.2772
 3010SOL    HW214993   4.358   6.782   8.417 -0.2142  0.8341  0.6522
 3011SOL     OW14994   1.981   6.440   1.377 -0.1098 -0.2143  0.1353
 3011SOL    HW114995   1.966   6.362   1.323  0.2315  0.0937 -0.4156
 3011SOL    HW214996   2.070   6.430   1.409 -0.2923 -0.3661  0.5954
 3012SOL     OW14997   0.092   3.031   0.705  0.0315 -0.0718 -0.3773
 3012SOL    HW114998   0.158   2.962   0.708 -0.9644 -1.1331 -1.6148
 3012SOL    HW214999   0.010   2.986   0.726 -0.7741  0.5100 -2.1249
 3013SOL     OW15000   1.639   7.729   0.980 -0.0550 -0.0833  0.9745
 3013SOL    HW115001   1.680   7.747   0.895 -1.1587  1.0118  0.6463
 3013SOL    HW215002   1.674   7.643   1.005  0.2394 -0.4725 -0.6228
 3014SOL     OW15003   5.816   3.803   0.456  0.1574 -0.0083  0.0148
 3014SOL    HW115004   5.855   3.794   0.369 -1.0185 -0.5473 -0.4826
 3014SOL    HW215005   5.750   3.734   0.460  0.6645 -0.4456  1.6265
 3015SOL     OW15006   8.547   0.867   4.839 -0.5610  0.5624 -0.1178
 3015SOL    HW115007   8.533   0.873   4.933 -0.3775  0.2026 -0.0647
 3015SOL    HW215008   8.498   0.941   4.802 -2.2718 -0.4387  0.0815
 3016SOL     OW15009   1.987   6.772   8.101  0.0865  0.4331  0.1413
 3016SOL    HW115010   1.929   6.802   8.031  1.1036 -0.1352 -0.9821
 3016SOL    HW215011   1.994   6.847   8.160 -1.3207  0.6970  0.0033
 3017SOL     OW15012   7.470   0.047   4.214  0.6030  0.2604 -0.1115
 3017SOL    HW115013   7.452  -0.016   4.144 -1.3138  0.8781 -0.2343
 3017SOL    HW215014   7.410   0.120   4.196  1.4803  1.3110  1.0585
 3018SOL     OW15015   7.138   7.021   4.817 -0.0641 -0.2198  0.3420
 3018SOL    HW115016   7.214   7.016   4.760 -0.8298  0.3838 -0.7698
 3018SOL    HW215017   7.064   6.995   4.761 -0.8718  0.6767  0.9642
 3019SOL     OW15018   7.244   2.269   0.059 -0.1320 -0.0350 -0.0245
 3019SOL    HW115019   7.261   2.175   0.065 -1.9114 -0.4181 -0.3215
 3019SOL    HW215020   7.329   2.308   0.039  0.5663 -1.6234 -0.3004
 3020SOL     OW15021   6.029   3.043   3.557 -0.6582  0.2901 -0.0501
 3020SOL    HW115022   6.081   2.963   3.546  0.7381  0.8582  1.8740
 3020SOL    HW215023   6.076   3.110   3.508  0.2067  0.6915  1.2772
 3021SOL     OW15024   8.298   7.386   1.687  0.3655  0.5467  0.2978
 3021SOL    HW115025   8.267   7.472   1.659 -1.6249  0.3561  1.6981
 3021SOL    HW215026   8.246   7.324   1.637 -0.1658  0.2053  1.2334
 3022SOL     OW15027   3.160   6.274   8.838 -0.2323  0.7434  0.0242
 3022SOL    HW115028   3.105   6.295   8.762  0.4663  2.1448 -0.1247
 3022SOL    HW215029   3.198   6.358   8.864  0.9343 -0.0032  0.8265
 3023SOL     OW15030   6.183   7.598   1.412 -0.4230 -0.0085 -0.2036
 3023SOL    HW115031   6.190   7.607   1.507 -1.8757  0.8726 -0.1463
 3023SOL    HW215032   6.231   7.518   1.391 -0.4304 -0.4349  1.3181
 3024SOL     OW15033   4.140   7.458   1.869  0.4447 -0.1741 -0.5975
 3024SOL    HW115034   4.210   7.452   1.934 -0.7658 -1.6207  0.6449
 3024SOL    HW215035   4.060   7.461   1.920 -0.6095 -2.2378 -2.0059
 3025SOL     OW15036   1.419   9.343   7.154 -0.2541 -0.6582 -0.1047
 3025SOL    HW115037   1.422   9.367   7.061  0.1835 -0.6691 -0.0926
 3025SOL    HW215038   1.417   9.426   7.200  1.4360 -0.6108 -0.0557
 3026SOL     OW15039   1.809   6.732   7.113  0.2960  0.1609  0.0457
 3026SOL    HW115040   1.852   6.810   7.149 -2.1771  1.0515  1.2830
 3026SOL    HW215041   1.765   6.692   7.188 -1.8070 -0.1423 -1.2755
 3027SOL     OW15042   1.479   4.611   2.868  0.0991  0.4798 -0.1243
 3027SOL    HW115043   1.553   4.673   2.872  1.1175 -0.6236 -1.0500
 3027SOL    HW215044   1.519   4.525   2.882 -0.9447 -0.1709 -0.9874
 3028SOL     OW15045   3.886   2.988   1.047 -0.0310 -0.1973  0.3386
 3028SOL    HW115046   3.965   2.976   1.100  3.1199  0.8634 -3.5990
 3028SOL    HW215047   3.856   3.077   1.070 -0.8644 -0.9822  2.6080
 3029SOL     OW15048   6.726   6.382   2.204  0.2948 -0.1162  0.0508
 3029SOL    HW115049   6.802   6.325   2.211  2.2807  2.2341 -0.7507
 3029SOL    HW215050   6.762   6.471   2.207 -2.5602  1.1483  0.8716
 3030SOL     OW15051   6.903   8.673   5.558 -0.1571 -0.2459 -0.3092
 3030SOL    HW115052   6.988   8.633   5.575 -0.7107 -1.7842 -1.0311
 3030SOL    HW215053   6.896   8.674   5.463 -1.1192 -0.5221 -0.2462
 3031SOL     OW15054   5.367   8.620   7.215 -0.5915 -0.1925 -0.1969
 3031SOL    HW115055   5.392   8.640   7.125 -0.8184  0.5115 -0.1124
 3031SOL    HW215056   5.416   8.683   7.268 -0.5153 -0.5528  0.1680
 3032SOL     OW15057   6.972   5.283   3.152  0.0538  0.2933  0.0330
 3032SOL    HW115058   6.998   5.362   3.105 -1.1760  0.1499 -0.9410
 3032SOL    HW215059   7.054   5.237   3.170  0.5940  0.5674 -1.6009
 3033SOL     OW15060   3.683   0.096   1.777  0.0347 -0.2596  0.5028
 3033SOL    HW115061   3.682   0.189   1.755 -0.0382  0.1437  2.1093
 3033SOL    HW215062   3.633   0.055   1.706 -2.0549  1.2188  1.0080
 3034SOL     OW15063   5.203   2.498   3.703 -0.3736  0.6943  0.1499
 3034SOL    HW115064   5.205   2.466   3.612 -0.2160  0.9018  0.0783
 3034SOL    HW215065   5.121   2.465   3.739 -0.6733  1.0176 -0.2214
 3035SOL     OW15066   6.268   6.475   4.334  0.1109 -0.7616  0.1732
 3035SOL    HW115067   6.177   6.477   4.364  0.7088 -0.1136  2.0891
 3035SOL    HW215068   6.319   6.502   4.410  1.7838  0.9018 -1.4093
 3036SOL     OW15069   3.056   5.445   7.690  0.0618 -0.2721  0.5693
 3036SOL    HW115070   2.964   5.421   7.703 -0.1789  0.3287  0.0439
 3036SOL    HW215071   3.056   5.496   7.609  1.0496 -1.2841 -0.0761
 3037SOL     OW15072   7.645   7.450   4.283 -0.4309 -0.4420  0.0698
 3037SOL    HW115073   7.625   7.469   4.375 -1.5458 -0.4851 -0.1578
 3037SOL    HW215074   7.582   7.502   4.234 -0.0740 -0.7089 -0.6763
 3038SOL     OW15075   3.010   0.242   0.038  0.1323 -0.0932 -0.2917
 3038SOL    HW115076   3.085   0.233   0.097  0.1320  0.8057 -0.1487
 3038SOL    HW215077   2.984   0.333   0.046 -0.3392 -0.1493 -1.1215
 3039SOL     OW15078   0.085   8.759   4.734  0.3561 -0.1234 -0.1071
 3039SOL    HW115079   0.017   8.814   4.696  0.7523  0.2918 -0.2376
 3039SOL    HW215080   0.059   8.747   4.825  0.4503  0.6108  0.0273
 3040SOL     OW15081   8.412   6.480   7.374  0.7825 -0.0342  0.3148
 3040SOL    HW115082   8.385   6.508   7.286  0.9320  1.0654  0.5967
 3040SOL    HW215083   8.505   6.459   7.365  1.0244  0.9515  0.3868
 3041SOL     OW15084   2.360   2.854   0.881  0.1717 -0.6304  0.7439
 3041SOL    HW115085   2.297   2.790   0.846 -0.3224  0.9911 -1.5829
 3041SOL    HW215086   2.445   2.814   0.865 -0.0882 -0.4057 -1.5402
 3042SOL     OW15087   2.753   6.283   7.413  0.3728 -0.5672  0.2267
 3042SOL    HW115088   2.836   6.293   7.367  1.6863  1.3347  2.7638
 3042SOL    HW215089   2.757   6.195   7.451  1.9069  0.0135  1.4853
 3043SOL     OW15090   5.631   0.925   0.105 -0.1238 -0.1377 -0.5460
 3043SOL    HW115091   5.674   0.848   0.142  2.4697  1.2299 -0.5024
 3043SOL    HW215092   5.629   0.989   0.177 -1.0996  0.2978 -0.9373
 3044SOL     OW15093   5.033   6.788   8.844  0.5431 -0.4719  0.0950
 3044SOL    HW115094   4.949   6.830   8.860  0.0216 -1.7889  0.9622
 3044SOL    HW215095   5.093   6.829   8.907  0.1022 -0.8500  0.7617
 3045SOL     OW15096   5.710   4.074   0.495 -0.1874  0.3294 -0.2623
 3045SOL    HW115097   5.724   4.103   0.585 -1.6357 -0.5936  0.2972
 3045SOL    HW215098   5.759   3.991   0.489  0.2047  0.5718 -0.4441
 3046SOL     OW15099   6.220   0.034   4.785 -0.5038  0.0739  0.2137
 3046SOL    HW115100   6.314   0.053   4.777 -0.3035 -1.4180 -1.9814
 3046SOL    HW215101   6.215  -0.027   4.859  0.0601  1.0910  1.1285
 3047SOL     OW15102   2.846   0.724   7.137  0.0757 -0.6715 -0.5262
 3047SOL    HW115103   2.762   0.733   7.182 -0.0166 -0.1514 -0.7965
 3047SOL    HW215104   2.869   0.813   7.110  1.3133 -0.6074  0.6109
 3048SOL     OW15105   3.152   4.421   9.123 -0.0115 -0.1612 -0.2331
 3048SOL    HW115106   3.199   4.354   9.073 -1.7748 -1.1502 -0.6491
 3048SOL    HW215107   3.111   4.373   9.195 -0.0521  0.7367  0.3472
 3049SOL     OW15108   1.169   6.513   3.752  0.4629 -0.1878  0.4218
 3049SOL    HW115109   1.248   6.536   3.801  0.0014  0.6601  0.7899
 3049SOL    HW215110   1.198   6.507   3.661  1.0564 -0.4212  0.6238
 3050SOL     OW15111   8.670   8.161   3.799  0.0400 -0.6070 -0.5206
 3050SOL    HW115112   8.756   8.119   3.793 -0.2065 -1.1278 -0.3971
 3050SOL    HW215113   8.642   8.171   3.708  2.0479  3.3922 -0.9284
 3051SOL     OW15114   6.445   5.827   7.557 -0.1041 -0.0488 -0.0764
 3051SOL    HW115115   6.520   5.843   7.501 -0.3434  3.1678  0.3160
 3051SOL    HW215116   6.480   5.833   7.646 -0.4968 -0.5468  0.1165
 3052SOL     OW15117   5.706   2.988   2.716 -0.1828 -0.1328  0.4232
 3052SOL    HW115118   5.653   2.958   2.790  0.8015  0.4765  1.4098
 3052SOL    HW215119   5.693   3.083   2.714 -0.1816 -0.1388 -0.1848
 3053SOL     OW15120   2.601   7.094   6.393  0.4655  0.9400  0.4473
 3053SOL    HW115121   2.538   7.118   6.461 -0.7595  0.5936 -0.5215
 3053SOL    HW215122   2.554   7.109   6.311  2.1487  2.0537 -0.3739
 3054SOL     OW15123   6.289   8.159   4.023 -0.1596 -0.2707 -0.3858
 3054SOL    HW115124   6.288   8.195   3.934  1.1967 -0.9118 -0.6836
 3054SOL    HW215125   6.373   8.114   4.030 -0.2767 -0.3056  1.2043
 3055SOL     OW15126   4.510   6.934   7.775  0.3339  0.3312 -0.2999
 3055SOL    HW115127   4.571   6.993   7.818  0.9543 -0.7512  0.3788
 3055SOL    HW215128   4.558   6.851   7.769 -0.3143  0.0293 -1.6968
 3056SOL     OW15129   3.153   0.949   5.708  0.0079 -0.2940  0.2000
 3056SOL    HW115130   3.150   1.044   5.704 -2.5141 -0.3175 -3.6193
 3056SOL    HW215131   3.230   0.925   5.656 -1.4197 -0.2502 -2.0517
 3057SOL     OW15132   3.144   8.345   0.847  0.2911 -0.3741  0.0267
 3057SOL    HW115133   3.148   8.250   0.844  0.0380 -0.3723 -0.5797
 3057SOL    HW215134   3.147   8.372   0.755 -0.0841  0.1792  0.1715
 3058SOL     OW15135   8.278   8.184   3.559 -0.2292 -0.0256  0.3898
 3058SOL    HW115136   8.251   8.199   3.650  1.4078 -1.4836  1.1872
 3058SOL    HW215137   8.374   8.183   3.563 -0.1418 -0.2748 -1.3358
 3059SOL     OW15138   3.385   1.630   2.473  0.1295 -0.5049 -1.0229
 3059SOL    HW115139   3.389   1.716   2.431 -0.1901  0.6523  1.1514
 3059SOL    HW215140   3.292   1.619   2.495  0.3738 -0.7866 -0.1003
 3060SOL     OW15141   5.849   0.192   3.510 -0.2403  0.2258 -0.3495
 3060SOL    HW115142   5.777   0.245   3.477  0.7918  1.1829 -1.1403
 3060SOL    HW215143   5.841   0.109   3.463 -1.3404 -0.0195  0.2363
 3061SOL     OW15144   6.287   1.660   4.847 -0.0569  0.4214 -0.8251
 3061SOL    HW115145   6.315   1.672   4.937 -0.3311  3.4791 -1.0474
 3061SOL    HW215146   6.213   1.599   4.853 -0.1910  0.7194  1.0336
 3062SOL     OW15147   5.915   4.471   4.306  0.2154 -0.1077  0.0963
 3062SOL    HW115148   5.833   4.448   4.261 -0.0532  1.5563 -0.3560
 3062SOL    HW215149   5.930   4.399   4.367 -2.3304  0.1547  1.1771
 3063SOL     OW15150   6.822   3.291   4.517 -0.6777  0.4519 -0.5746
 3063SOL    HW115151   6.906   3.259   4.486 -0.7703  0.7677 -1.1601
 3063SOL    HW215152   6.760   3.221   4.496 -0.4544 -0.1095  0.5330
 3064SOL     OW15153   4.480   8.272   2.937 -0.1427  0.0649 -0.3038
 3064SOL    HW115154   4.507   8.363   2.949 -1.5373  0.3278  1.0160
 3064SOL    HW215155   4.486   8.258   2.842  1.2201  1.1393 -0.4166
 3065SOL     OW15156   1.880   5.869   2.554 -0.0358  0.4898 -0.0290
 3065SOL    HW115157   1.921   5.829   2.477  1.1222  1.9652 -0.2361
 3065SOL    HW215158   1.948   5.927   2.589 -0.9099  0.6276  1.4996
 3066SOL     OW15159   0.046   3.891   7.997  0.5479 -0.3871  0.6759
 3066SOL    HW115160   0.055   3.956   7.927  2.3489 -0.0558  1.1684
 3066SOL    HW215161   0.130   3.845   7.997  0.8446  0.0666  3.0734
 3067SOL     OW15162   7.329   2.192   6.596  0.1316 -0.0526  0.0679
 3067SOL    HW115163   7.273   2.141   6.654  0.1530 -1.5742 -1.2028
 3067SOL    HW215164   7.395   2.231   6.655  0.0321 -1.3743  1.0922
 3068SOL     OW15165   3.870   6.999   8.259  0.2816 -0.5176  0.5956
 3068SOL    HW115166   3.857   6.951   8.342 -0.3137 -0.4083  0.5730
 3068SOL    HW215167   3.806   6.960   8.199  1.7968 -1.7212 -0.3204
 3069SOL     OW15168   2.353   6.155   7.186 -0.2386  0.6756 -0.8432
 3069SOL    HW115169   2.287   6.157   7.256 -0.1552  1.0910 -0.7783
 3069SOL    HW215170   2.430   6.196   7.225  0.0562  0.2106 -0.9265
 3070SOL     OW15171   6.004   4.015   5.676 -0.6627  0.2709 -0.0077
 3070SOL    HW115172   6.070   3.998   5.744 -0.0264  1.4459 -0.2965
 3070SOL    HW215173   6.049   3.994   5.594 -1.0834 -0.1324 -0.1432
 3071SOL     OW15174   4.860   4.753   1.800  0.4174  0.1678 -0.2571
 3071SOL    HW115175   4.818   4.797   1.726  0.3267 -1.8775 -1.5142
 3071SOL    HW215176   4.953   4.753   1.779  0.7898  2.1421  1.1188
 3072SOL     OW15177   3.023   6.174   0.384  0.4216 -0.1458  0.2323
 3072SOL    HW115178   3.059   6.096   0.427 -0.9844 -1.3548 -0.6498
 3072SOL    HW215179   3.073   6.247   0.419  1.3901 -1.3936  1.5540
 3073SOL     OW15180   6.234   3.046   4.703  0.0816 -0.6487  0.3736
 3073SOL    HW115181   6.274   3.118   4.654  0.5660 -1.1113  0.0819
 3073SOL    HW215182   6.248   2.969   4.648  0.3061 -1.1088  1.0636
 3074SOL     OW15183   8.412   2.255   5.256  0.1006  0.2569 -0.2244
 3074SOL    HW115184   8.361   2.245   5.337 -1.6512 -1.5689 -1.4478
 3074SOL    HW215185   8.501   2.230   5.281 -0.0798  1.0707  1.4162
 3075SOL     OW15186   4.809   7.507   6.457  0.5446 -0.8939 -0.1769
 3075SOL    HW115187   4.743   7.497   6.526 -1.5241  0.9417 -1.7726
 3075SOL    HW215188   4.892   7.496   6.503 -0.7718 -1.3698  2.2976
 3076SOL     OW15189   9.233   9.091   5.789  0.0410  0.0547 -0.3600
 3076SOL    HW115190   9.224   9.023   5.722  0.7943 -1.3160  0.8672
 3076SOL    HW215191   9.327   9.110   5.793 -0.1327  0.9936 -0.5065
 3077SOL     OW15192   7.255   8.925   1.396 -0.1734  0.3832  0.0909
 3077SOL    HW115193   7.319   8.966   1.338 -0.5486  1.0966  0.1683
 3077SOL    HW215194   7.171   8.964   1.370 -0.3168  0.9262  1.2879
 3078SOL     OW15195   7.920   0.192   8.232  0.0364  0.3333  0.5324
 3078SOL    HW115196   7.941   0.274   8.187  1.4707 -1.1681 -1.7586
 3078SOL    HW215197   7.970   0.194   8.313  0.0613  1.6845  0.4954
 3079SOL     OW15198   3.614   7.527   1.533  0.3564 -0.7667 -0.6691
 3079SOL    HW115199   3.688   7.587   1.541  1.5854 -2.3938  1.0424
 3079SOL    HW215200   3.630   7.480   1.451  0.0681  0.2992 -1.3584
 3080SOL     OW15201   8.581   1.727   1.242 -0.3537 -0.3182 -0.2342
 3080SOL    HW115202   8.528   1.714   1.164  0.4371 -1.2506 -0.6465
 3080SOL    HW215203   8.658   1.776   1.211 -0.4478  0.0684  0.1342
 3081SOL     OW15204   6.886   7.766   6.175 -0.4800  0.6504 -0.1386
 3081SOL    HW115205   6.882   7.705   6.248  1.2992  0.3571 -0.2468
 3081SOL    HW215206   6.980   7.779   6.159 -0.8276  1.4851 -1.7182
 3082SOL     OW15207   6.525   8.672   3.037 -0.3649  0.3613  0.0262
 3082SOL    HW115208   6.499   8.761   3.058  0.8430  1.1704 -1.6126
 3082SOL    HW215209   6.530   8.671   2.941 -0.9405 -1.6544 -0.0292
 3083SOL     OW15210   2.106   1.543   6.168 -0.1583 -0.4225 -1.0257
 3083SOL    HW115211   2.044   1.487   6.215 -1.1987  1.7754  0.3971
 3083SOL    HW215212   2.170   1.482   6.130 -1.0230 -2.5260  0.6801
 3084SOL     OW15213   8.755   0.186   1.590  0.2223  0.4440 -0.4972
 3084SOL    HW115214   8.699   0.135   1.532  0.5114  0.0695 -0.4552
 3084SOL    HW215215   8.750   0.141   1.675 -0.1727  0.9679 -0.2394
 3085SOL     OW15216   1.772   0.662   6.878  0.1173  0.6011 -0.1523
 3085SOL    HW115217   1.682   0.631   6.864 -0.1377  1.5467 -0.6874
 3085SOL    HW215218   1.807   0.674   6.790  1.5521 -1.8482 -0.0029
 3086SOL     OW15219   7.597   2.660   6.495  0.3544  0.0986 -0.2003
 3086SOL    HW115220   7.548   2.743   6.493 -1.2825 -0.8052  0.2256
 3086SOL    HW215221   7.614   2.645   6.588  0.4115 -0.1776 -0.2548
 3087SOL     OW15222   3.100   4.499   3.502 -0.7200 -0.0307 -0.6817
 3087SOL    HW115223   3.076   4.482   3.411 -0.1026  2.1523 -1.3400
 3087SOL    HW215224   3.068   4.588   3.518  1.5765  0.6928  0.2929
 3088SOL     OW15225   2.915   2.428   8.311 -0.1683  0.1747 -0.5250
 3088SOL    HW115226   2.985   2.457   8.369 -0.2721  1.5448 -1.0576
 3088SOL    HW215227   2.836   2.466   8.349 -0.6579 -1.3798  0.0890
 3089SOL     OW15228   7.599   3.388   6.365  0.4396 -0.1300 -0.4327
 3089SOL    HW115229   7.604   3.378   6.269  0.1565 -0.5857 -0.4048
 3089SOL    HW215230   7.632   3.476   6.382 -0.8428  0.5004 -1.0770
 3090SOL     OW15231   4.844   1.731   2.751  0.3450 -0.1953 -0.1102
 3090SOL    HW115232   4.860   1.703   2.661 -0.3773  2.2099 -1.0754
 3090SOL    HW215233   4.796   1.814   2.742 -2.0014 -1.0981  2.5075
 3091SOL     OW15234   6.496   7.691   6.199 -0.3960  0.4874  0.3842
 3091SOL    HW115235   6.555   7.752   6.155 -0.1099 -0.0493  0.0169
 3091SOL    HW215236   6.468   7.738   6.278  0.0894  0.9548  0.2830
 3092SOL     OW15237   6.141   5.197   9.349  0.2890  0.7616 -0.6694
 3092SOL    HW115238   6.103   5.262   9.408  1.2791  1.7247 -1.0324
 3092SOL    HW215239   6.104   5.114   9.376  0.3615  1.2391  0.9978
 3093SOL     OW15240   8.624   2.556   4.711 -0.1435 -0.0054 -0.5203
 3093SOL    HW115241   8.650   2.598   4.629  1.3376  0.6206  0.2351
 3093SOL    HW215242   8.698   2.500   4.734 -1.4689 -1.9749 -0.7383
 3094SOL     OW15243   2.785   0.876   2.463  0.1111  0.1554  0.9005
 3094SOL    HW115244   2.838   0.949   2.496 -0.5142  0.0232  2.2868
 3094SOL    HW215245   2.844   0.801   2.464  0.0581  0.1042  2.0164
 3095SOL     OW15246   1.942   3.951   5.075  0.3869  0.3520  0.3021
 3095SOL    HW115247   1.987   3.882   5.027  0.2321  0.2490  0.3072
 3095SOL    HW215248   1.906   4.008   5.007  1.9884  1.3998  0.2698
 3096SOL     OW15249   6.261   1.452   7.479  0.7589 -0.3532 -0.1706
 3096SOL    HW115250   6.240   1.493   7.395 -0.4773  0.9421  0.7155
 3096SOL    HW215251   6.347   1.486   7.503 -0.4335  2.2457  0.7693
 3097SOL     OW15252   4.403   0.967   1.130  0.2069 -0.9144  0.5861
 3097SOL    HW115253   4.459   0.900   1.092 -0.8850 -2.6946  1.9127
 3097SOL    HW215254   4.339   0.987   1.061  1.2326 -0.3356 -0.2241
 3098SOL     OW15255   0.631   9.304   8.469  0.1389 -0.2002  0.8133
 3098SOL    HW115256   0.552   9.249   8.468  0.1386 -0.2015  0.3790
 3098SOL    HW215257   0.612   9.373   8.532 -0.2493 -0.1495  0.6479
 3099SOL     OW15258   4.473   8.341   6.446 -0.2551  0.0604 -0.4060
 3099SOL    HW115259   4.434   8.379   6.367  1.5718 -1.1549 -1.9782
 3099SOL    HW215260   4.456   8.247   6.439  0.0922 -0.0845  0.5607
 3100SOL     OW15261   0.426   2.593   8.185 -0.2535  0.0585 -0.1889
 3100SOL    HW115262   0.490   2.643   8.236  0.7469 -0.0504 -1.3016
 3100SOL    HW215263   0.467   2.508   8.171 -0.6831 -0.0485 -0.8370
 3101SOL     OW15264   3.299   5.110   6.680  0.1592  0.0207 -0.6438
 3101SOL    HW115265   3.207   5.132   6.695  0.5568  0.9297  0.7413
 3101SOL    HW215266   3.319   5.147   6.594 -1.5822 -3.1212 -2.6037
 3102SOL     OW15267   7.318   7.055   2.886 -0.2224 -0.3265 -0.0706
 3102SOL    HW115268   7.355   7.044   2.799 -1.3091 -0.7752 -0.4913
 3102SOL    HW215269   7.239   7.107   2.872  0.7762  1.6072  0.9531
 3103SOL     OW15270   1.352   5.842   5.475 -0.4495  0.8296 -0.3410
 3103SOL    HW115271   1.319   5.779   5.539  0.5614 -0.5252 -1.1160
 3103SOL    HW215272   1.437   5.868   5.508 -1.0699  2.2177  0.2363
 3104SOL     OW15273   7.305   8.365   9.336  0.2403  0.1547 -0.0333
 3104SOL    HW115274   7.397   8.388   9.323  0.0754 -0.4451 -2.7747
 3104SOL    HW215275   7.262   8.448   9.354  0.9057  0.8812 -1.6157
 3105SOL     OW15276   9.164   2.295   8.106  0.3351 -0.3085 -0.0713
 3105SOL    HW115277   9.083   2.299   8.157 -0.7149 -0.3661 -1.6629
 3105SOL    HW215278   9.219   2.364   8.144 -0.6622  0.0946  0.6997
 3106SOL     OW15279   4.609   8.292   2.671 -0.2778  0.1384 -0.1857
 3106SOL    HW115280   4.606   8.209   2.624  0.1337 -0.8296  1.4084
 3106SOL    HW215281   4.700   8.300   2.700 -0.6711  0.2936  1.0721
 3107SOL     OW15282   7.033   6.492   8.206  0.2678 -0.3417 -0.1585
 3107SOL    HW115283   7.114   6.497   8.154 -0.1228 -2.5379 -1.0561
 3107SOL    HW215284   6.971   6.546   8.158  0.9909  0.8596  0.2045
 3108SOL     OW15285   9.174   2.240   5.267  0.6613  0.1218 -0.0596
 3108SOL    HW115286   9.078   2.245   5.267  0.5867 -0.8846  1.1342
 3108SOL    HW215287   9.202   2.325   5.301  0.2507  0.7418 -1.1849
 3109SOL     OW15288   7.327   6.922   9.210 -0.5185 -0.0399 -0.3382
 3109SOL    HW115289   7.249   6.977   9.216 -0.2021  0.2905  1.1592
 3109SOL    HW215290   7.392   6.977   9.166 -0.8793 -0.0603 -0.9211
 3110SOL     OW15291   8.686   3.186   7.404 -0.3348  0.2663 -0.5754
 3110SOL    HW115292   8.775   3.163   7.375  0.0866  0.1682  0.7063
 3110SOL    HW215293   8.676   3.278   7.377  1.0458  1.0024  1.1795
 3111SOL     OW15294   1.363   4.891   1.585 -0.1628 -0.0666 -0.1656
 3111SOL    HW115295   1.291   4.939   1.625  0.9847  0.7353  1.0241
 3111SOL    HW215296   1.339   4.883   1.493 -1.1597  1.3288 -0.0475
 3112SOL     OW15297   6.687   6.200   0.054 -0.3448 -0.6116 -0.1090
 3112SOL    HW115298   6.593   6.183   0.056 -0.7198  0.9408  3.4712
 3112SOL    HW215299   6.714   6.198   0.145  1.8228  4.7884 -0.2066
 3113SOL     OW15300   2.323   6.232   4.289 -0.3734 -0.6475 -0.1045
 3113SOL    HW115301   2.388   6.287   4.247  0.7764 -2.1022 -0.2796
 3113SOL    HW215302   2.326   6.149   4.242  0.3424 -2.0435  2.2441
 3114SOL     OW15303   4.236   9.110   2.500  0.3162 -0.0266 -0.2032
 3114SOL    HW115304   4.246   9.090   2.593  2.6279  0.7754 -0.2118
 3114SOL    HW215305   4.289   9.045   2.455  0.5221  0.5733 -0.8464
 3115SOL     OW15306   5.680   0.322   4.154  0.5036 -0.3788 -0.0886
 3115SOL    HW115307   5.677   0.363   4.068  1.0881  2.5377  1.1469
 3115SOL    HW215308   5.688   0.229   4.137  2.0361  0.2203 -3.1729
 3116SOL     OW15309   5.094   0.006   9.028 -0.6026 -0.1108 -0.0640
 3116SOL    HW115310   5.008   0.047   9.022 -1.1367 -0.8428  1.9032
 3116SOL    HW215311   5.076  -0.087   9.038  0.3946 -0.2310  0.7884
 3117SOL     OW15312   4.852   4.059   5.426 -0.0070 -0.4878  0.1007
 3117SOL    HW115313   4.921   3.995   5.409 -0.5461 -1.0575  0.0091
 3117SOL    HW215314   4.885   4.112   5.498  2.2719  1.8299 -2.4231
 3118SOL     OW15315   2.555   1.002   4.619 -0.3912 -0.8179  0.2322
 3118SOL    HW115316   2.478   1.002   4.676  0.1877 -0.1138  1.0402
 3118SOL    HW215317   2.557   1.089   4.581 -0.6248 -1.2014 -0.6915
 3119SOL     OW15318   1.007   5.631   6.209 -0.2458 -0.2092 -0.2510
 3119SOL    HW115319   0.931   5.584   6.241 -0.9775  2.3932  2.2923
 3119SOL    HW215320   1.077   5.608   6.271 -0.3886  1.2170  0.4984
 3120SOL     OW15321   2.496   7.849   2.248  0.0447  0.1225  0.0814
 3120SOL    HW115322   2.461   7.817   2.164 -0.2923  0.8812 -0.0745
 3120SOL    HW215323   2.536   7.933   2.227 -1.8627  1.3277  1.0171
 3121SOL     OW15324   5.293   6.472   8.518 -0.0416 -0.6831  0.3561
 3121SOL    HW115325   5.356   6.401   8.530 -0.3891 -0.9357  0.7257
 3121SOL    HW215326   5.343   6.543   8.479 -0.0387 -1.7141 -1.6315
 3122SOL     OW15327   1.022   3.346   2.945 -0.0432  0.2796 -0.2343
 3122SOL    HW115328   1.026   3.286   2.871  1.9058  0.7225 -0.5614
 3122SOL    HW215329   1.064   3.299   3.017  2.1211  1.3780 -0.6747
 3123SOL     OW15330   4.568   6.478   2.338  0.2562  0.4329  0.3643
 3123SOL    HW115331   4.557   6.541   2.268 -0.2405  0.3013  0.3167
 3123SOL    HW215332   4.549   6.393   2.298  0.9457  0.2511  0.4201
 3124SOL     OW15333   8.016   6.302   0.358  0.3030  0.0527 -0.4826
 3124SOL    HW115334   8.096   6.335   0.398  1.4142 -1.0559 -1.6956
 3124SOL    HW215335   7.986   6.374   0.301  0.5027  0.4176 -0.1286
 3125SOL     OW15336   5.283   0.050   7.270 -0.0612 -0.1636  0.2605
 3125SOL    HW115337   5.280  -0.018   7.337  0.6094  0.0924  0.5605
 3125SOL    HW215338   5.363   0.099   7.289 -0.3679  0.5093 -0.1482
 3126SOL     OW15339   4.665   3.757   8.625  0.0217 -0.1329 -0.0527
 3126SOL    HW115340   4.674   3.812   8.702  1.1089  0.7382 -0.7646
 3126SOL    HW215341   4.754   3.746   8.592 -0.2508 -1.7867 -0.3089
 3127SOL     OW15342   0.070   8.055   3.497 -0.0469  0.1372  0.1452
 3127SOL    HW115343   0.035   8.105   3.571  1.5963  1.7078 -0.0951
 3127SOL    HW215344   0.163   8.076   3.495  0.2337 -1.0814 -1.4572
 3128SOL     OW15345   3.395   1.868   2.347  0.1647 -0.7422  0.1175
 3128SOL    HW115346   3.316   1.875   2.293  1.2170 -1.4624 -1.6104
 3128SOL    HW215347   3.435   1.955   2.343 -0.0374 -0.6465  0.1738
 3129SOL     OW15348   3.822   8.916   0.449 -0.6383  0.0810 -0.0119
 3129SOL    HW115349   3.731   8.924   0.475 -0.9426  0.1421 -1.0579
 3129SOL    HW215350   3.871   8.962   0.517 -1.3815  0.0344  0.5605
 3130SOL     OW15351   6.870   2.479   3.347 -0.6268 -0.3138 -0.0971
 3130SOL    HW115352   6.863   2.387   3.372  0.3980 -0.4335 -0.1713
 3130SOL    HW215353   6.818   2.487   3.267  0.3747 -1.1625 -0.8595
 3131SOL     OW15354   0.964   4.362   1.442 -0.0856 -0.3551 -0.3383
 3131SOL    HW115355   0.954   4.316   1.359  2.4659 -3.6616  0.9779
 3131SOL    HW215356   1.030   4.429   1.425  1.4768 -1.9260 -0.7659
 3132SOL     OW15357   8.914   1.213   3.227  0.3046 -0.2427 -0.2155
 3132SOL    HW115358   8.829   1.232   3.265  0.6071 -0.8402  0.7922
 3132SOL    HW215359   8.927   1.282   3.162 -1.8083 -1.2517 -1.8262
 3133SOL     OW15360   7.800   3.697   0.845 -0.6661  0.0441 -0.1525
 3133SOL    HW115361   7.877   3.754   0.848 -0.1872 -0.6343  1.2050
 3133SOL    HW215362   7.818   3.638   0.772 -0.2504  0.3723 -0.3218
 3134SOL     OW15363   7.753   0.964   2.884 -0.4409 -0.2491 -0.0300
 3134SOL    HW115364   7.666   0.926   2.870 -0.8316  0.4679  0.3807
 3134SOL    HW215365   7.736   1.055   2.909  0.5102  0.5526 -2.0804
 3135SOL     OW15366   2.295   4.787   8.418 -0.2677 -0.0016 -0.6637
 3135SOL    HW115367   2.387   4.780   8.444 -0.4250 -0.8390 -0.3074
 3135SOL    HW215368   2.252   4.711   8.458 -0.8561 -0.3959 -1.9766
 3136SOL     OW15369   2.638   8.453   2.392 -0.1764  0.2991 -0.4358
 3136SOL    HW115370   2.722   8.417   2.420  0.6561 -0.0503 -3.1032
 3136SOL    HW215371   2.645   8.547   2.410  0.7995  0.2764 -0.6556
 3137SOL     OW15372   4.696   5.581   0.643 -0.0392  0.3921 -0.2717
 3137SOL    HW115373   4.624   5.631   0.680  0.8531  2.4013 -1.1053
 3137SOL    HW215374   4.757   5.647   0.611  1.0055 -1.2422 -1.8378
 3138SOL     OW15375   8.571   0.374   6.773 -0.2930 -0.1014  0.0697
 3138SOL    HW115376   8.581   0.280   6.788 -1.6794 -0.3963 -0.6540
 3138SOL    HW215377   8.639   0.396   6.709  1.1298 -0.2406  1.4811
 3139SOL     OW15378   8.243   8.862   1.081  0.1748  0.1830  0.1774
 3139SOL    HW115379   8.309   8.859   1.150  0.0504 -0.3176  0.2782
 3139SOL    HW215380   8.159   8.859   1.126  0.0949 -0.4064 -0.0041
 3140SOL     OW15381   7.781   6.711   2.735  0.0348 -0.5131  0.0421
 3140SOL    HW115382   7.736   6.634   2.702 -3.6604  1.0724  0.8870
 3140SOL    HW215383   7.783   6.699   2.830 -0.4726  0.3358  0.1712
 3141SOL     OW15384   5.338   1.086   4.228 -0.2857  0.0724 -0.0231
 3141SOL    HW115385   5.328   1.073   4.134 -1.7196 -1.7700  0.3437
 3141SOL    HW215386   5.419   1.137   4.237 -0.7578  1.3223 -2.2893
 3142SOL     OW15387   1.846   6.714   5.367  0.6902 -0.2073 -0.0332
 3142SOL    HW115388   1.750   6.707   5.367  0.5840  0.9987 -1.1217
 3142SOL    HW215389   1.876   6.623   5.361 -0.3780 -0.6154  0.5653
 3143SOL     OW15390   2.657   3.570   1.709  0.0210 -0.0891 -0.2220
 3143SOL    HW115391   2.615   3.655   1.698  1.9041  1.2499  1.9818
 3143SOL    HW215392   2.666   3.536   1.620 -1.0822  1.8371 -1.1490
 3144SOL     OW15393   0.673   7.622   7.069  0.0562  0.1446 -0.0516
 3144SOL    HW115394   0.762   7.612   7.103 -0.0591 -1.3673 -0.0946
 3144SOL    HW215395   0.616   7.608   7.145 -0.1704  2.0365  0.1753
 3145SOL     OW15396   6.856   2.512   2.298 -0.4234  0.3531  0.2861
 3145SOL    HW115397   6.839   2.602   2.327 -2.2840  0.7908 -1.9073
 3145SOL    HW215398   6.862   2.518   2.203  0.3148 -1.7564  0.1493
 3146SOL     OW15399   5.140   2.600   9.261 -0.2206 -0.5723  0.1302
 3146SOL    HW115400   5.111   2.679   9.216 -0.8778 -1.5045 -1.1049
 3146SOL    HW215401   5.074   2.586   9.329 -0.9448 -0.8954 -0.6236
 3147SOL     OW15402   1.026   6.493   4.429 -0.5157  0.0294  0.3674
 3147SOL    HW115403   0.934   6.494   4.455 -0.0557 -0.0330  2.0897
 3147SOL    HW215404   1.070   6.440   4.495  1.0834  1.7793  0.8264
 3148SOL     OW15405   1.314   1.487   3.158 -0.0999  0.4122  0.7338
 3148SOL    HW115406   1.331   1.568   3.110 -1.0717  0.2028  0.0148
 3148SOL    HW215407   1.242   1.446   3.111 -1.3152  0.3463  2.5480
 3149SOL     OW15408   3.035   4.082   7.612 -0.1795 -0.0283  0.5097
 3149SOL    HW115409   3.019   4.169   7.577 -0.5527  0.4606  1.8430
 3149SOL    HW215410   3.130   4.077   7.623 -0.0724 -0.1369 -0.4004
 3150SOL     OW15411   1.618   6.642   7.834 -0.1807 -0.0050  0.7887
 3150SOL    HW115412   1.533   6.684   7.821 -0.4865 -0.8913 -0.2379
 3150SOL    HW215413   1.677   6.714   7.856 -0.9960  0.7485  0.5758
 3151SOL     OW15414   0.316   7.207   5.271 -0.4340  0.5745 -0.0608
 3151SOL    HW115415   0.259   7.129   5.275  0.8038 -0.3609 -0.0774
 3151SOL    HW215416   0.300   7.252   5.354 -0.8318  0.0574  0.1496
 3152SOL     OW15417   1.241   8.864   0.509 -0.0834  0.2242  0.2015
 3152SOL    HW115418   1.278   8.890   0.425 -2.5750 -0.5539 -1.2412
 3152SOL    HW215419   1.291   8.785   0.534  1.8231  1.4339  0.3977
 3153SOL     OW15420   3.201   4.593   6.492 -0.1266  0.4667  0.1041
 3153SOL    HW115421   3.227   4.589   6.400 -1.2281  1.6884 -0.2987
 3153SOL    HW215422   3.250   4.667   6.528 -0.4578  0.6232  0.2356
 3154SOL     OW15423   8.611   3.872   4.504 -0.6171  0.8158  0.2681
 3154SOL    HW115424   8.567   3.872   4.419  0.0154 -0.0012 -0.0715
 3154SOL    HW215425   8.687   3.816   4.492 -1.6562 -1.0975  1.9382
 3155SOL     OW15426   8.599   6.100   4.311  0.2647  0.3560 -0.2118
 3155SOL    HW115427   8.572   6.123   4.400  0.0255  0.2433 -0.2549
 3155SOL    HW215428   8.672   6.040   4.323  0.4646  0.6235 -0.0938
 3156SOL     OW15429   3.385   5.394   4.164 -0.0879  0.1022  0.1235
 3156SOL    HW115430   3.361   5.443   4.086 -0.6457 -1.6003 -0.8235
 3156SOL    HW215431   3.341   5.309   4.154 -0.5806 -0.0056  2.5224
 3157SOL     OW15432   3.233   6.900   8.454 -0.0471 -0.8114 -0.0067
 3157SOL    HW115433   3.283   6.981   8.447 -0.7497 -0.2186  1.4292
 3157SOL    HW215434   3.157   6.923   8.507 -0.6193 -2.2530 -0.1563
 3158SOL     OW15435   8.311   5.499   6.587  0.2936  0.2981  0.2435
 3158SOL    HW115436   8.329   5.559   6.659 -0.0033  0.4205  0.2151
 3158SOL    HW215437   8.225   5.461   6.608 -0.3098  1.1528 -0.6008
 3159SOL     OW15438   0.317   0.235   1.912 -0.2550  0.4110 -0.2581
 3159SOL    HW115439   0.375   0.308   1.934  0.1998 -0.5763  2.0946
 3159SOL    HW215440   0.338   0.167   1.976 -3.8909 -0.0740  0.6658
 3160SOL     OW15441   2.975   9.107   8.832 -0.0708  0.3633 -0.6010
 3160SOL    HW115442   2.960   9.108   8.737 -0.2284  1.6618 -0.5839
 3160SOL    HW215443   3.057   9.058   8.843 -0.1533  0.0296 -1.3855
 3161SOL     OW15444   8.644   7.367   4.048  0.6289 -0.5141  0.4026
 3161SOL    HW115445   8.737   7.377   4.069  0.8687 -4.5428  2.2497
 3161SOL    HW215446   8.639   7.287   3.997 -1.6892  1.1099 -2.1988
 3162SOL     OW15447   1.715   3.617   2.519 -0.2058 -0.0924 -0.2488
 3162SOL    HW115448   1.664   3.536   2.515 -0.0680 -0.2548  0.9264
 3162SOL    HW215449   1.704   3.657   2.432 -1.2193 -0.7916 -0.4591
 3163SOL     OW15450   4.629   7.459   9.020 -0.3198 -0.0944 -0.0120
 3163SOL    HW115451   4.671   7.499   8.944  0.9951  0.9342  1.2122
 3163SOL    HW215452   4.686   7.385   9.042 -0.8990 -0.6135 -0.2321
 3164SOL     OW15453   6.114   4.828   3.541  0.2265 -0.1770 -0.2004
 3164SOL    HW115454   6.202   4.810   3.575 -0.6301 -1.8514  1.3114
 3164SOL    HW215455   6.063   4.848   3.619 -1.2552 -1.5798 -0.7659
 3165SOL     OW15456   1.127   2.038   2.744  0.3429 -0.5367 -0.1814
 3165SOL    HW115457   1.218   2.031   2.773 -0.0511 -0.5833  1.1183
 3165SOL    HW215458   1.107   2.132   2.750  0.6154 -0.3691 -1.5330
 3166SOL     OW15459   4.675   6.786   4.263 -0.0885 -0.2107  0.2693
 3166SOL    HW115460   4.670   6.801   4.169  0.8739 -0.0637  0.2390
 3166SOL    HW215461   4.615   6.851   4.301 -1.0101 -0.7236 -0.2671
 3167SOL     OW15462   2.859   6.802   8.430  0.4926  0.2329 -0.0750
 3167SOL    HW115463   2.907   6.863   8.487  1.4900 -1.4209  0.9179
 3167SOL    HW215464   2.850   6.850   8.347  1.4404  1.6471  0.5914
 3168SOL     OW15465   5.751   3.756   5.741  0.1061 -0.2472  0.8287
 3168SOL    HW115466   5.771   3.828   5.682  0.5942 -0.7209  0.4082
 3168SOL    HW215467   5.655   3.748   5.738  0.2071 -1.3597 -1.2322
 3169SOL     OW15468   8.312   0.935   3.732 -0.1849 -0.0952 -0.2169
 3169SOL    HW115469   8.264   0.864   3.773 -0.6229 -0.5526 -1.4817
 3169SOL    HW215470   8.360   0.894   3.660  2.8436  0.1743  1.4751
 3170SOL     OW15471   8.722   3.800   0.163 -0.1711 -0.3919  0.3996
 3170SOL    HW115472   8.749   3.744   0.237 -2.0481  0.2642  1.6579
 3170SOL    HW215473   8.630   3.779   0.150  0.0007 -0.1122 -1.4735
 3171SOL     OW15474   8.686   2.939   2.960 -0.2964 -0.2810 -0.0774
 3171SOL    HW115475   8.699   3.006   2.893 -0.7277  1.3910  1.4425
 3171SOL    HW215476   8.591   2.936   2.973 -0.2556 -0.9841  0.0682
 3172SOL     OW15477   4.938   6.418   8.010 -0.3887 -0.7738  0.0581
 3172SOL    HW115478   5.028   6.390   7.991 -0.0310  0.6424 -0.4546
 3172SOL    HW215479   4.948   6.502   8.055 -1.4537 -0.7702  0.3196
 3173SOL     OW15480   5.499   1.464   1.724 -0.6422  0.7071 -0.6969
 3173SOL    HW115481   5.586   1.441   1.756 -1.3352 -1.0738  0.0126
 3173SOL    HW215482   5.447   1.385   1.737 -2.6091  2.0076 -0.2646
 3174SOL     OW15483   2.571   6.486   7.843  0.3233  0.8796  0.0481
 3174SOL    HW115484   2.487   6.531   7.833 -2.9583 -4.4348 -0.1021
 3174SOL    HW215485   2.615   6.497   7.758 -1.3189  1.8612 -0.7155
 3175SOL     OW15486   3.921   5.541   2.958 -0.5200  0.6353  0.0295
 3175SOL    HW115487   3.854   5.604   2.984 -1.2915 -0.7487  1.5207
 3175SOL    HW215488   3.960   5.512   3.040  0.9537  0.3422 -0.7281
 3176SOL     OW15489   5.968   8.096   2.889  0.1567  0.1040 -0.0033
 3176SOL    HW115490   6.012   8.163   2.943  0.3378 -0.0000 -0.0217
 3176SOL    HW215491   5.985   8.014   2.935 -1.8377  0.2884  1.1889
 3177SOL     OW15492   0.245   3.102   3.993 -0.3787  0.2075  0.4423
 3177SOL    HW115493   0.184   3.164   4.034 -1.0230  0.2778 -0.5986
 3177SOL    HW215494   0.192   3.055   3.929  0.1267 -1.3688  1.1516
 3178SOL     OW15495   8.384   3.518   6.608 -0.3892  0.0195  0.5211
 3178SOL    HW115496   8.301   3.552   6.575 -0.5246  0.4459  1.2821
 3178SOL    HW215497   8.416   3.587   6.667  1.3799  0.6895 -1.1120
 3179SOL     OW15498   7.706   0.546   0.517 -0.1363 -0.2863 -0.3186
 3179SOL    HW115499   7.741   0.493   0.589 -0.0914  1.5617  1.0730
 3179SOL    HW215500   7.611   0.537   0.524 -0.1124 -0.7352 -0.5314
 3180SOL     OW15501   4.879   1.527   8.078 -0.3114 -0.4943  0.1789
 3180SOL    HW115502   4.935   1.494   8.008 -0.4561 -0.1386 -0.1031
 3180SOL    HW215503   4.790   1.516   8.044 -0.3699  3.2377 -1.3598
 3181SOL     OW15504   9.307   5.734   7.382  0.4069  0.5957 -0.0629
 3181SOL    HW115505   9.282   5.789   7.308 -1.4540  1.4678  1.1059
 3181SOL    HW215506   9.371   5.786   7.430  0.0859  0.9335  0.0086
 3182SOL     OW15507   5.566   8.514   3.704  0.2194 -0.3925  0.0566
 3182SOL    HW115508   5.593   8.439   3.757 -0.6936 -1.1094 -0.4693
 3182SOL    HW215509   5.583   8.590   3.760 -0.4049 -1.1065  1.2567
 3183SOL     OW15510   8.473   4.678   9.013  0.1907  0.1961 -1.4617
 3183SOL    HW115511   8.449   4.753   9.067  0.5972 -0.7869  0.1545
 3183SOL    HW215512   8.400   4.668   8.951 -1.7797 -0.3637  0.8046
 3184SOL     OW15513   1.472   4.290   4.127 -0.3228 -0.3065  0.9845
 3184SOL    HW115514   1.381   4.297   4.097 -0.0181 -1.7435 -0.4045
 3184SOL    HW215515   1.482   4.198   4.152  1.2047 -0.5863 -0.4922
 3185SOL     OW15516   1.649   8.365   8.532  0.1441  0.1759  0.1502
 3185SOL    HW115517   1.666   8.334   8.621  2.3342  1.5381  0.2940
 3185SOL    HW215518   1.570   8.419   8.540  0.3217  0.2946  1.2863
 3186SOL     OW15519   0.003   3.537   6.580  1.1129  0.0064 -0.0518
 3186SOL    HW115520  -0.090   3.556   6.564  0.5407 -2.8366 -0.5966
 3186SOL    HW215521   0.042   3.532   6.493  1.8770  1.3370  0.1774
 3187SOL     OW15522   3.259   6.818   2.933 -0.8402 -0.5628 -0.3071
 3187SOL    HW115523   3.343   6.774   2.924 -1.0629 -1.1318  0.3558
 3187SOL    HW215524   3.281   6.910   2.942 -0.3211 -0.6428 -0.7015
 3188SOL     OW15525   8.048   2.655   8.246  0.0848  0.1333  0.0030
 3188SOL    HW115526   8.079   2.632   8.158 -1.2537 -0.5571 -0.3135
 3188SOL    HW215527   8.014   2.572   8.282 -0.5653  0.6759  0.6673
 3189SOL     OW15528   1.862   7.247   3.244 -0.2818  0.1520 -0.4173
 3189SOL    HW115529   1.955   7.248   3.224 -0.1922  0.1548 -0.0104
 3189SOL    HW215530   1.850   7.322   3.302 -0.6503  0.5261 -0.9672
 3190SOL     OW15531   3.832   5.831   2.455 -0.5227 -0.2636 -0.8378
 3190SOL    HW115532   3.851   5.856   2.365  1.9288  0.4682 -0.1999
 3190SOL    HW215533   3.907   5.863   2.505 -1.8360 -0.5723  1.4934
 3191SOL     OW15534   4.452   7.548   5.414  0.0904  0.1973  0.0636
 3191SOL    HW115535   4.522   7.494   5.375 -0.4462 -0.6289  0.2135
 3191SOL    HW215536   4.471   7.547   5.508 -0.4435 -0.5436  0.1806
 3192SOL     OW15537   5.324   8.696   4.806 -0.2283 -0.3160  0.0969
 3192SOL    HW115538   5.310   8.787   4.834 -0.9975 -0.3330 -0.2240
 3192SOL    HW215539   5.386   8.703   4.733  0.5892 -0.1490  0.7899
 3193SOL     OW15540   2.491   2.619   0.554  0.1504 -0.1576  0.0085
 3193SOL    HW115541   2.526   2.531   0.566 -0.0401 -0.1636  0.5587
 3193SOL    HW215542   2.490   2.632   0.459 -1.4699 -1.4287 -0.2018
 3194SOL     OW15543   4.117   4.505   8.824  0.4846  0.2232  0.1443
 3194SOL    HW115544   4.149   4.430   8.774  1.0010 -0.5109  1.5213
 3194SOL    HW215545   4.158   4.496   8.910 -0.0027  1.7061  0.5642
 3195SOL     OW15546   3.816   7.511   2.282  0.3139  0.2699 -0.2410
 3195SOL    HW115547   3.837   7.482   2.371 -0.6207  0.9425  0.2243
 3195SOL    HW215548   3.788   7.602   2.294  2.6907  1.2527 -1.5616
 3196SOL     OW15549   6.746   1.253   0.407 -0.2168  0.2892  0.0346
 3196SOL    HW115550   6.722   1.172   0.363  3.1464 -1.4687  1.1290
 3196SOL    HW215551   6.666   1.278   0.455 -1.4061 -2.3336 -0.3868
 3197SOL     OW15552   6.922   3.202   5.667  0.2622  0.2083  0.0645
 3197SOL    HW115553   6.915   3.212   5.762 -2.4635  1.9879 -0.2254
 3197SOL    HW215554   6.863   3.130   5.646  1.6850 -0.9161 -0.2343
 3198SOL     OW15555   8.093   6.658   8.049  0.6429  0.1943  0.0826
 3198SOL    HW115556   8.160   6.593   8.032  1.5924  1.3229 -0.6207
 3198SOL    HW215557   8.133   6.719   8.111 -0.3798 -0.0959  1.0783
 3199SOL     OW15558   2.802   5.394   7.768  0.2183  0.1068  0.3214
 3199SOL    HW115559   2.759   5.452   7.831 -0.0362 -1.5610  1.7601
 3199SOL    HW215560   2.795   5.307   7.807  1.1521 -0.8199 -1.4568
 3200SOL     OW15561   3.149   2.371   1.071 -0.0410  0.1242  0.4697
 3200SOL    HW115562   3.101   2.351   1.150 -2.9217 -0.3760 -1.2711
 3200SOL    HW215563   3.198   2.291   1.051  1.3796  0.5264  2.0740
 3201SOL     OW15564   1.099   5.649   5.388 -0.2195  0.0478 -0.6186
 3201SOL    HW115565   1.102   5.597   5.468  0.1016  1.7178  0.5025
 3201SOL    HW215566   1.007   5.653   5.365 -0.4064  0.1852  0.1187
 3202SOL     OW15567   3.720   4.895   4.112 -0.3694  0.1258 -0.8437
 3202SOL    HW115568   3.658   4.874   4.042  0.8343  0.6270 -2.1249
 3202SOL    HW215569   3.806   4.886   4.071  0.4928 -1.4508  1.1208
 3203SOL     OW15570   4.174   7.125   4.319 -0.4260  0.0685  0.1886
 3203SOL    HW115571   4.147   7.039   4.350 -2.6480  1.0476  1.1940
 3203SOL    HW215572   4.124   7.138   4.238  0.9329 -0.1108 -0.7025
 3204SOL     OW15573   0.411   5.873   5.858  0.3694 -0.2599 -0.3686
 3204SOL    HW115574   0.423   5.961   5.893 -2.4597 -0.2511  0.9131
 3204SOL    HW215575   0.388   5.887   5.766 -0.0731  0.3842 -0.1720
 3205SOL     OW15576   4.735   2.872   5.626  0.3255 -0.1707 -0.3710
 3205SOL    HW115577   4.674   2.944   5.609  0.4680  0.0532  0.0814
 3205SOL    HW215578   4.821   2.914   5.631  0.1417  0.0236  2.5378
 3206SOL     OW15579   4.222   8.631   8.726 -0.2779 -0.1728  0.1288
 3206SOL    HW115580   4.275   8.648   8.648 -0.0569  0.7952  0.4715
 3206SOL    HW215581   4.277   8.575   8.780  0.0877  0.1875  0.1369
 3207SOL     OW15582   1.520   1.543   5.925  0.0127 -0.4459 -0.1355
 3207SOL    HW115583   1.563   1.502   6.000 -0.2520 -1.8631 -0.7252
 3207SOL    HW215584   1.438   1.494   5.914 -1.4983  1.8061  0.5779
 3208SOL     OW15585   8.371   4.945   1.255  0.2713 -0.1879  0.2094
 3208SOL    HW115586   8.416   4.861   1.265  0.8821  0.2959  1.8823
 3208SOL    HW215587   8.307   4.946   1.327  0.7136  1.0219  0.6087
 3209SOL     OW15588   7.237   7.312   8.888  0.0470 -0.2235 -0.5625
 3209SOL    HW115589   7.152   7.288   8.925  0.0846 -1.4871 -1.2294
 3209SOL    HW215590   7.272   7.377   8.949 -2.1180  1.6668 -1.1823
 3210SOL     OW15591   3.268   5.457   2.851 -0.0946  0.3532  0.1637
 3210SOL    HW115592   3.359   5.462   2.878 -0.4507  1.2476  1.2868
 3210SOL    HW215593   3.267   5.491   2.761  0.7490 -0.2495 -0.0798
 3211SOL     OW15594   9.163   9.044   0.436  0.1980 -0.0348  0.0472
 3211SOL    HW115595   9.204   9.037   0.522  0.7273  1.7270 -0.0228
 3211SOL    HW215596   9.152   9.138   0.422 -1.8386 -0.3568 -0.9103
 3212SOL     OW15597   8.766   3.893   5.930  0.0382  0.0510  0.1272
 3212SOL    HW115598   8.714   3.860   5.856  0.3558  0.4608 -0.2854
 3212SOL    HW215599   8.844   3.837   5.932 -0.5056 -0.7029  0.8809
 3213SOL     OW15600   6.759   5.480   5.452 -0.3284 -0.0033 -0.2964
 3213SOL    HW115601   6.794   5.391   5.458  0.8342  0.5447  2.7100
 3213SOL    HW215602   6.836   5.537   5.453 -1.0914  1.0731  0.4018
 3214SOL     OW15603   5.640   4.711   8.979  0.2717  0.2228  0.4482
 3214SOL    HW115604   5.703   4.783   8.981  1.7892 -1.0385  0.4592
 3214SOL    HW215605   5.579   4.734   8.909  2.0089  0.5284 -1.0588
 3215SOL     OW15606   4.138   8.911   6.222  0.2235  0.6703  0.2062
 3215SOL    HW115607   4.082   8.844   6.182  0.3128  0.6036  0.1918
 3215SOL    HW215608   4.143   8.886   6.315  0.9549  0.1615  0.0448
 3216SOL     OW15609   5.020   7.104   6.147  0.6214  0.1529 -0.2792
 3216SOL    HW115610   5.085   7.067   6.207  0.0005  0.4363  0.5943
 3216SOL    HW215611   4.946   7.126   6.203 -0.2490 -0.1914 -1.2516
 3217SOL     OW15612   6.200   1.623   1.569  0.4269  0.2011  0.3769
 3217SOL    HW115613   6.112   1.629   1.533  0.3553 -0.4131  0.4361
 3217SOL    HW215614   6.230   1.714   1.574 -0.1631  0.4090  0.2657
 3218SOL     OW15615   1.195   2.803   0.962 -0.3633 -0.2984 -0.2835
 3218SOL    HW115616   1.134   2.730   0.950  0.0077 -0.3860 -1.9214
 3218SOL    HW215617   1.142   2.873   1.000 -1.3651 -0.5671 -1.1289
 3219SOL     OW15618   6.878   7.951   1.620  0.0218 -0.0399  0.3402
 3219SOL    HW115619   6.966   7.918   1.602 -0.3787 -1.5167  0.9776
 3219SOL    HW215620   6.854   7.999   1.540  0.6238 -1.3455 -0.6694
 3220SOL     OW15621   9.348   4.194   5.903  0.2224 -0.2974 -0.7300
 3220SOL    HW115622   9.340   4.100   5.919  1.7637 -0.3435  0.0027
 3220SOL    HW215623   9.419   4.201   5.839 -0.8710  0.3139 -1.9298
 3221SOL     OW15624   3.143   7.432   3.233  0.0685 -0.5097  0.0756
 3221SOL    HW115625   3.177   7.397   3.151  0.1543  2.3550 -1.2296
 3221SOL    HW215626   3.053   7.456   3.214 -0.7033 -1.9928  1.5970
 3222SOL     OW15627   4.274   7.693   1.363  0.1433  0.6810  0.6457
 3222SOL    HW115628   4.343   7.759   1.356  0.6039  0.1597  0.2169
 3222SOL    HW215629   4.238   7.686   1.275  1.1805 -0.7905  0.3033
 3223SOL     OW15630   4.495   2.501   4.177  0.4784 -0.0373  0.6605
 3223SOL    HW115631   4.553   2.530   4.106  2.6484  0.3816  2.5160
 3223SOL    HW215632   4.554   2.465   4.243 -1.5788 -1.5275  1.7881
 3224SOL     OW15633   8.707   6.421   5.823 -0.4168  0.1447  0.1817
 3224SOL    HW115634   8.636   6.448   5.882 -0.7662  0.0551 -0.1979
 3224SOL    HW215635   8.701   6.480   5.749  0.2757  0.5155  0.4096
 3225SOL     OW15636   7.085   8.538   6.869 -0.3123  0.0035  0.1760
 3225SOL    HW115637   7.180   8.541   6.880 -0.2924  1.3793 -0.1151
 3225SOL    HW215638   7.059   8.453   6.902  1.2512 -1.2687 -1.6450
 3226SOL     OW15639   6.804   0.836   9.246  0.0946  0.1420 -0.1495
 3226SOL    HW115640   6.862   0.774   9.289 -1.6120 -1.2578  0.2503
 3226SOL    HW215641   6.785   0.902   9.313 -0.6506 -0.7162  0.5059
 3227SOL     OW15642   3.039   8.234   5.042  0.0173  0.2289 -0.1586
 3227SOL    HW115643   2.958   8.216   4.993  0.6432 -0.4227 -0.9648
 3227SOL    HW215644   3.096   8.160   5.023  0.7025  0.5288  0.6672
 3228SOL     OW15645   7.673   1.196   1.915 -0.0594  0.6096  0.4440
 3228SOL    HW115646   7.610   1.129   1.942  0.8388 -0.7934 -0.8025
 3228SOL    HW215647   7.646   1.219   1.826 -1.5225  3.3913  1.4766
 3229SOL     OW15648   4.393   5.473   8.361  0.4225 -0.3227  0.1226
 3229SOL    HW115649   4.384   5.388   8.404  2.1637  0.0060  1.2151
 3229SOL    HW215650   4.390   5.453   8.268  1.7516 -1.7314  0.3464
 3230SOL     OW15651   5.514   9.115   1.976  0.4480 -0.0574  0.7335
 3230SOL    HW115652   5.559   9.127   1.892 -2.1966 -1.2794 -1.0022
 3230SOL    HW215653   5.563   9.046   2.020  0.5460 -1.1274 -0.9426
 3231SOL     OW15654   7.430   3.506   4.107 -0.2081 -0.0821 -0.0783
 3231SOL    HW115655   7.484   3.430   4.124  1.0911  0.7156 -0.5071
 3231SOL    HW215656   7.403   3.498   4.015  1.7482  1.0296 -0.8061
 3232SOL     OW15657   7.920   0.184   4.773  0.0004 -0.1014 -0.4514
 3232SOL    HW115658   7.831   0.153   4.790 -1.0626  1.5575 -2.4866
 3232SOL    HW215659   7.947   0.138   4.694  1.3836 -1.3150  0.6868
 3233SOL     OW15660   9.153   5.725   2.374  0.0762 -0.2468 -0.2871
 3233SOL    HW115661   9.076   5.733   2.430 -0.2237 -3.8843  0.0188
 3233SOL    HW215662   9.227   5.719   2.435  0.1136 -0.9162 -0.3909
 3234SOL     OW15663   5.578   3.577   0.457  0.7364  0.1033  0.5009
 3234SOL    HW115664   5.520   3.502   0.465 -0.0794  0.7732  1.0284
 3234SOL    HW215665   5.665   3.539   0.442  0.3410 -0.9361  0.7869
 3235SOL     OW15666   8.266   1.774   3.674  0.0634  0.0821 -0.0395
 3235SOL    HW115667   8.244   1.839   3.607  0.4840  0.1484 -0.1150
 3235SOL    HW215668   8.294   1.826   3.749  1.1810 -0.0084 -0.3671
 3236SOL     OW15669   7.462   7.661   5.723 -0.0484  0.0427  0.1971
 3236SOL    HW115670   7.383   7.707   5.750  0.5054  1.4068 -0.4396
 3236SOL    HW215671   7.488   7.609   5.800 -0.8035  0.6192  0.8498
 3237SOL     OW15672   8.225   6.274   6.653  0.2634  0.3241  0.2042
 3237SOL    HW115673   8.248   6.310   6.567  1.5283  0.2300  0.4835
 3237SOL    HW215674   8.281   6.197   6.663 -1.0927 -0.6571  0.4070
 3238SOL     OW15675   5.442   0.599   7.810 -0.7250 -0.5224 -0.0165
 3238SOL    HW115676   5.414   0.538   7.878 -0.2212 -0.5841  0.1409
 3238SOL    HW215677   5.395   0.571   7.731 -2.3767  0.4000  0.6115
 3239SOL     OW15678   8.488   1.990   8.400  0.6743  0.1432  0.5749
 3239SOL    HW115679   8.510   2.001   8.307  0.9563  3.7861  0.9287
 3239SOL    HW215680   8.569   2.008   8.447 -0.2477  2.0076  1.5692
 3240SOL     OW15681   3.268   6.068   3.122 -0.0232 -0.1760 -0.3841
 3240SOL    HW115682   3.270   5.977   3.093 -1.0660 -0.7458  1.2366
 3240SOL    HW215683   3.317   6.069   3.204  1.5086  1.1050 -1.2541
 3241SOL     OW15684   2.679   4.366   7.332 -0.3622  0.3151  0.3486
 3241SOL    HW115685   2.732   4.434   7.291  0.3603 -0.0995  0.5855
 3241SOL    HW215686   2.608   4.350   7.269  0.1955  0.3685 -0.3012
 3242SOL     OW15687   5.560   2.764   3.268  0.2957 -0.0611  0.3213
 3242SOL    HW115688   5.578   2.852   3.234 -0.6525  0.2893  0.7088
 3242SOL    HW215689   5.643   2.718   3.257  0.2706  0.2573 -1.7624
 3243SOL     OW15690   4.810   0.551   0.290  0.2141  0.1622  0.1530
 3243SOL    HW115691   4.764   0.533   0.371 -0.0471  0.6089  0.1093
 3243SOL    HW215692   4.884   0.490   0.289  0.7282  0.7497  1.1528
 3244SOL     OW15693   5.729   8.688   3.561  0.6222 -0.5499 -0.2908
 3244SOL    HW115694   5.672   8.619   3.595  1.0212 -0.2389  1.0661
 3244SOL    HW215695   5.728   8.755   3.628  2.5489 -0.5083 -0.2455
 3245SOL     OW15696   5.838   3.534   8.273  0.5009  0.6085  0.1632
 3245SOL    HW115697   5.930   3.555   8.254  0.5427  1.8468  1.5254
 3245SOL    HW215698   5.794   3.619   8.270 -0.3279  0.2168  0.8865
 3246SOL     OW15699   1.020   2.598   5.607  0.2051  0.2547  0.2454
 3246SOL    HW115700   1.087   2.659   5.575  1.5610 -0.7944  1.0130
 3246SOL    HW215701   0.995   2.548   5.529  1.4798 -0.4209  0.2543
 3247SOL     OW15702   0.921   2.315   2.584 -0.0264  0.2520  0.4548
 3247SOL    HW115703   0.985   2.273   2.528 -0.7208 -2.2142  1.3869
 3247SOL    HW215704   0.897   2.396   2.538 -0.3497 -1.4982 -2.6737
 3248SOL     OW15705   3.048   1.627   9.091 -0.1281 -0.0042  0.2864
 3248SOL    HW115706   2.993   1.549   9.094 -0.6195  0.3292  0.0871
 3248SOL    HW215707   3.123   1.602   9.037  1.0966 -1.1955  2.3953
 3249SOL     OW15708   1.259   7.582   3.890  0.0949  0.0100  0.7680
 3249SOL    HW115709   1.239   7.490   3.910  1.1623 -0.0623  1.5845
 3249SOL    HW215710   1.174   7.626   3.897 -0.7197 -1.1238 -1.1050
 3250SOL     OW15711   3.611   0.061   6.645  0.7990 -0.4748 -0.1589
 3250SOL    HW115712   3.699   0.087   6.617 -0.0370  1.2414 -1.3624
 3250SOL    HW215713   3.598   0.108   6.727  0.8900 -0.5394 -0.1059
 3251SOL     OW15714   6.465   2.655   0.973 -0.1633 -0.1421 -0.0614
 3251SOL    HW115715   6.401   2.635   0.904  0.2172 -2.0595  0.1024
 3251SOL    HW215716   6.539   2.694   0.926 -0.6432  0.2605 -0.4996
 3252SOL     OW15717   2.681   7.846   0.599  0.0150 -0.0186  0.3473
 3252SOL    HW115718   2.684   7.770   0.657  1.0345  0.4165  0.8810
 3252SOL    HW215719   2.725   7.916   0.647  0.2433  0.5577 -0.6591
 3253SOL     OW15720   5.616   8.996   8.478 -0.3199 -0.3071 -0.5762
 3253SOL    HW115721   5.694   9.048   8.457 -1.5376  1.9375  0.1974
 3253SOL    HW215722   5.571   8.986   8.394 -0.2188  0.0988 -0.6783
 3254SOL     OW15723   0.457   1.811   0.157 -0.3354 -0.3295 -0.2906
 3254SOL    HW115724   0.432   1.751   0.227  1.8894 -0.7095  0.2430
 3254SOL    HW215725   0.463   1.896   0.200  1.4427 -0.6343  0.1244
 3255SOL     OW15726   3.117   8.552   7.441 -0.2299 -0.0109  0.1190
 3255SOL    HW115727   3.174   8.475   7.449 -0.1046  0.2296  2.0971
 3255SOL    HW215728   3.096   8.557   7.348  1.8625 -0.9251 -0.4714
 3256SOL     OW15729   4.302   4.788   3.440  0.2697 -0.3922 -0.0536
 3256SOL    HW115730   4.313   4.736   3.519 -0.0043  0.1502  0.3489
 3256SOL    HW215731   4.241   4.858   3.465  0.1098 -0.2637 -0.7636
 3257SOL     OW15732   2.209   6.309   6.988 -0.2109 -0.5292 -0.3004
 3257SOL    HW115733   2.157   6.233   6.960 -1.2034 -0.0864  0.3042
 3257SOL    HW215734   2.257   6.278   7.065 -0.8851 -0.4445  0.1579
 3258SOL     OW15735   8.191   4.162   6.510 -0.0146  0.6367  0.4898
 3258SOL    HW115736   8.194   4.075   6.470 -2.3037  2.1352 -3.4337
 3258SOL    HW215737   8.112   4.161   6.564  1.4451 -0.4367  2.7614
 3259SOL     OW15738   5.190   9.276   1.588  0.0469 -0.0075 -0.4198
 3259SOL    HW115739   5.119   9.227   1.631 -0.1953  0.1654 -0.6239
 3259SOL    HW215740   5.270   9.240   1.627 -0.1950  0.6712  0.7431
 3260SOL     OW15741   0.250   0.964   8.282  0.0155  0.5377  0.2218
 3260SOL    HW115742   0.295   1.001   8.207 -0.4230  0.8624  0.1118
 3260SOL    HW215743   0.260   0.869   8.272 -2.3619  0.3848 -1.7776
 3261SOL     OW15744   1.288   4.344   4.785 -0.2531 -0.0709 -0.1054
 3261SOL    HW115745   1.363   4.392   4.820  0.8599 -0.7852 -1.4128
 3261SOL    HW215746   1.320   4.255   4.774 -1.7412 -0.7270  0.5879
 3262SOL     OW15747   6.652   1.961   3.936  0.1080  0.7014  0.3752
 3262SOL    HW115748   6.609   1.914   4.008  0.4495  1.3431  1.0058
 3262SOL    HW215749   6.664   2.050   3.969 -0.1193  1.1221 -0.6416
 3263SOL     OW15750   2.161   4.763   9.342  0.1780 -0.5606 -0.2902
 3263SOL    HW115751   2.135   4.712   9.419 -0.5401 -0.2101 -0.2901
 3263SOL    HW215752   2.122   4.849   9.357  1.4357  0.0317 -0.2505
 3264SOL     OW15753   2.581   3.786   4.730  0.0747 -0.6533  0.7361
 3264SOL    HW115754   2.599   3.834   4.649  0.8932 -1.2102  0.5720
 3264SOL    HW215755   2.520   3.717   4.704  0.2595 -0.7703  0.6088
 3265SOL     OW15756   2.304   2.638   1.861  0.3683 -0.1249  0.0664
 3265SOL    HW115757   2.374   2.579   1.835  0.1634 -0.3054 -0.0777
 3265SOL    HW215758   2.225   2.584   1.860  0.5275 -0.5074  2.3953
 3266SOL     OW15759   4.720   7.753   8.116 -0.2255 -0.2707 -0.4030
 3266SOL    HW115760   4.670   7.677   8.146 -1.8093  0.0659 -1.9632
 3266SOL    HW215761   4.701   7.821   8.179 -1.4750 -0.2681 -0.7564
 3267SOL     OW15762   8.716   7.029   3.326 -0.3111 -0.1663 -0.4530
 3267SOL    HW115763   8.769   6.992   3.397 -1.3909 -0.7947  0.0413
 3267SOL    HW215764   8.732   7.123   3.333 -1.7509  0.0012  1.8179
 3268SOL     OW15765   7.071   4.926   9.237 -0.2651  0.4341  0.1303
 3268SOL    HW115766   7.020   4.921   9.156  0.6380  0.4192 -0.4499
 3268SOL    HW215767   7.116   4.841   9.243  0.4372  0.8012  0.1292
 3269SOL     OW15768   5.903   5.367   0.894  0.1540 -0.7179  0.0443
 3269SOL    HW115769   5.917   5.291   0.951 -0.4806 -0.6308  0.3258
 3269SOL    HW215770   5.949   5.438   0.939 -0.7399 -0.5410  0.7113
 3270SOL     OW15771   4.328   3.946   0.020 -0.0106  0.1134  0.2116
 3270SOL    HW115772   4.308   4.014   0.084  2.0778  0.1826  0.8853
 3270SOL    HW215773   4.401   3.981  -0.031  0.8210 -1.4141  0.2784
 3271SOL     OW15774   3.254   5.808   7.565 -0.1337  0.1753  0.1037
 3271SOL    HW115775   3.272   5.777   7.654 -1.2735  0.5256  0.4755
 3271SOL    HW215776   3.313   5.883   7.553  1.2903 -0.9452 -0.1112
 3272SOL     OW15777   4.861   5.373   5.566 -0.6923 -0.0971  0.1258
 3272SOL    HW115778   4.829   5.304   5.509 -1.0880 -0.1499  0.4121
 3272SOL    HW215779   4.866   5.450   5.509 -1.0579 -0.1543  0.0164
 3273SOL     OW15780   3.124   9.111   8.012  0.6886  0.7855  0.8289
 3273SOL    HW115781   3.192   9.090   8.075  2.3886  2.4405 -0.3287
 3273SOL    HW215782   3.158   9.187   7.964  0.2845 -1.2637 -3.1476
 3274SOL     OW15783   4.925   8.915   3.631 -0.0364 -0.0954 -0.6282
 3274SOL    HW115784   4.890   9.004   3.633  1.1272  0.3750  0.0555
 3274SOL    HW215785   4.892   8.877   3.550 -1.5657  0.5249 -0.3220
 3275SOL     OW15786   8.051   8.949   4.209  0.1155 -0.2976  0.3405
 3275SOL    HW115787   8.080   8.983   4.294  2.1752  1.2816 -0.8897
 3275SOL    HW215788   8.094   9.006   4.145 -0.6279 -2.0133 -1.7935
 3276SOL     OW15789   6.952   2.554   7.526  0.2864 -0.1626  0.2358
 3276SOL    HW115790   6.904   2.515   7.452 -1.0531 -1.4709  1.7264
 3276SOL    HW215791   7.038   2.576   7.490 -1.0219  1.3274 -2.2870
 3277SOL     OW15792   5.955   0.810   6.353  0.0086  0.0379 -0.5213
 3277SOL    HW115793   5.996   0.766   6.428 -0.3236  1.1412  0.3489
 3277SOL    HW215794   5.865   0.779   6.354 -0.6823  1.8460  1.0953
 3278SOL     OW15795   0.078   6.116   5.421 -0.1145  0.3186  0.3272
 3278SOL    HW115796  -0.013   6.129   5.396  0.2791  0.4025 -1.1870
 3278SOL    HW215797   0.127   6.172   5.360  1.1039 -1.7565 -0.7031
 3279SOL     OW15798   9.217   5.544   4.115  0.7317 -0.1423  0.0283
 3279SOL    HW115799   9.225   5.564   4.022  1.0746 -1.6219 -0.2908
 3279SOL    HW215800   9.122   5.539   4.130  0.6251 -2.7379 -0.9611
 3280SOL     OW15801   3.255   3.884   2.705  0.1312  0.3901  0.1965
 3280SOL    HW115802   3.184   3.946   2.721 -0.0331  0.0889  0.6255
 3280SOL    HW215803   3.251   3.867   2.610 -0.0636  0.7356  0.1426
 3281SOL     OW15804   4.527   0.841   8.186 -0.3268 -0.0748  0.0607
 3281SOL    HW115805   4.472   0.790   8.245 -0.1413  2.5198  2.7387
 3281SOL    HW215806   4.606   0.789   8.176 -1.3021 -1.6477  0.1449
 3282SOL     OW15807   7.976   0.881   0.682  0.7081  0.8038  0.3959
 3282SOL    HW115808   8.064   0.879   0.645 -0.6156 -0.1222 -3.0940
 3282SOL    HW215809   7.939   0.795   0.661 -1.5722  1.7395  0.2484
 3283SOL     OW15810   6.317   3.439   6.429 -0.5919 -0.1257  0.5385
 3283SOL    HW115811   6.272   3.356   6.442  0.1054 -0.7854 -1.0300
 3283SOL    HW215812   6.398   3.416   6.383 -0.2408  1.3917  0.3404
 3284SOL     OW15813   4.078   8.009   3.463  0.0149  0.1711  0.3927
 3284SOL    HW115814   4.024   7.978   3.536 -0.1912 -1.5737 -0.4380
 3284SOL    HW215815   4.168   7.988   3.489 -0.2009 -2.4881 -0.6759
 3285SOL     OW15816   4.661   2.068   4.513  0.1265 -0.8645  0.5607
 3285SOL    HW115817   4.754   2.071   4.490  0.1622 -1.6588  0.5600
 3285SOL    HW215818   4.623   2.005   4.451 -0.6068  0.1489 -0.0523
 3286SOL     OW15819   7.471   3.270   8.365  0.0962  0.1878 -0.0386
 3286SOL    HW115820   7.402   3.332   8.389  0.9689  1.2594 -0.2042
 3286SOL    HW215821   7.427   3.205   8.310 -0.9672  0.2911  0.6570
 3287SOL     OW15822   5.386   6.683   7.818 -0.2765  0.3021  0.1482
 3287SOL    HW115823   5.449   6.755   7.820  0.0119  0.0641 -0.2915
 3287SOL    HW215824   5.307   6.720   7.857 -0.1568  0.8839 -0.1472
 3288SOL     OW15825   3.427   8.431   8.967 -0.2590 -0.3984 -0.3712
 3288SOL    HW115826   3.399   8.358   9.021 -1.2199  1.8129  2.3772
 3288SOL    HW215827   3.516   8.452   8.997 -0.6345  0.5850  0.1069
 3289SOL     OW15828   0.123   4.120   7.507 -0.5724  0.0649 -0.5203
 3289SOL    HW115829   0.104   4.214   7.507  1.7712  0.5937 -0.7216
 3289SOL    HW215830   0.067   4.084   7.438 -1.3278  1.3229 -0.5941
 3290SOL     OW15831   6.847   6.623   3.926 -0.0573  0.3083 -0.0469
 3290SOL    HW115832   6.894   6.622   4.009  0.3191  2.2850 -0.1915
 3290SOL    HW215833   6.911   6.654   3.862 -0.7738  0.3394 -0.7694
 3291SOL     OW15834   7.261   3.300   1.444 -0.0333 -0.4467 -0.0235
 3291SOL    HW115835   7.222   3.214   1.456 -1.4811  0.0727 -0.7895
 3291SOL    HW215836   7.232   3.328   1.357 -0.1095  1.0680  0.4504
 3292SOL     OW15837   2.076   3.760   2.467 -0.4757 -0.1324  0.7806
 3292SOL    HW115838   2.121   3.707   2.401 -1.3014  1.9355 -1.5979
 3292SOL    HW215839   1.985   3.732   2.461 -0.6222  0.3542  0.7438
 3293SOL     OW15840   5.951   3.001   8.598 -0.0843  0.7952 -0.8878
 3293SOL    HW115841   5.952   3.093   8.569 -2.4508  0.9716 -0.5423
 3293SOL    HW215842   5.935   2.951   8.517  0.7083  0.6963 -0.9948
 3294SOL     OW15843   0.510   6.118   5.877 -0.2942  0.5100 -0.1499
 3294SOL    HW115844   0.538   6.131   5.786  1.4630  0.2486  0.3270
 3294SOL    HW215845   0.475   6.203   5.903 -0.6071  0.6562 -0.9830
 3295SOL     OW15846   6.706   0.910   1.833  0.2916 -0.0732  0.3767
 3295SOL    HW115847   6.782   0.962   1.805 -0.2819  0.2529 -0.6334
 3295SOL    HW215848   6.648   0.973   1.876 -0.5973  0.2776 -1.2214
 3296SOL     OW15849   5.746   7.097   7.792  0.2788 -0.3955 -0.0702
 3296SOL    HW115850   5.772   7.082   7.701 -0.6504 -0.7373 -0.2930
 3296SOL    HW215851   5.753   7.192   7.804 -2.3871  0.0561 -1.4175
 3297SOL     OW15852   0.383   8.552   7.441  0.1824 -0.6550  0.3884
 3297SOL    HW115853   0.409   8.483   7.501  1.3987 -0.8915 -0.3627
 3297SOL    HW215854   0.378   8.631   7.495 -0.0444 -1.1117  1.0345
 3298SOL     OW15855   4.410   4.515   6.441  0.1635  0.3273  0.2318
 3298SOL    HW115856   4.417   4.431   6.395 -0.3676  0.4783 -0.1330
 3298SOL    HW215857   4.316   4.536   6.438  0.1658  0.5148  1.0710
 3299SOL     OW15858   0.878   5.910   5.319  0.3438  0.2761  0.1521
 3299SOL    HW115859   0.968   5.922   5.351  0.2193 -1.9976  1.6327
 3299SOL    HW215860   0.879   5.824   5.277 -0.8354  0.8570 -1.1398
 3300SOL     OW15861   6.604   9.213   4.151 -0.1261  0.0074 -0.4501
 3300SOL    HW115862   6.604   9.175   4.063 -1.0133  0.1661 -0.5234
 3300SOL    HW215863   6.605   9.308   4.136 -0.5071  0.0367 -0.2970
 3301SOL     OW15864   4.498   6.246   1.237  0.3311 -0.0781 -0.0381
 3301SOL    HW115865   4.417   6.290   1.210  0.2500  0.2458  0.7132
 3301SOL    HW215866   4.567   6.291   1.189 -0.1489 -2.2673 -3.0164
 3302SOL     OW15867   5.378   1.701   3.296  0.0406 -0.4634 -0.4712
 3302SOL    HW115868   5.468   1.690   3.327  0.4550  0.7086 -1.1712
 3302SOL    HW215869   5.388   1.743   3.210 -1.1998  1.2701  0.1778
 3303SOL     OW15870   1.404   0.228   8.256  0.0990  0.1094 -0.0046
 3303SOL    HW115871   1.428   0.198   8.344  0.4777  0.4145 -0.0040
 3303SOL    HW215872   1.347   0.303   8.270 -0.9841 -0.6742 -0.0035
 3304SOL     OW15873   7.919   8.785   3.276  0.1744  0.3486  0.3224
 3304SOL    HW115874   8.006   8.800   3.239  0.1521  0.9404  0.4835
 3304SOL    HW215875   7.933   8.723   3.348  0.2339 -0.7014 -0.5747
 3305SOL     OW15876   2.171   7.058   6.638  0.3592 -0.2678 -0.1623
 3305SOL    HW115877   2.146   7.109   6.715  1.3321 -0.3144  0.2021
 3305SOL    HW215878   2.147   7.113   6.564  0.5395  0.3223  0.2078
 3306SOL     OW15879   5.650   1.046   0.980  0.0324 -0.4807  0.4305
 3306SOL    HW115880   5.678   1.108   1.047 -0.2135  1.1118 -0.8967
 3306SOL    HW215881   5.597   0.982   1.027 -1.0874  1.2363  1.5972
 3307SOL     OW15882   7.222   6.066   7.936  0.4443  0.1654  0.1974
 3307SOL    HW115883   7.238   5.973   7.952  0.1283  0.1561  0.4642
 3307SOL    HW215884   7.207   6.104   8.023  1.0720  0.5625  0.1365
 3308SOL     OW15885   8.502   0.791   0.596  0.8428  0.3315 -0.3304
 3308SOL    HW115886   8.576   0.750   0.641  0.4302 -0.5359 -0.4282
 3308SOL    HW215887   8.447   0.826   0.666  1.0763  0.5040 -0.2333
 3309SOL     OW15888   3.561   4.668   4.318 -0.6689  0.2450 -0.0648
 3309SOL    HW115889   3.578   4.746   4.266 -0.2374  1.1173  1.3241
 3309SOL    HW215890   3.529   4.701   4.402 -0.3337 -1.0610  0.6104
 3310SOL     OW15891   2.110   0.216   7.092  0.0008  0.4559 -0.1156
 3310SOL    HW115892   2.068   0.169   7.164 -0.4508 -0.3088 -0.8651
 3310SOL    HW215893   2.067   0.301   7.091 -0.6400  0.1376 -0.0660
 3311SOL     OW15894   1.153   3.047   3.005  0.4760  0.1384 -0.1358
 3311SOL    HW115895   1.168   3.069   2.913  1.1116  2.3287  0.4188
 3311SOL    HW215896   1.085   2.980   3.003 -0.1337  0.7287 -2.1672
 3312SOL     OW15897   7.523   8.361   6.489 -0.0896  0.1725  0.5339
 3312SOL    HW115898   7.559   8.273   6.485  0.4410  0.4028 -0.0138
 3312SOL    HW215899   7.476   8.372   6.406 -2.5280 -0.5527  1.7123
 3313SOL     OW15900   2.843   7.591   0.602  0.5568  0.6391  0.5580
 3313SOL    HW115901   2.904   7.663   0.618  2.5254 -0.8972  0.3247
 3313SOL    HW215902   2.846   7.578   0.507  0.0231  0.4133  0.5697
 3314SOL     OW15903   7.364   4.992   3.183 -0.0387 -0.7036  0.0475
 3314SOL    HW115904   7.398   4.920   3.237  0.0543 -0.4853  0.2838
 3314SOL    HW215905   7.442   5.029   3.140  0.2411  0.6505  1.6175
 3315SOL     OW15906   7.210   8.603   8.079 -0.4743 -0.0302 -0.1581
 3315SOL    HW115907   7.248   8.524   8.118 -1.2414  0.4983  1.8197
 3315SOL    HW215908   7.153   8.638   8.148 -0.2078  2.2036 -0.9818
 3316SOL     OW15909   2.135   1.510   4.082  0.2446  0.1236  0.1627
 3316SOL    HW115910   2.089   1.566   4.144  1.5961  1.2841  0.1784
 3316SOL    HW215911   2.226   1.539   4.087  0.4791 -0.1056 -1.9961
 3317SOL     OW15912   5.807   5.046   7.656 -0.3384 -0.3241 -0.2758
 3317SOL    HW115913   5.800   4.961   7.700  1.2063 -0.9480 -1.1583
 3317SOL    HW215914   5.846   5.104   7.721  0.5041 -0.8388 -0.3103
 3318SOL     OW15915   7.306   0.253   4.932  0.1817  0.4483 -0.1674
 3318SOL    HW115916   7.221   0.272   4.970 -0.4302 -1.6870 -0.3201
 3318SOL    HW215917   7.287   0.223   4.843  0.8348 -1.8822  0.3930
 3319SOL     OW15918   9.332   5.963   8.050 -0.2917 -0.4479  0.1156
 3319SOL    HW115919   9.259   6.023   8.061  1.2827  1.2269  2.2691
 3319SOL    HW215920   9.397   6.012   8.000  0.9314 -0.3623  1.7045
 3320SOL     OW15921   9.233   5.451   8.837  0.2174 -0.0755  0.5632
 3320SOL    HW115922   9.229   5.364   8.796  0.8067 -0.1441  0.6441
 3320SOL    HW215923   9.165   5.448   8.904 -0.6028 -0.0420 -0.2423
 3321SOL     OW15924   2.410   1.065   8.319  0.1962  0.5902  0.2832
 3321SOL    HW115925   2.448   1.029   8.399  0.6874  0.6430  0.0835
 3321SOL    HW215926   2.431   1.158   8.322 -1.1013  0.8744  0.8129
 3322SOL     OW15927   8.378   1.982   0.317 -0.3179 -0.2545  0.3856
 3322SOL    HW115928   8.336   1.897   0.326 -0.4415 -0.5628 -2.3771
 3322SOL    HW215929   8.464   1.963   0.281  0.2073  0.7254  1.0812
 3323SOL     OW15930   7.332   3.470   5.879 -0.2536 -0.1539 -0.5544
 3323SOL    HW115931   7.349   3.468   5.785 -1.5863 -1.5064 -0.8191
 3323SOL    HW215932   7.354   3.381   5.908 -1.3064 -0.2063  0.1107
 3324SOL     OW15933   4.485   2.114   5.815 -0.4351  0.7419  0.1867
 3324SOL    HW115934   4.456   2.100   5.905  0.1086  2.5655  0.7010
 3324SOL    HW215935   4.573   2.077   5.812 -1.1576 -1.0169 -0.1680
 3325SOL     OW15936   4.427   5.158   8.775  0.3967  0.1155  0.5119
 3325SOL    HW115937   4.516   5.162   8.808 -0.2171 -1.4061  2.5886
 3325SOL    HW215938   4.407   5.064   8.770 -0.2405  0.3217 -2.4854
 3326SOL     OW15939   6.872   0.113   1.757 -0.2557  0.3127  0.1708
 3326SOL    HW115940   6.787   0.124   1.714 -1.4195 -1.1568  1.9347
 3326SOL    HW215941   6.914   0.041   1.709  0.8770  2.2104 -1.8659
 3327SOL     OW15942   9.082   3.130   3.638  0.3655  0.1717 -0.1925
 3327SOL    HW115943   9.120   3.117   3.551  2.8395 -0.7548  0.9357
 3327SOL    HW215944   9.156   3.152   3.694 -1.0567  0.1461  1.8171
 3328SOL     OW15945   1.515   3.191   6.116 -0.0780  0.0382  0.2303
 3328SOL    HW115946   1.556   3.116   6.072 -1.1611  0.8448 -2.3599
 3328SOL    HW215947   1.425   3.164   6.131  0.1197  0.0139  1.4541
 3329SOL     OW15948   9.257   3.100   1.486  0.4556 -0.0268  0.4124
 3329SOL    HW115949   9.187   3.048   1.523 -0.1062  0.2229 -0.2656
 3329SOL    HW215950   9.212   3.174   1.444  1.0408 -0.3137 -0.7726
 3330SOL     OW15951   8.171   2.731   8.496  0.1420 -0.0435  0.6300
 3330SOL    HW115952   8.116   2.682   8.434  0.5932  0.7609 -0.4500
 3330SOL    HW215953   8.260   2.705   8.473  0.3569  0.9051  0.3545
 3331SOL     OW15954   3.355   6.351   4.104 -0.2303 -0.3628  0.5626
 3331SOL    HW115955   3.304   6.281   4.062  1.0421 -0.6592 -0.5768
 3331SOL    HW215956   3.433   6.360   4.048  0.2911  1.0226  1.4703
 3332SOL     OW15957   1.205   4.892   6.565 -0.3923 -0.0263 -0.2691
 3332SOL    HW115958   1.136   4.936   6.616 -0.4553  0.4065 -0.7157
 3332SOL    HW215959   1.182   4.799   6.569 -0.8186  0.0803 -0.1367
 3333SOL     OW15960   5.527   0.743   1.259  0.5182 -0.0241  0.4196
 3333SOL    HW115961   5.587   0.758   1.332 -0.2392  0.3517  0.9769
 3333SOL    HW215962   5.444   0.781   1.288 -0.1267 -0.9755 -0.1438
 3334SOL     OW15963   0.188   6.062   3.617 -0.2619 -0.4549 -0.0756
 3334SOL    HW115964   0.220   6.005   3.547 -1.2043 -0.2411 -0.7020
 3334SOL    HW215965   0.102   6.026   3.639 -0.6310  0.3990 -0.0990
 3335SOL     OW15966   6.900   0.897   5.021  0.6094 -0.1154 -0.2887
 3335SOL    HW115967   6.860   0.873   5.105  0.0339 -1.6489 -0.9560
 3335SOL    HW215968   6.992   0.871   5.030  0.7659  0.5592  0.1627
 3336SOL     OW15969   1.782   5.236   3.305 -0.0494  0.6065 -0.6601
 3336SOL    HW115970   1.747   5.170   3.365  1.6886 -1.5829 -1.8793
 3336SOL    HW215971   1.861   5.269   3.348  1.2609 -1.0467 -1.6606
 3337SOL     OW15972   2.186   4.721   3.252  0.1253  0.1603  0.1875
 3337SOL    HW115973   2.132   4.779   3.197  0.0192  0.7032  0.8430
 3337SOL    HW215974   2.259   4.777   3.279  0.1170 -0.0680  0.6812
 3338SOL     OW15975   0.113   5.657   1.510  0.1448  0.2406 -0.3163
 3338SOL    HW115976   0.208   5.652   1.496  0.4536  1.7431  0.9733
 3338SOL    HW215977   0.093   5.750   1.501 -1.4960 -0.2097 -2.0486
 3339SOL     OW15978   4.392   9.067   8.158 -0.0923 -0.4145 -0.7453
 3339SOL    HW115979   4.392   9.063   8.062 -0.3374  0.5586 -0.7914
 3339SOL    HW215980   4.306   9.102   8.180  1.0221  2.2266 -0.3111
 3340SOL     OW15981   2.820   5.250   8.115  0.1181  0.2553 -0.1191
 3340SOL    HW115982   2.907   5.277   8.086  1.1231  0.2987  2.6723
 3340SOL    HW215983   2.833   5.162   8.150 -0.5663  0.8668  1.7832
 3341SOL     OW15984   0.242   3.704   4.160  0.6397  0.2455 -0.4220
 3341SOL    HW115985   0.260   3.693   4.253  2.3143  0.4855 -0.6964
 3341SOL    HW215986   0.186   3.629   4.138  0.6850 -0.1240  0.6478
 3342SOL     OW15987   5.205   1.566   1.096 -0.3701 -0.1519  0.3011
 3342SOL    HW115988   5.284   1.535   1.051 -0.0218 -0.4236  1.0772
 3342SOL    HW215989   5.170   1.488   1.140 -0.4943  0.1780  0.8029
 3343SOL     OW15990   5.897   7.288   4.883 -0.2137 -0.0363  0.2416
 3343SOL    HW115991   5.879   7.382   4.888 -0.6230  0.0223 -1.6528
 3343SOL    HW215992   5.810   7.247   4.884 -0.0174 -0.4851  1.9467
 3344SOL     OW15993   5.490   1.576   5.592 -0.0037 -0.2077 -0.0587
 3344SOL    HW115994   5.523   1.645   5.650 -1.0718  0.2240  0.0483
 3344SOL    HW215995   5.438   1.623   5.527 -1.3313 -0.9708  0.4279
 3345SOL     OW15996   9.258   3.407   7.375  0.0322 -0.6966  0.0812
 3345SOL    HW115997   9.210   3.430   7.295 -0.3230  1.9375  0.9300
 3345SOL    HW215998   9.343   3.378   7.344  0.5213  1.8737 -1.3125
 3346SOL     OW15999   0.306   9.211   7.020 -0.2353 -0.1284 -0.2974
 3346SOL    HW116000   0.290   9.278   7.086 -0.6058  0.2451 -0.7622
 3346SOL    HW216001   0.323   9.260   6.939  0.6843 -0.5652 -0.3907
 3347SOL     OW16002   3.742   5.642   5.981  0.2509 -0.6802  0.1543
 3347SOL    HW116003   3.830   5.610   6.002 -0.5733 -2.0687  1.7828
 3347SOL    HW216004   3.740   5.647   5.885  1.9006 -1.1803  0.0686
 3348SOL     OW16005   8.934   6.329   5.463 -0.0160  0.4829 -0.0630
 3348SOL    HW116006   8.943   6.320   5.368  1.2023 -4.7557  0.2225
 3348SOL    HW216007   9.005   6.387   5.489  1.6324 -0.4744 -2.1763
 3349SOL     OW16008   7.418   5.854   6.191  0.6585  0.2627 -0.0466
 3349SOL    HW116009   7.401   5.811   6.275  2.4243 -0.2898  0.0673
 3349SOL    HW216010   7.402   5.947   6.208  0.4636  0.0937  0.7363
 3350SOL     OW16011   1.190   6.871   5.339 -0.0997  0.3863  0.2157
 3350SOL    HW116012   1.202   6.961   5.367  1.8040 -0.5966  2.9487
 3350SOL    HW216013   1.095   6.859   5.336 -0.5192  1.4228  3.9742
 3351SOL     OW16014   2.694   2.484   3.151 -0.1940 -0.2051 -0.3687
 3351SOL    HW116015   2.758   2.535   3.103 -0.2186 -0.6921 -0.9222
 3351SOL    HW216016   2.618   2.479   3.093 -1.2944  1.5514  0.8193
 3352SOL     OW16017   1.442   5.197   6.306  0.1442  0.0785  0.2269
 3352SOL    HW116018   1.425   5.114   6.261  0.4803 -0.0166  0.2715
 3352SOL    HW216019   1.399   5.263   6.251 -2.7618 -0.3760  1.7418
 3353SOL     OW16020   0.796   4.028   6.722 -0.3371 -0.0874 -0.1185
 3353SOL    HW116021   0.765   4.017   6.812  0.3031 -0.6314  0.0420
 3353SOL    HW216022   0.890   4.044   6.731 -0.3726  0.4531 -0.6620
 3354SOL     OW16023   7.334   8.948   5.823  0.3564  0.5511 -0.1626
 3354SOL    HW116024   7.352   8.861   5.859  2.3817  1.2008  0.5250
 3354SOL    HW216025   7.385   8.952   5.742  0.8086  1.3458  0.1582
 3355SOL     OW16026   2.125   8.070   4.937  0.2381 -0.0159 -0.5608
 3355SOL    HW116027   2.057   8.108   4.993 -0.5382 -0.7111 -0.9975
 3355SOL    HW216028   2.188   8.031   4.998  0.1772  0.5086 -0.1526
 3356SOL     OW16029   4.843   0.627   6.384  0.7636 -0.4013  0.2039
 3356SOL    HW116030   4.834   0.653   6.475 -3.0445 -1.6476  0.3754
 3356SOL    HW216031   4.857   0.532   6.387 -1.4254 -0.7905 -0.4387
 3357SOL     OW16032   5.325   4.256   6.082  0.0529 -0.4146 -0.3853
 3357SOL    HW116033   5.404   4.218   6.044 -0.1432  0.3263 -1.5476
 3357SOL    HW216034   5.256   4.235   6.020 -0.2274  1.0016 -0.5868
 3358SOL     OW16035   4.566   6.403   3.859  0.0681  0.4511  0.4741
 3358SOL    HW116036   4.572   6.361   3.773  2.3984  1.3680  0.1305
 3358SOL    HW216037   4.493   6.465   3.849 -1.5980 -1.4363  0.1386
 3359SOL     OW16038   6.207   5.080   1.172 -0.7255 -0.2261 -0.4205
 3359SOL    HW116039   6.274   5.016   1.195 -0.6752  0.0849  0.3393
 3359SOL    HW216040   6.248   5.164   1.189 -1.2947 -0.0349  0.0395
 3360SOL     OW16041   2.571   2.060   0.302  0.3926 -0.3008  0.3955
 3360SOL    HW116042   2.541   2.069   0.392  0.9779  0.0750  0.5609
 3360SOL    HW216043   2.549   2.143   0.260  1.6349  0.1836  0.6612
 3361SOL     OW16044   7.448   1.497   7.651  0.2897  0.4953 -0.4525
 3361SOL    HW116045   7.542   1.511   7.641  0.3077  1.0015  0.3050
 3361SOL    HW216046   7.427   1.535   7.737 -0.5078 -0.1043 -0.3699
 3362SOL     OW16047   1.126   0.953   6.315  0.2791  0.1320 -0.2068
 3362SOL    HW116048   1.191   1.020   6.293  2.7876 -2.6250 -1.9432
 3362SOL    HW216049   1.162   0.909   6.391 -0.4085 -0.3884 -0.1738
 3363SOL     OW16050   0.572   3.555   4.863 -0.1475  1.0256  0.1433
 3363SOL    HW116051   0.526   3.579   4.782 -0.4351  0.5718  0.1695
 3363SOL    HW216052   0.542   3.620   4.927 -0.5976  0.8513  0.1090
 3364SOL     OW16053   6.246   1.457   8.017 -0.6025 -0.3721  0.1178
 3364SOL    HW116054   6.258   1.504   8.099  0.3510  1.4259 -0.9768
 3364SOL    HW216055   6.313   1.388   8.018  0.1778  0.3776  0.3479
 3365SOL     OW16056   2.249   5.517   6.046 -0.0679 -0.5336 -0.4499
 3365SOL    HW116057   2.258   5.435   5.997 -0.3858 -0.4653 -0.6282
 3365SOL    HW216058   2.159   5.515   6.078 -0.2703  0.0210 -0.9635
 3366SOL     OW16059   4.468   0.053   0.630 -0.4522  0.5223 -0.2284
 3366SOL    HW116060   4.514  -0.028   0.650 -1.9830 -0.2268  0.4653
 3366SOL    HW216061   4.532   0.122   0.643  0.2455 -0.4074  1.5074
 3367SOL     OW16062   0.660   8.017   2.360 -0.6114  0.5986 -0.5699
 3367SOL    HW116063   0.580   8.070   2.363 -0.3015  1.1009 -0.9945
 3367SOL    HW216064   0.639   7.945   2.301 -1.3930 -0.3775  0.8404
 3368SOL     OW16065   6.679   8.747   6.932  0.5210  0.0730 -0.0857
 3368SOL    HW116066   6.642   8.829   6.963  1.4578  0.4733  0.0028
 3368SOL    HW216067   6.774   8.760   6.936  0.6787 -0.6840 -0.9322
 3369SOL     OW16068   3.568   1.823   8.268  0.3676 -0.4255 -0.3362
 3369SOL    HW116069   3.508   1.749   8.273 -0.0685 -0.0548 -0.0432
 3369SOL    HW216070   3.653   1.788   8.295 -0.3269 -0.2626  2.2435
 3370SOL     OW16071   2.679   3.648   2.018 -0.1713 -0.4175 -0.4799
 3370SOL    HW116072   2.712   3.575   2.070  0.0035 -0.2591 -0.3630
 3370SOL    HW216073   2.623   3.608   1.952 -1.6711 -0.5217  0.7846
 3371SOL     OW16074   5.589   5.321   8.270  0.1554  0.1746 -0.0703
 3371SOL    HW116075   5.518   5.332   8.333 -1.2396 -1.6959 -1.2022
 3371SOL    HW216076   5.610   5.228   8.274  2.2018  0.5872 -0.1848
 3372SOL     OW16077   6.852   2.910   7.496  0.4336  0.4462  0.3351
 3372SOL    HW116078   6.839   2.903   7.591  0.3601  0.0627  0.2974
 3372SOL    HW216079   6.772   2.952   7.464  0.4937  0.6528  0.4530
 3373SOL     OW16080   2.169   5.581   5.453  0.8944  0.2133 -0.0172
 3373SOL    HW116081   2.169   5.500   5.401  3.3345  0.1329 -0.0359
 3373SOL    HW216082   2.112   5.561   5.527 -2.2310  0.1302 -2.2239
 3374SOL     OW16083   8.532   4.223   3.165 -0.7625 -0.1680  0.0859
 3374SOL    HW116084   8.567   4.298   3.212  2.4462 -0.8583 -0.9443
 3374SOL    HW216085   8.499   4.164   3.233 -1.2935  1.1843  1.0308
 3375SOL     OW16086   3.670   0.106   4.479  0.5033  0.3829 -0.9398
 3375SOL    HW116087   3.598   0.059   4.437  0.5676  0.2532 -0.9066
 3375SOL    HW216088   3.673   0.071   4.568  1.2660 -0.3754 -1.2403
 3376SOL     OW16089   8.566   1.824   3.033 -0.0743  0.2325 -0.1854
 3376SOL    HW116090   8.536   1.899   2.982 -2.7636 -0.1361  0.6689
 3376SOL    HW216091   8.630   1.860   3.094  0.6618  1.2934 -1.5497
 3377SOL     OW16092   0.365   8.773   7.608 -0.2678 -0.5764 -0.5247
 3377SOL    HW116093   0.302   8.838   7.639 -0.4423 -1.4291  1.0431
 3377SOL    HW216094   0.392   8.727   7.688  2.3182 -0.2703 -1.1426
 3378SOL     OW16095   0.666   6.377   2.028  0.1152  0.0478 -0.2331
 3378SOL    HW116096   0.724   6.315   1.982 -1.8140 -1.6713 -0.5278
 3378SOL    HW216097   0.586   6.379   1.974 -0.3194  1.9644  0.3944
 3379SOL     OW16098   4.260   0.584   0.154  0.0866  0.1299 -0.0078
 3379SOL    HW116099   4.187   0.524   0.138  0.3282  0.0339 -0.8056
 3379SOL    HW216100   4.339   0.529   0.145  0.2748  0.3068  0.4972
 3380SOL     OW16101   2.897   4.816   9.108 -1.0642  0.6326 -0.7213
 3380SOL    HW116102   2.910   4.911   9.117 -2.6191  0.8866 -0.8116
 3380SOL    HW216103   2.935   4.779   9.187 -1.0214  1.4051 -0.3714
 3381SOL     OW16104   8.011   5.994   3.313  0.5097  0.0098  0.1281
 3381SOL    HW116105   7.995   5.965   3.402 -1.1436 -2.8182 -0.9365
 3381SOL    HW216106   7.925   6.013   3.277  0.9906 -0.2513 -1.2534
 3382SOL     OW16107   8.787   1.861   3.187 -0.3810  0.2239  0.3013
 3382SOL    HW116108   8.839   1.896   3.115 -2.0228 -0.3382 -1.2389
 3382SOL    HW216109   8.821   1.772   3.201  0.4083  0.5853  0.7224
 3383SOL     OW16110   0.998   5.094   8.888  0.5288  0.0283 -0.1980
 3383SOL    HW116111   1.032   5.165   8.943  0.8676  1.7981 -2.5259
 3383SOL    HW216112   0.968   5.138   8.808 -1.6931 -2.1810 -0.7069
 3384SOL     OW16113   7.585   4.000   5.847 -0.1455 -0.5425 -0.4751
 3384SOL    HW116114   7.589   3.947   5.768 -0.5459  0.0104 -0.8739
 3384SOL    HW216115   7.497   3.986   5.882 -0.4728  0.3232 -0.9224
 3385SOL     OW16116   3.974   3.023   8.486 -0.1514  0.1450  0.2276
 3385SOL    HW116117   3.908   3.078   8.443  0.6334  0.5664 -0.4810
 3385SOL    HW216118   4.039   3.085   8.518  0.0622 -0.2879  0.6383
 3386SOL     OW16119   6.753   5.152   5.783  0.7151  0.6668  0.5781
 3386SOL    HW116120   6.729   5.147   5.876  1.1507 -0.1638  0.6516
 3386SOL    HW216121   6.686   5.209   5.744  1.5318  2.5190  1.7186
 3387SOL     OW16122   7.064   5.803   3.943  0.1877  0.4226 -0.2820
 3387SOL    HW116123   7.034   5.747   4.015 -2.9600  1.0011 -1.0217
 3387SOL    HW216124   7.068   5.744   3.867  2.1718  0.1173 -0.0007
 3388SOL     OW16125   4.030   1.844   6.661  0.2507 -0.0663 -0.1591
 3388SOL    HW116126   4.124   1.840   6.676  0.2685 -0.1729 -0.2943
 3388SOL    HW216127   4.021   1.854   6.566  0.1137 -0.8156 -0.2322
 3389SOL     OW16128   5.699   2.591   8.407 -1.0902  0.7153  0.3814
 3389SOL    HW116129   5.688   2.560   8.317 -0.4304 -1.4826  1.0031
 3389SOL    HW216130   5.791   2.574   8.427 -1.3896  0.5187  1.7002
 3390SOL     OW16131   3.500   9.112   3.087 -0.1680  0.1420  0.2069
 3390SOL    HW116132   3.412   9.099   3.051 -0.0057  0.3813 -0.2929
 3390SOL    HW216133   3.510   9.043   3.153  0.5100 -2.0236 -2.0253
 3391SOL     OW16134   7.503   8.590   7.666 -0.2483 -0.5678  0.2701
 3391SOL    HW116135   7.499   8.685   7.675  0.1055 -0.6047  0.8281
 3391SOL    HW216136   7.509   8.557   7.755  1.1848 -1.0266  0.0396
 3392SOL     OW16137   4.137   2.838   6.510  0.6208 -0.0840  0.4899
 3392SOL    HW116138   4.110   2.929   6.520 -0.1049 -0.2427  0.0850
 3392SOL    HW216139   4.073   2.788   6.560 -1.1258 -0.6292 -2.0512
 3393SOL     OW16140   0.971   8.816   7.764  0.2545  0.2237  0.1834
 3393SOL    HW116141   0.883   8.781   7.748 -0.1809  1.2325  0.2977
 3393SOL    HW216142   0.966   8.856   7.851  0.4318  1.4885 -0.3763
 3394SOL     OW16143   7.899   1.894   6.351 -0.0453 -0.0771 -0.4477
 3394SOL    HW116144   7.894   1.877   6.257 -0.0521 -0.0117 -0.4598
 3394SOL    HW216145   7.909   1.808   6.392  2.1682  0.0381 -0.6499
 3395SOL     OW16146   7.063   8.499   3.991  0.0645  0.0142 -0.2169
 3395SOL    HW116147   7.070   8.543   4.076 -0.3534 -0.6672  0.1803
 3395SOL    HW216148   6.990   8.543   3.948 -0.8456 -0.7693  0.4853
 3396SOL     OW16149   3.259   2.164   1.388 -0.6349  0.0975  0.3341
 3396SOL    HW116150   3.284   2.255   1.371  0.4249  0.2198  2.2767
 3396SOL    HW216151   3.338   2.113   1.370 -1.7240 -0.7626 -2.5841
 3397SOL     OW16152   3.042   4.156   2.849 -0.1304 -0.2077  0.2615
 3397SOL    HW116153   3.045   4.235   2.904  1.2928 -0.1678  0.1709
 3397SOL    HW216154   3.091   4.091   2.899  1.8598  0.0439 -1.2220
 3398SOL     OW16155   7.854   8.280   8.484 -0.0214  0.5478  0.4082
 3398SOL    HW116156   7.811   8.317   8.406  1.7253 -0.2874 -1.0194
 3398SOL    HW216157   7.890   8.356   8.530 -1.5304  1.0987  0.7381
 3399SOL     OW16158   6.677   0.217   5.189 -0.0336  0.2671 -0.1848
 3399SOL    HW116159   6.757   0.267   5.202  1.1633 -1.5338 -0.2158
 3399SOL    HW216160   6.609   0.268   5.233  0.9024  2.3486 -1.0484
 3400SOL     OW16161   2.325   6.533   7.074 -0.4261 -0.0406 -0.0442
 3400SOL    HW116162   2.299   6.451   7.032  2.2682  0.3767 -2.8605
 3400SOL    HW216163   2.295   6.601   7.014  1.9651  0.6955 -0.4926
 3401SOL     OW16164   1.965   3.728   7.094 -0.1539  0.2962  0.0669
 3401SOL    HW116165   1.954   3.800   7.157 -0.1981 -1.2943  1.9845
 3401SOL    HW216166   2.004   3.769   7.017  0.7241  2.2293  1.4476
 3402SOL     OW16167   5.889   2.317   1.528  0.2102  0.1762 -0.4701
 3402SOL    HW116168   5.804   2.283   1.555  0.1013  0.0194 -0.9917
 3402SOL    HW216169   5.953   2.271   1.583 -0.0507  0.4555  0.0747
 3403SOL     OW16170   4.458   4.260   5.949  0.1656  0.6832 -0.0774
 3403SOL    HW116171   4.493   4.275   6.037 -0.3571 -0.6224  0.3747
 3403SOL    HW216172   4.383   4.319   5.943 -0.0246  0.5063  0.4984
 3404SOL     OW16173   4.319   5.286   7.454  0.1403 -0.1574 -0.6696
 3404SOL    HW116174   4.260   5.361   7.458  0.8806  0.4663 -1.1614
 3404SOL    HW216175   4.276   5.224   7.396 -1.1171 -0.7122  0.7917
 3405SOL     OW16176   7.643   0.782   1.112  0.3515 -0.1590  0.7517
 3405SOL    HW116177   7.562   0.789   1.062 -0.1044  3.0448  1.7707
 3405SOL    HW216178   7.676   0.694   1.091 -2.0369 -0.6054 -1.6712
 3406SOL     OW16179   2.824   4.829   7.118 -0.2615  0.1273  0.0733
 3406SOL    HW116180   2.812   4.860   7.208 -1.1377 -0.7700  0.2864
 3406SOL    HW216181   2.771   4.889   7.065  0.8760  1.1408  0.0340
 3407SOL     OW16182   8.656   7.852   0.854 -0.3166  0.1282  0.4658
 3407SOL    HW116183   8.593   7.788   0.886 -1.1758  1.0006  0.5708
 3407SOL    HW216184   8.696   7.887   0.934 -0.4409  0.3112  0.4472
 3408SOL     OW16185   4.434   0.511   7.550  0.1753  0.5148 -0.6087
 3408SOL    HW116186   4.341   0.529   7.565  0.1612  0.0690 -0.1120
 3408SOL    HW216187   4.449   0.538   7.460 -0.0920  1.9219 -0.2452
 3409SOL     OW16188   7.694   2.190   4.333 -0.0558  0.5474 -0.4906
 3409SOL    HW116189   7.773   2.206   4.385 -0.2197 -0.5663  0.1425
 3409SOL    HW216190   7.702   2.249   4.258  2.1460 -0.6328 -1.2712
 3410SOL     OW16191   1.638   8.936   2.806 -0.0730  0.1484 -0.0484
 3410SOL    HW116192   1.709   8.876   2.787 -1.0044 -1.3687  1.0299
 3410SOL    HW216193   1.662   8.976   2.890  0.0840  0.5562 -0.2864
 3411SOL     OW16194   0.889   2.279   8.930 -0.0544  0.1049  0.3169
 3411SOL    HW116195   0.959   2.344   8.918 -0.6595  0.8487  0.7678
 3411SOL    HW216196   0.813   2.330   8.959 -0.1958 -0.9404  1.9242
 3412SOL     OW16197   1.058   1.874   7.110  0.7091 -0.1392 -0.5446
 3412SOL    HW116198   0.978   1.845   7.066  0.6840  0.8647 -1.2116
 3412SOL    HW216199   1.028   1.933   7.179  0.8390 -0.3041 -0.3471
 3413SOL     OW16200   9.197   6.484   2.783 -0.7666 -0.7540 -0.3486
 3413SOL    HW116201   9.129   6.421   2.757 -1.5247  0.3681 -1.1697
 3413SOL    HW216202   9.150   6.548   2.836 -0.2814 -0.0994 -0.7093
 3414SOL     OW16203   2.877   4.553   3.032  0.4372 -0.8331  0.1592
 3414SOL    HW116204   2.958   4.576   2.987 -0.1383 -1.0044 -1.0082
 3414SOL    HW216205   2.901   4.549   3.124  1.5793 -0.1099 -0.0831
 3415SOL     OW16206   7.781   2.382   1.417 -0.3731  0.0515  0.1617
 3415SOL    HW116207   7.774   2.417   1.328  2.1353  0.6889  0.1377
 3415SOL    HW216208   7.707   2.420   1.463 -1.8022 -0.3871 -1.6713
 3416SOL     OW16209   6.066   4.189   3.296 -0.0402  0.0216 -0.7877
 3416SOL    HW116210   6.161   4.174   3.294 -0.0623 -0.5177  1.0278
 3416SOL    HW216211   6.056   4.281   3.323 -0.0497  0.1330 -1.1574
 3417SOL     OW16212   2.702   2.961   0.954 -0.0018  0.0927 -0.5616
 3417SOL    HW116213   2.632   2.933   0.895 -0.7528 -1.9764  1.1696
 3417SOL    HW216214   2.755   2.882   0.966  1.0295  0.8987  0.3151
 3418SOL     OW16215   1.792   6.230   7.958  0.0006  0.2828  0.1290
 3418SOL    HW116216   1.835   6.315   7.953  0.4358  0.0466 -0.2548
 3418SOL    HW216217   1.771   6.219   8.051 -1.1748  1.3418  0.0278
 3419SOL     OW16218   9.010   1.161   2.130  0.1885  0.2918  0.1477
 3419SOL    HW116219   8.993   1.252   2.108 -0.1745  0.3767  0.7652
 3419SOL    HW216220   8.929   1.129   2.169  0.2547 -0.3455 -0.2156
 3420SOL     OW16221   2.229   8.477   7.177 -0.5046  1.2630  0.6414
 3420SOL    HW116222   2.286   8.426   7.234  0.2951  2.6282  1.1176
 3420SOL    HW216223   2.162   8.415   7.148  1.8045 -0.7171 -0.8673
 3421SOL     OW16224   8.010   2.643   2.297 -0.4028 -0.5406  0.5588
 3421SOL    HW116225   7.970   2.558   2.280 -2.7540  0.8378 -1.3978
 3421SOL    HW216226   8.018   2.684   2.211 -1.1213  1.9492  1.5826
 3422SOL     OW16227   2.924   1.429   9.292  0.1429 -0.2456  0.0403
 3422SOL    HW116228   2.952   1.345   9.328 -0.1425  0.0376  0.9534
 3422SOL    HW216229   2.954   1.494   9.356  0.3957  0.3535 -0.6716
 3423SOL     OW16230   1.549   4.124   3.315 -0.0616  0.2264 -0.3210
 3423SOL    HW116231   1.613   4.176   3.266  2.1307 -1.0669  1.0259
 3423SOL    HW216232   1.549   4.162   3.402 -1.2438  0.2720 -0.3293
 3424SOL     OW16233   4.212   5.572   0.340 -0.4419 -0.1621 -0.0647
 3424SOL    HW116234   4.253   5.595   0.423 -0.1632 -3.3121  0.8146
 3424SOL    HW216235   4.119   5.593   0.353 -0.5302 -1.2175  1.3798
 3425SOL     OW16236   8.568   1.313   7.641 -0.0157 -0.3089 -0.3567
 3425SOL    HW116237   8.589   1.220   7.628 -1.1666 -0.4759 -1.2371
 3425SOL    HW216238   8.506   1.314   7.713 -1.4957 -0.4466 -1.5946
 3426SOL     OW16239   8.743   3.493   5.171 -0.2044  0.0842 -0.2170
 3426SOL    HW116240   8.749   3.586   5.149 -0.8431  0.0764 -0.4330
 3426SOL    HW216241   8.816   3.453   5.124  0.5647  0.5789  0.5051
 3427SOL     OW16242   5.894   2.105   2.488  0.0530 -0.1005  0.2773
 3427SOL    HW116243   5.872   2.123   2.397  0.2291 -0.8457  0.0797
 3427SOL    HW216244   5.819   2.138   2.538  0.0045  0.4086 -0.1251
 3428SOL     OW16245   4.009   8.871   0.703  0.2119 -0.4826  0.0449
 3428SOL    HW116246   4.092   8.883   0.657  0.5596 -0.7025  0.5987
 3428SOL    HW216247   4.012   8.935   0.774  0.1810 -0.9050  0.4291
 3429SOL     OW16248   3.225   5.216   1.089 -0.8274 -0.2052  0.3634
 3429SOL    HW116249   3.132   5.207   1.071 -0.8027  0.5788 -0.2240
 3429SOL    HW216250   3.231   5.219   1.185 -1.3161 -1.0613  0.4259
 3430SOL     OW16251   3.584   3.384   2.291  0.4847  0.2859 -0.5956
 3430SOL    HW116252   3.606   3.296   2.261 -0.5986 -0.1354 -0.1792
 3430SOL    HW216253   3.498   3.402   2.253 -0.3401  0.2468  1.1890
 3431SOL     OW16254   8.860   6.368   2.200  0.0186 -0.6067 -0.2641
 3431SOL    HW116255   8.824   6.345   2.286 -1.3503 -1.1967 -0.9753
 3431SOL    HW216256   8.864   6.285   2.153  2.6754 -0.6370 -0.1305
 3432SOL     OW16257   0.881   3.584   1.378 -0.2288 -0.2952 -0.5414
 3432SOL    HW116258   0.865   3.667   1.423  0.8455  0.4083 -1.3945
 3432SOL    HW216259   0.946   3.606   1.311  0.0990 -1.8402 -0.7532
 3433SOL     OW16260   8.187   1.420   0.652 -0.0474  0.3008 -0.1095
 3433SOL    HW116261   8.128   1.400   0.579  0.6986 -0.5145 -0.5182
 3433SOL    HW216262   8.230   1.337   0.671  0.1199  0.6132  0.9578
 3434SOL     OW16263   4.334   6.922   6.878 -0.2146  0.1549 -0.2826
 3434SOL    HW116264   4.388   6.844   6.872  0.1029  0.3578 -0.1372
 3434SOL    HW216265   4.289   6.913   6.962 -1.0677 -0.4245 -0.7867
 3435SOL     OW16266   0.345   8.659   3.714  0.2803  0.9236  0.1435
 3435SOL    HW116267   0.281   8.727   3.736  0.1542  1.0525 -0.6081
 3435SOL    HW216268   0.326   8.588   3.775 -0.4336  1.0476  0.0695
 3436SOL     OW16269   0.013   0.708   5.115  0.5406 -0.0639  0.2783
 3436SOL    HW116270   0.073   0.782   5.122 -2.2524  2.6605 -1.7438
 3436SOL    HW216271  -0.047   0.719   5.188 -0.5891  0.4636 -0.6880
 3437SOL     OW16272   1.804   9.198   0.429  0.3701  0.2728  0.0859
 3437SOL    HW116273   1.784   9.198   0.336 -1.3460  1.7631  0.3978
 3437SOL    HW216274   1.862   9.123   0.441 -0.8983 -1.1074 -1.8470
 3438SOL     OW16275   8.088   7.670   5.631  0.5604  0.2906  0.0508
 3438SOL    HW116276   8.077   7.763   5.647 -1.0881  0.0877  0.2704
 3438SOL    HW216277   8.154   7.642   5.695  0.2247  1.0908  0.7651
 3439SOL     OW16278   5.679   3.209   6.470  0.5398  0.5994 -0.6133
 3439SOL    HW116279   5.604   3.247   6.516  0.5152 -0.2345  0.0665
 3439SOL    HW216280   5.649   3.198   6.380 -0.3502 -0.2084 -0.2298
 3440SOL     OW16281   6.370   5.039   4.982  0.2983 -0.4102 -0.3480
 3440SOL    HW116282   6.397   4.965   4.928 -0.5939 -1.7546  0.9692
 3440SOL    HW216283   6.302   5.004   5.039 -0.5204  1.5635 -0.0107
 3441SOL     OW16284   0.522   6.178   5.593 -0.0312 -0.2093 -0.0368
 3441SOL    HW116285   0.575   6.257   5.595 -0.6445  0.2948 -1.8091
 3441SOL    HW216286   0.518   6.154   5.501 -0.0307 -2.2103  0.4334
 3442SOL     OW16287   5.291   6.475   8.165 -0.6031 -0.5604 -0.0103
 3442SOL    HW116288   5.280   6.488   8.259  1.1909 -0.6603  0.2484
 3442SOL    HW216289   5.282   6.563   8.128 -1.7861 -0.5859  0.1727
 3443SOL     OW16290   1.057   4.105   7.272 -0.8864 -0.2317 -0.0263
 3443SOL    HW116291   1.047   4.175   7.335 -0.8760 -0.6545  0.4503
 3443SOL    HW216292   1.078   4.028   7.325 -1.4467 -0.7128 -0.4936
 3444SOL     OW16293   7.362   6.290   7.124  0.1824 -0.1149  0.0474
 3444SOL    HW116294   7.414   6.370   7.117 -1.1992  0.7036 -1.7283
 3444SOL    HW216295   7.425   6.219   7.108  1.0730  0.7487 -0.3567
 3445SOL     OW16296   7.703   3.020   8.401 -0.1313  0.7867 -0.5665
 3445SOL    HW116297   7.715   3.039   8.494  1.7782  0.5670 -0.7311
 3445SOL    HW216298   7.690   2.925   8.398  3.1203  0.2147 -0.6891
 3446SOL     OW16299   2.483   6.029   8.376  0.6355  0.3380 -0.5566
 3446SOL    HW116300   2.406   6.055   8.326 -0.6828 -2.1363  0.0375
 3446SOL    HW216301   2.483   6.086   8.452 -1.2695 -0.3146 -0.0303
 3447SOL     OW16302   8.145   5.014   1.832 -0.1032 -0.0940  0.1123
 3447SOL    HW116303   8.166   5.102   1.800  0.9063  0.0688  1.1819
 3447SOL    HW216304   8.071   5.027   1.891  2.1032  0.6001  2.9301
 3448SOL     OW16305   4.040   4.132   1.398 -0.1717 -0.3623  0.5215
 3448SOL    HW116306   4.134   4.143   1.382 -0.2615  1.2460  0.9324
 3448SOL    HW216307   4.036   4.095   1.487  0.0598  3.2335  2.1803
 3449SOL     OW16308   2.374   7.402   5.460 -0.6093  0.1269  0.2924
 3449SOL    HW116309   2.401   7.468   5.523 -1.3272  1.9573 -1.2326
 3449SOL    HW216310   2.321   7.341   5.512 -1.4376  1.7260  1.4409
 3450SOL     OW16311   6.729   7.951   8.508 -0.9007  0.5088 -0.2865
 3450SOL    HW116312   6.722   8.019   8.575  0.3674  0.3262  0.0556
 3450SOL    HW216313   6.791   7.987   8.444 -0.0695 -0.3801 -0.0036
 3451SOL     OW16314   5.435   5.714   6.425  0.3372 -0.3769 -0.1677
 3451SOL    HW116315   5.453   5.661   6.503  1.4074  0.9381  0.5055
 3451SOL    HW216316   5.403   5.797   6.458  0.3463  0.0399 -1.1558
 3452SOL     OW16317   6.760   7.664   8.576 -0.5076  0.7216 -0.2704
 3452SOL    HW116318   6.760   7.628   8.487  0.4233  0.5443 -0.2136
 3452SOL    HW216319   6.759   7.759   8.564  0.8472  0.7209 -0.5085
 3453SOL     OW16320   1.865   6.316   5.666  0.3674  0.5694  0.1448
 3453SOL    HW116321   1.803   6.369   5.716 -1.2839 -1.2577  0.1806
 3453SOL    HW216322   1.832   6.320   5.576  3.0180  3.4201 -0.8773
 3454SOL     OW16323   1.376   3.045   7.422 -0.2143 -0.2685  0.6081
 3454SOL    HW116324   1.407   2.958   7.448  0.2261  0.5112  3.0266
 3454SOL    HW216325   1.408   3.103   7.492 -0.5531  1.8312 -0.8861
 3455SOL     OW16326   2.269   9.252   5.204 -0.2180 -0.0015 -0.1097
 3455SOL    HW116327   2.311   9.290   5.281 -0.6661 -0.0440  0.1557
 3455SOL    HW216328   2.341   9.212   5.155  0.3341  1.5077 -0.5858
 3456SOL     OW16329   0.931   6.042   6.365 -0.8212 -0.0038  0.4191
 3456SOL    HW116330   0.963   6.059   6.454 -0.6850  1.3149  0.1307
 3456SOL    HW216331   1.002   5.991   6.324  0.8675  2.5474 -0.0849
 3457SOL     OW16332   6.795   2.933   9.158  0.0772  0.0383  0.9122
 3457SOL    HW116333   6.736   2.893   9.222 -0.3045 -0.7035  0.1159
 3457SOL    HW216334   6.738   2.989   9.105 -0.1477 -1.5244 -0.5618
 3458SOL     OW16335   1.387   3.479   6.609  0.5746  0.0569 -0.1934
 3458SOL    HW116336   1.363   3.524   6.690 -1.1855 -0.5251 -0.3469
 3458SOL    HW216337   1.338   3.396   6.612  0.5839 -0.0419 -1.7688
 3459SOL     OW16338   0.640   3.472   1.804 -0.0604 -0.8039 -0.1689
 3459SOL    HW116339   0.609   3.559   1.781 -0.3723 -0.5189  1.2613
 3459SOL    HW216340   0.714   3.487   1.863  0.5339 -1.5191 -0.6978
 3460SOL     OW16341   3.587   5.501   8.170 -0.4647 -0.0528 -0.2450
 3460SOL    HW116342   3.629   5.432   8.222  1.1726  0.0537 -1.3354
 3460SOL    HW216343   3.637   5.580   8.190  0.7405 -0.1501 -2.4633
 3461SOL     OW16344   1.506   6.995   5.140 -0.0644  0.2871  0.2146
 3461SOL    HW116345   1.465   6.943   5.209 -0.1305  0.3514  0.2238
 3461SOL    HW216346   1.591   7.020   5.176 -0.0222  0.1645  0.2005
 3462SOL     OW16347   6.815   1.346   2.851  0.0441 -0.3453 -0.5257
 3462SOL    HW116348   6.824   1.257   2.885 -0.2009 -0.0973  0.2075
 3462SOL    HW216349   6.897   1.363   2.805  0.3368 -0.7344 -0.1522
 3463SOL     OW16350   7.090   6.787   0.105  0.3247 -0.3247 -0.1087
 3463SOL    HW116351   7.154   6.856   0.126 -0.3374  0.2398  0.0846
 3463SOL    HW216352   7.138   6.726   0.049  0.7304  0.6398 -0.8388
 3464SOL     OW16353   4.967   4.524   7.379  0.5111 -0.7634  0.4884
 3464SOL    HW116354   5.053   4.555   7.409 -0.4426  0.2812  2.2774
 3464SOL    HW216355   4.904   4.580   7.424 -1.1474 -1.8873 -0.3393
 3465SOL     OW16356   2.796   5.785   8.026  0.0844 -0.2328 -0.1368
 3465SOL    HW116357   2.830   5.762   8.112  0.2817  0.1468 -0.1141
 3465SOL    HW216358   2.784   5.879   8.028 -0.1102 -0.2477 -0.4541
 3466SOL     OW16359   0.158   8.258   1.861  0.0250  0.3279 -0.0930
 3466SOL    HW116360   0.231   8.320   1.870  0.3279 -0.0879  0.3722
 3466SOL    HW216361   0.082   8.308   1.890  0.3035  0.4208  0.5012
 3467SOL     OW16362   2.215   0.626   8.847  0.2699  0.2573  0.3700
 3467SOL    HW116363   2.124   0.600   8.832  0.5100  0.3364 -1.4214
 3467SOL    HW216364   2.253   0.554   8.897 -0.2011 -0.8268 -0.7927
 3468SOL     OW16365   2.877   0.554   0.841  0.3256 -0.0190 -0.2502
 3468SOL    HW116366   2.899   0.624   0.779 -1.6307  0.2341 -0.7416
 3468SOL    HW216367   2.831   0.489   0.788  0.3620 -0.7360  0.5774
 3469SOL     OW16368   4.316   5.289   5.123 -0.6691 -0.5602 -0.0655
 3469SOL    HW116369   4.294   5.375   5.160  1.0047 -1.4794  3.4758
 3469SOL    HW216370   4.295   5.298   5.030 -1.9362  3.1829  0.3766
 3470SOL     OW16371   5.294   5.539   7.721  1.0817  0.1809 -0.8140
 3470SOL    HW116372   5.267   5.624   7.754 -0.0283 -0.3724 -0.2449
 3470SOL    HW216373   5.267   5.539   7.629 -2.2498 -0.8333  0.0209
 3471SOL     OW16374   8.722   7.759   8.241 -1.0506 -0.2061 -0.3218
 3471SOL    HW116375   8.677   7.807   8.310  0.3916  0.0564  0.4849
 3471SOL    HW216376   8.676   7.783   8.161 -1.7122  0.8153  0.3377
 3472SOL     OW16377   2.790   3.474   2.412  0.3635 -0.0627  0.0926
 3472SOL    HW116378   2.825   3.546   2.359  1.5130 -0.1797  0.6447
 3472SOL    HW216379   2.717   3.513   2.460  1.0620  0.7903  0.4998
 3473SOL     OW16380   4.981   5.569   6.725  0.4475 -0.3612  0.0929
 3473SOL    HW116381   4.923   5.525   6.663 -2.0285  2.2929  0.3092
 3473SOL    HW216382   4.984   5.509   6.800 -0.0616 -1.6451 -0.8620
 3474SOL     OW16383   8.244   1.922   6.764  0.2897  0.2469 -0.0945
 3474SOL    HW116384   8.223   1.842   6.814  2.0280 -0.3525 -0.2767
 3474SOL    HW216385   8.287   1.890   6.685 -0.3034  1.3208 -0.8661
 3475SOL     OW16386   7.988   8.263   1.631  0.0041 -0.2394  0.3214
 3475SOL    HW116387   8.006   8.249   1.538 -2.5514 -0.2750 -0.2505
 3475SOL    HW216388   7.924   8.195   1.653 -0.7232  0.8266  1.6291
 3476SOL     OW16389   5.668   6.776   7.241 -0.2189 -0.3198 -0.8896
 3476SOL    HW116390   5.673   6.704   7.305 -1.1394 -0.5078 -1.0109
 3476SOL    HW216391   5.665   6.732   7.156 -1.1673 -0.1718 -0.9485
 3477SOL     OW16392   7.003   3.951   9.334 -0.2841  0.3836 -0.2169
 3477SOL    HW116393   6.955   3.894   9.393 -0.0399  0.3362 -0.0642
 3477SOL    HW216394   6.988   3.914   9.247 -0.9247  0.6501 -0.2243
 3478SOL     OW16395   4.987   5.994   7.176  0.3733  0.0622  0.0825
 3478SOL    HW116396   5.031   6.056   7.234  0.1693  2.8081 -2.4367
 3478SOL    HW216397   4.896   5.992   7.207  0.7157 -0.2460  1.1142
 3479SOL     OW16398   0.948   4.687   5.442  0.5307  0.4238  0.0157
 3479SOL    HW116399   1.034   4.658   5.413  1.1689  1.2146  1.0486
 3479SOL    HW216400   0.966   4.758   5.504 -0.8996  1.4948 -0.7300
 3480SOL     OW16401   8.636   3.721   8.263 -0.1010 -0.4104  0.2154
 3480SOL    HW116402   8.675   3.756   8.343  0.2242 -0.5590  0.1253
 3480SOL    HW216403   8.574   3.788   8.235  1.4536  0.7069 -0.6809
 3481SOL     OW16404   7.655   4.921   3.746 -0.5682  0.5437 -0.2508
 3481SOL    HW116405   7.734   4.971   3.767  1.0375 -1.2786 -1.6747
 3481SOL    HW216406   7.619   4.896   3.832  2.0970 -1.0795  0.5014
 3482SOL     OW16407   1.607   4.181   7.356 -0.4122  0.6647 -0.7364
 3482SOL    HW116408   1.616   4.260   7.410  2.5809  0.1687 -0.3156
 3482SOL    HW216409   1.589   4.111   7.420 -1.2244  0.7026 -0.9102
 3483SOL     OW16410   1.604   5.592   4.149 -0.2561  0.1692 -0.0887
 3483SOL    HW116411   1.641   5.564   4.232 -1.1026 -0.4401  0.0905
 3483SOL    HW216412   1.639   5.530   4.084 -1.0394 -0.4750  0.0972
 3484SOL     OW16413   8.057   4.877   7.969 -0.1252 -0.4671 -0.6107
 3484SOL    HW116414   8.076   4.918   7.884 -2.3099  0.3298 -0.7738
 3484SOL    HW216415   8.110   4.927   8.031  1.9292 -1.4065 -1.5013
 3485SOL     OW16416   1.104   3.267   0.592 -0.0028  0.1213 -0.0022
 3485SOL    HW116417   1.074   3.176   0.593 -2.0788  0.7478 -0.6076
 3485SOL    HW216418   1.044   3.312   0.651  0.2361  1.3160 -0.6518
 3486SOL     OW16419   5.617   0.097   1.036 -0.2894 -0.2166 -0.0542
 3486SOL    HW116420   5.653   0.165   1.092  1.6428 -1.3197  0.1353
 3486SOL    HW216421   5.524   0.093   1.059 -0.5668  2.6014 -0.3834
 3487SOL     OW16422   9.227   5.013   7.858  0.5263 -0.5201 -0.7275
 3487SOL    HW116423   9.147   5.051   7.822  0.6263  1.0734  0.5736
 3487SOL    HW216424   9.293   5.081   7.845  1.2987 -1.1870 -0.3821
 3488SOL     OW16425   0.686   0.984   7.977 -0.3145  0.2311 -0.2905
 3488SOL    HW116426   0.638   0.901   7.968  0.5583 -0.1662 -1.4912
 3488SOL    HW216427   0.778   0.958   7.978 -0.0286  1.1902 -0.7132
 3489SOL     OW16428   4.982   4.335   6.863 -0.4877 -0.0125 -0.3539
 3489SOL    HW116429   5.012   4.332   6.772 -0.3457  0.7590 -0.3400
 3489SOL    HW216430   5.029   4.409   6.901  1.4982 -1.8841  1.0981
 3490SOL     OW16431   9.067   0.680   9.298 -0.6120  0.0749  0.4568
 3490SOL    HW116432   9.150   0.680   9.250 -1.8849 -0.0526 -1.9122
 3490SOL    HW216433   9.078   0.746   9.365  0.6004  1.8631 -1.3824
 3491SOL     OW16434   2.346   7.560   2.959 -0.0321  0.0213 -0.2019
 3491SOL    HW116435   2.390   7.601   2.884 -0.9612  0.8594 -0.3116
 3491SOL    HW216436   2.353   7.466   2.943  2.2875  0.0729  0.1255
 3492SOL     OW16437   6.939   6.942   2.682 -0.0851  0.4680  0.1580
 3492SOL    HW116438   6.871   6.974   2.622  0.0195  1.0509  0.3421
 3492SOL    HW216439   7.018   6.936   2.628 -0.3323 -0.4914 -0.1295
 3493SOL     OW16440   4.182   4.460   1.293  0.1222  0.3714 -0.4215
 3493SOL    HW116441   4.271   4.486   1.267 -0.0077  0.7041 -0.5332
 3493SOL    HW216442   4.165   4.509   1.374  0.5638 -0.7355  0.3781
 3494SOL     OW16443   3.195   3.213   1.369  0.1902  0.1687 -0.2874
 3494SOL    HW116444   3.106   3.191   1.398 -0.5915  0.8826 -1.9676
 3494SOL    HW216445   3.211   3.154   1.295  2.0654 -1.5266  1.3377
 3495SOL     OW16446   5.548   5.904   3.165 -0.5085 -0.5405  0.4790
 3495SOL    HW116447   5.524   5.840   3.099 -0.2909  0.8630 -1.0308
 3495SOL    HW216448   5.526   5.989   3.127  0.5597  0.3907  1.7871
 3496SOL     OW16449   4.272   4.107   8.878  0.1634 -0.4951  0.1422
 3496SOL    HW116450   4.298   4.155   8.957 -1.8958 -0.5781  0.9192
 3496SOL    HW216451   4.277   4.015   8.903  1.7665 -0.6495 -0.6009
 3497SOL     OW16452   2.058   1.062   0.752  0.0250  0.2301  0.6514
 3497SOL    HW116453   2.036   0.980   0.707  0.9944 -0.1253  0.8031
 3497SOL    HW216454   2.071   1.037   0.843  1.4251  0.3270  0.5096
 3498SOL     OW16455   0.793   0.383   6.678  0.1494 -0.1836  0.0290
 3498SOL    HW116456   0.784   0.379   6.774  1.4978  0.2492  0.1903
 3498SOL    HW216457   0.867   0.441   6.663 -1.0855  1.1299 -1.3515
 3499SOL     OW16458   5.333   1.884   8.803 -0.1118 -0.2455  0.1100
 3499SOL    HW116459   5.391   1.932   8.863 -1.5168 -1.5660  2.6899
 3499SOL    HW216460   5.338   1.933   8.721  2.6630  1.1198  0.9582
 3500SOL     OW16461   2.524   1.945   8.837 -0.1055 -0.0194 -0.2969
 3500SOL    HW116462   2.555   2.036   8.838  0.4327 -0.1333 -2.5123
 3500SOL    HW216463   2.593   1.896   8.881 -0.6934  0.6809  1.4974
 3501SOL     OW16464   2.113   5.192   8.546  0.1411 -0.3925  0.6256
 3501SOL    HW116465   2.067   5.112   8.571 -0.1540 -0.1844  0.7557
 3501SOL    HW216466   2.198   5.162   8.515  0.0649 -0.7502  0.7579
 3502SOL     OW16467   1.250   5.861   6.941 -0.4185  0.5275 -0.0163
 3502SOL    HW116468   1.272   5.877   6.849 -1.2488 -1.5775 -0.6389
 3502SOL    HW216469   1.159   5.889   6.949 -0.2985  0.8579  0.2250
 3503SOL     OW16470   6.610   2.730   7.396  0.2673  0.2775  0.0899
 3503SOL    HW116471   6.646   2.819   7.403  0.6656  0.2915 -1.7108
 3503SOL    HW216472   6.686   2.673   7.410  0.9587  0.3034 -2.8860
 3504SOL     OW16473   8.010   1.777   7.181  1.0318  0.4584  0.2863
 3504SOL    HW116474   7.963   1.719   7.241 -1.5701  1.9512 -0.1679
 3504SOL    HW216475   8.028   1.722   7.105  0.4169 -0.2902  0.6649
 3505SOL     OW16476   7.310   1.485   4.107  0.2282 -0.4759 -0.3472
 3505SOL    HW116477   7.239   1.426   4.083 -0.3218 -0.3157  0.8106
 3505SOL    HW216478   7.390   1.437   4.084 -0.2209 -1.3787 -0.0777
 3506SOL     OW16479   0.929   2.752   4.569  0.1673 -0.0948  0.2474
 3506SOL    HW116480   0.895   2.741   4.658 -1.0516  0.8683 -0.0548
 3506SOL    HW216481   0.896   2.676   4.521 -1.0437  0.4607  0.1381
 3507SOL     OW16482   7.974   5.439   5.150  0.6374  0.7837 -0.1353
 3507SOL    HW116483   7.996   5.529   5.129 -0.2394  1.3017  1.0160
 3507SOL    HW216484   7.880   5.442   5.171  0.0775 -0.7876 -2.1115
 3508SOL     OW16485   2.479   8.971   0.209  0.1463 -0.1051 -0.2045
 3508SOL    HW116486   2.499   9.059   0.176  0.7365 -0.0297  0.3352
 3508SOL    HW216487   2.442   8.986   0.296  1.0057 -0.4245  0.2243
 3509SOL     OW16488   4.594   7.167   9.233 -0.3370 -0.4709  0.1235
 3509SOL    HW116489   4.610   7.088   9.182  0.9731 -0.2488  0.1350
 3509SOL    HW216490   4.500   7.183   9.225 -0.0698  0.2024 -3.1805
 3510SOL     OW16491   7.258   4.139   3.875  0.2892  0.0228 -0.0360
 3510SOL    HW116492   7.214   4.055   3.883  0.7504 -0.2398 -0.2553
 3510SOL    HW216493   7.205   4.199   3.927 -0.1226 -0.3699 -0.0022
 3511SOL     OW16494   9.292   2.878   5.686  0.2245 -0.5339 -0.0334
 3511SOL    HW116495   9.247   2.803   5.647  0.4024 -1.7554  1.9972
 3511SOL    HW216496   9.301   2.855   5.778  2.9871  0.6664  0.0743
 3512SOL     OW16497   4.641   7.081   4.661 -0.4009  0.4280 -0.1665
 3512SOL    HW116498   4.693   7.145   4.711 -0.1328 -0.6164  0.9455
 3512SOL    HW216499   4.615   7.016   4.726 -2.4688  0.5000 -0.8468
 3513SOL     OW16500   7.460   0.145   7.994  0.3239  0.0264  0.4567
 3513SOL    HW116501   7.416   0.060   7.990  1.1117 -0.3766  0.1717
 3513SOL    HW216502   7.551   0.124   8.015  0.7270  0.7211 -0.4979
 3514SOL     OW16503   8.474   4.540   4.364  0.2221 -0.1982  0.2925
 3514SOL    HW116504   8.475   4.481   4.289  2.1786  1.3123 -1.0030
 3514SOL    HW216505   8.543   4.507   4.421  0.4025  0.0445  0.2178
 3515SOL     OW16506   6.285   8.196   7.795 -0.4555  0.7166 -0.7023
 3515SOL    HW116507   6.333   8.182   7.877  0.1756 -0.3343 -1.2320
 3515SOL    HW216508   6.198   8.224   7.823 -0.3167  0.1596  0.3450
 3516SOL     OW16509   3.385   4.142   4.496 -0.3856 -0.0036 -0.1871
 3516SOL    HW116510   3.340   4.190   4.566  0.6295 -0.2278  0.6468
 3516SOL    HW216511   3.359   4.186   4.416 -0.4363  1.1723  0.4587
 3517SOL     OW16512   7.942   1.581   4.596  0.5458  0.2494  0.3156
 3517SOL    HW116513   7.951   1.676   4.582 -0.5163  0.6722  2.1019
 3517SOL    HW216514   8.009   1.560   4.661 -1.5864  0.5797  2.7619
 3518SOL     OW16515   2.501   1.858   1.524 -0.4962 -0.0268 -0.2733
 3518SOL    HW116516   2.485   1.795   1.453 -0.5050 -0.7579  0.3712
 3518SOL    HW216517   2.484   1.809   1.604  0.9165  0.3702  0.2978
 3519SOL     OW16518   7.214   4.789   0.485 -0.4210 -0.1943 -0.3850
 3519SOL    HW116519   7.203   4.695   0.499 -0.3165  0.0928  1.9303
 3519SOL    HW216520   7.131   4.817   0.445 -1.1229 -0.9923  0.4818
 3520SOL     OW16521   8.044   7.391   3.269 -0.1101  0.5482 -0.3406
 3520SOL    HW116522   8.043   7.471   3.322 -1.1027 -1.6581  3.4082
 3520SOL    HW216523   8.130   7.352   3.287 -1.1082 -1.0913  1.3196
 3521SOL     OW16524   6.602   4.060   7.708  0.1027  0.0744 -0.2380
 3521SOL    HW116525   6.689   4.022   7.720 -0.6117 -1.7094 -0.4269
 3521SOL    HW216526   6.595   4.076   7.614  0.1169 -0.0583 -0.2617
 3522SOL     OW16527   6.252   7.889   0.361  0.3795 -0.1422  0.2271
 3522SOL    HW116528   6.289   7.974   0.339  0.8873 -0.4815 -0.2955
 3522SOL    HW216529   6.166   7.889   0.319  0.9437 -0.4042 -0.9950
 3523SOL     OW16530   0.064   5.781   3.102  0.9404 -0.0135 -0.0058
 3523SOL    HW116531   0.061   5.686   3.108 -1.0928  0.0084  0.0321
 3523SOL    HW216532   0.002   5.803   3.033  0.2563  1.3335  0.9804
 3524SOL     OW16533   5.825   8.518   3.978 -0.1778  0.4503  0.2552
 3524SOL    HW116534   5.774   8.598   3.988  0.4219  0.6546  1.8645
 3524SOL    HW216535   5.889   8.539   3.910  0.8760  1.8427  1.6208
 3525SOL     OW16536   0.718   5.392   0.206  0.1340 -0.0111  0.0894
 3525SOL    HW116537   0.701   5.485   0.221  1.1117  0.2010 -0.0561
 3525SOL    HW216538   0.674   5.348   0.279 -1.7729  0.4102 -0.7471
 3526SOL     OW16539   4.133   8.065   8.738  0.5379  0.0203 -0.1911
 3526SOL    HW116540   4.165   7.987   8.691  0.6962 -0.2416  0.3406
 3526SOL    HW216541   4.167   8.138   8.688  0.5715 -0.2559 -0.5787
 3527SOL     OW16542   3.696   0.539   0.769 -0.5055  0.6115  0.0877
 3527SOL    HW116543   3.676   0.629   0.794  0.1001  0.4761  1.1336
 3527SOL    HW216544   3.669   0.487   0.844 -3.7318 -0.4939 -1.6294
 3528SOL     OW16545   7.991   7.701   5.238 -0.3837  0.2468 -0.8369
 3528SOL    HW116546   8.064   7.647   5.269 -1.1405  0.4233  1.4362
 3528SOL    HW216547   8.033   7.775   5.194  0.8242  0.1735  0.1239
 3529SOL     OW16548   8.332   2.570   1.311 -0.0639 -0.5178 -0.1878
 3529SOL    HW116549   8.282   2.516   1.371 -0.1293 -1.3953 -1.0111
 3529SOL    HW216550   8.267   2.607   1.251  0.1490 -0.7574 -0.5698
 3530SOL     OW16551   8.704   7.741   9.256  0.7105  0.0810  0.5920
 3530SOL    HW116552   8.720   7.833   9.234 -0.5749 -0.1607 -1.5843
 3530SOL    HW216553   8.609   7.733   9.260  0.8164 -0.8818  2.2311
 3531SOL     OW16554   6.607   8.587   1.938  0.6299  0.1876 -0.4027
 3531SOL    HW116555   6.543   8.611   2.006  1.6778 -0.6962  0.9487
 3531SOL    HW216556   6.554   8.545   1.870 -0.4736  1.2251 -0.2161
 3532SOL     OW16557   2.685   5.474   4.987 -0.4997 -0.7313  0.4498
 3532SOL    HW116558   2.781   5.479   4.993 -0.3133 -1.8550 -1.1497
 3532SOL    HW216559   2.667   5.470   4.894 -2.2123  0.6850  0.6585
 3533SOL     OW16560   3.156   3.959   3.016  0.0118 -0.7979 -0.3908
 3533SOL    HW116561   3.126   4.015   3.087  1.0027  0.1658 -0.7142
 3533SOL    HW216562   3.172   3.874   3.058 -0.4938 -0.5550  0.3042
 3534SOL     OW16563   4.594   7.890   5.960 -0.0620 -0.1207  0.1734
 3534SOL    HW116564   4.565   7.815   6.012  0.0944  0.1608  0.6713
 3534SOL    HW216565   4.539   7.888   5.882  1.7538 -2.3834 -1.1775
 3535SOL     OW16566   9.032   9.271   7.237 -0.2080 -0.2606  0.0554
 3535SOL    HW116567   9.087   9.224   7.299 -2.3866 -2.1745  0.7070
 3535SOL    HW216568   9.002   9.204   7.176  0.7107  1.3168 -2.2676
 3536SOL     OW16569   3.941   0.718   0.609  0.5687  0.2483  0.1583
 3536SOL    HW116570   3.999   0.646   0.585 -0.1066 -0.7552  1.3554
 3536SOL    HW216571   3.962   0.788   0.548  0.8722 -1.1518 -1.4131
 3537SOL     OW16572   6.327   6.466   2.644  0.5789 -0.0217 -0.1973
 3537SOL    HW116573   6.396   6.421   2.596 -0.4040 -1.6381 -0.1923
 3537SOL    HW216574   6.302   6.539   2.588  2.6194  0.9114  0.0446
 3538SOL     OW16575   5.784   1.886   3.211  0.2989 -0.2812  0.7965
 3538SOL    HW116576   5.725   1.856   3.142  1.3199  0.1254 -0.3006
 3538SOL    HW216577   5.871   1.882   3.171  0.8118  0.9542  1.7118
 3539SOL     OW16578   6.078   5.954   7.570  0.2897 -0.4732 -1.4938
 3539SOL    HW116579   5.987   5.924   7.575  0.4816 -1.0085  2.9603
 3539SOL    HW216580   6.110   5.919   7.487 -2.1731 -4.8377 -0.9398
 3540SOL     OW16581   3.451   2.625   2.957  0.1401 -1.5516 -0.4776
 3540SOL    HW116582   3.498   2.542   2.953  1.7327 -0.6449 -1.8398
 3540SOL    HW216583   3.433   2.647   2.866 -1.2272 -0.9161 -0.0694
 3541SOL     OW16584   6.788   4.558   2.843  0.3991 -0.4514  0.3822
 3541SOL    HW116585   6.871   4.513   2.830  0.5993 -0.0944  0.4152
 3541SOL    HW216586   6.799   4.607   2.924  0.4682  0.2980 -0.0716
 3542SOL     OW16587   5.734   2.256   3.638  0.0101  0.1770  0.0784
 3542SOL    HW116588   5.786   2.224   3.712  1.0766  1.3914 -0.1066
 3542SOL    HW216589   5.764   2.203   3.563  1.1919  1.0202 -0.0749
 3543SOL     OW16590   6.204   0.572   8.728 -0.1163 -0.1306 -0.2581
 3543SOL    HW116591   6.284   0.524   8.707 -0.6765 -0.5541 -1.4569
 3543SOL    HW216592   6.226   0.663   8.708  0.3630 -0.1074  0.3281
 3544SOL     OW16593   4.845   7.955   4.395 -0.2166  0.3744 -0.2903
 3544SOL    HW116594   4.940   7.960   4.395 -0.1189  0.2486 -3.3634
 3544SOL    HW216595   4.819   7.973   4.304 -3.0993 -0.2185  0.2930
 3545SOL     OW16596   4.408   1.033   0.459  0.6064 -0.5802 -0.2736
 3545SOL    HW116597   4.445   0.952   0.423  1.2784 -0.1166 -0.6438
 3545SOL    HW216598   4.330   1.049   0.407  1.1380 -0.3468 -1.0181
 3546SOL     OW16599   0.043   0.253   0.272  0.7765  0.5346 -0.3996
 3546SOL    HW116600   0.103   0.223   0.204  1.7724  0.2260  0.6017
 3546SOL    HW216601   0.081   0.222   0.354 -1.3335 -0.6925  0.1954
 3547SOL     OW16602   5.104   3.010   8.250  0.2565  0.2599 -0.0289
 3547SOL    HW116603   5.161   2.947   8.293  0.6913  0.1253 -0.7915
 3547SOL    HW216604   5.024   2.960   8.231  0.2992  0.1519  0.0731
 3548SOL     OW16605   2.407   3.322   6.524  0.0830 -0.4564 -0.1005
 3548SOL    HW116606   2.388   3.404   6.477 -0.8137  0.4533  1.7281
 3548SOL    HW216607   2.406   3.347   6.616  0.9405 -2.3362  0.4663
 3549SOL     OW16608   6.538   7.814   3.202 -0.4101 -0.1413  0.1756
 3549SOL    HW116609   6.450   7.843   3.179 -0.6739 -0.6668  0.5071
 3549SOL    HW216610   6.566   7.760   3.128  0.4344  1.6353 -0.8598
 3550SOL     OW16611   3.614   6.813   8.863 -0.0671 -0.7147  0.0405
 3550SOL    HW116612   3.540   6.854   8.908 -0.2708 -0.9596 -0.0734
 3550SOL    HW216613   3.583   6.797   8.775  0.2669 -0.4247 -0.1327
 3551SOL     OW16614   5.198   9.119   8.343 -0.3844 -0.5919 -0.0749
 3551SOL    HW116615   5.275   9.155   8.299  0.1472 -0.8061  0.6658
 3551SOL    HW216616   5.174   9.043   8.290  0.2310 -0.8341 -0.0106
 3552SOL     OW16617   3.654   2.159   2.819  0.1207 -0.2438 -0.8010
 3552SOL    HW116618   3.749   2.173   2.817  0.4683 -2.3612 -1.6315
 3552SOL    HW216619   3.631   2.137   2.729 -1.1834  0.1587 -0.5955
 3553SOL     OW16620   4.710   9.214   7.889 -0.6529 -0.1235 -0.5372
 3553SOL    HW116621   4.787   9.266   7.868 -1.4257  0.6692 -1.4676
 3553SOL    HW216622   4.664   9.265   7.955 -0.8301 -0.1774 -0.6191
 3554SOL     OW16623   4.778   3.750   8.210 -0.3452 -0.2136 -0.4600
 3554SOL    HW116624   4.833   3.745   8.288 -0.5409  0.2772 -0.2817
 3554SOL    HW216625   4.789   3.666   8.167  0.0503 -0.3542 -0.0934
 3555SOL     OW16626   3.879   8.498   3.489  0.0433  0.0821 -0.2223
 3555SOL    HW116627   3.840   8.410   3.482  0.0866 -0.0264  0.7821
 3555SOL    HW216628   3.890   8.526   3.398 -2.2052  0.0357 -0.5729
 3556SOL     OW16629   5.751   3.442   6.639 -0.3648 -0.9380 -0.3969
 3556SOL    HW116630   5.805   3.501   6.586  1.5217  0.0581  2.3756
 3556SOL    HW216631   5.735   3.367   6.583 -1.3066  1.3348 -3.4733
 3557SOL     OW16632   2.346   7.249   1.362  0.3404  0.2348  0.0863
 3557SOL    HW116633   2.412   7.319   1.367  1.4886 -0.3792 -3.5013
 3557SOL    HW216634   2.394   7.174   1.328 -1.9993 -0.5168 -1.8157
 3558SOL     OW16635   7.335   1.746   1.050  0.3306 -0.0393 -0.2185
 3558SOL    HW116636   7.368   1.746   1.140 -0.7609  1.9958  0.2355
 3558SOL    HW216637   7.388   1.811   1.005 -2.4593  2.9419  0.4031
 3559SOL     OW16638   6.032   8.150   0.417  0.0886  0.1063  0.0941
 3559SOL    HW116639   6.105   8.212   0.419 -0.3892  0.6716  0.0665
 3559SOL    HW216640   5.979   8.177   0.342 -1.0529  0.7490  1.0938
 3560SOL     OW16641   2.234   1.348   8.254  0.1575 -0.2072 -0.3851
 3560SOL    HW116642   2.226   1.443   8.261  0.1487 -0.2515  0.2573
 3560SOL    HW216643   2.322   1.334   8.219  0.4183  0.0179  0.1652
 3561SOL     OW16644   7.694   1.393   8.698 -0.2531  0.3360 -0.1569
 3561SOL    HW116645   7.768   1.372   8.641 -0.0344 -1.1415  0.6242
 3561SOL    HW216646   7.652   1.309   8.716  0.0035  0.6456  2.2613
 3562SOL     OW16647   1.303   5.223   5.619  0.0507  0.3230 -0.5898
 3562SOL    HW116648   1.393   5.197   5.599  0.8470  2.1923  0.3508
 3562SOL    HW216649   1.297   5.217   5.714 -0.2612  1.8718 -0.4964
 3563SOL     OW16650   1.953   8.498   2.091 -0.5667  0.1847  0.4966
 3563SOL    HW116651   1.918   8.511   2.003  2.1770  0.6507 -0.6015
 3563SOL    HW216652   1.900   8.555   2.147 -2.7668 -0.5891 -0.6792
 3564SOL     OW16653   3.401   7.926   0.158  0.5988  0.2358 -0.4890
 3564SOL    HW116654   3.334   7.904   0.093  0.9266  1.2836 -1.1893
 3564SOL    HW216655   3.424   7.841   0.197  0.2458 -0.3857 -1.5792
 3565SOL     OW16656   4.137   0.498   7.586 -0.1058 -0.2299  0.2824
 3565SOL    HW116657   4.149   0.403   7.597 -0.5161 -0.2598  0.5029
 3565SOL    HW216658   4.058   0.506   7.533  0.1656 -0.0166 -0.0948
 3566SOL     OW16659   3.411   1.508   0.600  0.3002  0.2622  0.5024
 3566SOL    HW116660   3.464   1.586   0.587 -0.7488  0.8411 -0.5687
 3566SOL    HW216661   3.321   1.541   0.605 -0.1211 -0.8394  0.4534
 3567SOL     OW16662   1.560   6.471   7.624 -0.5487 -0.3366 -0.0870
 3567SOL    HW116663   1.581   6.531   7.696  1.3589 -1.9987  0.8578
 3567SOL    HW216664   1.470   6.445   7.640 -0.3727 -0.1530  1.3467
 3568SOL     OW16665   3.793   6.428   0.517 -0.1320  0.8742  0.2562
 3568SOL    HW116666   3.808   6.396   0.428  2.1822  0.3678  0.7573
 3568SOL    HW216667   3.750   6.355   0.562  0.9240  0.1701  0.1686
 3569SOL     OW16668   4.304   5.103   6.298  0.2556 -0.3557  0.3100
 3569SOL    HW116669   4.324   5.185   6.253  1.2829 -1.0031 -0.4491
 3569SOL    HW216670   4.242   5.059   6.241  0.0975 -0.3404  0.4687
 3570SOL     OW16671   3.528   5.188   8.078 -0.1267 -0.0187 -0.4576
 3570SOL    HW116672   3.550   5.165   8.168 -0.7373  0.0243 -0.2978
 3570SOL    HW216673   3.568   5.118   8.025  0.2906 -0.0035 -0.1608
 3571SOL     OW16674   6.371   7.249   4.121  0.2958 -0.0065 -0.3480
 3571SOL    HW116675   6.373   7.245   4.025  1.4998  1.9348 -0.4618
 3571SOL    HW216676   6.442   7.190   4.148 -0.2570 -0.8125 -0.6077
 3572SOL     OW16677   1.140   4.825   2.764 -0.6352  0.6916  0.0722
 3572SOL    HW116678   1.053   4.833   2.725 -0.8800  0.1659  0.4791
 3572SOL    HW216679   1.157   4.730   2.765 -0.2957  0.7494  0.4891
 3573SOL     OW16680   1.918   9.091   3.548  0.6237  0.3173 -0.2300
 3573SOL    HW116681   1.945   9.018   3.604  2.8157  1.4812  0.3402
 3573SOL    HW216682   1.854   9.139   3.601  1.7101  0.6776  0.7990
 3574SOL     OW16683   0.612   4.061   1.914 -0.4925  0.3519 -0.6726
 3574SOL    HW116684   0.567   3.998   1.970 -0.6229  2.0801  1.3090
 3574SOL    HW216685   0.697   4.022   1.895 -0.7846 -0.6484  0.0450
 3575SOL     OW16686   6.673   2.667   0.319  0.7509 -0.7148 -0.4170
 3575SOL    HW116687   6.631   2.607   0.257  0.5338 -2.8448  1.6509
 3575SOL    HW216688   6.748   2.702   0.271 -0.2758 -1.0299 -2.3770
 3576SOL     OW16689   9.207   8.738   0.439 -0.1392 -0.8576  0.4161
 3576SOL    HW116690   9.129   8.686   0.461 -1.0349 -0.1888 -0.9664
 3576SOL    HW216691   9.197   8.818   0.490 -0.2753 -0.8390  0.3601
 3577SOL     OW16692   7.298   5.314   4.698 -0.2117 -0.3268  0.1097
 3577SOL    HW116693   7.250   5.232   4.688  0.0014 -0.4107 -0.2703
 3577SOL    HW216694   7.297   5.332   4.792 -0.4123 -0.6708  0.1742
 3578SOL     OW16695   2.542   3.117   6.405  0.2823 -0.0226  0.0653
 3578SOL    HW116696   2.557   3.156   6.319 -1.1237 -1.9127 -1.1248
 3578SOL    HW216697   2.501   3.187   6.456  0.5112  0.9331 -1.0141
 3579SOL     OW16698   3.760   4.294   4.655  0.6612 -0.0266 -1.0782
 3579SOL    HW116699   3.806   4.353   4.716  1.1871 -0.2757 -1.2274
 3579SOL    HW216700   3.815   4.293   4.577  0.6954 -0.7687 -1.0539
 3580SOL     OW16701   7.614   2.724   7.332  0.2020 -0.2498 -0.4718
 3580SOL    HW116702   7.622   2.635   7.298 -0.7951 -0.2489 -0.7472
 3580SOL    HW216703   7.533   2.758   7.292 -0.7308 -0.0479  1.4497
 3581SOL     OW16704   7.559   0.188   7.507  0.6167 -0.4836 -0.1543
 3581SOL    HW116705   7.585   0.142   7.586  2.0958 -0.9548 -0.8856
 3581SOL    HW216706   7.587   0.279   7.521  0.6066 -0.5021 -0.0212
 3582SOL     OW16707   2.959   6.732   6.667  0.0985  0.1899 -0.0607
 3582SOL    HW116708   2.917   6.806   6.623 -0.6072 -0.6535 -0.8185
 3582SOL    HW216709   3.048   6.731   6.632  0.4681  1.3238  0.7579
 3583SOL     OW16710   4.575   0.128   2.038  0.2309  0.8258 -0.3512
 3583SOL    HW116711   4.654   0.133   1.984  0.5561 -0.8942 -0.0718
 3583SOL    HW216712   4.508   0.092   1.981  0.5953 -1.0682  0.3442
 3584SOL     OW16713   6.725   0.651   6.744 -0.3244  0.3736  0.4102
 3584SOL    HW116714   6.682   0.611   6.820 -1.0514  0.8086  0.2422
 3584SOL    HW216715   6.657   0.651   6.676 -0.7110  2.7389  0.6870
 3585SOL     OW16716   4.177   7.798   0.840  0.0834  0.5441  0.3164
 3585SOL    HW116717   4.144   7.865   0.780  1.6201  1.9158  0.9325
 3585SOL    HW216718   4.263   7.774   0.804  0.1168 -0.1284  0.8314
 3586SOL     OW16719   7.400   2.471   6.866  0.1023 -0.4991 -0.3690
 3586SOL    HW116720   7.390   2.553   6.916 -3.2036 -1.0300  0.0934
 3586SOL    HW216721   7.372   2.494   6.777 -0.3215 -0.9824 -0.3633
 3587SOL     OW16722   3.594   2.358   8.647  0.6644  0.1651 -0.2580
 3587SOL    HW116723   3.672   2.345   8.593  1.5283  2.3048  0.3721
 3587SOL    HW216724   3.585   2.453   8.653 -0.6144 -0.0306  1.6750
 3588SOL     OW16725   2.288   2.200   1.425  0.0766 -0.2400 -0.7007
 3588SOL    HW116726   2.372   2.203   1.379  0.3083 -0.8103 -0.3324
 3588SOL    HW216727   2.265   2.107   1.427  0.5446 -0.3649  1.1315
 3589SOL     OW16728   0.031   3.469   7.613  0.4939  0.0445 -0.0505
 3589SOL    HW116729   0.043   3.382   7.651 -1.6734 -0.4997 -0.4845
 3589SOL    HW216730  -0.022   3.453   7.534 -0.4296  1.7984  0.1701
 3590SOL     OW16731   1.623   5.114   2.621 -0.3411 -0.1363  0.3487
 3590SOL    HW116732   1.618   5.201   2.661  0.0011  0.9200 -1.7538
 3590SOL    HW216733   1.533   5.082   2.622 -0.4767  0.2487  1.1416
 3591SOL     OW16734   2.293   5.807   3.687 -0.9933  0.6004 -0.0904
 3591SOL    HW116735   2.205   5.771   3.682 -1.0496  0.3991  1.7361
 3591SOL    HW216736   2.351   5.732   3.673 -1.1066  0.6582 -0.8833
 3592SOL     OW16737   5.892   4.372   1.844 -0.2504 -0.3171 -0.0598
 3592SOL    HW116738   5.950   4.297   1.862  2.0315  1.4087  0.1674
 3592SOL    HW216739   5.807   4.345   1.880  0.5814 -2.6495  0.3203
 3593SOL     OW16740   2.937   0.518   0.120 -0.1537  0.6120 -0.1063
 3593SOL    HW116741   3.008   0.546   0.063  0.2351 -1.2578 -0.6068
 3593SOL    HW216742   2.939   0.581   0.192  0.8333  1.6578 -0.9938
 3594SOL     OW16743   1.393   2.997   3.148  0.0391 -0.2814 -0.0870
 3594SOL    HW116744   1.330   3.059   3.111  1.2800  0.3514 -1.2393
 3594SOL    HW216745   1.344   2.916   3.161 -0.8574  0.0139 -1.5059
 3595SOL     OW16746   8.856   2.388   6.963  0.9269 -0.5706  0.4113
 3595SOL    HW116747   8.951   2.386   6.950  0.9350 -0.1716  0.4208
 3595SOL    HW216748   8.825   2.307   6.921  1.4069 -1.3749  1.5551
 3596SOL     OW16749   7.027   5.069   6.280 -0.2980  0.5901 -0.2854
 3596SOL    HW116750   7.023   5.044   6.372  2.0081  1.6703  0.1747
 3596SOL    HW216751   7.119   5.061   6.257 -0.7744  0.7015 -2.4128
 3597SOL     OW16752   5.681   7.041   9.075  0.1423 -0.1241 -0.2683
 3597SOL    HW116753   5.697   6.947   9.086  2.6546  0.2751  0.2726
 3597SOL    HW216754   5.764   7.075   9.041  0.1762  2.2464  1.8571
 3598SOL     OW16755   1.852   4.914   1.162  0.2471  0.2551 -0.5347
 3598SOL    HW116756   1.826   4.976   1.093  1.2369 -1.0699 -2.1949
 3598SOL    HW216757   1.780   4.852   1.166 -0.7948  1.5004  1.2072
 3599SOL     OW16758   7.375   9.095   8.317  0.3180 -0.5471  0.3602
 3599SOL    HW116759   7.335   9.085   8.231  0.5981 -0.8884  0.2685
 3599SOL    HW216760   7.328   9.033   8.373  0.6607 -0.8883  0.2710
 3600SOL     OW16761   3.939   7.687   5.688  0.0307 -0.6388  0.3925
 3600SOL    HW116762   3.872   7.634   5.731  1.6147 -1.9953  1.2834
 3600SOL    HW216763   4.012   7.688   5.750  1.2289 -0.0552 -0.9826
 3601SOL     OW16764   6.214   7.210   6.823  0.1482  0.4700 -0.0731
 3601SOL    HW116765   6.252   7.228   6.737 -1.4963  1.4917 -0.6381
 3601SOL    HW216766   6.246   7.280   6.879 -1.4261  1.7822 -0.7413
 3602SOL     OW16767   6.699   2.676   0.787 -0.0749 -0.3654  0.6725
 3602SOL    HW116768   6.729   2.749   0.733 -0.6187 -1.7067 -1.5920
 3602SOL    HW216769   6.750   2.601   0.756 -1.3181 -1.4364  1.1280
 3603SOL     OW16770   0.785   1.605   1.028  0.4442  0.2471 -0.1453
 3603SOL    HW116771   0.826   1.529   1.070 -0.7112 -1.3469 -1.7505
 3603SOL    HW216772   0.815   1.601   0.938 -1.7462  0.0517 -0.9332
 3604SOL     OW16773   6.386   4.531   6.947  0.3438 -0.3585  0.0237
 3604SOL    HW116774   6.381   4.543   6.852 -0.4092 -0.6585  0.0154
 3604SOL    HW216775   6.471   4.567   6.972  0.7422 -0.6772 -0.8297
 3605SOL     OW16776   1.046   3.258   5.842 -0.1816  0.0283 -0.4446
 3605SOL    HW116777   1.009   3.321   5.905 -1.9368  0.1585 -1.5576
 3605SOL    HW216778   1.064   3.310   5.764 -2.1087 -0.8566 -1.5582
 3606SOL     OW16779   7.403   3.775   4.775 -0.3508  0.1782 -0.2923
 3606SOL    HW116780   7.499   3.780   4.779 -0.3218 -0.5346  0.0104
 3606SOL    HW216781   7.379   3.836   4.705  0.2476  1.1365  0.3260
 3607SOL     OW16782   6.476   1.935   1.191  0.1872 -0.6677  0.1684
 3607SOL    HW116783   6.391   1.972   1.166  0.7059  0.1470 -0.4563
 3607SOL    HW216784   6.484   1.955   1.285 -0.4357 -1.0093  0.2971
 3608SOL     OW16785   4.634   8.907   2.996  0.2785  0.1975  0.2586
 3608SOL    HW116786   4.655   8.951   2.913  1.0635 -1.0204 -0.2186
 3608SOL    HW216787   4.650   8.814   2.979 -2.3667 -0.4704  0.9131
 3609SOL     OW16788   5.983   5.634   1.791  0.4681  0.1752 -0.4383
 3609SOL    HW116789   6.015   5.709   1.742 -0.0250  0.4999 -0.2695
 3609SOL    HW216790   5.916   5.594   1.735 -2.0798  2.1296  1.0268
 3610SOL     OW16791   8.351   8.218   6.625  0.2667  0.1306  0.1157
 3610SOL    HW116792   8.374   8.311   6.625  0.0502  0.1839 -0.2358
 3610SOL    HW216793   8.364   8.190   6.535 -0.0945 -0.0739  0.1243
 3611SOL     OW16794   5.696   3.423   6.223  0.1697  0.4884 -0.0725
 3611SOL    HW116795   5.601   3.414   6.219 -0.0991  2.3365  0.9182
 3611SOL    HW216796   5.726   3.398   6.135 -1.1232 -0.8753 -0.1638
 3612SOL     OW16797   5.049   7.419   0.202  0.3856 -0.3479 -0.1746
 3612SOL    HW116798   4.961   7.402   0.236 -0.3341  1.0250 -1.2595
 3612SOL    HW216799   5.069   7.343   0.147 -1.0523  0.2868 -1.6626
 3613SOL     OW16800   8.964   5.329   4.683  0.0759 -0.0685 -0.2264
 3613SOL    HW116801   8.906   5.398   4.717  1.0777  0.4486  0.4740
 3613SOL    HW216802   8.909   5.250   4.682 -0.0969 -0.0736  2.3831
 3614SOL     OW16803   1.326   2.224   7.939  0.2596 -0.3315 -0.2109
 3614SOL    HW116804   1.267   2.153   7.913 -0.2098 -1.2558  2.9688
 3614SOL    HW216805   1.295   2.300   7.891 -1.7203 -1.4037 -0.7548
 3615SOL     OW16806   0.061   1.363   6.885 -0.5710 -0.1785  0.0390
 3615SOL    HW116807   0.026   1.284   6.926 -1.7905  0.4064  0.1559
 3615SOL    HW216808   0.092   1.416   6.959 -0.7077 -0.0945  0.0358
 3616SOL     OW16809   4.093   4.992   6.166  0.1632  0.1948  0.0351
 3616SOL    HW116810   4.106   4.950   6.081 -1.9932  1.8931 -1.2320
 3616SOL    HW216811   4.046   4.927   6.217  0.2416 -0.3342 -0.5513
 3617SOL     OW16812   7.892   3.830   3.913 -0.3930 -0.4852  0.1150
 3617SOL    HW116813   7.870   3.783   3.833  1.2326  0.0428 -0.6897
 3617SOL    HW216814   7.938   3.766   3.967  0.8329 -0.1645 -0.5108
 3618SOL     OW16815   1.449   9.040   5.000 -0.0628 -0.0055 -0.2730
 3618SOL    HW116816   1.474   8.981   4.928  1.2778  0.8500 -0.5484
 3618SOL    HW216817   1.398   9.109   4.958  2.4364  1.6298 -0.8657
 3619SOL     OW16818   1.755   8.077   9.180 -0.3210  0.9734  0.4813
 3619SOL    HW116819   1.844   8.088   9.145 -0.4657  0.9191  0.0877
 3619SOL    HW216820   1.768   8.052   9.271  0.0548  2.7631  0.9699
 3620SOL     OW16821   5.704   8.246   9.356 -0.3897  0.0766 -0.1417
 3620SOL    HW116822   5.627   8.248   9.298  0.0008  0.2261 -0.6572
 3620SOL    HW216823   5.669   8.271   9.442 -1.4301 -2.4131  0.2547
 3621SOL     OW16824   9.071   1.395   2.453 -0.1562  0.1230 -0.3261
 3621SOL    HW116825   9.053   1.445   2.533 -1.4182  0.8123 -1.0009
 3621SOL    HW216826   9.060   1.459   2.383 -0.4481 -0.7945 -1.1332
 3622SOL     OW16827   1.564   4.136   2.019  0.3568  0.2475  0.3826
 3622SOL    HW116828   1.598   4.120   2.107  0.6180  0.5709  0.3433
 3622SOL    HW216829   1.525   4.224   2.025 -2.9822 -1.1403  1.1951
 3623SOL     OW16830   3.911   3.324   0.545  0.1826 -0.1805 -0.1575
 3623SOL    HW116831   3.985   3.381   0.566  0.6250 -0.4285 -0.9964
 3623SOL    HW216832   3.905   3.264   0.619  0.1442  0.5101  0.4111
 3624SOL     OW16833   1.387   1.328   7.548 -0.6240 -0.0860  0.2701
 3624SOL    HW116834   1.478   1.357   7.550 -0.8355  0.5959  0.1753
 3624SOL    HW216835   1.387   1.249   7.494  0.3159 -1.5472  2.2667
 3625SOL     OW16836   1.303   5.360   3.498  0.1642 -0.2956  0.1771
 3625SOL    HW116837   1.331   5.325   3.582  1.3389 -1.4255 -0.6580
 3625SOL    HW216838   1.344   5.446   3.494  2.6416 -1.4386 -0.5005
 3626SOL     OW16839   5.585   5.368   2.147  0.2492  0.0222 -0.6368
 3626SOL    HW116840   5.507   5.314   2.159 -0.6185  1.3525 -0.0725
 3626SOL    HW216841   5.653   5.306   2.121 -1.0573 -1.1342 -1.4626
 3627SOL     OW16842   2.834   6.408   5.262 -0.3920 -0.4479  0.0208
 3627SOL    HW116843   2.830   6.434   5.354 -0.3971 -0.6286  0.0721
 3627SOL    HW216844   2.910   6.349   5.257  0.5641  0.7648 -0.3900
 3628SOL     OW16845   0.444   3.446   8.187 -0.0592  0.3966 -0.5652
 3628SOL    HW116846   0.495   3.366   8.174 -0.3142  0.4672 -2.2672
 3628SOL    HW216847   0.467   3.501   8.112 -0.4272  1.6358  0.2028
 3629SOL     OW16848   6.290   0.218   8.151  0.4548  0.4701  0.1456
 3629SOL    HW116849   6.384   0.215   8.134  0.5946  0.8429  0.8099
 3629SOL    HW216850   6.260   0.128   8.143  0.9091  0.3195  0.1578
 3630SOL     OW16851   8.045   4.151   1.862  0.1557 -0.3314 -0.4540
 3630SOL    HW116852   8.095   4.203   1.925 -1.7811 -0.5239  1.3482
 3630SOL    HW216853   8.048   4.202   1.781  0.0156  1.5920  0.6885
 3631SOL     OW16854   6.807   9.350   3.853 -0.1955 -0.1364 -0.1417
 3631SOL    HW116855   6.718   9.327   3.877  0.0219 -1.1706 -0.2775
 3631SOL    HW216856   6.859   9.333   3.932 -0.0684  0.1261 -0.1687
 3632SOL     OW16857   6.043   2.950   1.302 -0.2895  0.0384  0.3269
 3632SOL    HW116858   6.129   2.960   1.345  2.0382 -2.5551 -3.1894
 3632SOL    HW216859   6.014   2.863   1.328 -0.9345  0.1472 -0.0243
 3633SOL     OW16860   7.456   2.673   2.864  0.5408 -0.6358  0.6447
 3633SOL    HW116861   7.468   2.585   2.901  0.3405 -0.8692  0.1693
 3633SOL    HW216862   7.379   2.708   2.909 -1.3353 -1.9329 -1.3280
 3634SOL     OW16863   6.515   1.195   0.789 -0.0678  0.1208 -0.4074
 3634SOL    HW116864   6.433   1.242   0.773  0.3777  1.6014  1.2600
 3634SOL    HW216865   6.561   1.197   0.705 -0.9353  0.9773 -0.8833
 3635SOL     OW16866   6.271   6.837   3.412 -0.1016 -0.1184 -0.6430
 3635SOL    HW116867   6.346   6.896   3.417  0.6197 -0.8924 -1.9287
 3635SOL    HW216868   6.256   6.810   3.503  1.1443  0.0732 -0.3661
 3636SOL     OW16869   1.190   6.468   4.190  0.6033 -0.0437  0.0663
 3636SOL    HW116870   1.158   6.551   4.224 -0.4532 -0.5734  0.4150
 3636SOL    HW216871   1.169   6.404   4.259 -2.7026 -1.3768 -1.9392
 3637SOL     OW16872   4.809   7.555   4.832  0.5392  0.7597  0.4191
 3637SOL    HW116873   4.782   7.603   4.911  0.7771  1.0279  0.3406
 3637SOL    HW216874   4.898   7.585   4.815  0.2985  1.1156 -0.2667
 3638SOL     OW16875   1.777   2.338   0.850  0.0408  0.3220 -0.1518
 3638SOL    HW116876   1.803   2.332   0.942  2.5775  3.3538 -0.4817
 3638SOL    HW216877   1.688   2.372   0.852  0.5679  1.8119  1.3029
 3639SOL     OW16878   9.110   5.215   6.208 -0.8882 -0.7295  0.2319
 3639SOL    HW116879   9.066   5.257   6.282 -1.5630 -0.0902 -0.5119
 3639SOL    HW216880   9.101   5.121   6.226 -0.5470 -0.5862  1.2341
 3640SOL     OW16881   0.862   8.361   4.753  0.5351 -0.0276  0.3704
 3640SOL    HW116882   0.906   8.446   4.755  1.2340 -0.3771 -0.0943
 3640SOL    HW216883   0.932   8.297   4.748  0.0095 -0.6395  0.6782
 3641SOL     OW16884   0.303   6.477   6.266  0.3166 -0.8626 -0.1136
 3641SOL    HW116885   0.222   6.454   6.311 -0.5604  1.0314 -0.6309
 3641SOL    HW216886   0.371   6.472   6.334 -0.4960 -0.9271  0.7003
 3642SOL     OW16887   1.096   7.948   5.384 -0.3801  0.2882  0.0602
 3642SOL    HW116888   1.025   7.887   5.363 -0.0829  0.3791 -1.2266
 3642SOL    HW216889   1.077   8.025   5.332 -1.1067  1.6110  2.1302
 3643SOL     OW16890   2.529   5.093   2.297  0.5328 -0.2236  0.4526
 3643SOL    HW116891   2.491   5.072   2.383  1.7046 -0.1449  1.0207
 3643SOL    HW216892   2.481   5.170   2.267  0.3794 -0.0012  1.2385
 3644SOL     OW16893   2.241   5.763   7.865  0.3539 -0.0091  0.7200
 3644SOL    HW116894   2.228   5.763   7.960  1.0136  1.1208  0.8316
 3644SOL    HW216895   2.324   5.808   7.852  0.0652  0.2334 -0.4194
 3645SOL     OW16896   7.595   1.105   7.171 -0.4383  0.2771  0.2051
 3645SOL    HW116897   7.512   1.064   7.142 -0.1765 -1.0507  1.2433
 3645SOL    HW216898   7.569   1.192   7.200 -1.3619  0.1399 -0.1416
 3646SOL     OW16899   0.275   2.547   1.361 -0.7636 -0.0941 -0.5009
 3646SOL    HW116900   0.246   2.461   1.392  0.0402  0.5677  2.4608
 3646SOL    HW216901   0.195   2.595   1.342 -1.4093 -0.4505  1.1472
 3647SOL     OW16902   4.674   2.037   7.199 -0.5086  0.1259 -0.1421
 3647SOL    HW116903   4.673   1.941   7.203 -1.1378  0.0580 -1.5649
 3647SOL    HW216904   4.605   2.064   7.260 -0.9778 -0.3642 -0.4494
 3648SOL     OW16905   1.914   0.380   1.417  0.0354 -0.0173  0.0377
 3648SOL    HW116906   1.889   0.296   1.378 -1.2462  0.1444  0.4538
 3648SOL    HW216907   1.912   0.365   1.511  0.8580  0.2101  0.1033
 3649SOL     OW16908   8.145   5.154   6.908  0.4423 -0.5139  0.2694
 3649SOL    HW116909   8.150   5.210   6.985  1.4704 -1.0458  0.6007
 3649SOL    HW216910   8.055   5.122   6.907 -0.6335  2.2648 -0.7552
 3650SOL     OW16911   9.334   0.298   6.366  0.2073  0.0906  0.6279
 3650SOL    HW116912   9.305   0.346   6.444  1.0037  0.4246  0.7263
 3650SOL    HW216913   9.418   0.261   6.391  0.8951  0.9322 -0.3508
 3651SOL     OW16914   8.060   7.379   9.156  0.5125 -0.0362  0.1083
 3651SOL    HW116915   8.008   7.449   9.117 -2.4093 -1.2016  1.5623
 3651SOL    HW216916   8.119   7.352   9.086 -0.1743  2.0311 -1.3885
 3652SOL     OW16917   9.306   7.378   0.208 -0.0531  0.0404 -0.4482
 3652SOL    HW116918   9.233   7.440   0.208  0.0972  0.2539  0.7318
 3652SOL    HW216919   9.295   7.329   0.289  1.1801  0.1709 -0.1716
 3653SOL     OW16920   0.347   2.809   0.354 -0.1035  0.2135  0.0890
 3653SOL    HW116921   0.399   2.732   0.375  0.6269  0.8966  0.8730
 3653SOL    HW216922   0.308   2.836   0.438  1.3084  1.8615  0.2836
 3654SOL     OW16923   2.327   2.826   7.023 -0.3486  0.1758 -0.1879
 3654SOL    HW116924   2.402   2.768   7.032 -0.9481 -0.6749 -0.5296
 3654SOL    HW216925   2.268   2.800   7.094 -0.2542  0.9519  0.1875
 3655SOL     OW16926   5.179   5.912   5.950  0.2911 -0.2966 -0.5507
 3655SOL    HW116927   5.203   5.848   6.017 -0.1651 -0.6214 -0.6950
 3655SOL    HW216928   5.084   5.918   5.956  0.3603  0.7036 -0.2316
 3656SOL     OW16929   5.849   4.028   4.829 -0.2038 -0.2070 -0.2205
 3656SOL    HW116930   5.855   3.935   4.808  1.5410 -0.6253  1.8431
 3656SOL    HW216931   5.939   4.057   4.841 -0.7850  1.4011  0.6349
 3657SOL     OW16932   4.314   1.994   6.458 -0.2575 -0.2085  0.3353
 3657SOL    HW116933   4.363   1.957   6.384 -0.8163 -0.4041  0.0604
 3657SOL    HW216934   4.223   1.967   6.442 -0.4024 -0.1178  1.0106
 3658SOL     OW16935   2.228   5.970   2.340  0.2106 -0.0590  0.3741
 3658SOL    HW116936   2.249   5.879   2.319 -0.4160  0.0070 -0.6024
 3658SOL    HW216937   2.313   6.014   2.340  0.6755 -0.8769  2.1844
 3659SOL     OW16938   5.361   0.165   2.383  0.1135 -0.3517 -0.2790
 3659SOL    HW116939   5.273   0.154   2.420  0.3653 -0.9805  0.1290
 3659SOL    HW216940   5.410   0.089   2.413  0.9262  0.2142 -0.1581
 3660SOL     OW16941   4.883   2.886   5.197  0.2078 -0.1547 -0.0128
 3660SOL    HW116942   4.970   2.849   5.182 -0.7442 -1.4613 -3.1255
 3660SOL    HW216943   4.838   2.819   5.248  0.1836 -0.8500 -0.9137
 3661SOL     OW16944   6.075   5.040   5.301  0.3352 -0.6051 -0.5674
 3661SOL    HW116945   6.078   5.082   5.387 -0.6771  0.6693 -1.1030
 3661SOL    HW216946   6.038   4.954   5.317  1.0077 -0.7297  0.3834
 3662SOL     OW16947   2.798   2.472   0.805  0.0563  0.5111 -0.2864
 3662SOL    HW116948   2.763   2.396   0.852  1.0743  1.1286  1.6040
 3662SOL    HW216949   2.783   2.453   0.713 -0.1286 -1.7745  0.1576
 3663SOL     OW16950   1.504   0.306   6.175  0.3853  0.0227 -0.6754
 3663SOL    HW116951   1.500   0.401   6.163  0.7647  0.2610  0.7787
 3663SOL    HW216952   1.581   0.279   6.126  1.7725  0.8767  0.9271
 3664SOL     OW16953   2.483   6.410   1.600  0.0338 -0.3172 -1.0253
 3664SOL    HW116954   2.448   6.386   1.686 -0.0460 -0.4086 -1.0832
 3664SOL    HW216955   2.504   6.503   1.608 -0.7408 -0.1184 -1.1573
 3665SOL     OW16956   7.560   6.236   3.996  0.0246  0.6439 -0.1467
 3665SOL    HW116957   7.552   6.175   3.922  0.4000 -0.0487  0.3832
 3665SOL    HW216958   7.484   6.294   3.986 -0.6597 -0.2598 -0.3280
 3666SOL     OW16959   4.356   1.692   1.221 -0.4972 -0.4473 -0.3500
 3666SOL    HW116960   4.451   1.688   1.234 -0.2880  0.5938 -1.3997
 3666SOL    HW216961   4.339   1.634   1.147 -0.7275 -0.8333 -0.0013
 3667SOL     OW16962   8.998   4.983   3.963 -0.6709 -0.7025 -0.4522
 3667SOL    HW116963   8.950   5.048   4.013 -0.4054 -0.4067 -0.5803
 3667SOL    HW216964   8.972   4.899   4.001 -0.9741 -0.5204 -0.2548
 3668SOL     OW16965   1.439   5.619   3.477 -0.1463  0.4955 -0.1481
 3668SOL    HW116966   1.449   5.606   3.383  3.0621  0.1604  0.1427
 3668SOL    HW216967   1.495   5.694   3.497  1.4278 -1.0996  1.8223
 3669SOL     OW16968   4.278   0.610   1.357  0.2091  0.2880 -0.2966
 3669SOL    HW116969   4.367   0.594   1.327 -0.4969  0.2507 -2.6180
 3669SOL    HW216970   4.287   0.632   1.449  2.7776  1.8370 -0.8219
 3670SOL     OW16971   4.607   7.676   5.056  0.3119  0.2314 -0.0179
 3670SOL    HW116972   4.596   7.724   5.138  4.5694 -2.1299  2.2282
 3670SOL    HW216973   4.578   7.587   5.076  0.5064 -0.1770 -1.4306
 3671SOL     OW16974   1.939   6.174   6.001 -0.5288 -0.0510 -0.3648
 3671SOL    HW116975   1.920   6.081   6.006  0.9077 -0.3100  1.7651
 3671SOL    HW216976   1.907   6.210   6.084  0.6744  0.9462 -0.2921
 3672SOL     OW16977   9.309   4.320   7.199 -0.2240  0.7815  0.0478
 3672SOL    HW116978   9.264   4.240   7.171  0.2010  0.6808 -0.3576
 3672SOL    HW216979   9.398   4.292   7.217 -0.4039  0.9124  1.2048
 3673SOL     OW16980   7.058   7.415   2.791 -0.6229 -0.3420  0.1220
 3673SOL    HW116981   6.971   7.415   2.750 -0.8906 -1.0695  0.6813
 3673SOL    HW216982   7.114   7.461   2.728 -1.6356  1.1571  0.2594
 3674SOL     OW16983   9.139   4.980   1.380  0.3234  0.1448  0.1739
 3674SOL    HW116984   9.047   4.979   1.406  0.6160 -0.0362  1.2183
 3674SOL    HW216985   9.159   4.889   1.357  0.2864  0.1600  0.0793
 3675SOL     OW16986   2.607   9.356   5.005 -0.1306 -0.7568 -0.2205
 3675SOL    HW116987   2.604   9.267   5.040  1.1275 -0.8845 -0.3694
 3675SOL    HW216988   2.585   9.412   5.080  1.2953 -1.0925  0.4895
 3676SOL     OW16989   6.205   6.877   4.169  0.2101  0.4095  0.0358
 3676SOL    HW116990   6.162   6.931   4.235 -1.5068  0.1042 -0.7976
 3676SOL    HW216991   6.295   6.869   4.201  0.1643  2.5525  0.9170
 3677SOL     OW16992   2.276   3.581   9.002 -0.2468 -0.1811 -1.0449
 3677SOL    HW116993   2.347   3.536   8.956  1.0541  1.3862 -0.6581
 3677SOL    HW216994   2.321   3.645   9.057 -1.8550 -0.7335  1.0068
 3678SOL     OW16995   4.759   5.001   4.583 -0.1810  0.1782  0.2819
 3678SOL    HW116996   4.691   5.036   4.640 -1.4178  1.5345 -1.8826
 3678SOL    HW216997   4.772   5.069   4.517  3.1317 -0.1290  0.4281
 3679SOL     OW16998   6.066   1.641   2.150 -0.2187 -0.2395 -0.6525
 3679SOL    HW116999   6.084   1.581   2.078 -0.9535 -2.4470  0.8904
 3679SOL    HW217000   5.999   1.597   2.202 -1.1055  2.1536  0.3686
 3680SOL     OW17001   3.834   6.132   5.104 -0.0710 -0.4724  0.0236
 3680SOL    HW117002   3.930   6.130   5.100 -0.0869  0.7374 -1.8781
 3680SOL    HW217003   3.814   6.211   5.154 -0.1300 -1.5874  1.8874
 3681SOL     OW17004   5.077   7.662   8.251 -0.5641 -0.2207 -0.2791
 3681SOL    HW117005   5.142   7.593   8.238 -1.0428 -0.4340 -1.6509
 3681SOL    HW217006   4.993   7.617   8.244 -0.8812  0.4828 -1.1724
 3682SOL     OW17007   3.789   4.860   6.219  0.0762 -0.0711  0.1924
 3682SOL    HW117008   3.699   4.894   6.219 -0.1930 -0.5446 -2.2201
 3682SOL    HW217009   3.789   4.795   6.149  2.8097  1.4296 -1.3858
 3683SOL     OW17010   0.791   2.605   3.392 -0.0785  0.1844  0.4689
 3683SOL    HW117011   0.839   2.672   3.441 -1.5447 -0.7359  3.4085
 3683SOL    HW217012   0.813   2.523   3.436 -0.9661 -0.8140 -0.8833
 3684SOL     OW17013   2.123   7.970   2.471  0.1557 -0.7545  0.5545
 3684SOL    HW117014   2.129   7.993   2.378 -0.9616 -0.1802  0.5962
 3684SOL    HW217015   2.141   7.876   2.474 -1.5712 -1.1682 -0.5030
 3685SOL     OW17016   6.011   6.287   1.596 -0.2213  0.2539  0.4154
 3685SOL    HW117017   6.035   6.263   1.685 -0.5720 -1.5108  0.0791
 3685SOL    HW217018   5.921   6.257   1.586 -0.2429  0.5755 -0.4696
 3686SOL     OW17019   8.473   9.257   1.162 -0.4125  0.3869  0.2381
 3686SOL    HW117020   8.446   9.260   1.070 -0.7778 -0.5511  0.3011
 3686SOL    HW217021   8.396   9.284   1.211 -0.6144 -0.3186  0.3205
 3687SOL     OW17022   5.741   4.972   1.652  0.0231 -0.0616  0.8532
 3687SOL    HW117023   5.695   4.908   1.707 -0.5934  0.4812  0.9764
 3687SOL    HW217024   5.756   4.925   1.569 -1.5616  0.0332  0.4816
 3688SOL     OW17025   1.368   3.243   7.215  0.1117  0.4744  0.1699
 3688SOL    HW117026   1.327   3.329   7.230  0.6022  0.4840  1.6131
 3688SOL    HW217027   1.336   3.189   7.288  0.9910 -0.1274  0.1216
 3689SOL     OW17028   3.441   0.968   5.554  0.6647 -0.1583 -0.1581
 3689SOL    HW117029   3.497   1.006   5.622  0.4218 -1.0429  0.5694
 3689SOL    HW217030   3.434   1.036   5.487  1.0258  0.6946  0.6451
 3690SOL     OW17031   6.984   1.399   8.826 -0.2075  0.1475 -0.1071
 3690SOL    HW117032   6.985   1.491   8.852  0.9338  0.2274 -0.3861
 3690SOL    HW217033   7.007   1.351   8.906 -0.1262  0.1548 -0.1261
 3691SOL     OW17034   0.280   9.327   3.914 -0.5941  0.5736 -0.0435
 3691SOL    HW117035   0.264   9.379   3.993 -1.0390 -1.3690  1.2391
 3691SOL    HW217036   0.347   9.264   3.941 -1.6149 -0.9073 -0.7989
 3692SOL     OW17037   4.907   4.860   0.652 -0.2497 -0.5474  0.1030
 3692SOL    HW117038   4.886   4.814   0.733 -1.0395  0.0601  0.2539
 3692SOL    HW217039   4.961   4.935   0.680 -0.9905 -0.0158  0.1517
 3693SOL     OW17040   6.086   3.134   7.196 -0.2106  0.6339  0.6637
 3693SOL    HW117041   6.088   3.221   7.237 -1.0045  1.4841 -1.0121
 3693SOL    HW217042   6.001   3.098   7.221  0.4025 -0.0045  1.9473
 3694SOL     OW17043   3.113   5.016   7.995 -0.0813 -0.3076 -0.5516
 3694SOL    HW117044   3.069   5.026   8.079  0.5368  0.0435 -0.2556
 3694SOL    HW217045   3.044   4.991   7.933 -1.3270  3.1092 -0.7590
 3695SOL     OW17046   2.407   9.040   9.121 -0.1046  0.3135  0.1461
 3695SOL    HW117047   2.345   9.078   9.183  0.7004  0.7278  0.7274
 3695SOL    HW217048   2.491   9.080   9.145 -0.0719  2.1007 -2.5339
 3696SOL     OW17049   1.741   4.634   3.696 -0.2671 -0.2808  0.2766
 3696SOL    HW117050   1.654   4.658   3.726  0.4547  2.2964  0.5053
 3696SOL    HW217051   1.789   4.613   3.777 -0.0747  0.4941  0.3710
 3697SOL     OW17052   3.032   6.125   2.569 -0.4071  0.3534  0.2582
 3697SOL    HW117053   2.970   6.101   2.499 -0.4207  1.3657 -0.0846
 3697SOL    HW217054   2.997   6.082   2.647 -1.1190  0.2744 -0.0931
 3698SOL     OW17055   7.050   4.583   0.593  0.0701  0.1752 -0.4060
 3698SOL    HW117056   7.064   4.493   0.563 -2.0111 -0.5762  0.7435
 3698SOL    HW217057   6.955   4.595   0.589 -0.0176  1.1311  2.7160
 3699SOL     OW17058   0.563   7.310   6.096 -0.2049  0.4732 -0.4233
 3699SOL    HW117059   0.656   7.329   6.108  0.7512 -2.8751 -1.2461
 3699SOL    HW217060   0.531   7.293   6.185 -0.1336  1.9461 -0.1043
 3700SOL     OW17061   8.687   6.364   0.955 -0.1667  0.0611 -0.2530
 3700SOL    HW117062   8.648   6.421   0.888 -1.7395  0.8896  1.2735
 3700SOL    HW217063   8.627   6.290   0.960  0.9008 -0.8759 -0.9579
 3701SOL     OW17064   4.829   1.861   0.969  0.5746 -0.4036 -0.7360
 3701SOL    HW117065   4.865   1.876   0.882 -3.2109 -1.7840 -2.7692
 3701SOL    HW217066   4.842   1.767   0.984 -0.8498 -0.6542 -0.9333
 3702SOL     OW17067   6.802   4.184   9.096  0.3407 -0.2292 -0.1441
 3702SOL    HW117068   6.718   4.183   9.050 -0.0272  1.0428  0.4283
 3702SOL    HW217069   6.782   4.227   9.180  1.5855  0.2381 -0.0680
 3703SOL     OW17070   9.122   5.160   3.140 -0.1839  0.2046 -0.4614
 3703SOL    HW117071   9.203   5.209   3.133 -0.5143  0.6892 -0.9816
 3703SOL    HW217072   9.083   5.190   3.222  0.6364 -0.7789  0.3150
 3704SOL     OW17073   1.874   7.361   1.923 -0.1623  0.2423 -0.0661
 3704SOL    HW117074   1.904   7.342   2.012 -0.6203 -0.8351 -0.1236
 3704SOL    HW217075   1.934   7.313   1.867  1.0642  2.1408 -0.4410
 3705SOL     OW17076   1.456   6.256   3.125  0.2364  0.6962  0.1512
 3705SOL    HW117077   1.463   6.208   3.042 -0.4547  0.3707  0.2763
 3705SOL    HW217078   1.476   6.346   3.102  3.2721  0.1446  0.1981
 3706SOL     OW17079   1.886   7.316   3.827  0.3480  0.3122  0.3704
 3706SOL    HW117080   1.864   7.341   3.917  0.4560 -0.8197  0.7224
 3706SOL    HW217081   1.802   7.319   3.781  0.4871  2.1591  0.1741
 3707SOL     OW17082   1.414   8.738   3.824  0.0918 -0.2367 -0.3530
 3707SOL    HW117083   1.322   8.713   3.814  0.3159 -1.1485 -0.2610
 3707SOL    HW217084   1.463   8.659   3.798  0.8562  0.3700 -0.8138
 3708SOL     OW17085   3.894   8.922   1.316 -0.2386 -0.2918 -0.0499
 3708SOL    HW117086   3.869   8.830   1.310 -0.6354 -0.2130  0.2874
 3708SOL    HW217087   3.818   8.970   1.282  0.1725 -0.1045 -0.7186
 3709SOL     OW17088   4.277   1.907   7.924 -0.0572  0.1532  0.0632
 3709SOL    HW117089   4.338   1.930   7.994 -0.4923 -1.0258  0.8518
 3709SOL    HW217090   4.191   1.912   7.965 -0.2503 -1.5807 -0.0569
 3710SOL     OW17091   4.080   3.560   1.831 -0.5607 -0.1774  0.0271
 3710SOL    HW117092   3.998   3.606   1.849 -0.0860  0.9107 -0.5068
 3710SOL    HW217093   4.078   3.484   1.889 -0.6073  1.4105  2.2427
 3711SOL     OW17094   2.825   4.240   3.327 -0.3152  0.2939 -0.7407
 3711SOL    HW117095   2.913   4.277   3.327 -0.2163  0.0694 -0.1003
 3711SOL    HW217096   2.778   4.290   3.394 -0.4581 -0.0806 -0.5573
 3712SOL     OW17097   5.267   7.305   4.630 -0.1929  0.0973  0.2299
 3712SOL    HW117098   5.253   7.397   4.607 -2.4215 -0.4732 -1.0206
 3712SOL    HW217099   5.309   7.267   4.553 -0.5131 -0.1952  0.1969
 3713SOL     OW17100   2.569   8.178   0.258 -0.2075 -0.1070 -0.0363
 3713SOL    HW117101   2.614   8.095   0.275 -1.4059 -0.6906  0.4070
 3713SOL    HW217102   2.531   8.168   0.171  0.6222  0.4404 -0.4727
 3714SOL     OW17103   3.058   7.435   5.532  0.0519 -0.2552 -0.2708
 3714SOL    HW117104   3.153   7.443   5.517 -0.0069 -2.0774 -2.0047
 3714SOL    HW217105   3.021   7.513   5.491  0.8318  1.1030  1.4661
 3715SOL     OW17106   4.474   8.520   2.665  0.3008 -0.1263 -0.7793
 3715SOL    HW117107   4.380   8.500   2.662  0.0183  0.9039  0.3128
 3715SOL    HW217108   4.517   8.436   2.650 -0.8092 -0.9991  0.6912
 3716SOL     OW17109   5.160   3.843   3.432  0.1130  0.2781  0.2239
 3716SOL    HW117110   5.201   3.926   3.407  0.4802  0.5820  1.7741
 3716SOL    HW217111   5.157   3.793   3.350  0.1502  1.6905 -0.6838
 3717SOL     OW17112   5.988   1.640   9.276  0.0260  0.2510 -0.4290
 3717SOL    HW117113   6.066   1.655   9.330 -0.1864 -0.5812  0.1201
 3717SOL    HW217114   5.918   1.623   9.340  0.2340 -3.1338 -0.9284
 3718SOL     OW17115   7.349   5.588   4.647 -0.0931  0.4233 -0.1035
 3718SOL    HW117116   7.352   5.562   4.555 -0.3140 -1.6059  0.4090
 3718SOL    HW217117   7.365   5.507   4.696 -0.6506  1.3096  1.6636
 3719SOL     OW17118   3.415   0.033   9.276  0.0277  0.5560  0.2886
 3719SOL    HW117119   3.330   0.056   9.239 -0.0210 -0.2447 -0.1196
 3719SOL    HW217120   3.394  -0.028   9.348  0.3496 -2.0869 -1.6949
 3720SOL     OW17121   2.866   3.730   8.238 -0.1234 -0.3051  0.2207
 3720SOL    HW117122   2.800   3.689   8.182 -0.2876  0.1519  0.0765
 3720SOL    HW217123   2.850   3.693   8.325 -1.3295  0.6807  0.4271
 3721SOL     OW17124   5.143   5.451   5.545 -0.8054 -0.0499  0.0508
 3721SOL    HW117125   5.111   5.478   5.631  1.1384  0.3735  0.7088
 3721SOL    HW217126   5.082   5.384   5.516 -1.5586 -0.1363  1.7345
 3722SOL     OW17127   7.531   4.569   3.456  0.3419  0.1435  0.9994
 3722SOL    HW117128   7.483   4.565   3.539 -2.0682 -0.0844 -0.3094
 3722SOL    HW217129   7.523   4.482   3.419  1.2793  0.2792  0.4460
 3723SOL     OW17130   7.221   9.333   3.616  0.1574  0.0764  0.1108
 3723SOL    HW117131   7.158   9.365   3.681  0.9584  2.2374 -0.0775
 3723SOL    HW217132   7.216   9.238   3.622 -0.0148  0.1738  3.1361
 3724SOL     OW17133   1.529   3.998   4.579  0.0667 -0.5558  0.4221
 3724SOL    HW117134   1.560   4.063   4.643 -0.1586 -1.5047  1.5362
 3724SOL    HW217135   1.440   3.977   4.606  0.5039 -2.1361  0.8019
 3725SOL     OW17136   1.109   6.951   6.348 -0.3234  0.1496 -0.2858
 3725SOL    HW117137   1.189   7.004   6.359 -0.3153 -0.0828  0.9333
 3725SOL    HW217138   1.141   6.867   6.315  0.0042 -0.1017  0.6384
 3726SOL     OW17139   4.173   3.072   2.496 -0.3403  0.4026  0.2936
 3726SOL    HW117140   4.148   3.164   2.505  0.1713  0.4975  0.8145
 3726SOL    HW217141   4.267   3.074   2.478 -0.5615  0.0263 -0.9820
 3727SOL     OW17142   4.898   8.357   8.198 -0.4529  1.0049  0.7930
 3727SOL    HW117143   4.851   8.321   8.273 -2.1711 -0.0738 -0.7129
 3727SOL    HW217144   4.988   8.325   8.209 -0.9049  0.0182  1.8622
 3728SOL     OW17145   0.873   6.237   5.846  0.2008  0.6732 -0.3629
 3728SOL    HW117146   0.915   6.312   5.804  0.2894 -0.6690 -2.8160
 3728SOL    HW217147   0.781   6.263   5.853  0.1639  0.8956 -1.5139
 3729SOL     OW17148   8.379   1.639   4.780 -0.1782  0.7162  0.4533
 3729SOL    HW117149   8.416   1.565   4.829  2.6366  1.8104  0.1372
 3729SOL    HW217150   8.362   1.603   4.693 -1.0348 -0.1227  0.9507
 3730SOL     OW17151   6.035   9.155   3.447 -0.1851 -0.0417 -0.0902
 3730SOL    HW117152   5.977   9.209   3.500 -0.7608 -1.2485  0.5602
 3730SOL    HW217153   5.989   9.071   3.439  0.9030 -0.6067 -0.6245
 3731SOL     OW17154   0.979   0.585   7.666  0.5931 -0.3396  0.4357
 3731SOL    HW117155   0.961   0.627   7.750  0.8985 -1.6314  1.1724
 3731SOL    HW217156   1.068   0.611   7.644  0.4360  0.1727  0.4034
 3732SOL     OW17157   8.054   8.759   7.265 -0.1036  0.1672 -0.2580
 3732SOL    HW117158   7.986   8.823   7.242 -0.2379  0.5000  1.0011
 3732SOL    HW217159   8.007   8.676   7.270 -0.1165  0.1268 -0.9023
 3733SOL     OW17160   4.275   6.224   0.120 -0.4229  0.1602  0.1231
 3733SOL    HW117161   4.359   6.270   0.112 -1.1187  1.5385  0.5029
 3733SOL    HW217162   4.296   6.133   0.101  0.8953  0.7177 -1.2871
 3734SOL     OW17163   5.688   1.790   5.352  0.5052 -0.1940 -0.7837
 3734SOL    HW117164   5.707   1.745   5.269  0.7138  0.8495 -1.3155
 3734SOL    HW217165   5.644   1.871   5.326 -1.3393 -0.8027  0.2370
 3735SOL     OW17166   5.727   0.593   3.353  0.4145 -0.3970  0.6591
 3735SOL    HW117167   5.645   0.636   3.327  1.1454 -0.0104 -1.1448
 3735SOL    HW217168   5.722   0.589   3.448 -0.8987  1.2842  0.7195
 3736SOL     OW17169   6.706   2.717   3.842 -0.1865  0.4145  0.4872
 3736SOL    HW117170   6.687   2.809   3.824 -1.1286  0.1625  0.1295
 3736SOL    HW217171   6.687   2.672   3.760 -0.2114 -0.1702  0.8050
 3737SOL     OW17172   9.152   7.546   6.916  0.0997 -0.2913 -1.1303
 3737SOL    HW117173   9.062   7.517   6.933  0.4883 -0.5829  0.5817
 3737SOL    HW217174   9.202   7.465   6.914  0.4948 -0.0501 -0.9390
 3738SOL     OW17175   5.652   5.757   8.578 -0.3278 -0.2939  0.0925
 3738SOL    HW117176   5.558   5.776   8.590 -0.0727  1.6735 -0.6940
 3738SOL    HW217177   5.694   5.797   8.654  0.1589  1.8838 -1.2403
 3739SOL     OW17178   6.358   9.005   6.558 -0.0280 -0.2394 -0.3044
 3739SOL    HW117179   6.356   9.041   6.469 -0.4390  1.2409  0.2649
 3739SOL    HW217180   6.431   9.051   6.600  0.1022 -0.8566  0.1525
 3740SOL     OW17181   2.519   0.491   1.621  0.0381 -0.0050  0.2919
 3740SOL    HW117182   2.572   0.432   1.676 -1.8595 -0.6703  1.5203
 3740SOL    HW217183   2.479   0.433   1.556  0.3584  0.3930 -0.2638
 3741SOL     OW17184   8.991   3.810   7.585 -0.5388 -0.3675 -0.0304
 3741SOL    HW117185   9.000   3.716   7.597 -1.4584 -0.4101  0.3490
 3741SOL    HW217186   8.906   3.832   7.622 -0.9234  0.4073 -1.3105
 3742SOL     OW17187   3.807   1.803   6.146  0.2719 -0.5599 -0.2510
 3742SOL    HW117188   3.746   1.739   6.182 -0.3395  0.8823  1.4195
 3742SOL    HW217189   3.880   1.805   6.209  2.4448 -2.6417 -2.4613
 3743SOL     OW17190   5.624   2.698   0.718 -0.0779  0.4761  0.0627
 3743SOL    HW117191   5.536   2.686   0.754 -0.2577  0.8120 -0.2463
 3743SOL    HW217192   5.609   2.735   0.631  0.2867 -1.9099 -1.0823
 3744SOL     OW17193   0.546   0.744   6.270  0.5960  0.1010 -0.5687
 3744SOL    HW117194   0.530   0.820   6.213 -2.0265  0.8805  1.0249
 3744SOL    HW217195   0.600   0.778   6.341 -0.2606  0.4052 -0.0532
 3745SOL     OW17196   3.066   2.433   3.781 -0.2450 -0.2094 -0.2505
 3745SOL    HW117197   3.002   2.477   3.838  0.2489 -0.4930  0.5479
 3745SOL    HW217198   3.090   2.499   3.716 -1.2743 -0.0715 -0.5050
 3746SOL     OW17199   5.788   4.246   1.181 -0.1152 -0.1741  0.3015
 3746SOL    HW117200   5.741   4.214   1.257 -1.2418  1.2911  0.2714
 3746SOL    HW217201   5.791   4.172   1.121 -0.3825 -0.9559  1.2353
 3747SOL     OW17202   5.864   7.939   9.194  0.2363  0.1917 -0.2850
 3747SOL    HW117203   5.847   7.848   9.170 -0.2181  0.8910 -2.9370
 3747SOL    HW217204   5.809   7.954   9.271  0.2190 -1.7202  0.1298
 3748SOL     OW17205   7.622   5.762   3.242  0.1438  0.3512 -0.0819
 3748SOL    HW117206   7.694   5.789   3.186  1.2522 -0.0366  1.1128
 3748SOL    HW217207   7.566   5.839   3.248  0.9207  0.9392 -0.2987
 3749SOL     OW17208   8.006   2.530   4.010  0.3253 -0.2917  0.4672
 3749SOL    HW117209   8.028   2.449   3.964  0.3204  1.0715 -2.1350
 3749SOL    HW217210   7.933   2.567   3.960  1.6097  2.2603  0.2813
 3750SOL     OW17211   8.605   0.236   0.081 -0.1300 -0.1486 -0.2042
 3750SOL    HW117212   8.583   0.288   0.004 -0.7970  0.9142  0.6727
 3750SOL    HW217213   8.698   0.252   0.096 -0.2109  0.3628 -0.2558
 3751SOL     OW17214   6.695   7.846   2.364 -0.0710  0.4164  0.5774
 3751SOL    HW117215   6.769   7.785   2.353 -0.2559  0.3496 -0.4099
 3751SOL    HW217216   6.622   7.804   2.319  0.3448  2.3196 -2.1294
 3752SOL     OW17217   5.799   0.559   2.723  0.0113  0.3547  0.1328
 3752SOL    HW117218   5.851   0.567   2.643 -0.9152  0.2372 -0.4974
 3752SOL    HW217219   5.858   0.588   2.792  0.7739  0.6446 -0.6111
 3753SOL     OW17220   1.511   0.815   5.969  0.2167 -0.4408  0.1533
 3753SOL    HW117221   1.502   0.724   5.996  1.2030 -0.6916 -0.3012
 3753SOL    HW217222   1.589   0.846   6.014 -0.0146  0.1297  0.1687
 3754SOL     OW17223   7.330   7.734   5.101  0.1803  0.2965  0.0625
 3754SOL    HW117224   7.308   7.729   5.008 -2.3732 -0.9679  0.6361
 3754SOL    HW217225   7.366   7.648   5.123  0.2456  0.3960  0.3597
 3755SOL     OW17226   1.808   0.241   9.116 -0.5605 -0.0916  0.2246
 3755SOL    HW117227   1.864   0.180   9.067 -0.7053  1.2501 -1.7174
 3755SOL    HW217228   1.753   0.184   9.170  1.9692 -1.4846  1.4906
 3756SOL     OW17229   3.652   5.807   3.813  0.0264  0.2020 -0.1349
 3756SOL    HW117230   3.641   5.716   3.785 -0.9783  0.8779 -2.1065
 3756SOL    HW217231   3.582   5.820   3.877 -0.1916 -0.2387 -0.2776
 3757SOL     OW17232   6.429   1.181   2.859  0.1743 -0.1202 -0.7366
 3757SOL    HW117233   6.500   1.144   2.807 -0.8760 -0.7653 -1.7725
 3757SOL    HW217234   6.450   1.274   2.866  0.4418 -0.0516 -2.1799
 3758SOL     OW17235   3.043   7.906   1.620  0.5521  0.4942  0.1408
 3758SOL    HW117236   3.104   7.973   1.588  0.1234  0.9755  0.3237
 3758SOL    HW217237   3.098   7.829   1.635  1.1958  1.0674  0.7755
 3759SOL     OW17238   3.723   7.028   2.782  0.1931  0.1996 -0.4638
 3759SOL    HW117239   3.811   7.027   2.744  1.0511 -0.8676  1.4104
 3759SOL    HW217240   3.672   6.971   2.725  0.7513  0.6591 -1.4604
 3760SOL     OW17241   2.853   3.798   5.871  0.1932 -0.5066  0.1880
 3760SOL    HW117242   2.771   3.808   5.919  0.3531  0.2134  0.3208
 3760SOL    HW217243   2.827   3.787   5.779 -0.0582 -0.4627  0.2552
 3761SOL     OW17244   7.624   8.420   1.603 -0.1298  0.6962 -0.0081
 3761SOL    HW117245   7.668   8.471   1.671 -0.6529  1.2630 -0.0830
 3761SOL    HW217246   7.586   8.486   1.545 -2.4347  0.2838  0.9256
 3762SOL     OW17247   6.227   1.358   4.799  0.2120 -0.3005  0.1082
 3762SOL    HW117248   6.275   1.335   4.879  0.2825  0.5149  0.3066
 3762SOL    HW217249   6.135   1.342   4.821  0.2573 -0.3759  0.2454
 3763SOL     OW17250   4.905   8.689   4.358  0.6403 -0.1140  0.4317
 3763SOL    HW117251   4.953   8.769   4.380 -0.2292  0.2530  1.0240
 3763SOL    HW217252   4.905   8.688   4.262  0.0156  1.0037  0.4010
 3764SOL     OW17253   7.906   0.094   1.579  0.3293 -0.3533  0.1060
 3764SOL    HW117254   7.864   0.171   1.542  2.1332 -0.2582 -1.9248
 3764SOL    HW217255   7.833   0.043   1.616 -0.9841  1.9164  0.8912
 3765SOL     OW17256   6.224   3.859   3.883 -0.1417  0.0593  0.3662
 3765SOL    HW117257   6.292   3.852   3.816  0.5662  1.6363  0.8609
 3765SOL    HW217258   6.266   3.908   3.954 -1.4396  0.0411  1.1753
 3766SOL     OW17259   5.940   7.607   8.634 -0.1095 -0.4607  0.5471
 3766SOL    HW117260   5.996   7.546   8.683 -0.8464 -1.9702 -0.4097
 3766SOL    HW217261   5.983   7.616   8.549  0.3237  0.8843  0.8951
 3767SOL     OW17262   7.424   4.044   3.512 -0.0543  0.4195 -0.2577
 3767SOL    HW117263   7.372   3.965   3.501 -0.8252  0.7080  1.0673
 3767SOL    HW217264   7.464   4.034   3.598  0.3226  1.1965 -0.3364
 3768SOL     OW17265   4.713   3.245   1.161  0.3467 -0.1361 -0.1626
 3768SOL    HW117266   4.752   3.331   1.143  1.7605 -0.8307 -0.5560
 3768SOL    HW217267   4.747   3.220   1.246  0.2045 -0.4550 -0.1984
 3769SOL     OW17268   8.010   9.253   4.894  0.1848 -0.2313 -0.2415
 3769SOL    HW117269   8.030   9.261   4.801 -0.8799 -0.6842 -0.5315
 3769SOL    HW217270   8.056   9.173   4.921  0.0933 -0.3783 -0.5081
 3770SOL     OW17271   2.066   7.448   8.081 -0.0566 -0.2347  0.1695
 3770SOL    HW117272   1.972   7.441   8.098  0.0407 -0.2239  0.7463
 3770SOL    HW217273   2.072   7.485   7.993 -0.5886 -1.2859 -0.3306
 3771SOL     OW17274   2.786   7.534   2.844  0.3103  0.1729  0.0490
 3771SOL    HW117275   2.769   7.489   2.926 -0.8870  2.5476  1.2218
 3771SOL    HW217276   2.728   7.493   2.781  0.7780 -1.2649  0.5125
 3772SOL     OW17277   2.772   1.896   0.427 -0.2245  0.0823  0.1491
 3772SOL    HW117278   2.715   1.933   0.360 -1.3853 -1.8921 -0.0449
 3772SOL    HW217279   2.860   1.902   0.391 -0.6532  0.4962 -0.8456
 3773SOL     OW17280   8.341   4.552   0.982 -0.5343 -0.2040 -0.0359
 3773SOL    HW117281   8.361   4.458   0.988 -0.2537 -0.0356  2.4103
 3773SOL    HW217282   8.278   4.558   0.910  0.5129 -2.0641 -1.1860
 3774SOL     OW17283   9.038   7.802   3.094 -0.4837  0.5494  0.3462
 3774SOL    HW117284   8.961   7.750   3.114 -1.5640 -0.0564 -4.3474
 3774SOL    HW217285   9.011   7.892   3.109 -1.0897  0.1911  1.4830
 3775SOL     OW17286   4.188   8.517   0.239 -0.3673 -0.7539  0.8209
 3775SOL    HW117287   4.238   8.458   0.183 -1.0761 -1.6199  1.0807
 3775SOL    HW217288   4.122   8.555   0.182  0.7786  0.6816  0.3876
 3776SOL     OW17289   5.014   5.529   2.132 -0.5347  0.4560  0.3689
 3776SOL    HW117290   5.103   5.504   2.105 -0.7824 -0.0819  0.0426
 3776SOL    HW217291   4.999   5.478   2.212 -0.6882  0.2538  0.2139
 3777SOL     OW17292   7.499   6.471   5.428 -0.3282 -0.4364 -0.2343
 3777SOL    HW117293   7.428   6.535   5.436  0.5860  0.3631  3.7174
 3777SOL    HW217294   7.570   6.519   5.384 -0.7680  0.2296 -0.2294
 3778SOL     OW17295   7.847   1.368   4.425 -0.5043 -0.0182 -0.2656
 3778SOL    HW117296   7.843   1.302   4.495 -4.5156 -0.1872 -0.4160
 3778SOL    HW217297   7.871   1.449   4.470 -0.9359 -0.5393  0.9619
 3779SOL     OW17298   2.400   6.749   0.121  0.0591  0.4403 -0.5007
 3779SOL    HW117299   2.481   6.778   0.165  0.1181 -2.5830  1.6629
 3779SOL    HW217300   2.330   6.783   0.177 -0.0849  0.8592 -0.9320
 3780SOL     OW17301   9.353   8.305   7.677 -0.0613  0.2861 -0.3705
 3780SOL    HW117302   9.298   8.342   7.745  0.7846 -0.7213  0.9201
 3780SOL    HW217303   9.340   8.210   7.684  1.9759 -0.0031  0.1667
 3781SOL     OW17304   3.729   4.729   0.718 -0.3916  0.3979  0.2742
 3781SOL    HW117305   3.701   4.719   0.809 -1.4072  0.8329  0.0221
 3781SOL    HW217306   3.814   4.772   0.723 -0.4653  0.4648  1.0113
 3782SOL     OW17307   0.314   8.057   6.555 -0.0107 -0.0101  0.3716
 3782SOL    HW117308   0.245   8.016   6.608 -0.3228  0.4448  0.3245
 3782SOL    HW217309   0.266   8.096   6.481  0.2152  0.9498  0.7267
 3783SOL     OW17310   8.730   0.952   0.510 -0.6916  0.5748 -0.0677
 3783SOL    HW117311   8.705   1.026   0.566  0.1975  0.4428  0.5270
 3783SOL    HW217312   8.654   0.894   0.511 -0.6579  0.5270  1.0982
 3784SOL     OW17313   3.331   6.518   6.922 -0.0539  0.2470  0.1731
 3784SOL    HW117314   3.314   6.548   7.011 -0.3480  1.6750 -0.3534
 3784SOL    HW217315   3.245   6.493   6.888 -0.1147  0.8357 -0.1118
 3785SOL     OW17316   2.080   2.988   7.598 -0.0888 -0.2912 -0.6094
 3785SOL    HW117317   2.143   2.916   7.589 -0.7301 -0.8288 -1.0134
 3785SOL    HW217318   2.119   3.060   7.550 -0.4012 -1.0647 -2.1022
 3786SOL     OW17319   3.116   8.077   0.700  0.6128  0.4666  0.1745
 3786SOL    HW117320   3.204   8.068   0.663  0.0425 -0.6047 -0.9983
 3786SOL    HW217321   3.063   8.111   0.628 -0.0394  0.6583  0.7297
 3787SOL     OW17322   8.059   5.611   8.124 -0.7362  0.2034  0.0902
 3787SOL    HW117323   7.977   5.606   8.172 -1.3156  1.4342 -0.7380
 3787SOL    HW217324   8.121   5.651   8.186 -0.6194 -1.1015  0.8551
 3788SOL     OW17325   6.581   3.145   4.820 -0.1127 -0.3126 -0.2777
 3788SOL    HW117326   6.577   3.237   4.847  0.6873 -0.1628 -0.6523
 3788SOL    HW217327   6.673   3.121   4.829 -0.4526 -1.3440  0.6723
 3789SOL     OW17328   8.592   6.910   9.308  0.2763 -0.1101  0.4113
 3789SOL    HW117329   8.583   6.819   9.336  0.8481 -0.6730 -1.0942
 3789SOL    HW217330   8.535   6.959   9.367 -2.6561 -1.8522 -0.7385
 3790SOL     OW17331   3.173   4.029   7.307  0.2924  0.1181  0.4773
 3790SOL    HW117332   3.114   3.978   7.362  1.2673 -0.4609  1.0150
 3790SOL    HW217333   3.198   3.969   7.237 -0.4848  0.6664 -0.2883
 3791SOL     OW17334   3.246   7.725   7.087  0.5378  0.8078 -0.0786
 3791SOL    HW117335   3.325   7.695   7.044 -0.1664 -0.6096 -0.4448
 3791SOL    HW217336   3.193   7.646   7.098 -0.7859  1.7000  0.2388
 3792SOL     OW17337   7.484   6.340   4.850  0.3705 -0.6082  0.0687
 3792SOL    HW117338   7.495   6.397   4.774  0.5475 -0.5958  0.1036
 3792SOL    HW217339   7.494   6.397   4.925 -0.0046 -0.5842  0.1005
 3793SOL     OW17340   4.324   2.183   7.280  0.2140  0.0761  0.2398
 3793SOL    HW117341   4.394   2.141   7.331 -0.6270 -0.7217  0.7819
 3793SOL    HW217342   4.309   2.267   7.324 -0.0627 -0.3269  0.9274
 3794SOL     OW17343   3.419   3.753   7.349 -0.1892 -0.0785 -0.2835
 3794SOL    HW117344   3.514   3.761   7.344  0.1026 -1.7732  1.3944
 3794SOL    HW217345   3.395   3.796   7.431 -0.8186 -0.0095 -0.4931
 3795SOL     OW17346   3.675   7.913   6.603 -0.2459  0.3336  0.2114
 3795SOL    HW117347   3.676   7.913   6.699 -0.0926  0.6595  0.2140
 3795SOL    HW217348   3.712   7.998   6.580  0.3699 -0.0176 -0.1404
 3796SOL     OW17349   6.344   1.970   2.384 -0.9105 -0.1405  0.0531
 3796SOL    HW117350   6.397   2.047   2.403  0.4281 -0.4167 -2.2561
 3796SOL    HW217351   6.261   2.005   2.351 -0.3445  0.3439 -0.9043
 3797SOL     OW17352   7.289   5.898   8.579 -0.1841 -0.3440 -0.4237
 3797SOL    HW117353   7.225   5.936   8.639  1.1279 -0.3057  1.0171
 3797SOL    HW217354   7.292   5.959   8.505 -0.9081  0.2898  0.0543
 3798SOL     OW17355   8.772   5.587   4.466 -0.2788  0.5663 -0.7144
 3798SOL    HW117356   8.708   5.657   4.451 -0.1087  1.0101  0.5421
 3798SOL    HW217357   8.734   5.535   4.537  0.1459  0.0627 -0.8494
 3799SOL     OW17358   9.266   8.703   1.230 -0.3896 -0.4527 -0.5060
 3799SOL    HW117359   9.303   8.615   1.236 -0.0820 -0.3700 -1.2051
 3799SOL    HW217360   9.199   8.705   1.299 -0.9775 -1.5149 -1.0340
 3800SOL     OW17361   6.133   6.882   7.743  0.0947  0.2774  0.9633
 3800SOL    HW117362   6.174   6.935   7.675  1.4326  0.7437  2.0732
 3800SOL    HW217363   6.064   6.833   7.698  0.3959  1.1857 -0.5400
 3801SOL     OW17364   8.671   5.631   1.267  0.0563 -0.1996 -0.6320
 3801SOL    HW117365   8.576   5.640   1.278  0.3081 -0.5132  2.7606
 3801SOL    HW217366   8.696   5.706   1.213 -1.8595  1.2128  0.3288
 3802SOL     OW17367   6.744   9.010   6.821  0.8964  0.0866 -0.3232
 3802SOL    HW117368   6.691   9.017   6.901  1.0037 -1.2139 -0.1117
 3802SOL    HW217369   6.825   9.056   6.843  0.6675  0.3043  0.0906
 3803SOL     OW17370   7.512   0.032   2.062  0.3695 -0.5756 -0.6937
 3803SOL    HW117371   7.538  -0.035   1.999 -1.0926 -0.4529 -1.4607
 3803SOL    HW217372   7.446  -0.011   2.116 -0.4266  0.1895 -1.0571
 3804SOL     OW17373   4.953   7.802   0.580 -0.6887 -0.2337  0.6115
 3804SOL    HW117374   4.914   7.771   0.498 -0.8107  0.2752  0.4734
 3804SOL    HW217375   5.022   7.739   0.599 -2.1001 -1.6453  1.3021
 3805SOL     OW17376   8.415   0.951   4.335  0.3010  0.3683  0.5802
 3805SOL    HW117377   8.364   0.878   4.299 -0.3850  0.6178  1.0171
 3805SOL    HW217378   8.472   0.911   4.400  0.8515  0.0510 -0.0862
 3806SOL     OW17379   3.657   2.822   2.209  0.3410  0.6141  0.2936
 3806SOL    HW117380   3.743   2.795   2.178 -0.5348 -0.1348 -1.6509
 3806SOL    HW217381   3.640   2.766   2.285  1.9231  1.4310  1.2981
 3807SOL     OW17382   0.140   1.012   5.088 -0.1953  0.1743  0.1764
 3807SOL    HW117383   0.184   1.090   5.120 -0.9628  0.0756  1.5413
 3807SOL    HW217384   0.122   1.030   4.996  0.6857  1.1108  0.1772
 3808SOL     OW17385   1.155   5.933   0.268 -0.2662 -0.3920 -0.5866
 3808SOL    HW117386   1.174   5.942   0.174 -1.8397  1.0277 -0.8203
 3808SOL    HW217387   1.083   5.869   0.271 -0.9909  0.4048 -0.4848
 3809SOL     OW17388   6.158   3.261   6.806  0.0086  0.1362  0.0302
 3809SOL    HW117389   6.215   3.338   6.800 -0.5372  0.4886 -0.8962
 3809SOL    HW217390   6.073   3.296   6.831 -0.1839 -0.1967 -0.1496
 3810SOL     OW17391   6.856   0.921   2.423 -0.3125  0.0584 -0.2668
 3810SOL    HW117392   6.813   0.869   2.356 -0.3926  1.1937 -1.1311
 3810SOL    HW217393   6.787   0.978   2.458 -0.1253 -0.0701  0.3358
 3811SOL     OW17394   2.452   5.893   0.153 -0.2222 -0.4615 -0.0764
 3811SOL    HW117395   2.387   5.962   0.162  1.4314  1.2582 -0.6472
 3811SOL    HW217396   2.409   5.827   0.097 -1.3693  0.7402 -0.6650
 3812SOL     OW17397   8.207   1.194   3.164  0.4991 -0.1577 -0.1562
 3812SOL    HW117398   8.174   1.225   3.080  0.0125 -1.4083 -0.4397
 3812SOL    HW217399   8.129   1.187   3.219  0.6061 -0.8591 -0.0943
 3813SOL     OW17400   4.228   7.632   8.300  0.5913 -0.0876 -0.5762
 3813SOL    HW117401   4.300   7.695   8.302  0.7434 -0.2790  0.4307
 3813SOL    HW217402   4.152   7.683   8.271  0.7593  0.5134  0.0224
 3814SOL     OW17403   0.619   2.109   6.026  0.6951 -0.8928  0.3862
 3814SOL    HW117404   0.696   2.126   5.971  1.5763  0.7418  1.9970
 3814SOL    HW217405   0.554   2.071   5.966  1.5702  0.8242 -1.8062
 3815SOL     OW17406   0.769   0.253   5.249  0.2620  0.2490  0.1775
 3815SOL    HW117407   0.811   0.338   5.244  0.2301  0.2114 -0.8607
 3815SOL    HW217408   0.708   0.260   5.323  2.0930  0.2823  1.7700
 3816SOL     OW17409   3.323   0.026   8.032 -0.1794  0.1047  0.0652
 3816SOL    HW117410   3.319   0.001   8.125  0.5490  0.0733  0.0995
 3816SOL    HW217411   3.416   0.018   8.010 -0.2640  0.6717 -0.5158
 3817SOL     OW17412   3.106   5.270   6.997 -0.0489 -0.3434 -0.1968
 3817SOL    HW117413   3.119   5.178   7.021  0.5135 -0.3672 -0.5737
 3817SOL    HW217414   3.097   5.316   7.080 -1.2998 -0.8762 -0.0219
 3818SOL     OW17415   4.215   3.589   9.274  0.3926  0.7765 -0.4385
 3818SOL    HW117416   4.159   3.593   9.351  1.5630  0.9780  0.4268
 3818SOL    HW217417   4.156   3.565   9.202 -0.8274  1.2093  0.3941
 3819SOL     OW17418   6.249   1.551   8.273  0.1540  0.1287 -0.1051
 3819SOL    HW117419   6.200   1.595   8.342 -1.3028 -1.0909 -0.3107
 3819SOL    HW217420   6.330   1.601   8.266 -0.9300  2.0936  0.4182
 3820SOL     OW17421   1.481   4.669   6.540  0.1814 -0.2067 -0.0745
 3820SOL    HW117422   1.541   4.729   6.583 -0.3113 -0.9521  1.7761
 3820SOL    HW217423   1.488   4.689   6.447  0.5031  2.2555  0.4198
 3821SOL     OW17424   9.264   6.977   1.213  0.3484 -0.2668  0.0671
 3821SOL    HW117425   9.252   7.068   1.240  0.9246  0.1198 -0.9312
 3821SOL    HW217426   9.338   6.946   1.266 -0.5662 -0.5256  1.2333
 3822SOL     OW17427   8.077   1.687   0.094 -0.5612 -0.1121  0.0528
 3822SOL    HW117428   8.109   1.597   0.082 -0.3472  0.2103 -2.4515
 3822SOL    HW217429   8.156   1.741   0.097 -0.7035  0.1813 -0.9000
 3823SOL     OW17430   7.356   6.275   1.627  0.6439  0.6445 -0.1067
 3823SOL    HW117431   7.277   6.330   1.624 -0.3999 -0.7567  0.5538
 3823SOL    HW217432   7.341   6.210   1.558  0.8350 -0.1379  0.5858
 3824SOL     OW17433   6.128   4.804   2.117  0.2287 -0.6160 -0.2782
 3824SOL    HW117434   6.101   4.715   2.092 -1.3134 -0.2474 -0.0315
 3824SOL    HW217435   6.224   4.800   2.118  0.2061 -2.1864 -0.5827
 3825SOL     OW17436   1.952   6.728   4.291  0.1985 -0.1374  0.3026
 3825SOL    HW117437   1.924   6.798   4.350 -0.4946 -0.0394 -0.1317
 3825SOL    HW217438   1.873   6.706   4.241  0.7437 -0.3203 -0.4866
 3826SOL     OW17439   7.389   0.074   2.489  0.1739  0.5319 -0.2295
 3826SOL    HW117440   7.438  -0.007   2.472 -0.2984  0.2253 -0.1462
 3826SOL    HW217441   7.297   0.048   2.482  0.0135  1.3251 -1.4453
 3827SOL     OW17442   8.827   1.632   1.663  0.0358  0.3166 -0.7796
 3827SOL    HW117443   8.908   1.679   1.641  0.1498 -0.5723 -2.3328
 3827SOL    HW217444   8.829   1.552   1.610 -0.2304 -1.4322  1.6419
 3828SOL     OW17445   4.490   1.877   9.256  0.5828 -0.5263 -0.3963
 3828SOL    HW117446   4.483   1.791   9.214  1.0620 -1.3338  1.1093
 3828SOL    HW217447   4.470   1.861   9.348 -0.1714  1.1440 -0.2279
 3829SOL     OW17448   6.801   5.784   0.134  0.3476  0.4958 -0.2099
 3829SOL    HW117449   6.837   5.780   0.222  0.5813  2.2849 -0.1829
 3829SOL    HW217450   6.708   5.799   0.147  0.0389 -1.1879 -0.2905
 3830SOL     OW17451   8.028   0.125   9.252  0.1798  0.1896 -0.0711
 3830SOL    HW117452   8.009   0.149   9.343  0.6430  3.7377 -0.7819
 3830SOL    HW217453   8.093   0.188   9.223  0.6664 -1.3574 -2.6805
 3831SOL     OW17454   8.157   8.126   8.675 -0.1419 -0.0660 -0.4301
 3831SOL    HW117455   8.229   8.178   8.639 -0.8526  0.2200 -1.4578
 3831SOL    HW217456   8.115   8.085   8.599 -3.3627  2.6982 -0.3822
 3832SOL     OW17457   0.312   5.789   4.220  0.4829 -0.7829 -0.0131
 3832SOL    HW117458   0.386   5.762   4.165  0.3788  1.3670 -1.3045
 3832SOL    HW217459   0.319   5.733   4.297  4.0738 -0.0117  0.4241
 3833SOL     OW17460   8.986   7.435   7.618  0.3407  0.0700 -0.1577
 3833SOL    HW117461   8.928   7.461   7.689 -0.1139  0.1071 -0.5446
 3833SOL    HW217462   9.072   7.467   7.645  0.2962 -0.4563  0.6721
 3834SOL     OW17463   8.808   6.859   7.626 -0.1766  0.2111 -0.4337
 3834SOL    HW117464   8.730   6.804   7.620  0.7299 -1.2986  0.7472
 3834SOL    HW217465   8.791   6.918   7.699  0.4254 -1.3157  1.0088
 3835SOL     OW17466   9.311   2.776   4.040  0.2659  0.3662  0.6086
 3835SOL    HW117467   9.362   2.713   3.989  0.4690  0.9627  0.0490
 3835SOL    HW217468   9.272   2.833   3.974 -2.4897 -1.0423  0.9059
 3836SOL     OW17469   1.091   7.232   6.505 -0.1333 -0.5847 -0.2188
 3836SOL    HW117470   1.124   7.232   6.416  1.2516 -1.0276  0.2765
 3836SOL    HW217471   1.080   7.139   6.527  0.5226 -0.5166  0.4181
 3837SOL     OW17472   8.853   4.137   0.423  0.1438  0.3594  0.4743
 3837SOL    HW117473   8.765   4.147   0.457 -0.5415  2.0556 -1.5806
 3837SOL    HW217474   8.843   4.083   0.345  1.0707 -0.1914  0.7190
 3838SOL     OW17475   7.134   0.883   8.766 -0.1828  0.3518  0.7149
 3838SOL    HW117476   7.152   0.789   8.760 -0.3432  0.2831  1.2536
 3838SOL    HW217477   7.088   0.893   8.849  0.9862  1.0961  1.2864
 3839SOL     OW17478   6.512   6.758   7.851 -0.2082 -0.1536  0.0357
 3839SOL    HW117479   6.432   6.737   7.900 -0.0999 -1.1553 -0.2118
 3839SOL    HW217480   6.485   6.758   7.760  0.5906 -3.1385 -0.2768
 3840SOL     OW17481   4.570   3.083   5.583 -0.2010  0.5824 -0.1054
 3840SOL    HW117482   4.541   3.069   5.493  1.7808  1.0674 -0.8613
 3840SOL    HW217483   4.612   3.169   5.582 -0.8919  0.9790  1.4984
 3841SOL     OW17484   5.412   1.689   9.114 -0.1636 -0.2471 -0.3380
 3841SOL    HW117485   5.346   1.759   9.114 -0.4698 -0.4576  2.0743
 3841SOL    HW217486   5.363   1.610   9.090 -0.3191 -0.0283 -0.7444
 3842SOL     OW17487   3.475   4.775   7.248 -0.4246  0.8020  0.0125
 3842SOL    HW117488   3.441   4.853   7.206  0.2168  0.7494 -0.6244
 3842SOL    HW217489   3.503   4.804   7.335 -1.1639  1.0444  0.1745
 3843SOL     OW17490   6.461   4.425   8.442 -0.5757  0.0627 -0.0757
 3843SOL    HW117491   6.547   4.467   8.439 -0.9470  1.1314  1.9287
 3843SOL    HW217492   6.437   4.428   8.535 -2.7056 -0.3587 -0.5632
 3844SOL     OW17493   4.338   6.347   6.995  0.0307 -0.5987  0.1679
 3844SOL    HW117494   4.307   6.273   7.048  0.1158 -1.6317 -1.1598
 3844SOL    HW217495   4.425   6.321   6.966  0.2630  0.2538  0.0818
 3845SOL     OW17496   2.943   9.332   8.181  0.2891 -0.6138  0.2366
 3845SOL    HW117497   2.918   9.405   8.238  1.2747  0.0702 -0.1706
 3845SOL    HW217498   2.975   9.265   8.241  1.3852  0.1260  0.5146
 3846SOL     OW17499   1.190   8.580   4.118 -0.4847  0.3725  0.2797
 3846SOL    HW117500   1.194   8.519   4.192 -1.3116  0.2687  0.2523
 3846SOL    HW217501   1.254   8.648   4.139  1.6432 -1.3159 -0.4509
 3847SOL     OW17502   7.848   1.495   3.699 -0.1853  0.4295 -0.2053
 3847SOL    HW117503   7.865   1.446   3.780 -0.9608  0.3442 -0.0866
 3847SOL    HW217504   7.856   1.587   3.725 -0.7053  0.4103  0.0388
 3848SOL     OW17505   7.836   4.004   1.809  0.4184  0.0044  0.1120
 3848SOL    HW117506   7.893   3.929   1.797  0.7151  0.2508 -0.0072
 3848SOL    HW217507   7.894   4.080   1.813  0.1471  0.1996  0.5352
 3849SOL     OW17508   7.022   4.834   8.980  0.0789  0.0650  0.2412
 3849SOL    HW117509   7.110   4.819   8.944 -0.5952 -0.4828 -1.2563
 3849SOL    HW217510   6.993   4.748   9.010 -0.4650 -0.0419 -0.5442
 3850SOL     OW17511   0.547   2.884   6.678  0.2434  0.0670 -0.5265
 3850SOL    HW117512   0.465   2.854   6.639  0.7375 -1.0176 -0.7552
 3850SOL    HW217513   0.598   2.805   6.690  0.7537  0.5702  0.8270
 3851SOL     OW17514   8.478   6.749   8.982  0.1169  0.5640 -0.6940
 3851SOL    HW117515   8.452   6.669   8.937  2.4563 -0.1903 -0.8345
 3851SOL    HW217516   8.471   6.728   9.075 -0.6703  0.7061 -0.7157
 3852SOL     OW17517   9.175   2.644   8.445  0.4071  0.0418  0.0690
 3852SOL    HW117518   9.134   2.646   8.359  2.3014  1.0970 -0.8677
 3852SOL    HW217519   9.178   2.551   8.468  0.1949 -0.2838 -1.1636
 3853SOL     OW17520   4.757   8.170   6.839  0.2663  0.0019 -0.1488
 3853SOL    HW117521   4.778   8.101   6.776  2.7115  0.2268  0.2968
 3853SOL    HW217522   4.766   8.128   6.925  1.7925  0.7999  0.1259
 3854SOL     OW17523   9.014   5.474   6.677 -0.2890  0.2379 -0.9220
 3854SOL    HW117524   8.919   5.467   6.686 -0.2675 -0.0961 -0.9366
 3854SOL    HW217525   9.031   5.568   6.675 -0.3356  0.4327  2.2726
 3855SOL     OW17526   1.470   5.851   3.039  0.0346  0.1432 -0.0266
 3855SOL    HW117527   1.425   5.794   2.977  0.3118 -0.8257  0.6486
 3855SOL    HW217528   1.555   5.870   2.999  0.6903 -1.4376  0.5530
 3856SOL     OW17529   6.062   5.517   6.536  0.1236 -0.0305  0.8163
 3856SOL    HW117530   6.064   5.610   6.559 -0.7088 -0.0298  0.9190
 3856SOL    HW217531   6.083   5.515   6.443 -0.9429  0.3690  0.5518
 3857SOL     OW17532   1.643   5.356   2.377  0.0405  0.2845 -0.5708
 3857SOL    HW117533   1.601   5.314   2.302  1.1083 -0.7256 -0.6383
 3857SOL    HW217534   1.718   5.299   2.398 -1.3466 -0.6133  2.5491
 3858SOL     OW17535   7.729   2.695   6.238  0.0823  0.0453 -0.3412
 3858SOL    HW117536   7.789   2.656   6.174 -0.0914 -0.6163 -0.1027
 3858SOL    HW217537   7.697   2.622   6.290  0.7502  0.6435  0.9711
 3859SOL     OW17538   3.911   4.375   5.684 -0.0615  0.0806  0.4815
 3859SOL    HW117539   3.963   4.340   5.612  1.7671 -1.3022  2.3325
 3859SOL    HW217540   3.820   4.371   5.653  0.7086  0.3193 -1.9829
 3860SOL     OW17541   5.816   6.251   2.516  0.4320  0.2461 -0.0812
 3860SOL    HW117542   5.815   6.177   2.455 -1.2034  1.0394 -1.0835
 3860SOL    HW217543   5.902   6.291   2.503  1.6476 -1.8296  1.0030
 3861SOL     OW17544   2.325   1.760   0.946 -0.2411 -0.0403 -0.7368
 3861SOL    HW117545   2.389   1.749   0.876  0.7329  0.1531  0.1121
 3861SOL    HW217546   2.298   1.851   0.940 -1.7480 -0.5312 -2.1775
 3862SOL     OW17547   1.082   7.623   5.652  0.3328  0.0886  0.4234
 3862SOL    HW117548   1.170   7.608   5.617  0.6943  2.2919  0.2251
 3862SOL    HW217549   1.095   7.681   5.727 -1.0056  1.6424 -0.4701
 3863SOL     OW17550   8.686   1.168   7.047 -0.2169 -0.1837 -0.4002
 3863SOL    HW117551   8.661   1.114   7.122 -1.0325 -1.5666 -1.6330
 3863SOL    HW217552   8.780   1.152   7.037  0.0620  0.5918  0.7490
 3864SOL     OW17553   3.538   1.722   0.971 -0.1153 -0.1396 -0.5815
 3864SOL    HW117554   3.614   1.670   0.996 -1.2730 -0.8242  1.7448
 3864SOL    HW217555   3.470   1.658   0.954 -0.8929  0.5293 -0.0604
 3865SOL     OW17556   7.091   4.001   5.754  0.0570  0.3065 -0.3979
 3865SOL    HW117557   7.042   4.082   5.737 -1.9383 -0.5560  0.8209
 3865SOL    HW217558   7.054   3.938   5.693 -0.3478 -0.3461  0.5022
 3866SOL     OW17559   9.080   5.752   1.131 -0.5195  0.3498 -0.6493
 3866SOL    HW117560   9.065   5.694   1.056 -1.9492  0.7991 -0.7489
 3866SOL    HW217561   9.050   5.702   1.207  0.1737  0.1993 -0.4674
 3867SOL     OW17562   4.384   2.245   4.076 -0.4104  0.1721 -0.6375
 3867SOL    HW117563   4.455   2.194   4.113 -0.4472 -0.8356 -1.8907
 3867SOL    HW217564   4.386   2.328   4.124  1.0215 -0.1832 -0.0437
 3868SOL     OW17565   1.542   6.898   3.252  0.4318 -0.0138  0.0810
 3868SOL    HW117566   1.532   6.944   3.168 -0.9848  1.4681  0.9858
 3868SOL    HW217567   1.607   6.950   3.300  1.3535 -0.9450 -0.1124
 3869SOL     OW17568   3.975   4.526   5.099 -0.1517 -0.7970  0.6619
 3869SOL    HW117569   4.060   4.567   5.116 -0.7604  1.4627 -1.0872
 3869SOL    HW217570   3.912   4.587   5.137 -1.1215  0.2601 -2.3481
 3870SOL     OW17571   7.637   5.724   8.329 -0.3133  0.1271 -0.2197
 3870SOL    HW117572   7.614   5.764   8.245  0.5109  0.4555 -0.2958
 3870SOL    HW217573   7.572   5.758   8.391 -2.6948 -2.2723 -1.2203
 3871SOL     OW17574   7.917   2.529   6.078  0.1143 -0.0772  0.4551
 3871SOL    HW117575   7.941   2.469   6.149  0.1111 -0.7605 -0.1093
 3871SOL    HW217576   8.000   2.554   6.038  0.2173  1.2694  1.4418
 3872SOL     OW17577   7.081   2.583   3.860  0.0154  0.0605  0.2188
 3872SOL    HW117578   7.071   2.667   3.816  0.6068  0.7891  1.4529
 3872SOL    HW217579   7.090   2.604   3.953 -1.2004 -1.4453  0.7360
 3873SOL     OW17580   8.214   0.717   8.457  0.3444  0.1729  0.0306
 3873SOL    HW117581   8.290   0.681   8.502 -1.5217 -1.5584  2.0284
 3873SOL    HW217582   8.227   0.812   8.461  3.0309 -0.0609 -0.9926
 3874SOL     OW17583   2.908   6.044   0.154  0.2021  0.2898 -0.2808
 3874SOL    HW117584   2.928   6.097   0.231 -1.8492  0.4859  0.1853
 3874SOL    HW217585   2.940   5.956   0.176  0.8525  0.6382  0.2135
 3875SOL     OW17586   5.961   5.674   3.366  0.5218  0.1403 -0.3760
 3875SOL    HW117587   5.939   5.725   3.288  0.8510  0.0870 -0.5043
 3875SOL    HW217588   5.953   5.583   3.338 -1.2727  0.0791  0.1794
 3876SOL     OW17589   3.200   4.246   0.613  0.3953 -0.0570  0.1460
 3876SOL    HW117590   3.211   4.279   0.702 -0.0754 -3.5428  1.6463
 3876SOL    HW217591   3.275   4.189   0.599  1.0953  1.2835 -2.2487
 3877SOL     OW17592   9.371   7.691   3.575 -0.5088 -0.0684  0.1628
 3877SOL    HW117593   9.279   7.712   3.560 -0.9147 -0.8197  1.4395
 3877SOL    HW217594   9.393   7.737   3.655 -0.4605 -1.7173  1.1467
 3878SOL     OW17595   8.550   7.065   6.242 -0.5164 -0.8242 -0.3727
 3878SOL    HW117596   8.572   7.143   6.190  2.3305 -1.3072 -0.0637
 3878SOL    HW217597   8.554   7.095   6.333  2.2097 -1.5432 -0.1573
 3879SOL     OW17598   3.866   6.494   7.267 -0.1674 -0.0898  0.2441
 3879SOL    HW117599   3.798   6.439   7.228  0.3053 -0.9072  0.5591
 3879SOL    HW217600   3.928   6.511   7.196  0.1063 -0.6383  0.3508
 3880SOL     OW17601   5.554   4.881   1.162 -0.3364 -0.3542  0.1698
 3880SOL    HW117602   5.603   4.908   1.085 -0.6004  0.6071  0.3291
 3880SOL    HW217603   5.621   4.860   1.227 -0.0924  1.4506  0.5606
 3881SOL     OW17604   8.656   6.455   0.243 -0.1932  0.2466 -0.2489
 3881SOL    HW117605   8.682   6.466   0.335  2.1136 -0.3087 -0.7698
 3881SOL    HW217606   8.660   6.361   0.229  1.5742  0.4642 -1.4400
 3882SOL     OW17607   2.486   7.626   6.802 -0.3358 -0.2525  0.3520
 3882SOL    HW117608   2.414   7.563   6.806 -1.0186  0.3518 -1.3546
 3882SOL    HW217609   2.565   7.573   6.810 -0.8982 -1.3738 -1.0453
 3883SOL     OW17610   4.114   1.507   3.706  0.4756 -0.3778 -0.1675
 3883SOL    HW117611   4.199   1.480   3.671  0.7703 -1.7254  1.4523
 3883SOL    HW217612   4.107   1.600   3.683  2.4146 -0.2157 -0.2926
 3884SOL     OW17613   8.550   5.276   5.398  0.2627  0.3819 -0.1503
 3884SOL    HW117614   8.562   5.236   5.484  2.3120  1.7491  0.2733
 3884SOL    HW217615   8.630   5.255   5.350  0.0075  1.2852 -1.0139
 3885SOL     OW17616   1.089   4.529   6.996 -0.2035  0.3083 -0.0001
 3885SOL    HW117617   1.118   4.615   6.965  2.6048 -0.3644  0.4568
 3885SOL    HW217618   1.106   4.470   6.922  2.4631 -0.5720  1.1854
 3886SOL     OW17619   4.949   7.219   2.859  0.3303  0.2461 -0.3122
 3886SOL    HW117620   4.892   7.223   2.782  2.6064  0.0730 -2.1227
 3886SOL    HW217621   4.899   7.169   2.923 -2.0323  1.1951 -1.2858
 3887SOL     OW17622   5.186   6.093   3.286 -0.3787  0.1795 -0.2587
 3887SOL    HW117623   5.226   6.084   3.200  0.1156 -0.6857  0.0480
 3887SOL    HW217624   5.232   6.165   3.328 -1.2069  1.1814 -1.0277
 3888SOL     OW17625   4.716   7.099   3.499 -0.6360 -0.5335  1.0102
 3888SOL    HW117626   4.677   7.144   3.424  0.2988  0.0616  0.8653
 3888SOL    HW217627   4.803   7.072   3.468  0.1226  0.5030  2.1430
 3889SOL     OW17628   1.174   7.844   6.372 -0.6788 -0.1778 -0.2084
 3889SOL    HW117629   1.207   7.797   6.448  2.0284 -0.4083 -1.3908
 3889SOL    HW217630   1.124   7.779   6.323  0.5550 -1.0566 -0.3498
 3890SOL     OW17631   7.352   7.959   4.609 -0.0161 -0.1098 -0.1647
 3890SOL    HW117632   7.299   8.001   4.677 -0.4539  0.6551 -0.9573
 3890SOL    HW217633   7.367   7.870   4.641 -4.3784 -1.4857 -1.2060
 3891SOL     OW17634   6.326   1.069   2.080  0.1322  0.7658  0.2387
 3891SOL    HW117635   6.254   1.008   2.062  0.2048  0.9780 -0.8041
 3891SOL    HW217636   6.383   1.021   2.140  0.9538 -0.7862 -1.6816
 3892SOL     OW17637   5.885   4.203   8.767 -0.4069  1.0071 -0.0643
 3892SOL    HW117638   5.816   4.201   8.833  0.1309  0.8199  0.5059
 3892SOL    HW217639   5.903   4.111   8.748 -0.7723  1.0635 -0.7084
 3893SOL     OW17640   4.955   7.113   1.428  0.2677  0.2854 -0.2627
 3893SOL    HW117641   5.004   7.193   1.412  0.9582 -0.2628 -0.9802
 3893SOL    HW217642   5.010   7.043   1.392  0.3291 -0.6857  1.5899
 3894SOL     OW17643   1.463   1.039   6.968 -0.0132 -0.7362  0.5763
 3894SOL    HW117644   1.471   0.981   6.892  0.4481  1.0524 -0.8170
 3894SOL    HW217645   1.529   1.107   6.954 -2.3889  1.7829  0.5361
 3895SOL     OW17646   3.323   9.271   5.549 -0.1682  0.5787 -0.3210
 3895SOL    HW117647   3.263   9.336   5.585 -1.8218 -1.3225  0.5361
 3895SOL    HW217648   3.315   9.196   5.607  1.6012 -0.4535 -1.3272
 3896SOL     OW17649   0.659   2.174   1.557 -0.8322  0.4795  0.5182
 3896SOL    HW117650   0.609   2.194   1.478 -0.6738  1.6198  0.6973
 3896SOL    HW217651   0.599   2.192   1.630 -0.0551  2.3113  0.7537
 3897SOL     OW17652   5.385   4.012   3.375  0.2416 -0.5611  0.1743
 3897SOL    HW117653   5.473   4.017   3.340  0.0863  2.0689 -0.0460
 3897SOL    HW217654   5.395   4.031   3.468 -0.0205 -1.1958  0.3421
 3898SOL     OW17655   2.321   7.233   5.677 -0.5204  0.3484  0.2126
 3898SOL    HW117656   2.307   7.139   5.679 -0.3876  0.3295  0.2410
 3898SOL    HW217657   2.384   7.250   5.748 -0.2349  0.4058 -0.0522
 3899SOL     OW17658   3.191   6.051   0.804  0.2807  0.8547 -0.3390
 3899SOL    HW117659   3.105   6.011   0.806 -0.1784  1.8413  1.5542
 3899SOL    HW217660   3.252   5.980   0.826 -0.2928  0.6396  0.6032
 3900SOL     OW17661   0.559   0.817   7.163 -0.1551 -0.1156 -0.2878
 3900SOL    HW117662   0.551   0.760   7.239 -2.0776  0.3459 -0.1089
 3900SOL    HW217663   0.475   0.861   7.156  0.8529  1.8186 -1.1392
 3901SOL     OW17664   4.645   1.758   1.230 -0.5554  0.4680 -0.0352
 3901SOL    HW117665   4.718   1.819   1.237 -0.4730  0.3557  0.1089
 3901SOL    HW217666   4.676   1.690   1.170 -0.5467  0.4313  0.0097
 3902SOL     OW17667   7.950   7.135   5.968 -0.5686 -0.0526 -0.2114
 3902SOL    HW117668   7.952   7.205   5.903 -2.8649  0.7280  0.4740
 3902SOL    HW217669   8.014   7.162   6.034  0.7243 -0.1330 -1.3851
 3903SOL     OW17670   4.994   4.315   1.789  0.3599 -0.6098 -0.0269
 3903SOL    HW117671   5.047   4.356   1.720 -0.8529  0.0507 -0.6031
 3903SOL    HW217672   4.977   4.385   1.852 -0.3858 -0.6264 -0.1988
 3904SOL     OW17673   6.181   6.285   6.164 -0.1248  0.1835 -0.1345
 3904SOL    HW117674   6.176   6.193   6.137  0.1546  0.7422 -2.1965
 3904SOL    HW217675   6.257   6.288   6.223  0.7525 -0.6524 -1.1979
 3905SOL     OW17676   0.919   1.889   1.374  0.0793  0.2276  0.5369
 3905SOL    HW117677   0.909   1.865   1.466  0.1199 -0.2665  0.4131
 3905SOL    HW217678   1.010   1.867   1.354 -0.3150 -1.0066 -0.0063
 3906SOL     OW17679   6.664   5.956   5.627  0.1046 -0.3056 -0.0468
 3906SOL    HW117680   6.602   6.027   5.644  2.3442  1.7849 -0.1134
 3906SOL    HW217681   6.691   5.969   5.536  1.1797 -0.7105  0.2009
 3907SOL     OW17682   5.919   4.767   7.116  0.1528 -0.8461 -0.2917
 3907SOL    HW117683   5.969   4.829   7.062  0.7413 -2.1582 -1.3056
 3907SOL    HW217684   5.828   4.787   7.096  0.0992  2.1986  2.2673
 3908SOL     OW17685   6.683   9.143   5.814  0.1722  0.5210  0.2180
 3908SOL    HW117686   6.627   9.104   5.747  1.8939  0.1551 -1.0869
 3908SOL    HW217687   6.772   9.120   5.787  0.9663  0.9515  2.2794
 3909SOL     OW17688   3.515   9.286   7.301 -0.1640  0.4115  0.3744
 3909SOL    HW117689   3.483   9.208   7.347 -1.2079  0.8773  0.4622
 3909SOL    HW217690   3.522   9.259   7.210 -2.2862  0.6968  0.0800
 3910SOL     OW17691   7.034   0.710   5.538 -0.1619  0.2019  0.0410
 3910SOL    HW117692   7.020   0.742   5.628 -1.5550 -0.6424  0.1584
 3910SOL    HW217693   7.114   0.657   5.544  0.0107  0.5221  0.6860
 3911SOL     OW17694   7.690   1.857   8.590  0.0023  0.3642  0.0620
 3911SOL    HW117695   7.634   1.854   8.512  0.7119  0.7988 -0.4721
 3911SOL    HW217696   7.632   1.832   8.662 -1.5334  3.1509 -0.0771
 3912SOL     OW17697   8.423   2.177   8.057 -0.4345  0.2887  0.4162
 3912SOL    HW117698   8.432   2.259   8.008 -0.3834 -0.6981 -1.2899
 3912SOL    HW217699   8.506   2.168   8.104 -0.2689  0.9823  0.2673
 3913SOL     OW17700   7.039   0.130   7.334  0.4005 -0.2033  0.1327
 3913SOL    HW117701   7.036   0.048   7.384 -1.7873 -0.3754 -0.1930
 3913SOL    HW217702   7.122   0.170   7.358  1.2762 -2.2636  0.7112
 3914SOL     OW17703   3.287   3.750   6.380 -0.4873 -0.3493 -0.0174
 3914SOL    HW117704   3.265   3.698   6.303 -0.8924 -0.8882  0.4565
 3914SOL    HW217705   3.383   3.747   6.384 -0.4278  0.0746 -0.7598
 3915SOL     OW17706   0.260   2.522   7.639  0.1013  0.0378  0.0379
 3915SOL    HW117707   0.241   2.524   7.733 -1.1139  0.8075 -0.2091
 3915SOL    HW217708   0.239   2.433   7.612  0.1245 -0.0897  0.4324
 3916SOL     OW17709   6.824   1.448   4.325  0.0096 -0.3394 -0.1959
 3916SOL    HW117710   6.755   1.433   4.260 -0.0838  0.6246 -0.3259
 3916SOL    HW217711   6.819   1.372   4.383  0.2274 -1.3275 -1.4174
 3917SOL     OW17712   1.261   6.464   5.773  0.0120  0.0485 -0.1382
 3917SOL    HW117713   1.334   6.515   5.809 -0.2112  0.6044 -0.4609
 3917SOL    HW217714   1.272   6.377   5.811  0.2726  0.3917  0.6001
 3918SOL     OW17715   4.593   0.963   5.519  0.1979 -0.0611 -0.4047
 3918SOL    HW117716   4.582   0.874   5.554 -0.6751  0.1611 -0.0803
 3918SOL    HW217717   4.507   0.986   5.485  0.4010  0.6878 -0.4315
 3919SOL     OW17718   5.419   0.830   0.288 -0.0649  0.2520 -0.1373
 3919SOL    HW117719   5.467   0.905   0.253  2.7190  0.2467  3.0980
 3919SOL    HW217720   5.425   0.763   0.219  1.1510  1.6179 -1.4377
 3920SOL     OW17721   7.733   7.677   6.656 -0.2465 -0.2390 -0.5924
 3920SOL    HW117722   7.764   7.768   6.655 -1.0791  0.0540 -1.0372
 3920SOL    HW217723   7.656   7.678   6.599 -3.2501 -0.1344  3.0615
 3921SOL     OW17724   6.275   0.584   7.440  0.7417  0.0881 -0.1991
 3921SOL    HW117725   6.317   0.500   7.462  1.0782 -0.1993 -1.8132
 3921SOL    HW217726   6.347   0.640   7.411  0.5508  1.0540  1.0896
 3922SOL     OW17727   7.350   5.320   9.030 -0.4700 -0.1470  0.3616
 3922SOL    HW117728   7.282   5.290   8.969 -0.1421  0.1634 -0.1716
 3922SOL    HW217729   7.347   5.259   9.103 -0.2149 -1.1072 -0.4180
 3923SOL     OW17730   4.343   6.587   3.171 -0.3494  0.2767  0.2347
 3923SOL    HW117731   4.328   6.682   3.171  0.9165  0.5019 -0.2692
 3923SOL    HW217732   4.351   6.564   3.079  0.1146 -0.1878  0.3876
 3924SOL     OW17733   9.094   3.947   0.747 -0.0603  0.1871 -0.7708
 3924SOL    HW117734   9.104   4.025   0.801 -2.1155 -0.1857  0.2519
 3924SOL    HW217735   9.068   3.878   0.809 -1.8732 -0.4060 -2.1326
 3925SOL     OW17736   6.526   8.413   4.637  0.5395  0.3859  0.7735
 3925SOL    HW117737   6.610   8.426   4.681  0.7708  0.4648  0.3106
 3925SOL    HW217738   6.547   8.412   4.544 -0.1664  1.9316  0.5769
 3926SOL     OW17739   3.705   6.567   6.852  0.3265 -0.2542  0.1552
 3926SOL    HW117740   3.642   6.610   6.795 -0.0208 -1.6008 -0.5236
 3926SOL    HW217741   3.666   6.482   6.872  1.2682 -0.5352  0.9318
 3927SOL     OW17742   4.092   6.862   4.863 -0.2148 -0.3363  0.0199
 3927SOL    HW117743   4.107   6.957   4.858  0.5564 -0.4864 -0.7942
 3927SOL    HW217744   4.147   6.833   4.936 -1.1330 -0.0422  0.8451
 3928SOL     OW17745   3.797   4.656   6.010  0.5549 -0.3885  0.0872
 3928SOL    HW117746   3.798   4.645   5.915  0.7554 -2.3943  0.2763
 3928SOL    HW217747   3.704   4.650   6.033  0.6268 -1.4521  0.1439
 3929SOL     OW17748   0.497   7.601   3.971 -0.1027 -0.3883  0.4063
 3929SOL    HW117749   0.458   7.530   3.920 -1.0873  0.9916 -0.8466
 3929SOL    HW217750   0.438   7.613   4.045  0.2599 -1.0902  0.8169
 3930SOL     OW17751   1.298   3.185   6.690  0.6056  0.1489 -0.0690
 3930SOL    HW117752   1.332   3.102   6.722  0.5279 -0.1297 -0.6812
 3930SOL    HW217753   1.263   3.164   6.603  0.9141  0.8929 -0.3796
 3931SOL     OW17754   7.532   5.998   2.608  0.1246 -0.0668 -0.5126
 3931SOL    HW117755   7.535   6.014   2.514 -0.4073  2.5000 -0.1644
 3931SOL    HW217756   7.616   6.029   2.641 -0.6280  1.4089  0.1204
 3932SOL     OW17757   3.641   7.575   7.938 -0.2484 -0.1832 -0.4990
 3932SOL    HW117758   3.681   7.542   7.857 -0.6908 -1.1756 -0.3280
 3932SOL    HW217759   3.628   7.497   7.992 -1.0656  0.3052  0.0356
 3933SOL     OW17760   0.606   2.015   6.298 -0.4239  0.3463  0.1726
 3933SOL    HW117761   0.601   2.034   6.205 -0.5438  0.2736  0.1644
 3933SOL    HW217762   0.585   1.922   6.305  3.9699 -0.9141 -0.2228
 3934SOL     OW17763   3.418   0.115   3.736  1.4040  0.0609  0.3667
 3934SOL    HW117764   3.362   0.155   3.802  0.8008  0.3100 -0.2877
 3934SOL    HW217765   3.485   0.069   3.787  1.7819  1.4119  1.1377
 3935SOL     OW17766   0.086   1.601   6.671 -0.2958 -0.3076 -0.1053
 3935SOL    HW117767   0.126   1.626   6.588  2.1155 -0.7830  0.8273
 3935SOL    HW217768   0.085   1.682   6.723 -0.7908 -0.2461 -0.2072
 3936SOL     OW17769   3.267   2.259   6.309 -0.5022 -0.4006  0.1652
 3936SOL    HW117770   3.225   2.319   6.247  3.0530  0.5043 -1.6055
 3936SOL    HW217771   3.275   2.177   6.261  2.6762  0.4298 -0.9911
 3937SOL     OW17772   2.321   7.434   5.003  0.2971  0.4419  0.2013
 3937SOL    HW117773   2.342   7.505   5.063  1.3108  0.0826  0.2866
 3937SOL    HW217774   2.236   7.401   5.033 -0.1320  1.5256  0.2320
 3938SOL     OW17775   8.912   3.721   3.370  0.7177 -0.5685  0.0392
 3938SOL    HW117776   8.987   3.743   3.315  1.8869 -3.6146  0.2417
 3938SOL    HW217777   8.874   3.643   3.330 -2.2594  0.7166  0.1012
 3939SOL     OW17778   6.539   2.001   3.678  0.3004  0.0999 -0.1599
 3939SOL    HW117779   6.554   1.958   3.761 -0.2564  1.2006  0.5340
 3939SOL    HW217780   6.546   1.931   3.613  0.9334 -0.7369  0.7825
 3940SOL     OW17781   0.293   0.176   8.956  0.3982  0.2536  0.3368
 3940SOL    HW117782   0.280   0.145   8.866  1.3980 -0.0167  0.2643
 3940SOL    HW217783   0.249   0.261   8.959 -1.9433 -0.8828  0.3721
 3941SOL     OW17784   0.103   2.580   5.651 -0.2970 -0.3030 -0.0323
 3941SOL    HW117785   0.190   2.542   5.638  0.1874 -0.1219  2.2953
 3941SOL    HW217786   0.102   2.658   5.595 -0.6325 -2.5652 -3.4509
 3942SOL     OW17787   7.793   0.603   6.277  0.6363 -0.1283  0.6155
 3942SOL    HW117788   7.751   0.567   6.355  2.6510 -1.1757  1.2885
 3942SOL    HW217789   7.722   0.614   6.214 -0.8868 -0.1641  2.2468
 3943SOL     OW17790   2.575   8.123   8.474  0.1841  0.0982 -0.2488
 3943SOL    HW117791   2.578   8.188   8.544  0.0676  0.7222 -0.8151
 3943SOL    HW217792   2.488   8.132   8.436  0.3293 -0.0758 -0.6296
 3944SOL     OW17793   7.191   0.450   6.424 -0.3724  0.2266 -0.5311
 3944SOL    HW117794   7.123   0.450   6.357  0.5949 -1.1795 -1.5478
 3944SOL    HW217795   7.268   0.484   6.380  0.9000 -2.8623 -0.8494
 3945SOL     OW17796   8.849   8.820   3.115  0.0185 -0.6917 -0.0863
 3945SOL    HW117797   8.905   8.789   3.044  0.2857 -0.0934 -0.1421
 3945SOL    HW217798   8.761   8.790   3.091  0.3002 -1.5910 -0.0234
 3946SOL     OW17799   2.283   3.569   5.049 -0.1789 -0.2569 -0.2584
 3946SOL    HW117800   2.216   3.500   5.050  0.5210 -0.9864  1.8095
 3946SOL    HW217801   2.360   3.528   5.010 -0.9060  0.6262 -2.7737
 3947SOL     OW17802   5.651   2.231   8.906  0.0549  0.5205 -0.5735
 3947SOL    HW117803   5.644   2.288   8.982  0.3331 -0.4680  0.2146
 3947SOL    HW217804   5.730   2.260   8.861  0.9489 -0.0818  0.5537
 3948SOL     OW17805   5.456   8.146   6.642  0.1694 -0.4618 -0.7585
 3948SOL    HW117806   5.507   8.194   6.708 -1.0385 -2.6679  1.9857
 3948SOL    HW217807   5.511   8.070   6.621  0.0446 -0.3648 -1.4509
 3949SOL     OW17808   7.291   2.142   5.107 -0.4026  0.7025  0.0471
 3949SOL    HW117809   7.355   2.079   5.075 -2.7876 -0.7887 -2.2380
 3949SOL    HW217810   7.298   2.138   5.202  1.8305 -0.4349 -0.0937
 3950SOL     OW17811   2.141   3.945   7.498 -0.0738 -0.3589  0.0305
 3950SOL    HW117812   2.207   3.926   7.565  0.1298 -1.0315 -0.3602
 3950SOL    HW217813   2.078   4.001   7.543  0.9320  0.5823  0.3151
 3951SOL     OW17814   1.996   6.337   4.938 -0.6298  0.0386 -0.0441
 3951SOL    HW117815   1.931   6.291   4.884 -1.5514 -0.6681  1.5883
 3951SOL    HW217816   2.051   6.268   4.974  0.0773  0.5122 -0.2038
 3952SOL     OW17817   2.396   0.937   0.602  0.5382  0.2609 -0.0080
 3952SOL    HW117818   2.400   0.905   0.511  1.4988  0.8698 -0.1891
 3952SOL    HW217819   2.448   0.874   0.652  2.1117  1.2980 -0.3027
 3953SOL     OW17820   4.849   1.236   0.664  0.2095  0.1384  0.3322
 3953SOL    HW117821   4.861   1.143   0.647  1.3562  0.0955  1.2673
 3953SOL    HW217822   4.913   1.279   0.608  0.7211  0.2702  1.0111
 3954SOL     OW17823   7.393   7.468   6.333  0.3997 -0.1637  0.0834
 3954SOL    HW117824   7.344   7.392   6.362  0.5991 -0.4612 -0.3647
 3954SOL    HW217825   7.333   7.516   6.276  0.8387 -0.8750 -1.0064
 3955SOL     OW17826   4.496   5.100   1.841  0.1655  0.1074  0.0431
 3955SOL    HW117827   4.545   5.046   1.780  1.0764 -0.5682  1.3172
 3955SOL    HW217828   4.405   5.072   1.830  0.4892 -0.9659 -0.0530
 3956SOL     OW17829   6.322   5.646   5.920 -0.1387  0.3488  0.1676
 3956SOL    HW117830   6.412   5.627   5.894  0.1382  0.0687  1.3138
 3956SOL    HW217831   6.274   5.650   5.837  1.2117  2.0906 -0.6082
 3957SOL     OW17832   1.376   4.516   8.575  0.3945 -0.6002 -0.0484
 3957SOL    HW117833   1.469   4.514   8.551  0.4794  1.2233  0.0010
 3957SOL    HW217834   1.367   4.447   8.641  1.8779 -0.3073  0.5017
 3958SOL     OW17835   3.215   9.145   2.981  0.4794  1.0717 -0.1858
 3958SOL    HW117836   3.166   9.157   3.062 -0.1561  1.4181 -0.6078
 3958SOL    HW217837   3.185   9.061   2.947  0.7090  0.9500 -0.0871
 3959SOL     OW17838   3.111   0.596   3.354 -0.2817 -0.4072  0.4480
 3959SOL    HW117839   3.051   0.668   3.368  0.3129  0.3756 -0.8811
 3959SOL    HW217840   3.111   0.548   3.437 -2.5276 -0.3048  0.5518
 3960SOL     OW17841   8.398   8.550   4.920 -0.1245 -0.2559  0.2000
 3960SOL    HW117842   8.438   8.471   4.883 -1.4659  0.8009 -4.1877
 3960SOL    HW217843   8.311   8.521   4.949 -0.4730 -0.5410 -1.0518
 3961SOL     OW17844   5.671   3.434   4.848  0.3921  0.0971  0.1416
 3961SOL    HW117845   5.579   3.455   4.830  0.3616  0.4783  0.7265
 3961SOL    HW217846   5.704   3.509   4.897  0.6727 -0.5903  1.0328
 3962SOL     OW17847   2.958   5.369   8.988  0.5525 -0.0324 -0.3090
 3962SOL    HW117848   2.909   5.381   8.906 -1.1031  1.6976  0.8524
 3962SOL    HW217849   2.898   5.322   9.045  1.2963 -0.3073  0.2577
 3963SOL     OW17850   5.380   4.589   3.470 -0.2057 -0.1969 -0.4558
 3963SOL    HW117851   5.328   4.508   3.469  0.3959 -0.5916 -1.2495
 3963SOL    HW217852   5.459   4.567   3.420  0.9900  0.2270  1.1656
 3964SOL     OW17853   1.654   1.683   8.258  0.1345 -0.4996  0.0564
 3964SOL    HW117854   1.658   1.700   8.164  0.0007 -0.3031  0.0848
 3964SOL    HW217855   1.726   1.735   8.294  1.5184 -2.1649 -0.1535
 3965SOL     OW17856   4.465   1.983   8.127 -0.1674  0.0052  0.0544
 3965SOL    HW117857   4.552   2.017   8.145  0.7732 -0.9842 -2.2171
 3965SOL    HW217858   4.454   1.910   8.188  1.2533 -0.8142 -0.6229
 3966SOL     OW17859   0.639   7.968   9.272  0.1988 -0.4922 -0.2199
 3966SOL    HW117860   0.731   7.995   9.265  0.3275 -1.2912 -2.0670
 3966SOL    HW217861   0.640   7.902   9.342  0.9911 -0.3633 -0.0914
 3967SOL     OW17862   2.738   4.209   6.482  0.2555 -0.1841  0.3531
 3967SOL    HW117863   2.695   4.152   6.546  1.0018  0.1738  1.1922
 3967SOL    HW217864   2.830   4.183   6.485  0.7237  1.4625  1.2029
 3968SOL     OW17865   9.174   7.756   8.328  0.2824  0.0063 -0.0270
 3968SOL    HW117866   9.198   7.785   8.240 -1.6534 -0.9350 -0.9348
 3968SOL    HW217867   9.255   7.721   8.365  0.7656 -1.3794 -2.2046
 3969SOL     OW17868   6.080   1.109   1.282  0.0545 -0.3528  0.0373
 3969SOL    HW117869   6.000   1.117   1.333 -1.5640 -0.6423 -2.3067
 3969SOL    HW217870   6.057   1.052   1.209  1.8970  0.8693 -1.6247
 3970SOL     OW17871   6.259   8.638   5.415 -0.0231  0.5496 -0.1173
 3970SOL    HW117872   6.234   8.549   5.440  0.7667  0.1228 -0.8225
 3970SOL    HW217873   6.225   8.692   5.487  2.6222 -0.6579  2.2562
 3971SOL     OW17874   7.128   5.276   8.819 -0.5446  0.0806 -0.3385
 3971SOL    HW117875   7.144   5.319   8.734  0.3282  0.2217 -0.1072
 3971SOL    HW217876   7.078   5.197   8.796 -2.3392  1.2614 -0.7589
 3972SOL     OW17877   5.271   0.253   0.606 -0.4563  0.3311 -0.2417
 3972SOL    HW117878   5.182   0.286   0.596 -0.1229  0.5201 -3.6405
 3972SOL    HW217879   5.268   0.164   0.573  0.3815 -0.1127  0.8197
 3973SOL     OW17880   8.659   5.889   1.687  0.0408  0.4498 -0.2217
 3973SOL    HW117881   8.668   5.794   1.689  1.5619  0.5696 -0.1651
 3973SOL    HW217882   8.662   5.912   1.594  0.5614  0.4941 -0.2002
 3974SOL     OW17883   7.703   6.027   5.433 -0.5017 -0.1007 -0.0608
 3974SOL    HW117884   7.738   6.113   5.456 -2.0600  0.1740  1.5237
 3974SOL    HW217885   7.765   5.992   5.369  0.5499  1.8919 -0.2110
 3975SOL     OW17886   0.464   5.401   5.476  0.2532 -0.6219  0.5553
 3975SOL    HW117887   0.376   5.419   5.510  0.4154 -0.6362  0.9853
 3975SOL    HW217888   0.458   5.313   5.440  0.3945 -1.0924  1.6433
 3976SOL     OW17889   2.002   4.500   8.644  0.1376 -0.4174 -0.6981
 3976SOL    HW117890   1.958   4.446   8.711  0.5124  0.7008  0.4921
 3976SOL    HW217891   2.002   4.588   8.681  2.6564 -0.2198 -1.0402
 3977SOL     OW17892   7.446   7.504   4.922 -0.0554 -0.7027 -0.8106
 3977SOL    HW117893   7.443   7.409   4.911 -0.5123 -0.8412  0.2821
 3977SOL    HW217894   7.446   7.517   5.017  1.7845  0.3506 -0.9022
 3978SOL     OW17895   3.605   8.109   9.222 -0.1396 -0.0552 -0.0344
 3978SOL    HW117896   3.684   8.083   9.174 -0.0749  1.5196 -0.8569
 3978SOL    HW217897   3.534   8.060   9.181  0.0678  0.4705 -1.0506
 3979SOL     OW17898   6.267   5.807   6.789  0.1580  0.3440 -0.2898
 3979SOL    HW117899   6.298   5.810   6.880 -1.4015  0.1818  0.2706
 3979SOL    HW217900   6.231   5.894   6.773  0.7381  0.4825 -0.8883
 3980SOL     OW17901   7.297   4.520   8.733  0.9747  0.7704 -0.1752
 3980SOL    HW117902   7.290   4.615   8.738 -0.1872  0.7328 -0.8496
 3980SOL    HW217903   7.223   4.493   8.680  2.4097 -0.3464 -1.7190
 3981SOL     OW17904   2.378   7.674   8.331 -0.1772  0.9716  0.4567
 3981SOL    HW117905   2.391   7.710   8.243 -0.4866 -1.1722 -0.5335
 3981SOL    HW217906   2.427   7.733   8.389  3.7695  0.1003 -1.6430
 3982SOL     OW17907   6.112   5.835   8.155  0.1705 -0.9732  0.3551
 3982SOL    HW117908   6.071   5.826   8.241 -0.7524 -1.6839 -0.1564
 3982SOL    HW217909   6.102   5.928   8.134  0.8371 -0.6864  1.2146
 3983SOL     OW17910   3.157   9.361   2.744 -0.0601 -0.1783  0.5791
 3983SOL    HW117911   3.240   9.406   2.731 -0.1960 -0.4303 -1.5564
 3983SOL    HW217912   3.180   9.280   2.789  0.6068  0.5389  1.5481
 3984SOL     OW17913   7.702   0.782   0.093  0.0431 -0.0183  0.3160
 3984SOL    HW117914   7.769   0.783   0.025  1.2534  0.3079  1.4576
 3984SOL    HW217915   7.716   0.699   0.139 -1.1287 -0.4988 -0.1459
 3985SOL     OW17916   8.976   6.937   0.586 -0.2228 -0.6914 -0.3570
 3985SOL    HW117917   8.909   6.918   0.520 -0.6391 -1.8476  0.3646
 3985SOL    HW217918   9.016   6.853   0.604 -0.5396 -0.5133  1.3020
 3986SOL     OW17919   1.176   1.287   9.100 -0.2154  0.1918  0.3113
 3986SOL    HW117920   1.097   1.333   9.129  0.0739  1.2864 -0.5875
 3986SOL    HW217921   1.182   1.306   9.007  0.9330 -0.1482  0.3042
 3987SOL     OW17922   6.115   4.344   7.582 -0.4908 -0.3195  0.1179
 3987SOL    HW117923   6.116   4.407   7.510  2.3020 -0.9036 -0.4586
 3987SOL    HW217924   6.151   4.392   7.656  1.0957 -1.0252 -0.1691
 3988SOL     OW17925   7.185   5.163   3.297  0.0891 -0.3491 -0.1413
 3988SOL    HW117926   7.236   5.211   3.362 -0.8100 -0.8793  0.9867
 3988SOL    HW217927   7.249   5.106   3.254  0.1892 -2.4556  2.5867
 3989SOL     OW17928   7.954   5.743   7.373  0.2374  0.4957 -0.0110
 3989SOL    HW117929   7.917   5.669   7.325  0.7337  0.3819 -0.2341
 3989SOL    HW217930   7.918   5.736   7.461  1.2619 -0.7601  0.3329
 3990SOL     OW17931   5.880   0.856   3.486 -0.3464  0.4973 -0.4880
 3990SOL    HW117932   5.888   0.950   3.502 -2.0112  0.5218  0.4507
 3990SOL    HW217933   5.817   0.826   3.551  1.9837 -1.7609  0.9067
 3991SOL     OW17934   5.493   1.423   8.647 -0.8003 -0.5188  0.8672
 3991SOL    HW117935   5.575   1.375   8.658 -1.6997 -2.3895  0.0191
 3991SOL    HW217936   5.470   1.451   8.735  1.6855  1.8110  0.8954
 3992SOL     OW17937   0.782   4.875   4.904  0.5522 -0.5194 -0.0348
 3992SOL    HW117938   0.692   4.846   4.914  0.3563  0.7509  2.4635
 3992SOL    HW217939   0.832   4.793   4.896 -0.7643 -1.2336 -1.6355
 3993SOL     OW17940   3.165   0.543   2.077 -0.5520 -0.3603  0.0520
 3993SOL    HW117941   3.236   0.563   2.016 -1.3420 -0.5496 -0.9531
 3993SOL    HW217942   3.119   0.626   2.089 -0.2119 -0.2530  0.6480
 3994SOL     OW17943   6.684   0.003   7.561 -0.3001 -0.2009  0.1088
 3994SOL    HW117944   6.649   0.078   7.513 -1.8074 -1.0974 -0.2394
 3994SOL    HW217945   6.741   0.042   7.627  0.7196  1.1337 -1.4753
 3995SOL     OW17946   1.419   5.677   5.072 -1.1764  0.0855  0.0346
 3995SOL    HW117947   1.400   5.622   5.148 -0.2088 -1.8186 -1.0476
 3995SOL    HW217948   1.475   5.747   5.106 -2.7648  0.7076  1.5126
 3996SOL     OW17949   4.381   5.383   4.007  0.7834  0.3309 -0.5304
 3996SOL    HW117950   4.314   5.431   4.055  2.3221  0.0902  2.1077
 3996SOL    HW217951   4.333   5.322   3.951 -1.2056  0.2453  1.1703
 3997SOL     OW17952   5.984   1.265   2.143 -0.6551 -0.2723  0.6233
 3997SOL    HW117953   5.889   1.267   2.152 -0.8483 -1.0845 -0.8498
 3997SOL    HW217954   6.010   1.182   2.182 -0.7824 -0.8752 -0.5180
 3998SOL     OW17955   2.734   7.457   3.099  0.1254 -0.3460  0.3436
 3998SOL    HW117956   2.821   7.483   3.128  0.1675 -1.9503  1.8966
 3998SOL    HW217957   2.681   7.459   3.179 -0.8093 -1.0765 -0.2271
 3999SOL     OW17958   3.113   3.956   0.347 -0.2425 -0.1299  0.6030
 3999SOL    HW117959   3.163   4.024   0.302  0.8081  1.4236  3.8532
 3999SOL    HW217960   3.165   3.876   0.334 -0.2806  0.1019 -1.2959
 4000SOL     OW17961   6.770   0.531   3.903 -0.1030  0.6532  0.0373
 4000SOL    HW117962   6.805   0.552   3.817  0.4613  1.5639  0.4779
 4000SOL    HW217963   6.786   0.610   3.956  2.0699 -0.8223  1.7552
 4001SOL     OW17964   1.228   8.625   8.617 -0.2744  0.1311  0.2826
 4001SOL    HW117965   1.150   8.680   8.620 -0.9401 -0.7625  0.0437
 4001SOL    HW217966   1.238   8.593   8.707 -0.0858  0.3852  0.3504
 4002SOL     OW17967   7.136   6.222   0.560 -0.2160  0.0183 -0.3459
 4002SOL    HW117968   7.116   6.315   0.552 -1.1322 -0.1682 -0.2761
 4002SOL    HW217969   7.097   6.196   0.644  1.2317 -0.1343  0.3258
 4003SOL     OW17970   5.146   6.308   4.623  0.0977 -0.0776  0.0009
 4003SOL    HW117971   5.084   6.251   4.667  0.3257 -0.5440 -0.2831
 4003SOL    HW217972   5.123   6.396   4.654 -1.9609 -0.0010 -1.5820
 4004SOL     OW17973   2.828   4.434   6.996 -0.0583 -0.1709 -0.0276
 4004SOL    HW117974   2.902   4.385   6.961  0.5606 -0.8146  2.1072
 4004SOL    HW217975   2.867   4.497   7.056 -1.0310  1.5196 -1.0684
 4005SOL     OW17976   1.026   9.025   7.977 -0.8021  0.2939 -0.1935
 4005SOL    HW117977   0.948   9.025   8.032 -1.5326  0.7134 -1.1959
 4005SOL    HW217978   1.006   9.087   7.907  0.8420  1.1938  0.0826
 4006SOL     OW17979   2.782   6.048   8.366  0.5292 -0.3427 -0.2367
 4006SOL    HW117980   2.702   6.093   8.339  0.8313  1.9144  2.2182
 4006SOL    HW217981   2.750   5.970   8.412 -0.2193 -0.1534 -0.4086
 4007SOL     OW17982   3.065   8.044   6.130 -0.7243 -0.6318 -0.2309
 4007SOL    HW117983   3.083   8.009   6.217  1.5606  2.3633  0.6794
 4007SOL    HW217984   3.139   8.012   6.077  0.0237  0.6574 -0.0109
 4008SOL     OW17985   6.496   1.114   9.172 -0.1737  0.0831  0.4743
 4008SOL    HW117986   6.417   1.104   9.225 -0.3403 -0.8222  0.0845
 4008SOL    HW217987   6.506   1.029   9.129  0.1514  0.6801 -0.6686
 4009SOL     OW17988   2.782   9.366   4.366  0.5256  0.7246 -0.7651
 4009SOL    HW117989   2.845   9.411   4.310  0.6657 -0.1345 -1.3165
 4009SOL    HW217990   2.836   9.323   4.432  0.3800  1.4975 -0.1342
 4010SOL     OW17991   8.472   5.354   0.340  0.6184 -0.3178 -0.5930
 4010SOL    HW117992   8.567   5.367   0.341  0.7108 -0.9804  0.3080
 4010SOL    HW217993   8.460   5.259   0.348 -0.1148 -0.2680 -1.0120
 4011SOL     OW17994   5.802   3.652   6.906 -0.2866 -0.2768  0.1127
 4011SOL    HW117995   5.756   3.734   6.886  1.1319  0.2946 -1.0595
 4011SOL    HW217996   5.870   3.646   6.838  1.4981 -0.9357  1.8571
 4012SOL     OW17997   0.347   4.155   1.903 -0.2983  0.1054 -1.0431
 4012SOL    HW117998   0.436   4.174   1.933 -0.6050 -0.6245  0.4657
 4012SOL    HW217999   0.358   4.096   1.829  0.4953 -1.2457  0.0935
 4013SOL     OW18000   5.170   2.891   2.835 -0.3168 -0.0889 -0.0653
 4013SOL    HW118001   5.218   2.969   2.861  1.7664 -0.9262 -1.1902
 4013SOL    HW218002   5.099   2.924   2.779  0.1476  1.0199 -0.0155
 4014SOL     OW18003   8.170   4.720   6.787  0.2426  0.1132 -0.0823
 4014SOL    HW118004   8.133   4.759   6.866  0.4373 -0.1080  0.1204
 4014SOL    HW218005   8.138   4.630   6.786  0.1471  0.1465 -0.3189
 4015SOL     OW18006   7.661   5.797   3.868  0.1761  0.5488 -0.2631
 4015SOL    HW118007   7.675   5.889   3.889 -1.9182  0.7997  0.2808
 4015SOL    HW218008   7.669   5.752   3.952 -1.7166  0.6628  0.0072
 4016SOL     OW18009   2.168   8.992   5.519  0.2267 -0.1592  0.2233
 4016SOL    HW118010   2.246   8.953   5.480 -0.3408 -1.0660 -0.0370
 4016SOL    HW218011   2.201   9.047   5.590  1.0618 -1.0006  0.5091
 4017SOL     OW18012   3.380   0.334   7.052 -0.1467  0.2513 -0.3660
 4017SOL    HW118013   3.310   0.363   6.994 -0.3342 -0.9899 -0.7808
 4017SOL    HW218014   3.455   0.388   7.029 -1.2675  2.5247  0.9703
 4018SOL     OW18015   0.661   1.005   3.263 -0.6400  0.0873 -0.0648
 4018SOL    HW118016   0.629   0.965   3.344 -1.0955 -0.6353 -0.5890
 4018SOL    HW218017   0.582   1.036   3.219 -0.2984  1.5010  0.2801
 4019SOL     OW18018   6.878   6.852   3.575  0.1775 -0.0975  0.2486
 4019SOL    HW118019   6.915   6.813   3.495 -2.7485 -0.5548 -1.0284
 4019SOL    HW218020   6.784   6.840   3.565 -0.2827 -2.0544  4.7698
 4020SOL     OW18021   4.903   3.760   8.451 -0.5072  0.1149 -0.4696
 4020SOL    HW118022   4.903   3.853   8.474  0.8688  0.4164 -1.5402
 4020SOL    HW218023   4.987   3.728   8.485 -1.1953 -0.8668  0.3397
 4021SOL     OW18024   1.078   0.853   8.883 -0.3479 -0.0270  0.0552
 4021SOL    HW118025   1.010   0.920   8.884  0.6561  1.0281 -0.8296
 4021SOL    HW218026   1.043   0.783   8.938 -1.5070  1.1225  0.8245
 4022SOL     OW18027   8.738   1.255   5.698 -0.4949  0.3858 -0.3359
 4022SOL    HW118028   8.811   1.201   5.671 -1.4646 -0.9869 -0.3017
 4022SOL    HW218029   8.769   1.300   5.777 -0.6864 -2.6069  1.5862
 4023SOL     OW18030   5.342   5.403   8.739  0.2318  0.6421 -0.0966
 4023SOL    HW118031   5.431   5.434   8.722  0.9149  0.0219  2.0449
 4023SOL    HW218032   5.319   5.440   8.824 -2.2662  2.1466 -1.3020
 4024SOL     OW18033   0.472   1.442   4.972  0.3279 -0.1191 -0.3162
 4024SOL    HW118034   0.537   1.396   4.919  0.7280 -0.2605  0.2889
 4024SOL    HW218035   0.388   1.411   4.940  0.5648 -0.1452 -0.9187
 4025SOL     OW18036   0.015   8.243   2.813  0.7228  0.0171 -0.0260
 4025SOL    HW118037   0.042   8.237   2.905 -0.9114 -0.4178  0.4574
 4025SOL    HW218038   0.081   8.298   2.772  1.2878  0.5202  1.4936
 4026SOL     OW18039   0.678   4.034   5.068  0.4869 -0.5053 -0.0788
 4026SOL    HW118040   0.651   4.125   5.050 -0.3333 -0.7240 -0.0010
 4026SOL    HW218041   0.643   3.984   4.994  1.9396 -0.6000 -0.7284
 4027SOL     OW18042   1.462   6.540   0.418 -0.2929  0.1042 -0.1134
 4027SOL    HW118043   1.391   6.482   0.445  0.1223 -0.3611 -0.0196
 4027SOL    HW218044   1.504   6.495   0.345 -0.2620  0.5077 -0.3486
 4028SOL     OW18045   9.077   2.687   4.227 -0.3132  0.5049  0.7778
 4028SOL    HW118046   9.114   2.615   4.279 -1.0190 -1.8274 -1.7315
 4028SOL    HW218047   9.153   2.727   4.185 -0.0982 -0.7928 -0.1476
 4029SOL     OW18048   8.070   2.229   7.317 -0.1832 -0.3353  0.1265
 4029SOL    HW118049   8.062   2.212   7.224 -1.2188  0.0911  0.1225
 4029SOL    HW218050   8.144   2.289   7.325  0.3262 -0.8930 -0.3428
 4030SOL     OW18051   9.021   5.839   0.131  0.2412 -0.6557 -0.0547
 4030SOL    HW118052   8.970   5.804   0.057  0.6815 -1.4192 -0.0123
 4030SOL    HW218053   9.059   5.761   0.172  1.7676 -0.0768 -0.3302
 4031SOL     OW18054   8.483   4.664   8.318  0.3201 -0.0931 -0.4249
 4031SOL    HW118055   8.426   4.588   8.326 -0.0743  0.0858 -1.3897
 4031SOL    HW218056   8.497   4.674   8.224  2.1052 -0.2542 -0.2235
 4032SOL     OW18057   9.009   3.168   0.384 -0.4607 -0.1601 -0.0846
 4032SOL    HW118058   9.104   3.180   0.396 -0.1498 -0.4926 -1.9310
 4032SOL    HW218059   8.993   3.078   0.412 -0.2673 -0.0489  0.3919
 4033SOL     OW18060   7.486   3.670   2.702 -0.6001 -0.1170 -0.1274
 4033SOL    HW118061   7.521   3.697   2.787  0.7808  0.8569 -0.9579
 4033SOL    HW218062   7.391   3.675   2.712 -0.4417  0.8489  1.1047
 4034SOL     OW18063   8.184   1.654   6.819  0.1403  0.0150 -0.0040
 4034SOL    HW118064   8.158   1.632   6.908 -1.6446  1.4253 -0.1266
 4034SOL    HW218065   8.111   1.625   6.764  1.7555 -2.0478 -1.2476
 4035SOL     OW18066   6.280   2.534   7.978  0.1387  1.0534 -0.4937
 4035SOL    HW118067   6.350   2.549   8.041 -2.1823  2.1247  2.0532
 4035SOL    HW218068   6.263   2.440   7.983  0.0640  1.1056  0.4188
 4036SOL     OW18069   4.002   5.714   5.337  0.0756  0.4407  0.4279
 4036SOL    HW118070   4.030   5.771   5.409  0.7484  1.5642 -0.6820
 4036SOL    HW218071   3.961   5.773   5.274  0.8578 -0.2694 -0.7918
 4037SOL     OW18072   7.848   1.409   6.354  0.0689 -0.2213  0.2742
 4037SOL    HW118073   7.817   1.322   6.327 -0.0138  0.3075 -1.4459
 4037SOL    HW218074   7.944   1.403   6.348  0.0163  0.3227 -1.6877
 4038SOL     OW18075   4.769   7.904   7.734  0.0639  0.1353 -0.0713
 4038SOL    HW118076   4.830   7.873   7.800 -1.4056 -0.4392  1.0635
 4038SOL    HW218077   4.683   7.876   7.765 -0.6329 -0.6600 -2.5189
 4039SOL     OW18078   8.967   7.010   1.233 -0.8549 -0.0758 -0.2551
 4039SOL    HW118079   9.053   6.970   1.219 -0.5661 -0.0050  1.2255
 4039SOL    HW218080   8.977   7.100   1.202 -0.1467  0.1638  0.6326
 4040SOL     OW18081   2.824   8.267   7.472  0.2348 -0.7606  0.3338
 4040SOL    HW118082   2.872   8.184   7.466  2.6628  0.6146 -0.7033
 4040SOL    HW218083   2.815   8.296   7.381  0.0080  0.4179  0.7216
 4041SOL     OW18084   4.442   6.911   7.471  0.2660  0.0023  0.5905
 4041SOL    HW118085   4.417   6.945   7.556  0.8439  2.3739 -0.1153
 4041SOL    HW218086   4.536   6.894   7.478  0.1313 -0.7334  0.6961
 4042SOL     OW18087   6.276   3.184   1.647  0.2649  0.4854 -0.0789
 4042SOL    HW118088   6.320   3.208   1.728 -0.2311 -1.0159  0.6823
 4042SOL    HW218089   6.272   3.265   1.596  1.2309  1.2916  1.0802
 4043SOL     OW18090   3.705   8.148   0.225  0.2227 -0.4245  0.0574
 4043SOL    HW118091   3.695   8.238   0.256 -1.0522 -0.8090  0.8609
 4043SOL    HW218092   3.637   8.137   0.158  1.2296 -0.4049 -0.9853
 4044SOL     OW18093   7.185   5.773   4.444  0.2823 -0.4671 -0.3285
 4044SOL    HW118094   7.229   5.837   4.500  0.0109 -0.9173  0.4033
 4044SOL    HW218095   7.255   5.716   4.413  0.2637 -1.0019  0.5923
 4045SOL     OW18096   1.301   2.274   7.052  0.7800  0.1782 -0.5012
 4045SOL    HW118097   1.247   2.353   7.057  1.6405  0.7252  0.8158
 4045SOL    HW218098   1.244   2.207   7.015  0.1896  1.5447 -2.1904
 4046SOL     OW18099   4.588   1.248   0.239 -0.0872  0.1892  0.5630
 4046SOL    HW118100   4.620   1.158   0.230 -2.8874 -0.8122 -0.2632
 4046SOL    HW218101   4.623   1.276   0.324  0.9715 -1.6208  0.7954
 4047SOL     OW18102   4.185   7.744   2.069 -0.0890  0.1141  0.2507
 4047SOL    HW118103   4.111   7.688   2.046 -0.6078  1.6998 -2.3719
 4047SOL    HW218104   4.255   7.718   2.009  0.1469  1.2666  0.0006
 4048SOL     OW18105   1.912   5.720   8.582  0.4093  0.7461  0.1878
 4048SOL    HW118106   1.827   5.708   8.540  1.0487 -3.9132 -0.3519
 4048SOL    HW218107   1.894   5.711   8.675  0.3480 -2.3338 -0.0129
 4049SOL     OW18108   4.906   0.770   5.421  0.4612 -0.0447  0.1335
 4049SOL    HW118109   4.985   0.815   5.390  1.5767 -0.0122  2.8082
 4049SOL    HW218110   4.910   0.777   5.516 -1.6542 -1.9919  0.4417
 4050SOL     OW18111   9.176   1.642   0.369  0.6566 -0.3667  1.0795
 4050SOL    HW118112   9.168   1.547   0.362  1.6721 -0.4464  0.7971
 4050SOL    HW218113   9.262   1.656   0.408 -0.5295  0.3791  3.6117
 4051SOL     OW18114   0.574   2.662   6.409 -0.5298 -0.3323  0.1575
 4051SOL    HW118115   0.633   2.603   6.456 -0.3041 -0.0218  0.2648
 4051SOL    HW218116   0.621   2.745   6.405  0.2698 -0.8076 -2.1869
 4052SOL     OW18117   6.644   1.951   8.498 -0.2363  0.1289 -0.0396
 4052SOL    HW118118   6.687   1.958   8.413  0.3243 -3.2016 -0.1611
 4052SOL    HW218119   6.704   1.993   8.559  0.9579 -0.3587 -0.8496
 4053SOL     OW18120   5.527   8.726   7.568  0.2731  0.1110 -0.4844
 4053SOL    HW118121   5.539   8.816   7.540  2.9352 -0.3334 -1.0207
 4053SOL    HW218122   5.533   8.675   7.487 -1.1952 -0.5934 -0.1924
 4054SOL     OW18123   4.472   6.992   7.214  1.1742 -0.4675 -0.1243
 4054SOL    HW118124   4.428   6.957   7.292  1.0491  0.7970  0.3976
 4054SOL    HW218125   4.504   7.078   7.241 -1.1231  1.1876 -2.1560
 4055SOL     OW18126   7.232   3.883   2.684 -0.5430 -0.1683  0.3257
 4055SOL    HW118127   7.272   3.960   2.642 -1.0207 -0.3843 -0.5458
 4055SOL    HW218128   7.206   3.915   2.771  1.0190  0.1155  0.7132
 4056SOL     OW18129   6.623   2.481   5.936  0.3074 -0.3617  0.0315
 4056SOL    HW118130   6.579   2.406   5.975  1.9830 -1.5742 -0.2992
 4056SOL    HW218131   6.669   2.446   5.861 -0.9919  1.5131 -1.7662
 4057SOL     OW18132   2.671   6.245   5.775 -0.2740 -0.4312 -0.6912
 4057SOL    HW118133   2.765   6.255   5.781 -0.1246 -1.2045 -1.4268
 4057SOL    HW218134   2.636   6.289   5.852  0.7988 -1.6026  0.5188
 4058SOL     OW18135   7.716   2.585   2.596  0.3303 -0.1338  0.5081
 4058SOL    HW118136   7.702   2.598   2.690 -2.1383  1.2641  0.0425
 4058SOL    HW218137   7.635   2.618   2.555  1.8093  0.4572 -2.1883
 4059SOL     OW18138   6.002   4.458   0.399  0.4428 -0.0135 -0.0073
 4059SOL    HW118139   5.992   4.510   0.320  0.6806 -1.3848 -0.9818
 4059SOL    HW218140   5.922   4.406   0.404 -0.0123  0.7735  1.2183
 4060SOL     OW18141   8.758   3.370   4.680 -0.1478 -1.1519 -0.8005
 4060SOL    HW118142   8.783   3.459   4.707 -1.2918 -1.2452  0.6891
 4060SOL    HW218143   8.750   3.375   4.585  0.7015  0.0984 -0.8341
 4061SOL     OW18144   5.768   2.545   5.422 -0.3761 -0.4645 -0.1490
 4061SOL    HW118145   5.864   2.541   5.416 -0.3646 -0.2868 -0.0744
 4061SOL    HW218146   5.740   2.453   5.422 -0.1309 -0.5559  1.1512
 4062SOL     OW18147   4.481   6.831   6.054  0.4885  0.2757 -0.4118
 4062SOL    HW118148   4.500   6.905   6.112 -2.6453  2.0129 -1.3828
 4062SOL    HW218149   4.506   6.754   6.105  1.8162  1.8722  1.5136
 4063SOL     OW18150   0.541   7.042   1.867  0.0775 -0.5841 -0.2948
 4063SOL    HW118151   0.596   6.997   1.802  0.7993 -0.5175  0.2550
 4063SOL    HW218152   0.469   7.078   1.816  0.4539 -0.8154 -1.0129
 4064SOL     OW18153   6.551   5.395   4.866 -0.4192  0.0314  0.0899
 4064SOL    HW118154   6.525   5.487   4.872 -1.1392 -0.1730  0.1656
 4064SOL    HW218155   6.512   5.364   4.785  1.4234  0.2791 -0.9662
 4065SOL     OW18156   8.416   8.994   1.954 -0.0948 -0.3240  0.2806
 4065SOL    HW118157   8.372   8.990   1.869 -0.8171  0.2863  0.6074
 4065SOL    HW218158   8.439   9.086   1.965  1.1235 -0.6028  0.2036
 4066SOL     OW18159   6.683   6.773   5.440 -0.1078 -0.6831  0.0016
 4066SOL    HW118160   6.623   6.809   5.374  0.1038 -1.6325 -0.7211
 4066SOL    HW218161   6.650   6.685   5.457 -0.2026 -0.4396  1.2451
 4067SOL     OW18162   3.203   4.316   3.012  0.2180 -0.2225 -0.2103
 4067SOL    HW118163   3.172   4.397   2.973  0.1242 -1.2110 -2.3309
 4067SOL    HW218164   3.277   4.290   2.958 -0.1488 -1.8825  0.0161
 4068SOL     OW18165   7.658   9.329   0.369 -0.4611  0.1968  0.1538
 4068SOL    HW118166   7.703   9.337   0.285 -0.0591 -1.5907  0.1571
 4068SOL    HW218167   7.587   9.267   0.352 -0.3914 -0.1584  1.1198
 4069SOL     OW18168   3.017   7.766   0.129 -0.3929  0.1745  0.0703
 4069SOL    HW118169   2.939   7.808   0.092 -0.1686  0.1792 -0.3992
 4069SOL    HW218170   3.011   7.784   0.223 -0.9088  0.2560  0.0283
 4070SOL     OW18171   2.776   4.759   8.884 -0.3805 -0.2096 -0.6505
 4070SOL    HW118172   2.823   4.770   8.967 -0.6518 -1.9484 -0.2447
 4070SOL    HW218173   2.762   4.849   8.853 -2.3565  0.6240  2.3189
 4071SOL     OW18174   0.853   6.458   0.808 -0.3212 -0.0958  0.1010
 4071SOL    HW118175   0.940   6.469   0.847 -0.4577  0.2146  0.3318
 4071SOL    HW218176   0.818   6.547   0.804  0.2660  0.0871 -2.1342
 4072SOL     OW18177   9.037   3.783   8.965 -0.5962  0.0917 -0.8504
 4072SOL    HW118178   8.970   3.812   9.027  0.5242  0.5758  0.1710
 4072SOL    HW218179   9.107   3.848   8.973  0.8435 -1.4499 -0.4261
 4073SOL     OW18180   8.544   1.204   6.795  0.3427  0.3244 -0.3931
 4073SOL    HW118181   8.587   1.192   6.879  0.3619  2.5669 -0.0261
 4073SOL    HW218182   8.453   1.225   6.817 -0.1077 -0.8532 -1.0279
 4074SOL     OW18183   3.867   1.350   6.026  0.4382 -0.2182  0.3047
 4074SOL    HW118184   3.868   1.385   5.937  0.9724  0.0156  0.3943
 4074SOL    HW218185   3.803   1.404   6.073  1.4586  0.8502  0.5120
 4075SOL     OW18186   4.239   1.584   0.234  0.2806  0.3732 -0.1326
 4075SOL    HW118187   4.291   1.504   0.249 -0.1245 -0.0146 -0.7641
 4075SOL    HW218188   4.158   1.553   0.194 -0.2349  1.0273  0.3835
 4076SOL     OW18189   6.385   6.898   1.841 -0.1867  0.0106  0.0245
 4076SOL    HW118190   6.368   6.847   1.920  1.1342  0.6903  0.7924
 4076SOL    HW218191   6.455   6.851   1.796  0.8187  0.9161  0.5755
 4077SOL     OW18192   1.215   3.603   8.419 -0.2762 -0.2417  0.4810
 4077SOL    HW118193   1.199   3.622   8.512  0.8014  2.2976  0.2518
 4077SOL    HW218194   1.153   3.660   8.373 -0.6033 -1.2727 -0.3835
 4078SOL     OW18195   9.086   2.181   6.324 -0.2619  0.2605  0.2323
 4078SOL    HW118196   9.124   2.123   6.259 -2.3845  0.5411 -1.3755
 4078SOL    HW218197   9.057   2.258   6.274  1.6025  2.3738  2.1396
 4079SOL     OW18198   3.370   4.276   4.266 -0.7570 -0.2864  0.0291
 4079SOL    HW118199   3.375   4.363   4.227  0.1944 -0.5428 -0.4618
 4079SOL    HW218200   3.278   4.251   4.259 -0.8894  0.3550 -0.5521
 4080SOL     OW18201   0.239   3.555   5.924  0.1295 -0.3003  0.6377
 4080SOL    HW118202   0.309   3.620   5.920  1.8124 -1.9474  1.4688
 4080SOL    HW218203   0.162   3.604   5.952  1.1432  1.4431  0.5258
 4081SOL     OW18204   3.829   3.277   8.685 -0.0739 -0.2030  0.0232
 4081SOL    HW118205   3.799   3.263   8.595 -0.4999  1.0212 -0.0362
 4081SOL    HW218206   3.756   3.320   8.728  1.2166  2.0442  0.1114
 4082SOL     OW18207   1.477   2.106   6.208 -0.2265 -0.4786 -0.1455
 4082SOL    HW118208   1.563   2.089   6.169 -0.7348  0.5178 -1.8435
 4082SOL    HW218209   1.433   2.021   6.208  1.1219 -1.2552  1.8637
 4083SOL     OW18210   2.191   0.805   7.887 -0.2009 -0.3343  0.4332
 4083SOL    HW118211   2.211   0.864   7.960 -1.2410  0.0992  0.3763
 4083SOL    HW218212   2.096   0.795   7.889 -0.1019 -1.5053  0.0376
 4084SOL     OW18213   6.946   4.470   7.909 -0.6823 -0.0551  0.1716
 4084SOL    HW118214   6.929   4.499   7.998 -0.7249  1.6638 -0.3542
 4084SOL    HW218215   6.995   4.542   7.869  3.2494 -2.5185  0.0195
 4085SOL     OW18216   3.895   5.549   8.810  0.3285 -0.5112  0.4589
 4085SOL    HW118217   3.986   5.575   8.821  0.5466 -0.6670 -0.7534
 4085SOL    HW218218   3.844   5.615   8.856  1.0328 -0.0253  0.5412
 4086SOL     OW18219   3.052   4.682   7.390 -0.1287 -0.1395  0.1243
 4086SOL    HW118220   3.093   4.768   7.393  0.5396 -0.3378 -1.7852
 4086SOL    HW218221   3.082   4.638   7.469  2.0950  0.2896 -0.4217
 4087SOL     OW18222   4.054   8.444   8.392  0.0969  0.3683 -0.5514
 4087SOL    HW118223   4.112   8.501   8.442  1.5899 -1.4737 -0.0784
 4087SOL    HW218224   3.986   8.418   8.454  0.8669 -0.3734  0.0179
 4088SOL     OW18225   5.907   7.980   2.349 -0.3706  0.7089  0.1182
 4088SOL    HW118226   5.939   8.067   2.325 -0.2581  0.8803  0.8650
 4088SOL    HW218227   5.983   7.936   2.387 -1.2573  1.5770  3.1300
 4089SOL     OW18228   0.096   4.218   0.406 -0.4202 -0.2661  0.3528
 4089SOL    HW118229   0.072   4.133   0.442 -1.4298 -0.1149  0.0693
 4089SOL    HW218230   0.059   4.282   0.467  0.2833 -0.0200  0.5361
 4090SOL     OW18231   0.819   3.523   2.005 -0.7002  0.0495 -0.2559
 4090SOL    HW118232   0.882   3.573   2.058 -1.3648  0.3549  0.2583
 4090SOL    HW218233   0.734   3.558   2.030 -1.1954 -1.4622  0.2430
 4091SOL     OW18234   2.159   9.319   7.517 -0.3545 -0.9564 -0.1400
 4091SOL    HW118235   2.119   9.366   7.444 -0.3380 -3.0158 -1.5624
 4091SOL    HW218236   2.127   9.363   7.595  0.3195  1.9013 -1.3507
 4092SOL     OW18237   9.126   3.522   1.277 -0.3434  0.4519  0.6196
 4092SOL    HW118238   9.169   3.600   1.312 -0.5512  1.3732 -1.0849
 4092SOL    HW218239   9.071   3.555   1.205 -0.3850 -1.2714 -0.1845
 4093SOL     OW18240   2.494   7.351   3.298 -0.7654  0.4636 -0.0746
 4093SOL    HW118241   2.509   7.260   3.272  0.4821  0.6979 -0.2225
 4093SOL    HW218242   2.432   7.345   3.371  0.6101 -0.6490  1.0563
 4094SOL     OW18243   4.254   7.422   3.953  0.3906 -0.4415  0.2908
 4094SOL    HW118244   4.332   7.412   3.899  1.0822  1.3185  0.8898
 4094SOL    HW218245   4.205   7.492   3.912  0.6719  0.5656  1.6134
 4095SOL     OW18246   6.278   5.963   1.191  0.3130  0.0526  0.0767
 4095SOL    HW118247   6.211   6.005   1.136 -0.2777  1.4492  1.7819
 4095SOL    HW218248   6.354   5.956   1.133 -1.4850 -2.5098 -2.2588
 4096SOL     OW18249   1.602   3.829   2.651 -0.5151  0.6372 -0.5507
 4096SOL    HW118250   1.642   3.761   2.597 -1.2004 -0.0276 -0.2441
 4096SOL    HW218251   1.513   3.797   2.666 -0.5673  1.1895  0.3231
 4097SOL     OW18252   9.221   0.803   6.870 -0.1014  0.1461 -0.2937
 4097SOL    HW118253   9.306   0.801   6.914  0.5230  1.6045 -1.3723
 4097SOL    HW218254   9.176   0.880   6.906  0.9645  2.2043 -3.0309
 4098SOL     OW18255   2.021   1.537   4.786 -0.2337  0.3058 -0.0784
 4098SOL    HW118256   2.088   1.493   4.734  0.1110 -1.7846  1.9749
 4098SOL    HW218257   2.071   1.587   4.851 -0.6362  0.0100  0.4666
 4099SOL     OW18258   0.154   5.487   1.745  0.1466  0.1425  0.1335
 4099SOL    HW118259   0.238   5.443   1.730 -0.6320 -1.4594  0.1820
 4099SOL    HW218260   0.119   5.501   1.657  0.1794  0.2052  0.1308
 4100SOL     OW18261   8.695   8.762   7.244 -0.0768 -0.8050  1.0849
 4100SOL    HW118262   8.760   8.832   7.245  0.6121 -1.3848 -0.0710
 4100SOL    HW218263   8.627   8.790   7.306  0.7287  0.3354  1.4811
 4101SOL     OW18264   3.946   4.428   1.139  0.2007  0.0359  0.1695
 4101SOL    HW118265   4.023   4.444   1.195  0.1272 -1.9812  0.9355
 4101SOL    HW218266   3.982   4.423   1.050  1.1950 -2.0232  0.6350
 4102SOL     OW18267   0.137   7.918   0.149 -0.5460  0.2032 -0.0102
 4102SOL    HW118268   0.114   7.999   0.103  0.0375  0.5495  0.2853
 4102SOL    HW218269   0.082   7.851   0.110 -0.6838  0.6575 -0.6032
 4103SOL     OW18270   5.471   7.975   8.678 -0.2167  0.9650  0.5193
 4103SOL    HW118271   5.546   7.965   8.620  0.2083  2.8763  0.6856
 4103SOL    HW218272   5.497   7.930   8.758  1.5244  3.0600  1.2187
 4104SOL     OW18273   7.766   7.899   7.860  0.2435 -0.2008 -0.1213
 4104SOL    HW118274   7.845   7.852   7.887  0.8588  0.6108 -0.4559
 4104SOL    HW218275   7.730   7.845   7.789  1.2392  0.0673 -0.8686
 4105SOL     OW18276   1.273   9.068   1.135  0.3484 -0.0326  0.8376
 4105SOL    HW118277   1.285   9.053   1.229 -1.4693 -0.4911  1.0299
 4105SOL    HW218278   1.313   8.992   1.093  1.4546  0.3260  1.1974
 4106SOL     OW18279   7.334   0.793   5.191  0.3076 -0.1584 -0.0555
 4106SOL    HW118280   7.368   0.861   5.249  1.5305 -1.3405  0.6700
 4106SOL    HW218281   7.396   0.720   5.200 -0.7001 -1.2054 -1.1638
 4107SOL     OW18282   6.347   8.864   1.923 -0.0112  0.1760  0.0668
 4107SOL    HW118283   6.327   8.877   1.830  0.9015  2.7367  0.1518
 4107SOL    HW218284   6.277   8.910   1.969  0.0650 -0.2621  0.6272
 4108SOL     OW18285   7.480   7.332   7.745 -0.1142  0.4160 -0.0777
 4108SOL    HW118286   7.534   7.299   7.816  1.0359 -2.0173 -1.9443
 4108SOL    HW218287   7.390   7.322   7.777  0.3814 -0.0614  1.2323
 4109SOL     OW18288   1.505   7.407   4.291  0.0051  0.1144  0.2690
 4109SOL    HW118289   1.463   7.434   4.372 -0.8883  0.4046 -0.2775
 4109SOL    HW218290   1.482   7.475   4.228 -0.1853 -0.6296 -0.4850
 4110SOL     OW18291   8.912   6.528   3.639  0.0542  0.3316 -0.6828
 4110SOL    HW118292   8.973   6.600   3.624  1.6985 -1.1798 -1.8179
 4110SOL    HW218293   8.934   6.464   3.571 -1.2539 -1.2888  0.3303
 4111SOL     OW18294   7.144   8.091   7.435  0.0686 -0.1283 -0.0161
 4111SOL    HW118295   7.127   7.999   7.458 -1.0708  0.1793  0.4179
 4111SOL    HW218296   7.079   8.141   7.484  0.6441  0.9192 -0.2914
 4112SOL     OW18297   8.557   8.468   8.027  0.5941 -0.3889  0.4469
 4112SOL    HW118298   8.490   8.527   8.062  0.6601 -0.1945  0.2490
 4112SOL    HW218299   8.586   8.510   7.946 -1.7117 -2.2929 -1.5084
 4113SOL     OW18300   5.307   6.667   4.700  0.2223 -0.0503 -0.4409
 4113SOL    HW118301   5.295   6.629   4.613 -0.1228  0.4073 -0.5990
 4113SOL    HW218302   5.245   6.619   4.755  1.0504 -0.9338 -0.2560
 4114SOL     OW18303   3.474   6.309   1.805 -0.1281  0.7718 -0.1564
 4114SOL    HW118304   3.497   6.400   1.822 -0.7835  0.6441  1.5581
 4114SOL    HW218305   3.440   6.276   1.888  1.1824 -1.3977 -0.4096
 4115SOL     OW18306   7.631   2.696   6.743 -0.0135 -0.2234 -0.1491
 4115SOL    HW118307   7.655   2.640   6.817 -0.5349  2.0610  1.8812
 4115SOL    HW218308   7.704   2.758   6.735 -0.3048  0.0234 -1.1016
 4116SOL     OW18309   3.868   8.535   7.518  0.6212  0.2480 -0.2356
 4116SOL    HW118310   3.831   8.447   7.516 -0.7332  0.6617  2.3787
 4116SOL    HW218311   3.803   8.590   7.474  0.4671  0.2633  0.0139
 4117SOL     OW18312   4.779   4.699   0.403 -0.7889 -0.7319  0.2519
 4117SOL    HW118313   4.785   4.766   0.471 -2.1324 -1.1474  0.8096
 4117SOL    HW218314   4.857   4.646   0.415  1.6521  2.0956 -1.7632
 4118SOL     OW18315   7.926   1.204   5.358 -0.1837 -0.5174 -0.3486
 4118SOL    HW118316   7.871   1.258   5.415  2.4288 -0.1619  2.0275
 4118SOL    HW218317   7.913   1.241   5.271 -0.1423  2.6117  0.8532
 4119SOL     OW18318   2.248   1.949   4.898 -0.2704 -0.1925 -0.5304
 4119SOL    HW118319   2.258   1.857   4.875  0.2939 -0.3679  0.3957
 4119SOL    HW218320   2.239   1.993   4.813 -0.8503 -1.1193 -0.9710
 4120SOL     OW18321   6.896   5.682   7.718  0.4975 -0.3759  0.8509
 4120SOL    HW118322   6.845   5.602   7.709 -1.3186  0.7916  0.3368
 4120SOL    HW218323   6.900   5.698   7.813 -1.2066  0.1797  0.8520
 4121SOL     OW18324   5.917   6.645   8.799 -0.2097  0.1556  0.6708
 4121SOL    HW118325   6.006   6.677   8.814  1.4303 -1.5573 -3.7203
 4121SOL    HW218326   5.870   6.720   8.763  1.1133 -0.0844 -1.7584
 4122SOL     OW18327   2.938   3.148   8.749 -0.2470 -0.0920 -0.0700
 4122SOL    HW118328   2.920   3.056   8.769  0.2825  0.0000  0.8437
 4122SOL    HW218329   2.869   3.196   8.793 -0.9039 -0.0673 -1.0749
 4123SOL     OW18330   8.578   7.906   8.432  1.0943 -0.8004 -0.0425
 4123SOL    HW118331   8.517   7.858   8.489 -0.4416  0.3878 -0.6011
 4123SOL    HW218332   8.608   7.979   8.486  0.8132 -0.5221 -0.2594
 4124SOL     OW18333   4.817   3.713   5.160  0.3281 -0.4670 -0.2976
 4124SOL    HW118334   4.789   3.689   5.248  1.5942 -0.1682  0.2121
 4124SOL    HW218335   4.788   3.640   5.105  0.1100 -0.9808  0.4831
 4125SOL     OW18336   1.778   0.612   5.741  0.0766  0.1287 -0.1638
 4125SOL    HW118337   1.697   0.566   5.719  0.4158 -0.9628  0.7536
 4125SOL    HW218338   1.837   0.595   5.668 -0.3072  0.4279 -0.5528
 4126SOL     OW18339   1.032   8.656   1.654 -0.0187 -0.2386  0.1141
 4126SOL    HW118340   1.006   8.680   1.565 -0.9228 -0.5639  0.2776
 4126SOL    HW218341   1.086   8.578   1.642 -0.1430 -0.2882 -0.1602
 4127SOL     OW18342   5.172   3.722   5.023 -0.8197  0.2556 -0.4537
 4127SOL    HW118343   5.116   3.782   5.072 -0.0317  0.8852 -0.3053
 4127SOL    HW218344   5.215   3.777   4.957 -2.0361 -0.6173 -2.0235
 4128SOL     OW18345   5.840   5.309   7.524 -0.8263  0.3987 -0.6767
 4128SOL    HW118346   5.831   5.216   7.542  1.6468  0.5344  1.8566
 4128SOL    HW218347   5.820   5.352   7.607 -1.4724  2.1424 -1.6721
 4129SOL     OW18348   7.963   7.456   0.026 -0.0820 -0.2021 -0.2409
 4129SOL    HW118349   8.047   7.468   0.071 -0.2255 -1.6144  0.4536
 4129SOL    HW218350   7.987   7.431  -0.063  0.2513 -1.1893  0.1194
 4130SOL     OW18351   8.317   8.013   2.254 -0.5309 -0.1060  0.4197
 4130SOL    HW118352   8.237   7.995   2.204  0.7556 -0.7521 -1.5144
 4130SOL    HW218353   8.342   7.929   2.291 -0.6259  0.0625  0.8813
 4131SOL     OW18354   3.952   1.154   4.145 -0.0673  0.0664 -0.3813
 4131SOL    HW118355   3.904   1.231   4.176 -0.1182 -0.4435  0.8397
 4131SOL    HW218356   3.976   1.107   4.224 -1.9611 -2.3588 -1.1368
 4132SOL     OW18357   2.622   7.299   2.441 -0.1002 -0.3052  0.1399
 4132SOL    HW118358   2.584   7.252   2.366 -1.2582 -0.2500  0.6653
 4132SOL    HW218359   2.716   7.301   2.423 -0.3788 -0.0172 -1.4761
 4133SOL     OW18360   0.286   0.560   5.605 -0.0574 -0.2995 -0.6978
 4133SOL    HW118361   0.222   0.624   5.574 -0.9974 -0.4453  0.8840
 4133SOL    HW218362   0.279   0.562   5.700  0.8612 -1.7946 -0.5683
 4134SOL     OW18363   8.493   9.239   0.086 -0.1935 -0.7823  0.0109
 4134SOL    HW118364   8.439   9.222   0.163 -1.7950  0.2769 -0.8275
 4134SOL    HW218365   8.509   9.153   0.048 -0.6186 -1.1776  0.7103
 4135SOL     OW18366   0.737   6.785   1.235  0.3746  0.2351  0.7254
 4135SOL    HW118367   0.655   6.772   1.283  0.5765  1.1471  1.3367
 4135SOL    HW218368   0.715   6.850   1.169  0.3253 -0.3703  0.1344
 4136SOL     OW18369   7.246   3.560   0.910  0.5112  0.0456 -0.4690
 4136SOL    HW118370   7.159   3.596   0.892  0.2431  1.7999  3.3049
 4136SOL    HW218371   7.305   3.613   0.857 -0.4660  1.5434 -0.1277
 4137SOL     OW18372   6.814   8.333   3.836 -0.3244  0.4811  0.5765
 4137SOL    HW118373   6.778   8.316   3.923  0.3285  0.2983  0.8177
 4137SOL    HW218374   6.824   8.428   3.832 -0.5085  0.5054  0.6316
 4138SOL     OW18375   8.933   5.248   6.892  0.3008  0.1029 -0.1906
 4138SOL    HW118376   8.967   5.314   6.833  0.7772 -1.3275 -1.5684
 4138SOL    HW218377   8.994   5.247   6.966  1.0272  0.2809 -0.7872
 4139SOL     OW18378   6.271   4.652   0.425  0.2319 -0.4781  0.7269
 4139SOL    HW118379   6.361   4.625   0.408  0.3759 -0.0187  0.7367
 4139SOL    HW218380   6.228   4.644   0.339  0.2365 -0.8573  0.7578
 4140SOL     OW18381   4.032   1.816   5.043  0.0915 -0.4769 -0.0263
 4140SOL    HW118382   4.095   1.803   4.972  0.9453  0.1924  0.5755
 4140SOL    HW218383   3.963   1.753   5.026 -0.3645  0.5199 -2.1557
 4141SOL     OW18384   0.078   1.842   2.818 -0.0465 -0.0339  0.5213
 4141SOL    HW118385   0.048   1.837   2.908 -0.0239 -2.3103  0.4492
 4141SOL    HW218386   0.010   1.798   2.767  0.8607 -0.4910 -0.3190
 4142SOL     OW18387   0.268   3.975   8.767 -0.0385 -0.2410  0.2325
 4142SOL    HW118388   0.361   3.957   8.782 -0.5066 -1.6077  1.7536
 4142SOL    HW218389   0.268   4.055   8.715  1.9494  0.9545  1.9230
 4143SOL     OW18390   2.453   0.607   6.291 -0.0787 -0.3138  0.7955
 4143SOL    HW118391   2.508   0.598   6.369  0.6008  1.3375  0.5461
 4143SOL    HW218392   2.375   0.555   6.311  0.1271 -0.0197  2.5612
 4144SOL     OW18393   4.139   6.621   5.709  0.3320  0.2163 -0.1794
 4144SOL    HW118394   4.207   6.643   5.646  0.0615 -0.7458 -0.8329
 4144SOL    HW218395   4.070   6.580   5.656  0.2911 -1.0393  0.7814
 4145SOL     OW18396   2.427   7.839   8.148  0.5039  0.4528 -0.3878
 4145SOL    HW118397   2.516   7.833   8.114  0.1387 -1.9480 -1.1078
 4145SOL    HW218398   2.429   7.914   8.208  3.0129  0.4129 -0.3171
 4146SOL     OW18399   8.847   6.152   8.857 -0.1809 -0.3851 -0.5332
 4146SOL    HW118400   8.833   6.070   8.810  0.0655 -1.1321  0.6615
 4146SOL    HW218401   8.761   6.194   8.859 -0.3984 -0.8158 -0.7815
 4147SOL     OW18402   9.114   6.721   3.615 -0.4198 -0.0896 -0.0787
 4147SOL    HW118403   9.102   6.770   3.696 -1.3575 -0.7077  0.1836
 4147SOL    HW218404   9.204   6.689   3.618 -0.1981  0.5705  0.3283
 4148SOL     OW18405   0.617   6.437   5.767  0.4853  0.5125  0.1541
 4148SOL    HW118406   0.528   6.472   5.772 -0.0738 -0.9510  0.9463
 4148SOL    HW218407   0.668   6.493   5.827  0.0175  1.0834  0.0271
 4149SOL     OW18408   4.134   5.246   3.030  0.5391 -0.1692  0.0481
 4149SOL    HW118409   4.139   5.157   2.995 -0.7281 -0.4373  0.5022
 4149SOL    HW218410   4.211   5.290   2.993  0.2616 -0.9564 -1.5859
 4150SOL     OW18411   5.295   4.596   5.620 -0.4253  0.0137  0.1318
 4150SOL    HW118412   5.302   4.682   5.660 -0.0576  0.4612 -0.8623
 4150SOL    HW218413   5.381   4.557   5.633 -0.9139 -0.6613  1.5456
 4151SOL     OW18414   2.045   7.759   7.066 -0.1776 -0.0085  0.0571
 4151SOL    HW118415   2.140   7.767   7.059 -0.2582  0.5904 -0.4710
 4151SOL    HW218416   2.023   7.798   7.150 -0.0099  0.3106 -0.0488
 4152SOL     OW18417   1.161   3.202   8.260  0.5419  0.4963  0.0089
 4152SOL    HW118418   1.241   3.252   8.245  0.3007  0.8065 -0.2698
 4152SOL    HW218419   1.093   3.269   8.271  0.5683  0.2882  1.7592
 4153SOL     OW18420   0.851   5.892   6.944 -0.2278 -0.0083 -0.0945
 4153SOL    HW118421   0.839   5.894   7.038  2.4142 -0.1189  0.3369
 4153SOL    HW218422   0.836   5.801   6.919  0.7088 -0.3545  0.5389
 4154SOL     OW18423   6.009   6.447   1.890  0.6897  0.0969 -0.1905
 4154SOL    HW118424   5.987   6.503   1.815 -0.9316 -0.2676 -0.0256
 4154SOL    HW218425   5.985   6.359   1.861  0.8376 -0.1609  0.4674
 4155SOL     OW18426   0.270   1.555   9.328 -0.2080 -0.0628 -0.1979
 4155SOL    HW118427   0.246   1.520   9.241  0.7332  0.3359 -0.6246
 4155SOL    HW218428   0.360   1.526   9.342 -0.3486 -0.1145  0.6547
 4156SOL     OW18429   0.656   1.617   1.659  0.2457  0.5383 -0.2595
 4156SOL    HW118430   0.692   1.585   1.741 -2.4207 -0.7950  0.5113
 4156SOL    HW218431   0.623   1.705   1.680  3.3504  2.0556 -1.1420
 4157SOL     OW18432   0.376   2.778   1.101  0.4091 -0.6129 -0.6325
 4157SOL    HW118433   0.284   2.795   1.118  0.2896 -1.2824 -0.5950
 4157SOL    HW218434   0.405   2.726   1.175  0.9524  0.0218 -0.3854
 4158SOL     OW18435   7.716   3.808   8.684 -0.0460 -0.3275  0.7510
 4158SOL    HW118436   7.805   3.785   8.658 -0.2498 -0.2952  0.0186
 4158SOL    HW218437   7.696   3.887   8.636 -0.6451 -0.5983  0.5490
 4159SOL     OW18438   7.910   8.041   4.872 -0.2573 -0.1320  0.2891
 4159SOL    HW118439   7.851   8.086   4.812 -1.2187 -1.4342  0.2063
 4159SOL    HW218440   7.956   7.978   4.818  0.0977 -0.1641  0.6246
 4160SOL     OW18441   8.459   4.278   4.574 -0.1906 -0.4636 -0.1196
 4160SOL    HW118442   8.530   4.238   4.524 -0.3334 -0.0213 -0.6863
 4160SOL    HW218443   8.497   4.296   4.660  0.9753  1.5137 -0.9904
 4161SOL     OW18444   1.097   6.806   2.295 -0.4114  0.5412  0.0636
 4161SOL    HW118445   1.009   6.838   2.273 -0.6793 -0.1179  0.1500
 4161SOL    HW218446   1.090   6.777   2.386  0.0202  0.9164  0.2169
 4162SOL     OW18447   0.212   3.497   2.529  0.2877  0.0620 -0.6118
 4162SOL    HW118448   0.230   3.433   2.597  1.7371  0.0554 -0.9502
 4162SOL    HW218449   0.208   3.581   2.575 -1.2170 -0.2037 -0.2214
 4163SOL     OW18450   5.174   7.227   5.576  0.5155  0.6813 -0.3450
 4163SOL    HW118451   5.263   7.262   5.574  0.8198 -0.0585 -0.0883
 4163SOL    HW218452   5.186   7.132   5.573 -0.3035  0.6016 -1.2932
 4164SOL     OW18453   7.479   4.690   1.648  0.2630  0.0474  0.0689
 4164SOL    HW118454   7.564   4.712   1.686 -0.4803 -0.2753  1.9963
 4164SOL    HW218455   7.499   4.625   1.581  1.5036 -0.2813  0.7282
 4165SOL     OW18456   7.877   3.383   7.150  0.1921 -0.0233 -0.6028
 4165SOL    HW118457   7.864   3.458   7.209  1.2790 -0.5026  0.2833
 4165SOL    HW218458   7.844   3.414   7.065 -0.4537  1.0462  0.0071
 4166SOL     OW18459   8.619   8.789   2.933 -0.0342  0.7159 -0.0504
 4166SOL    HW118460   8.569   8.767   2.855 -0.0294  1.8991 -0.4012
 4166SOL    HW218461   8.611   8.884   2.941  3.0637  1.1535 -0.7760
 4167SOL     OW18462   2.269   1.912   1.166  0.5358 -0.0006  0.2629
 4167SOL    HW118463   2.243   1.884   1.253 -2.2732  0.9593 -0.1420
 4167SOL    HW218464   2.302   1.832   1.124  0.2068 -0.8804  1.6030
 4168SOL     OW18465   7.333   4.960   7.161 -0.5998  0.3778 -0.6813
 4168SOL    HW118466   7.262   4.897   7.147 -0.9435  0.9797 -1.8141
 4168SOL    HW218467   7.358   4.988   7.073  0.6500  0.6280 -0.2703
 4169SOL     OW18468   5.497   6.239   7.763 -0.0894 -0.0483 -0.3923
 4169SOL    HW118469   5.440   6.316   7.754 -0.0011 -0.1746 -2.6677
 4169SOL    HW218470   5.439   6.164   7.751  0.1279 -0.2802 -0.0143
 4170SOL     OW18471   2.057   5.899   6.686  0.3928 -0.1847  0.1228
 4170SOL    HW118472   2.057   5.995   6.692 -1.1998 -0.1330 -0.2266
 4170SOL    HW218473   2.112   5.870   6.758  2.4532  1.0195 -0.8501
 4171SOL     OW18474   3.980   5.532   3.726  0.6376 -0.2547  0.1330
 4171SOL    HW118475   3.995   5.459   3.785  0.5526 -1.1184 -0.8835
 4171SOL    HW218476   3.885   5.533   3.713  0.2152  2.0082  2.5526
 4172SOL     OW18477   7.575   6.244   5.803 -0.8079  0.0067 -0.3360
 4172SOL    HW118478   7.493   6.197   5.795 -0.6770 -0.3171  0.1646
 4172SOL    HW218479   7.613   6.241   5.715 -0.6218 -1.1632 -0.2322
 4173SOL     OW18480   4.936   6.802   0.038  0.2294 -0.8284 -0.1454
 4173SOL    HW118481   4.971   6.715   0.016  0.0248 -0.3188 -2.8158
 4173SOL    HW218482   4.995   6.863  -0.006 -0.5114  0.3333  0.4389
 4174SOL     OW18483   4.142   0.188   5.343  1.1358 -0.2217  0.0148
 4174SOL    HW118484   4.151   0.103   5.301  2.4949  0.4145 -1.0939
 4174SOL    HW218485   4.049   0.207   5.341  0.9263 -1.2569 -0.6145
 4175SOL     OW18486   9.193   8.425   7.843 -0.8482 -0.3256 -0.1013
 4175SOL    HW118487   9.255   8.463   7.905 -1.2363 -0.6941  0.5313
 4175SOL    HW218488   9.136   8.371   7.898 -2.8887  1.4301 -0.3798
 4176SOL     OW18489   3.938   5.094   9.001 -0.9342 -0.8604  0.2716
 4176SOL    HW118490   3.844   5.108   8.986 -0.7411  0.1938 -0.0382
 4176SOL    HW218491   3.980   5.174   8.968 -0.0221 -0.7740  1.5550
 4177SOL     OW18492   3.328   7.272   5.680  0.1131  0.2044 -0.4009
 4177SOL    HW118493   3.292   7.351   5.720 -2.3599 -0.2759 -1.4307
 4177SOL    HW218494   3.420   7.292   5.663 -0.3384  2.6857 -0.2623
 4178SOL     OW18495   4.690   6.012   6.983 -0.4289  0.1660 -0.2506
 4178SOL    HW118496   4.683   6.030   7.077  1.0746  1.1277 -0.2768
 4178SOL    HW218497   4.645   5.929   6.971 -2.1684  0.8664  1.0219
 4179SOL     OW18498   2.343   1.730   2.226 -0.0685  0.0389  0.0617
 4179SOL    HW118499   2.320   1.813   2.183 -1.9934 -0.3384  0.2875
 4179SOL    HW218500   2.279   1.667   2.193  0.6071 -1.0863  0.8342
 4180SOL     OW18501   5.149   7.877   7.234  0.4360  0.6202 -0.3181
 4180SOL    HW118502   5.191   7.793   7.215 -1.7282 -0.4702 -0.5088
 4180SOL    HW218503   5.078   7.884   7.170 -1.1843  1.2503  1.4605
 4181SOL     OW18504   7.829   5.278   8.086 -0.6997 -0.5449 -0.7943
 4181SOL    HW118505   7.851   5.314   8.172 -0.1604 -1.5417 -0.4978
 4181SOL    HW218506   7.872   5.337   8.024 -1.1132  0.1982 -0.3888
 4182SOL     OW18507   5.902   3.070   6.595 -0.3125 -0.1436 -0.2842
 4182SOL    HW118508   5.841   3.135   6.561 -0.8019 -0.1949  0.4644
 4182SOL    HW218509   5.846   3.005   6.638  0.2607 -0.2201  0.3592
 4183SOL     OW18510   6.700   2.213   2.523 -0.3139  0.0456  0.2944
 4183SOL    HW118511   6.722   2.120   2.529  0.4815  0.1359 -0.7924
 4183SOL    HW218512   6.783   2.259   2.538 -0.5770  0.5549  0.2334
 4184SOL     OW18513   5.368   1.215   1.724  0.3394 -0.1853  0.5606
 4184SOL    HW118514   5.412   1.132   1.743 -0.6842 -0.8562  0.1142
 4184SOL    HW218515   5.307   1.227   1.798  1.2589  0.7491  1.1941
 4185SOL     OW18516   4.626   2.992   2.320  0.6006  0.0608 -0.3828
 4185SOL    HW118517   4.668   3.078   2.322  0.5241  0.1124 -0.8594
 4185SOL    HW218518   4.699   2.930   2.324  0.7146  0.1496 -0.9722
 4186SOL     OW18519   0.765   2.366   8.674  0.0526 -0.2987 -0.1956
 4186SOL    HW118520   0.823   2.440   8.692  1.1656 -1.2972  0.4828
 4186SOL    HW218521   0.693   2.403   8.623  0.3666  1.3209  0.4909
 4187SOL     OW18522   5.557   6.872   2.100 -0.1060 -0.4517 -0.7302
 4187SOL    HW118523   5.497   6.944   2.082  2.0322  1.6585 -0.0263
 4187SOL    HW218524   5.512   6.818   2.164 -1.3579  0.9011 -0.4266
 4188SOL     OW18525   5.839   5.449   8.196  0.3745 -0.4842  0.1022
 4188SOL    HW118526   5.899   5.414   8.130  1.2259 -0.0645  0.6449
 4188SOL    HW218527   5.804   5.371   8.240  2.5569 -0.7146  1.5684
 4189SOL     OW18528   0.275   6.979   3.007 -0.0674  0.1297 -0.6556
 4189SOL    HW118529   0.310   6.892   2.989 -1.0543 -0.4539  0.1804
 4189SOL    HW218530   0.215   6.996   2.934  1.1331  0.7158 -1.5544
 4190SOL     OW18531   0.876   5.192   1.974 -0.2854 -0.5673 -0.1446
 4190SOL    HW118532   0.893   5.223   1.886 -0.8766 -1.5110 -0.6107
 4190SOL    HW218533   0.933   5.115   1.983 -1.1140 -1.1982 -0.1638
 4191SOL     OW18534   5.624   0.358   3.891  0.0560  0.0562 -0.1796
 4191SOL    HW118535   5.676   0.377   3.813  0.9748 -1.0154  0.1459
 4191SOL    HW218536   5.580   0.276   3.871 -1.0473  0.6399 -0.2101
 4192SOL     OW18537   1.535   6.574   4.866  0.2672 -0.3606  0.1717
 4192SOL    HW118538   1.567   6.540   4.950  1.3185 -1.3422 -0.5951
 4192SOL    HW218539   1.478   6.506   4.833 -0.8575  0.4079  0.4699
 4193SOL     OW18540   0.292   4.467   9.036 -0.1001  0.1505  0.4509
 4193SOL    HW118541   0.205   4.506   9.035 -0.0242  0.3068  0.0752
 4193SOL    HW218542   0.350   4.535   9.003  0.2136  0.1531  0.9841
 4194SOL     OW18543   8.522   6.548   6.685 -0.4616  0.7769  0.1989
 4194SOL    HW118544   8.428   6.533   6.674 -0.7055  1.1013  1.6802
 4194SOL    HW218545   8.550   6.589   6.603 -1.2145 -1.0071 -1.0179
 4195SOL     OW18546   7.087   4.988   7.652 -0.1901  0.3796 -0.1699
 4195SOL    HW118547   7.105   5.002   7.559 -0.6487 -0.2971 -0.3681
 4195SOL    HW218548   6.992   4.974   7.656 -0.6711  3.2006  0.7470
 4196SOL     OW18549   7.133   7.827   7.487  0.5418 -0.6446  0.9099
 4196SOL    HW118550   7.150   7.797   7.576  2.0307 -1.5703  0.3642
 4196SOL    HW218551   7.057   7.775   7.458  1.4746 -2.0572  0.8796
 4197SOL     OW18552   3.810   4.190   6.108 -0.2320 -0.1246 -0.3042
 4197SOL    HW118553   3.867   4.213   6.034 -1.0831  3.6444 -0.0076
 4197SOL    HW218554   3.735   4.249   6.100 -1.5807 -1.3196  2.2089
 4198SOL     OW18555   2.312   5.066   8.727 -0.1066  0.5059  0.4982
 4198SOL    HW118556   2.340   5.002   8.662  0.1423  2.9834 -1.9815
 4198SOL    HW218557   2.231   5.030   8.763  0.4954 -1.5928 -0.1236
 4199SOL     OW18558   1.396   6.165   7.965  0.6271 -0.9136  0.5595
 4199SOL    HW118559   1.331   6.114   8.013  1.5393 -0.6111  2.2080
 4199SOL    HW218560   1.467   6.179   8.028  1.3000  0.6572 -0.4694
 4200SOL     OW18561   7.622   8.648   7.232 -0.2224 -0.1789  0.4115
 4200SOL    HW118562   7.560   8.601   7.288 -0.9299  1.1503  0.7968
 4200SOL    HW218563   7.567   8.687   7.164  0.1906  0.8560  0.6469
 4201SOL     OW18564   2.612   5.010   3.141  0.2092  0.2062  0.0022
 4201SOL    HW118565   2.626   5.096   3.180  1.2873 -0.4925  1.2167
 4201SOL    HW218566   2.547   5.026   3.073 -0.2782  1.8213  0.7812
 4202SOL     OW18567   5.134   0.926   7.165  0.2855  0.5811 -0.0088
 4202SOL    HW118568   5.041   0.901   7.162  0.3065  0.3848  0.7008
 4202SOL    HW218569   5.171   0.871   7.234  1.0383  0.3300 -0.6086
 4203SOL     OW18570   8.220   8.895   9.050 -0.0800 -0.3547 -0.7563
 4203SOL    HW118571   8.235   8.817   9.104 -0.9354 -0.4820 -0.6853
 4203SOL    HW218572   8.244   8.868   8.961  1.5609 -0.0723 -0.4227
 4204SOL     OW18573   7.945   3.752   0.429  0.0439 -0.1513 -0.0847
 4204SOL    HW118574   7.974   3.837   0.463  0.8568 -0.9301  1.3042
 4204SOL    HW218575   7.883   3.774   0.360  0.6411  1.5720 -0.1415
 4205SOL     OW18576   1.257   7.748   3.334 -0.7351  0.4974 -0.3769
 4205SOL    HW118577   1.167   7.765   3.306 -0.9920 -1.3601 -0.7989
 4205SOL    HW218578   1.249   7.723   3.426 -0.5133  1.2919 -0.1321
 4206SOL     OW18579   2.002   6.292   2.572  0.6385  0.1105  0.0495
 4206SOL    HW118580   2.017   6.199   2.589  1.1136  0.2369  0.3298
 4206SOL    HW218581   1.911   6.296   2.541  0.4468 -0.3836  0.5300
 4207SOL     OW18582   6.363   3.589   5.377 -0.3024  0.3529  0.3718
 4207SOL    HW118583   6.399   3.579   5.465 -0.7394 -1.0578  0.4020
 4207SOL    HW218584   6.412   3.663   5.340  0.1332  0.7336  1.6623
 4208SOL     OW18585   7.048   7.952   0.682  0.2309 -0.0569  0.7759
 4208SOL    HW118586   7.124   7.988   0.636 -0.7202  0.4696 -0.4285
 4208SOL    HW218587   7.086   7.903   0.755  1.6967  0.7515  0.6015
 4209SOL     OW18588   1.260   4.590   5.647 -0.3116  0.2683  0.2188
 4209SOL    HW118589   1.219   4.567   5.731 -0.0491  0.9566  0.5463
 4209SOL    HW218590   1.198   4.560   5.581 -0.7280  0.1113  0.6747
 4210SOL     OW18591   9.093   8.130   1.379 -0.2809 -0.3961 -0.3954
 4210SOL    HW118592   9.103   8.041   1.413  0.6621 -0.5052 -0.9312
 4210SOL    HW218593   9.128   8.185   1.449 -1.9876 -0.3373  0.4624
 4211SOL     OW18594   0.711   4.523   6.168  0.1059 -0.2901 -0.2679
 4211SOL    HW118595   0.646   4.552   6.104  0.3397  0.8998  0.0122
 4211SOL    HW218596   0.754   4.604   6.196  1.0263 -0.9620  0.2829
 4212SOL     OW18597   3.300   5.640   7.347 -0.0534  0.1743  0.1622
 4212SOL    HW118598   3.376   5.682   7.308 -1.6149  0.9844 -2.2220
 4212SOL    HW218599   3.276   5.696   7.421  0.2248  1.3032 -0.5772
 4213SOL     OW18600   5.060   2.084   7.945 -0.1464 -0.3553 -0.2437
 4213SOL    HW118601   5.038   2.079   8.038  1.6005  0.4657  0.2583
 4213SOL    HW218602   5.156   2.091   7.943 -0.1900  0.3640 -2.0812
 4214SOL     OW18603   7.097   5.931   2.824  0.1021 -0.2160  0.0550
 4214SOL    HW118604   7.149   5.994   2.874 -2.1061  1.3705  0.4833
 4214SOL    HW218605   7.104   5.850   2.874  0.9466  0.3520  0.8967
 4215SOL     OW18606   9.351   3.151   5.098 -0.1821  0.1829  0.1916
 4215SOL    HW118607   9.402   3.099   5.160 -1.0213 -1.3267 -0.3458
 4215SOL    HW218608   9.416   3.182   5.035  0.1714 -1.3698 -0.2530
 4216SOL     OW18609   0.648   0.191   2.235 -0.3123  0.2366 -0.2852
 4216SOL    HW118610   0.642   0.237   2.319 -2.3969  2.1462 -1.3589
 4216SOL    HW218611   0.596   0.112   2.248 -0.2411  0.2881  0.3544
 4217SOL     OW18612   4.761   6.090   2.343  0.8085 -0.3528  0.1140
 4217SOL    HW118613   4.824   6.057   2.279  1.1451  2.6603 -1.2545
 4217SOL    HW218614   4.810   6.095   2.425  1.7412 -0.0112 -0.4561
 4218SOL     OW18615   3.086   7.793   4.627 -0.3136  0.0056  0.5326
 4218SOL    HW118616   3.046   7.879   4.614  0.4128  0.6610  2.2733
 4218SOL    HW218617   3.179   7.811   4.637  0.1521 -1.2418 -1.0758
 4219SOL     OW18618   1.063   1.133   2.767 -0.1502  0.2705 -0.2232
 4219SOL    HW118619   1.017   1.203   2.719 -0.1401 -0.2785 -1.0611
 4219SOL    HW218620   1.150   1.168   2.781 -0.4510  0.8366  0.2868
 4220SOL     OW18621   3.972   2.929   2.685  0.0823  0.2332  0.2574
 4220SOL    HW118622   4.043   2.951   2.625  0.1528  1.0429  0.6251
 4220SOL    HW218623   3.990   2.981   2.763 -0.0337 -0.7844  0.9640
 4221SOL     OW18624   6.114   3.999   2.637 -0.1349  0.3106  0.3518
 4221SOL    HW118625   6.162   3.922   2.608 -1.2672 -1.3903  2.6877
 4221SOL    HW218626   6.180   4.054   2.680  0.2882 -0.4795  0.7270
 4222SOL     OW18627   7.001   6.422   3.413  0.5837  0.1933  0.0103
 4222SOL    HW118628   7.026   6.351   3.354  0.1667 -1.0598  1.2722
 4222SOL    HW218629   7.028   6.390   3.500 -0.8044  1.0138  0.7631
 4223SOL     OW18630   6.772   3.154   3.676  0.1062  1.0291  0.1198
 4223SOL    HW118631   6.776   3.144   3.771 -0.5227 -2.1498 -0.0649
 4223SOL    HW218632   6.858   3.190   3.652  1.1807 -0.2806  1.7558
 4224SOL     OW18633   4.386   3.072   5.955 -0.4259 -0.0464 -0.1118
 4224SOL    HW118634   4.329   3.144   5.926  0.8818  0.8924 -0.4851
 4224SOL    HW218635   4.475   3.104   5.938  0.2999 -0.7824  1.9513
 4225SOL     OW18636   9.281   2.743   1.928 -0.3443 -0.7438 -0.1871
 4225SOL    HW118637   9.283   2.806   1.856  1.5202 -0.7936 -0.2395
 4225SOL    HW218638   9.373   2.726   1.946 -0.7192  0.0033  2.8748
 4226SOL     OW18639   2.861   0.172   2.346 -0.0345 -0.1148 -0.7236
 4226SOL    HW118640   2.902   0.149   2.262 -1.3074 -1.4138 -1.0268
 4226SOL    HW218641   2.934   0.202   2.401  1.6210 -3.5906 -0.7909
 4227SOL     OW18642   2.756   1.407   1.101 -0.1945  0.2049  0.1973
 4227SOL    HW118643   2.678   1.374   1.146 -0.0566 -1.7259 -0.8832
 4227SOL    HW218644   2.829   1.366   1.147 -0.0323 -1.3733 -1.3858
 4228SOL     OW18645   1.436   8.987   9.061 -0.6214  0.0904 -0.1236
 4228SOL    HW118646   1.439   9.068   9.112  1.1610 -0.1953  0.2739
 4228SOL    HW218647   1.409   8.920   9.125 -1.5113  0.2470 -0.3180
 4229SOL     OW18648   1.161   6.099   4.426  0.2076  0.3791 -0.0274
 4229SOL    HW118649   1.167   6.163   4.497 -0.6468  1.0331 -0.5209
 4229SOL    HW218650   1.072   6.064   4.432  0.1222  0.4452 -0.7590
 4230SOL     OW18651   6.833   3.532   7.719 -0.0990 -0.1114  1.0710
 4230SOL    HW118652   6.839   3.607   7.660  2.9677  1.3471  2.9810
 4230SOL    HW218653   6.784   3.565   7.794 -2.5087 -1.4495  0.2016
 4231SOL     OW18654   8.067   8.234   6.652 -0.2936 -0.2941  0.1759
 4231SOL    HW118655   8.162   8.228   6.643 -0.1793  0.6655  0.5874
 4231SOL    HW218656   8.053   8.305   6.715 -1.3328  1.1137 -1.5422
 4232SOL     OW18657   9.250   6.384   0.638 -0.0867 -0.2024  0.1334
 4232SOL    HW118658   9.171   6.350   0.595 -0.7561  3.2476 -1.7478
 4232SOL    HW218659   9.221   6.407   0.727  0.2816 -3.7094  1.3045
 4233SOL     OW18660   0.709   6.256   1.207  0.1606  0.1121 -0.6739
 4233SOL    HW118661   0.772   6.288   1.271 -0.1582 -0.1810 -0.1989
 4233SOL    HW218662   0.673   6.335   1.167 -0.6752  0.3788  0.5376
 4234SOL     OW18663   0.639   3.725   7.633 -0.2617 -0.3746 -0.3312
 4234SOL    HW118664   0.719   3.735   7.685  0.7842 -2.8733 -1.2783
 4234SOL    HW218665   0.632   3.807   7.584  0.1983  0.9609  1.7208
 4235SOL     OW18666   8.191   7.007   2.200  0.3979  0.0919  0.1401
 4235SOL    HW118667   8.153   7.094   2.213 -0.4047 -0.5454  2.4598
 4235SOL    HW218668   8.116   6.949   2.189  0.9271 -0.1832 -3.2215
 4236SOL     OW18669   4.664   2.989   7.000  0.3097  0.1226 -0.3403
 4236SOL    HW118670   4.650   3.048   6.926  0.9807  1.7042  0.7343
 4236SOL    HW218671   4.715   2.916   6.964  1.1461  1.1603 -1.3260
 4237SOL     OW18672   5.162   1.113   8.766 -0.1861  0.0841 -0.3029
 4237SOL    HW118673   5.121   1.150   8.844  0.6691  0.3692  0.0278
 4237SOL    HW218674   5.178   1.189   8.709 -1.8819 -0.2487 -1.3063
 4238SOL     OW18675   5.090   0.849   2.395  0.6636 -0.0696  0.5444
 4238SOL    HW118676   5.019   0.884   2.341  1.5989  0.6228 -0.2596
 4238SOL    HW218677   5.071   0.755   2.399 -0.5085  0.1500  0.6798
 4239SOL     OW18678   6.909   8.751   0.828  0.1565  0.2069 -0.3240
 4239SOL    HW118679   6.875   8.830   0.787 -1.9174 -0.9113 -0.9030
 4239SOL    HW218680   6.994   8.736   0.786 -0.0038  1.4264 -1.1088
 4240SOL     OW18681   4.361   8.061   8.180  0.1133 -0.0188 -0.2786
 4240SOL    HW118682   4.279   8.069   8.131 -1.7334 -1.7966  2.2678
 4240SOL    HW218683   4.354   8.126   8.250  1.3965  0.4828 -0.5699
 4241SOL     OW18684   6.200   0.203   6.014 -0.1038 -0.6652 -0.3021
 4241SOL    HW118685   6.110   0.174   6.031 -0.2346 -0.0590  0.1000
 4241SOL    HW218686   6.207   0.285   6.063  1.5457 -2.0539  2.0235
 4242SOL     OW18687   4.572   8.426   1.004  0.6983 -0.6356 -0.5214
 4242SOL    HW118688   4.613   8.376   1.075 -0.2011  0.3652  0.7588
 4242SOL    HW218689   4.478   8.411   1.016  0.4168  1.1877 -0.2067
 4243SOL     OW18690   3.469   4.772   9.347 -0.2479 -0.0986  0.2271
 4243SOL    HW118691   3.403   4.730   9.291 -0.5131  0.3229  0.2223
 4243SOL    HW218692   3.446   4.745   9.435 -2.2749  2.4195  0.5878
 4244SOL     OW18693   5.149   3.514   4.692 -0.1837  0.0756  0.0224
 4244SOL    HW118694   5.124   3.448   4.757 -1.7987  0.7416  0.1433
 4244SOL    HW218695   5.226   3.557   4.729 -0.8304  0.1624  1.3207
 4245SOL     OW18696   8.105   8.336   0.992  0.2227 -0.4823 -0.3112
 4245SOL    HW118697   8.185   8.354   0.942  0.0996 -0.0594 -0.3607
 4245SOL    HW218698   8.104   8.241   1.003  0.3871 -0.5503 -0.8842
 4246SOL     OW18699   9.037   1.972   7.371 -0.1429  0.4354  0.2437
 4246SOL    HW118700   9.095   1.926   7.432 -0.4048 -0.7061 -0.3344
 4246SOL    HW218701   8.956   1.920   7.371  0.4201 -0.6137 -2.3122
 4247SOL     OW18702   5.325   2.814   5.756 -0.4884 -0.4006 -0.8023
 4247SOL    HW118703   5.402   2.763   5.733  0.5219  0.8016 -0.1714
 4247SOL    HW218704   5.333   2.895   5.706 -0.3911  0.4993  0.6283
 4248SOL     OW18705   3.566   1.378   1.747 -0.0424 -0.6433 -0.7087
 4248SOL    HW118706   3.635   1.403   1.685 -0.9444  2.2644 -0.6921
 4248SOL    HW218707   3.588   1.424   1.828 -0.6071 -1.8252  0.1523
 4249SOL     OW18708   1.644   0.125   7.551 -0.1720 -0.4945 -0.3075
 4249SOL    HW118709   1.617   0.123   7.643  1.5559  1.1884  0.3215
 4249SOL    HW218710   1.656   0.033   7.527 -0.2639 -0.9537  1.2909
 4250SOL     OW18711   3.127   8.118   7.915  0.1938 -0.3526 -0.0783
 4250SOL    HW118712   3.209   8.070   7.924 -0.1227 -1.0205 -0.7273
 4250SOL    HW218713   3.146   8.204   7.953  0.7815 -0.9493  1.0475
 4251SOL     OW18714   4.914   6.975   1.723  0.1303  0.0614  0.3703
 4251SOL    HW118715   4.899   7.005   1.634  1.5533  0.0058  0.0955
 4251SOL    HW218716   4.977   6.903   1.714 -0.7313 -0.8560  1.3073
 4252SOL     OW18717   5.867   0.844   8.880  0.7389  0.1145  0.5161
 4252SOL    HW118718   5.848   0.767   8.934  0.4489  0.1409  0.4551
 4252SOL    HW218719   5.954   0.872   8.908  0.3978  0.4125  1.3024
 4253SOL     OW18720   6.889   7.241   5.792 -0.0960  0.0968  0.4965
 4253SOL    HW118721   6.919   7.163   5.838 -0.4887 -0.2448  0.1889
 4253SOL    HW218722   6.935   7.238   5.708 -0.3641  0.0119  0.3509
 4254SOL     OW18723   1.542   4.234   4.428 -0.3738 -0.6421 -0.4330
 4254SOL    HW118724   1.484   4.309   4.418 -0.5878 -0.2393  2.7432
 4254SOL    HW218725   1.486   4.164   4.460  0.4583 -0.9201  0.4958
 4255SOL     OW18726   8.592   4.952   7.403  0.3422  0.4326 -0.1536
 4255SOL    HW118727   8.638   5.026   7.362  0.4896  0.6399  0.3754
 4255SOL    HW218728   8.633   4.875   7.365 -0.5174  0.6124 -1.4893
 4256SOL     OW18729   7.003   1.247   6.819  0.2914 -0.1974 -0.3156
 4256SOL    HW118730   7.029   1.156   6.802  0.1021 -0.0233 -1.6247
 4256SOL    HW218731   6.950   1.271   6.743  0.6547  1.1367 -0.1659
 4257SOL     OW18732   2.001   0.075   0.420 -0.3176  0.3646 -0.2595
 4257SOL    HW118733   1.919   0.051   0.378 -0.2614 -0.7062  0.2160
 4257SOL    HW218734   2.030  -0.005   0.465  0.5090  0.9832  0.3463
 4258SOL     OW18735   8.031   0.527   0.917 -0.2038  0.5758 -0.6545
 4258SOL    HW118736   8.117   0.555   0.886 -0.0727 -0.0829 -0.8893
 4258SOL    HW218737   8.038   0.529   1.012  0.6656 -1.2438 -0.6549
 4259SOL     OW18738   3.080   8.622   1.623  0.1086  0.1714  0.7406
 4259SOL    HW118739   3.167   8.590   1.599 -0.6304  0.1347 -2.3520
 4259SOL    HW218740   3.056   8.571   1.701  2.0732 -1.1772  0.5395
 4260SOL     OW18741   6.886   3.632   6.999  0.4665  0.3690 -0.2745
 4260SOL    HW118742   6.914   3.634   6.907  0.0647 -0.3891 -0.4199
 4260SOL    HW218743   6.964   3.604   7.047  0.3560 -0.3709 -0.5202
 4261SOL     OW18744   1.103   4.995   5.183 -0.1383 -0.8321  0.2592
 4261SOL    HW118745   1.128   5.072   5.131 -0.4892 -2.1155 -1.9487
 4261SOL    HW218746   1.022   5.022   5.227 -0.0359  0.2045 -0.1559
 4262SOL     OW18747   4.362   9.000   1.544 -0.0204 -0.0496 -0.2115
 4262SOL    HW118748   4.403   8.930   1.492 -0.3987  0.3586 -1.0827
 4262SOL    HW218749   4.270   8.976   1.549  0.1497 -0.4847  0.9512
 4263SOL     OW18750   0.901   2.708   7.388 -0.6080  0.2145 -0.2771
 4263SOL    HW118751   0.927   2.731   7.299 -1.8554 -3.6373 -1.8551
 4263SOL    HW218752   0.983   2.707   7.438  0.3002  1.2163 -1.6849
 4264SOL     OW18753   0.574   7.238   2.905 -0.1084 -0.0033 -0.6102
 4264SOL    HW118754   0.493   7.214   2.951  0.1717 -1.4187 -0.7908
 4264SOL    HW218755   0.592   7.163   2.848 -0.1229  1.4414 -2.6146
 4265SOL     OW18756   1.011   3.364   3.754 -0.0522  0.1271  0.0195
 4265SOL    HW118757   0.943   3.373   3.688 -0.7846  0.7778  0.8394
 4265SOL    HW218758   0.965   3.332   3.832  0.8437 -0.9374  0.1501
 4266SOL     OW18759   0.012   2.064   7.341  0.0580  0.3959 -0.2144
 4266SOL    HW118760  -0.043   2.139   7.319 -0.9312 -0.7048 -1.7216
 4266SOL    HW218761   0.008   2.057   7.436 -1.3156  1.1714 -0.1961
 4267SOL     OW18762   2.596   8.398   0.763 -0.2782 -0.3704 -0.5559
 4267SOL    HW118763   2.630   8.486   0.778  0.5340 -0.6713 -0.6021
 4267SOL    HW218764   2.507   8.401   0.798  0.7869 -0.4176  2.5113
 4268SOL     OW18765   0.295   3.676   0.179 -0.6047  0.1026  0.3090
 4268SOL    HW118766   0.351   3.655   0.105 -1.1829 -1.2145  0.2131
 4268SOL    HW218767   0.248   3.754   0.153  0.9444  1.0621  0.2709
 4269SOL     OW18768   4.863   7.931   5.811  0.4046  0.0951  0.9486
 4269SOL    HW118769   4.784   7.924   5.865 -0.3329  0.3740 -0.0395
 4269SOL    HW218770   4.893   7.840   5.800 -1.4377 -0.3842 -0.9527
 4270SOL     OW18771   2.832   5.411   1.184  0.0228 -0.3884  0.2948
 4270SOL    HW118772   2.895   5.466   1.231 -0.1033  1.9917 -2.0817
 4270SOL    HW218773   2.749   5.427   1.228  0.1717  0.6127  0.2377
 4271SOL     OW18774   2.605   3.943   3.916 -0.4907  0.8256 -0.2296
 4271SOL    HW118775   2.578   3.989   3.836  0.0628 -0.1318 -0.9985
 4271SOL    HW218776   2.701   3.941   3.911 -0.5057 -0.5714 -0.3342
 4272SOL     OW18777   7.702   2.168   3.501 -0.3494 -0.1011 -0.1807
 4272SOL    HW118778   7.724   2.193   3.591  0.1235  0.5382 -0.4632
 4272SOL    HW218779   7.748   2.232   3.447  0.2865 -1.1511 -0.9236
 4273SOL     OW18780   2.879   2.435   6.158  0.4790  0.5428 -0.0195
 4273SOL    HW118781   2.822   2.507   6.185  0.3694  0.8011 -0.9330
 4273SOL    HW218782   2.848   2.411   6.071  0.9522 -0.1611  0.0019
 4274SOL     OW18783   4.928   6.147   4.647 -0.3857 -0.4729  0.1888
 4274SOL    HW118784   4.944   6.125   4.555  1.9622 -0.5871  0.5610
 4274SOL    HW218785   4.923   6.062   4.691 -1.6660 -0.4221  0.1814
 4275SOL     OW18786   2.346   6.293   3.619  0.5967  0.4025  0.4616
 4275SOL    HW118787   2.336   6.316   3.526 -0.7571  2.6718  1.0742
 4275SOL    HW218788   2.263   6.319   3.658  1.1309 -0.5574  2.3152
 4276SOL     OW18789   2.206   1.352   6.693  0.4215  0.6398  0.3553
 4276SOL    HW118790   2.207   1.389   6.604  2.0756  3.5560  1.4357
 4276SOL    HW218791   2.295   1.366   6.725 -0.1423 -0.3258  2.5140
 4277SOL     OW18792   2.283   0.109   3.320 -0.0834  0.1290 -0.4371
 4277SOL    HW118793   2.360   0.059   3.292  0.1128  0.8098 -1.1337
 4277SOL    HW218794   2.251   0.151   3.240 -1.8791 -1.0691 -0.4035
 4278SOL     OW18795   3.958   1.689   1.562  0.0475  0.1727  0.2404
 4278SOL    HW118796   3.950   1.761   1.500  1.0979 -0.5577 -0.7785
 4278SOL    HW218797   3.996   1.617   1.511  2.9075  0.1554  2.1410
 4279SOL     OW18798   2.693   4.609   5.249 -0.2434 -0.5704 -0.4656
 4279SOL    HW118799   2.748   4.557   5.309 -1.1326  0.3452  1.2087
 4279SOL    HW218800   2.707   4.699   5.276 -0.4317 -0.1052 -1.8794
 4280SOL     OW18801   9.340   3.890   0.986 -0.1402  0.6432 -0.2141
 4280SOL    HW118802   9.293   3.811   1.012 -1.9820  1.1893 -1.6622
 4280SOL    HW218803   9.406   3.859   0.924  2.4938 -0.2988  2.7566
 4281SOL     OW18804   4.346   2.726   1.163  0.1920 -0.3418 -0.6194
 4281SOL    HW118805   4.393   2.645   1.185  1.5218  0.2675 -1.0592
 4281SOL    HW218806   4.350   2.731   1.068 -2.6829 -1.3317 -0.8657
 4282SOL     OW18807   4.834   5.818   8.769  0.4971  0.0867 -0.2253
 4282SOL    HW118808   4.835   5.914   8.770 -0.8857  0.1161 -0.1638
 4282SOL    HW218809   4.922   5.794   8.739  0.8572  1.3644 -0.2772
 4283SOL     OW18810   3.018   7.536   9.013 -0.1389 -0.1963 -0.6526
 4283SOL    HW118811   2.959   7.599   9.056  0.2539 -0.4815  0.3209
 4283SOL    HW218812   3.095   7.533   9.069  0.2107 -0.9012 -1.1595
 4284SOL     OW18813   7.967   1.583   6.984  0.1441 -0.6203  0.2633
 4284SOL    HW118814   7.971   1.562   6.891 -2.2844  0.9229 -0.2732
 4284SOL    HW218815   7.887   1.635   6.994  0.1930 -0.9233  3.2607
 4285SOL     OW18816   1.809   0.678   1.381  0.2620  0.1187  0.1520
 4285SOL    HW118817   1.840   0.592   1.410  0.9423  0.4429  0.4096
 4285SOL    HW218818   1.831   0.682   1.288 -0.5080 -0.3069 -0.0492
 4286SOL     OW18819   7.205   1.054   3.467 -0.4656 -0.3513 -0.4015
 4286SOL    HW118820   7.200   0.993   3.541 -0.7772  1.4355  1.1431
 4286SOL    HW218821   7.150   1.127   3.493  2.1405  1.9257 -0.8337
 4287SOL     OW18822   5.967   9.326   9.345 -0.6086  0.0742 -0.0033
 4287SOL    HW118823   5.891   9.284   9.307 -0.0670 -0.5405 -0.4210
 4287SOL    HW218824   5.997   9.265   9.412  1.1514 -1.0334 -1.7107
 4288SOL     OW18825   0.360   5.066   1.288  0.5821  0.1968  0.3841
 4288SOL    HW118826   0.341   5.130   1.219  0.7242  0.3982  0.5318
 4288SOL    HW218827   0.296   4.997   1.274  1.4121 -0.3701 -0.7252
 4289SOL     OW18828   0.266   1.319   3.488  0.7364 -0.0780  0.2883
 4289SOL    HW118829   0.309   1.250   3.540  0.9780  0.3405  0.6527
 4289SOL    HW218830   0.280   1.293   3.397  1.2363 -0.2702  0.4164
 4290SOL     OW18831   6.756   4.048   0.797 -0.1038 -0.6586 -0.2956
 4290SOL    HW118832   6.817   4.109   0.756  1.5615 -3.3643 -2.1447
 4290SOL    HW218833   6.784   4.045   0.889 -0.3470  1.3995 -0.1029
 4291SOL     OW18834   8.292   4.161   2.280  0.5486  0.3862  0.2977
 4291SOL    HW118835   8.271   4.122   2.365 -0.7706 -0.7606 -0.5003
 4291SOL    HW218836   8.328   4.088   2.229 -0.2756  0.6294 -0.6570
 4292SOL     OW18837   7.182   0.418   2.233  0.0623  0.0119 -0.3084
 4292SOL    HW118838   7.178   0.416   2.329  3.3246  0.4164 -0.0730
 4292SOL    HW218839   7.150   0.505   2.210 -3.2251 -0.9529  0.1124
 4293SOL     OW18840   6.731   3.642   2.695  0.4514 -0.5192 -0.0924
 4293SOL    HW118841   6.715   3.731   2.726  1.5793 -1.0012  2.0607
 4293SOL    HW218842   6.646   3.598   2.701  0.5380 -0.4611  1.9865
 4294SOL     OW18843   8.266   4.617   1.722  0.2664  0.1137 -0.6099
 4294SOL    HW118844   8.231   4.551   1.661 -2.1407  2.0146 -1.4693
 4294SOL    HW218845   8.265   4.574   1.807 -1.2884 -0.9968 -1.1327
 4295SOL     OW18846   0.462   2.943   5.881 -0.4259 -0.2390  0.5894
 4295SOL    HW118847   0.408   2.874   5.842 -1.3025  0.8476 -0.1573
 4295SOL    HW218848   0.400   3.001   5.925  0.1752  0.7084  0.2153
 4296SOL     OW18849   6.757   1.756   5.320  0.0698  0.2386 -0.0687
 4296SOL    HW118850   6.678   1.706   5.342 -0.5558  0.4766 -1.6036
 4296SOL    HW218851   6.762   1.752   5.224  0.8782  1.7885 -0.1284
 4297SOL     OW18852   4.635   6.612   2.087  0.3664 -0.4862  0.7341
 4297SOL    HW118853   4.584   6.590   2.009 -1.1682  0.2869  1.4658
 4297SOL    HW218854   4.715   6.651   2.054  0.0256 -0.7621 -0.4510
 4298SOL     OW18855   2.123   5.120   9.108  0.2471  0.1124 -0.0377
 4298SOL    HW118856   2.133   5.203   9.061  1.0179 -0.3910 -0.8005
 4298SOL    HW218857   2.212   5.089   9.122 -0.0280 -0.5784  0.2627
 4299SOL     OW18858   0.667   0.557   8.292 -0.4642  0.2790 -0.2820
 4299SOL    HW118859   0.636   0.621   8.355  1.6497  1.1705 -0.0723
 4299SOL    HW218860   0.683   0.478   8.344  1.2295  0.9961  0.3361
 4300SOL     OW18861   0.142   1.634   1.330  0.5442 -0.1021 -0.2590
 4300SOL    HW118862   0.228   1.672   1.349  0.0975 -0.2121  2.4271
 4300SOL    HW218863   0.136   1.559   1.389 -2.1135  1.0306  1.0348
 4301SOL     OW18864   1.907   4.888   4.779 -0.0372  0.1709 -0.9640
 4301SOL    HW118865   1.855   4.828   4.833 -0.4750  0.7532 -0.7262
 4301SOL    HW218866   1.923   4.840   4.698  1.2585 -0.9929 -0.0512
 4302SOL     OW18867   5.057   5.391   5.100 -0.3268 -0.6251 -0.1419
 4302SOL    HW118868   4.968   5.358   5.084 -1.3010 -0.6547  4.1274
 4302SOL    HW218869   5.092   5.333   5.168  2.5766  0.1136 -0.8669
 4303SOL     OW18870   3.282   3.697   4.245  0.0898  0.1102 -0.2716
 4303SOL    HW118871   3.259   3.734   4.331  0.5988  1.2791 -0.6090
 4303SOL    HW218872   3.301   3.774   4.191 -0.6722 -0.5817 -1.5710
 4304SOL     OW18873   7.995   6.827   4.498 -0.3459 -0.0232 -0.4021
 4304SOL    HW118874   8.028   6.749   4.543  0.2712 -0.0587 -0.8978
 4304SOL    HW218875   7.901   6.827   4.515 -0.5698 -1.5692 -1.4287
 4305SOL     OW18876   7.754   7.068   1.691  0.0402  0.3616 -0.4277
 4305SOL    HW118877   7.743   7.106   1.778 -0.9636 -0.7909 -0.0225
 4305SOL    HW218878   7.821   7.122   1.650  0.4857  0.9743  1.0274
 4306SOL     OW18879   8.804   0.414   2.308 -0.2044 -0.1644  0.3231
 4306SOL    HW118880   8.752   0.436   2.385  0.6165 -1.2171  1.2122
 4306SOL    HW218881   8.865   0.487   2.298 -1.0203  0.4949 -0.0034
 4307SOL     OW18882   7.203   2.921   6.872 -0.3989  0.0038  0.0035
 4307SOL    HW118883   7.118   2.878   6.870 -0.5500  0.2790  0.4356
 4307SOL    HW218884   7.261   2.863   6.822 -0.0601 -1.8138  2.3135
 4308SOL     OW18885   8.666   8.345   2.836  0.6566 -0.2657  0.4123
 4308SOL    HW118886   8.695   8.318   2.924  1.5133 -1.3265 -0.1670
 4308SOL    HW218887   8.627   8.267   2.799 -0.2964  0.3590  0.0707
 4309SOL     OW18888   0.603   0.913   1.677  0.4689  0.9384 -0.4476
 4309SOL    HW118889   0.687   0.896   1.633  1.7016  1.0771  1.7130
 4309SOL    HW218890   0.618   0.994   1.726 -0.5464  0.3632  0.8653
 4310SOL     OW18891   5.811   8.706   6.067 -0.5510 -0.0505 -0.7661
 4310SOL    HW118892   5.810   8.673   6.157  0.1019  2.2302  0.1388
 4310SOL    HW218893   5.904   8.713   6.045 -0.7006 -1.3205 -1.9472
 4311SOL     OW18894   6.389   6.461   2.082  0.2088 -0.3147  0.0218
 4311SOL    HW118895   6.412   6.370   2.099 -0.1795 -0.6612 -1.1854
 4311SOL    HW218896   6.297   6.468   2.107  0.6319  0.1643  1.5514
 4312SOL     OW18897   7.722   6.941   3.990  0.3677 -0.0768 -0.2579
 4312SOL    HW118898   7.750   6.896   4.070  1.4424  1.2590  0.1454
 4312SOL    HW218899   7.757   6.888   3.919  0.9131 -0.3339  0.1947
 4313SOL     OW18900   3.408   6.170   2.041 -0.3774 -0.0757  0.2490
 4313SOL    HW118901   3.422   6.092   2.095 -0.4953 -0.6619 -0.5526
 4313SOL    HW218902   3.324   6.156   1.999 -0.9332  1.0122  0.9478
 4314SOL     OW18903   8.322   4.907   0.546  0.7357 -0.3796  0.6591
 4314SOL    HW118904   8.232   4.898   0.578  1.0549 -2.3509  1.1170
 4314SOL    HW218905   8.313   4.955   0.464 -0.6887 -0.1312  0.9226
 4315SOL     OW18906   0.571   3.200   8.176 -0.0703 -1.0048 -0.0582
 4315SOL    HW118907   0.655   3.171   8.213 -0.1463  0.0143  0.9842
 4315SOL    HW218908   0.507   3.141   8.215 -0.1682  0.1598  1.6536
 4316SOL     OW18909   2.160   4.795   8.761  0.0926 -0.5334 -0.2422
 4316SOL    HW118910   2.139   4.759   8.847  2.4418 -0.8626  0.2556
 4316SOL    HW218911   2.253   4.779   8.750  0.1415  0.7429 -2.2791
 4317SOL     OW18912   7.344   3.644   0.508 -0.1300 -0.5338 -0.5814
 4317SOL    HW118913   7.326   3.551   0.495 -1.0272 -0.3477 -0.7586
 4317SOL    HW218914   7.413   3.664   0.446  0.3814 -1.1746 -0.2350
 4318SOL     OW18915   7.697   6.815   4.515  0.1177 -0.2390 -0.1553
 4318SOL    HW118916   7.667   6.814   4.606 -0.4590  0.3283 -0.3333
 4318SOL    HW218917   7.622   6.782   4.465  0.0964  0.3531 -0.5176
 4319SOL     OW18918   8.202   3.434   3.100 -0.4864 -0.5625  0.3051
 4319SOL    HW118919   8.279   3.400   3.146  0.6626 -0.6130 -1.5587
 4319SOL    HW218920   8.217   3.528   3.095 -2.5359  0.0665  3.4013
 4320SOL     OW18921   4.109   5.034   5.588  0.0168 -0.4370  0.1247
 4320SOL    HW118922   4.027   5.079   5.565  0.5759  0.8684  0.6136
 4320SOL    HW218923   4.169   5.104   5.613  1.0716 -1.4338  0.4696
 4321SOL     OW18924   3.944   1.213   2.064 -0.0107 -0.2182 -0.1228
 4321SOL    HW118925   3.925   1.243   1.975 -0.1233 -1.6435 -0.6074
 4321SOL    HW218926   3.862   1.224   2.112  1.1895  5.1977  1.2972
 4322SOL     OW18927   4.848   7.976   8.886  0.4026  0.2925  0.0566
 4322SOL    HW118928   4.837   8.046   8.950  0.6214  0.5504 -0.1800
 4322SOL    HW218929   4.781   7.994   8.819 -0.3698 -0.4454  0.6111
 4323SOL     OW18930   8.367   4.633   3.509  0.1295 -0.3865  0.1495
 4323SOL    HW118931   8.400   4.671   3.427  1.6357  0.4587  1.1192
 4323SOL    HW218932   8.376   4.703   3.574  0.0725 -1.4307  1.3120
 4324SOL     OW18933   6.302   1.979   3.396 -0.3869  0.6017 -0.5277
 4324SOL    HW118934   6.230   2.038   3.417 -0.9220 -0.5093  0.8764
 4324SOL    HW218935   6.311   1.923   3.473  0.2996 -0.9450 -1.6698
 4325SOL     OW18936   4.822   0.502   6.697  0.0769 -0.0969  0.0066
 4325SOL    HW118937   4.821   0.595   6.720 -0.7325 -0.4229  1.3762
 4325SOL    HW218938   4.740   0.488   6.650  0.5045 -0.0015 -0.7949
 4326SOL     OW18939   6.817   4.457   7.583  0.4247 -0.0567  0.0318
 4326SOL    HW118940   6.840   4.545   7.551 -1.4254  0.3420 -0.3203
 4326SOL    HW218941   6.751   4.472   7.650  0.4088 -1.1732  0.2892
 4327SOL     OW18942   6.332   7.150   4.711  0.0299 -0.1688  0.3256
 4327SOL    HW118943   6.285   7.233   4.710  1.9943  1.0239 -0.8707
 4327SOL    HW218944   6.288   7.098   4.778 -0.2812  2.4259  2.2822
 4328SOL     OW18945   0.618   0.484   3.361  0.0537  0.4058  0.2771
 4328SOL    HW118946   0.641   0.576   3.350 -0.1969  0.5926  1.2513
 4328SOL    HW218947   0.652   0.460   3.447 -0.7434 -0.1332  0.4581
 4329SOL     OW18948   5.048   1.669   0.846  0.2074 -0.1626  0.1790
 4329SOL    HW118949   5.100   1.648   0.923 -0.3785 -0.3746  0.5254
 4329SOL    HW218950   4.998   1.589   0.829 -1.4246  0.6363  1.0063
 4330SOL     OW18951   0.258   6.765   3.832 -0.1278 -0.3943 -0.4788
 4330SOL    HW118952   0.262   6.843   3.888  0.0249  0.2546 -1.3758
 4330SOL    HW218953   0.350   6.748   3.810 -0.2394 -0.2621 -1.0467
 4331SOL     OW18954   1.171   4.572   2.728 -0.1866  0.3566 -0.3174
 4331SOL    HW118955   1.174   4.587   2.634  2.0293 -0.6518 -0.4901
 4331SOL    HW218956   1.260   4.544   2.750 -1.6242 -3.6563  1.3377
 4332SOL     OW18957   7.966   4.614   4.827  0.6503  0.4817  0.3863
 4332SOL    HW118958   8.009   4.601   4.911  1.8555  1.6527 -0.0074
 4332SOL    HW218959   8.018   4.563   4.765  0.4135  0.4834  0.1812
 4333SOL     OW18960   7.706   9.135   0.549 -0.0253 -0.3768 -0.4971
 4333SOL    HW118961   7.643   9.088   0.495 -0.9242  0.5661 -0.2965
 4333SOL    HW218962   7.714   9.221   0.508  0.4530 -0.1861 -0.0172
 4334SOL     OW18963   7.398   3.226   5.949  0.2623 -0.2756 -0.2508
 4334SOL    HW118964   7.432   3.207   5.862 -2.4768 -0.5255 -1.3609
 4334SOL    HW218965   7.321   3.171   5.957  0.8410 -0.8631  2.7036
 4335SOL     OW18966   3.593   6.520   3.289  0.0159  0.5016 -0.8394
 4335SOL    HW118967   3.656   6.589   3.311 -0.4684  0.2680  1.4711
 4335SOL    HW218968   3.570   6.539   3.198  0.4077  3.0099 -0.5098
 4336SOL     OW18969   0.939   1.162   6.563  0.5305 -0.3296  0.2880
 4336SOL    HW118970   0.948   1.209   6.480  1.6613  1.2299  1.2258
 4336SOL    HW218971   1.026   1.124   6.579  0.6738  0.3550  1.2699
 4337SOL     OW18972   8.997   5.274   4.962 -0.2701 -1.1439 -0.6310
 4337SOL    HW118973   9.013   5.285   4.869 -1.0134 -1.5662 -0.8171
 4337SOL    HW218974   8.913   5.316   4.977  0.7825  0.7559  0.2591
 4338SOL     OW18975   6.150   3.007   6.655 -0.0898 -0.1971  0.3230
 4338SOL    HW118976   6.057   3.024   6.636  0.1602  1.1550  0.2000
 4338SOL    HW218977   6.175   3.078   6.715  0.1945 -2.0504  2.5401
 4339SOL     OW18978   9.137   6.579   7.499 -0.2953 -0.0108  0.5844
 4339SOL    HW118979   9.150   6.656   7.443  0.0439 -0.9961 -0.7354
 4339SOL    HW218980   9.131   6.615   7.588  2.1109  1.3580  0.2675
 4340SOL     OW18981   9.361   3.354   4.561  0.3061  0.1264 -0.5058
 4340SOL    HW118982   9.282   3.362   4.613  2.5871  0.6753  3.2791
 4340SOL    HW218983   9.355   3.268   4.521 -3.1995  1.1050 -2.4997
 4341SOL     OW18984   3.079   4.991   7.075  0.3477  0.4636 -0.0182
 4341SOL    HW118985   3.144   4.939   7.028  1.4964  1.3246  0.5732
 4341SOL    HW218986   3.006   4.930   7.090  1.2202 -0.6674 -0.2641
 4342SOL     OW18987   2.172   6.681   5.784  0.2997  0.3699 -0.0285
 4342SOL    HW118988   2.194   6.737   5.710 -0.6222 -0.6057 -1.0654
 4342SOL    HW218989   2.121   6.610   5.747 -0.2074 -0.1410  1.5554
 4343SOL     OW18990   3.296   1.202   1.975  0.1098 -0.1825  0.1382
 4343SOL    HW118991   3.261   1.290   1.993  1.9416  0.6295 -0.1268
 4343SOL    HW218992   3.230   1.162   1.918  0.6542  2.1571 -2.3346
 4344SOL     OW18993   8.653   1.726   4.754 -0.1415  0.0256  1.1052
 4344SOL    HW118994   8.680   1.682   4.674 -2.1747  0.5597  0.0327
 4344SOL    HW218995   8.559   1.707   4.761 -0.6888  2.5440  1.6273
 4345SOL     OW18996   2.358   8.983   1.757 -0.3409  0.4990 -0.1450
 4345SOL    HW118997   2.337   9.076   1.768  0.4470  0.7726 -0.7636
 4345SOL    HW218998   2.436   8.983   1.700  1.2819 -0.4210  1.9307
 4346SOL     OW18999   3.037   5.713   1.230  0.0005 -0.0950 -0.3462
 4346SOL    HW119000   3.113   5.771   1.218  0.7010 -1.2469 -1.7932
 4346SOL    HW219001   2.972   5.747   1.169 -0.0805 -0.0132 -0.2131
 4347SOL     OW19002   6.446   7.599   7.719  0.1156  0.2538  0.3437
 4347SOL    HW119003   6.396   7.672   7.755  1.2019 -0.4272  3.5019
 4347SOL    HW219004   6.522   7.640   7.678 -0.3021  0.9903  0.2840
 4348SOL     OW19005   6.183   4.398   2.547 -0.0380  0.0848 -0.2842
 4348SOL    HW119006   6.247   4.328   2.534 -0.3182  0.1381 -2.2513
 4348SOL    HW219007   6.209   4.466   2.484 -1.3166  0.6301 -0.2474
 4349SOL     OW19008   5.618   6.474   8.109  0.6244  0.1782  0.3790
 4349SOL    HW119009   5.627   6.569   8.118  0.8967  0.0938  1.0745
 4349SOL    HW219010   5.524   6.460   8.099  0.4212  0.4297  1.7146
 4350SOL     OW19011   0.171   1.915   3.508  0.3501  0.3244  0.1706
 4350SOL    HW119012   0.202   1.839   3.558  1.5279  1.4475  1.2206
 4350SOL    HW219013   0.189   1.990   3.564 -0.2064  1.4605 -1.1050
 4351SOL     OW19014   1.444   0.387   7.010 -0.0209 -0.3930 -0.8595
 4351SOL    HW119015   1.435   0.292   7.012  0.0802 -0.4439 -1.9903
 4351SOL    HW219016   1.361   0.420   7.044  0.1250 -0.8785 -0.0142
 4352SOL     OW19017   1.377   6.761   0.287 -0.3064  0.8390 -0.4611
 4352SOL    HW119018   1.427   6.708   0.350 -0.0568  0.3073 -1.0873
 4352SOL    HW219019   1.289   6.724   0.290 -0.2539  0.7070 -0.5441
 4353SOL     OW19020   4.729   8.156   0.744  0.8729 -0.3597 -0.0384
 4353SOL    HW119021   4.789   8.219   0.783  1.3975 -1.1160  0.4135
 4353SOL    HW219022   4.677   8.207   0.682 -0.1863  0.9818  1.8125
 4354SOL     OW19023   1.895   7.461   8.896  0.4566  0.1413  0.2277
 4354SOL    HW119024   1.834   7.447   8.823  0.9450  2.4900 -0.7171
 4354SOL    HW219025   1.908   7.374   8.933 -2.3917 -0.6519 -0.3823
 4355SOL     OW19026   4.440   9.294   3.868 -0.5248 -0.0761 -0.2539
 4355SOL    HW119027   4.346   9.295   3.884 -1.2171 -2.0540 -3.3613
 4355SOL    HW219028   4.452   9.229   3.799  3.1893 -0.0842  0.1965
 4356SOL     OW19029   5.839   7.269   9.260 -0.6919 -0.1928  0.2847
 4356SOL    HW119030   5.848   7.339   9.325 -1.1138 -0.6831  0.8837
 4356SOL    HW219031   5.864   7.189   9.307 -1.2163 -0.5848 -0.0953
 4357SOL     OW19032   0.839   6.780   0.809 -0.4376 -0.5271 -0.4066
 4357SOL    HW119033   0.746   6.765   0.823 -0.6907  0.1886 -1.2419
 4357SOL    HW219034   0.858   6.863   0.854  0.0957 -1.3256  0.8837
 4358SOL     OW19035   1.904   3.331   0.649  0.1891 -0.4993  0.1872
 4358SOL    HW119036   1.855   3.359   0.571 -0.9043 -2.1273  0.2291
 4358SOL    HW219037   1.960   3.260   0.618  0.6095 -0.3847  0.6706
 4359SOL     OW19038   2.111   7.818   2.715  0.4647 -0.5182 -0.0095
 4359SOL    HW119039   2.020   7.787   2.720  0.4222 -0.8407 -1.9939
 4359SOL    HW219040   2.105   7.912   2.728 -0.4621 -0.2275 -2.0979
 4360SOL     OW19041   3.572   7.341   3.876 -0.7508 -0.2073  0.3359
 4360SOL    HW119042   3.609   7.416   3.829  0.2831  0.1484  1.6719
 4360SOL    HW219043   3.503   7.308   3.818 -0.0881  0.7341 -1.0285
 4361SOL     OW19044   2.459   0.244   2.937 -0.5109 -0.7235 -0.6291
 4361SOL    HW119045   2.451   0.184   3.010 -0.3408 -1.9628 -1.5974
 4361SOL    HW219046   2.520   0.312   2.968  1.0121 -2.1958 -0.2333
 4362SOL     OW19047   1.532   4.017   7.808 -0.1463 -0.1188  0.9133
 4362SOL    HW119048   1.534   4.034   7.902  1.7800  1.4120  0.6495
 4362SOL    HW219049   1.613   4.056   7.774 -0.7327 -0.7201 -1.3801
 4363SOL     OW19050   0.963   8.967   7.299 -0.1268  0.9112 -0.1095
 4363SOL    HW119051   0.891   8.919   7.341  0.0095  2.4505  2.0728
 4363SOL    HW219052   0.993   8.909   7.229  0.4656 -2.5755  2.7158
 4364SOL     OW19053   8.679   8.780   1.006  0.4709 -0.2804 -1.1828
 4364SOL    HW119054   8.625   8.716   1.052 -1.0611  0.7548 -1.4501
 4364SOL    HW219055   8.768   8.746   1.012 -0.2219 -2.1108 -0.8207
 4365SOL     OW19056   1.944   0.041   8.463  0.0623 -0.1139  0.5577
 4365SOL    HW119057   1.924  -0.019   8.534  0.3613  1.4387  2.0121
 4365SOL    HW219058   2.026   0.084   8.489 -0.0488  0.8101 -0.5181
 4366SOL     OW19059   6.556   4.980   2.957 -0.1932  0.4229 -0.3472
 4366SOL    HW119060   6.534   5.045   2.891  2.1936 -0.1986 -1.8973
 4366SOL    HW219061   6.631   5.017   3.004  0.8140 -0.8766 -0.8464
 4367SOL     OW19062   8.335   1.190   4.430  0.4876  0.2356 -0.2271
 4367SOL    HW119063   8.379   1.119   4.383 -0.1692 -0.4866  0.2300
 4367SOL    HW219064   8.247   1.194   4.390  0.3048  0.3540  0.1824
 4368SOL     OW19065   2.217   3.670   1.634  0.1336  0.2612 -0.2552
 4368SOL    HW119066   2.175   3.587   1.613  0.8297 -0.3162  0.5445
 4368SOL    HW219067   2.203   3.680   1.728 -0.2230  1.2174 -0.3994
 4369SOL     OW19068   6.671   7.325   5.352 -0.0258 -0.0435  0.0266
 4369SOL    HW119069   6.724   7.262   5.304  0.5232  0.3354  0.1329
 4369SOL    HW219070   6.680   7.297   5.444 -0.6662 -0.4618 -0.0279
 4370SOL     OW19071   3.968   5.693   1.898 -0.3491  0.5271 -0.1587
 4370SOL    HW119072   3.982   5.637   1.975 -1.5520 -0.4563 -0.6105
 4370SOL    HW219073   3.984   5.636   1.823 -0.6328  1.0637 -0.6369
 4371SOL     OW19074   2.517   9.176   5.628  0.2434  0.1647 -0.3247
 4371SOL    HW119075   2.575   9.201   5.700  1.9672  0.2108 -1.6808
 4371SOL    HW219076   2.573   9.128   5.567 -1.0270  0.6329 -1.9319
 4372SOL     OW19077   0.220   7.942   5.071  0.0001 -0.0952 -0.0540
 4372SOL    HW119078   0.227   8.036   5.083  3.0580 -0.3405  0.7058
 4372SOL    HW219079   0.185   7.909   5.153  0.1824  0.2577  0.1640
 4373SOL     OW19080   0.438   1.946   4.107  0.4656  0.1152  0.3982
 4373SOL    HW119081   0.371   1.994   4.058 -0.2182 -0.6106  0.5974
 4373SOL    HW219082   0.495   1.910   4.039  0.7113  0.8202  0.2299
 4374SOL     OW19083   9.191   0.625   2.789 -0.2054 -0.1613  0.0217
 4374SOL    HW119084   9.165   0.626   2.696  1.7635  2.6528 -0.6379
 4374SOL    HW219085   9.108   0.626   2.836 -1.2758 -0.0043 -1.7525
 4375SOL     OW19086   6.900   7.541   7.969 -0.2925  0.3827 -0.1781
 4375SOL    HW119087   6.819   7.502   8.002 -0.9070  1.4597 -0.3385
 4375SOL    HW219088   6.914   7.499   7.885  0.0732 -0.7975  0.4642
 4376SOL     OW19089   4.791   4.262   5.692 -0.3221 -0.3588  0.2447
 4376SOL    HW119090   4.805   4.356   5.700  0.6865 -0.3863 -0.8899
 4376SOL    HW219091   4.876   4.227   5.666 -1.0432 -1.3914 -0.8196
 4377SOL     OW19092   1.124   6.328   3.976  0.2274  0.1294  0.0407
 4377SOL    HW119093   1.128   6.369   3.890 -2.3823  1.2905  0.3807
 4377SOL    HW219094   1.175   6.386   4.033  2.3660 -0.8902 -0.7195
 4378SOL     OW19095   3.020   3.079   6.118 -0.0417 -0.3424 -0.6013
 4378SOL    HW119096   2.948   3.108   6.174  2.0297  1.7361  1.2034
 4378SOL    HW219097   3.044   2.993   6.152 -0.3277 -0.1193  0.1774
 4379SOL     OW19098   8.660   5.124   2.535  0.3673  0.0063 -0.2416
 4379SOL    HW119099   8.634   5.164   2.618 -1.2734  0.1708 -0.7871
 4379SOL    HW219100   8.754   5.108   2.544  0.5040  1.3269  1.0865
 4380SOL     OW19101   7.559   8.490   0.389 -1.0172  0.0561  0.0537
 4380SOL    HW119102   7.533   8.463   0.477  2.7975  0.6495  1.5581
 4380SOL    HW219103   7.583   8.582   0.399  1.9347 -0.5095 -0.8589
 4381SOL     OW19104   2.787   2.588   5.374 -0.0352 -0.1396  0.0126
 4381SOL    HW119105   2.772   2.494   5.369  0.3546 -0.1583 -1.0400
 4381SOL    HW219106   2.704   2.624   5.405 -0.6148 -0.7103 -0.8526
 4382SOL     OW19107   2.507   3.479   4.387  0.4462 -0.2368  0.2259
 4382SOL    HW119108   2.431   3.465   4.330  0.9455 -0.5623 -0.3618
 4382SOL    HW219109   2.469   3.496   4.473 -0.3007 -0.2255 -0.0991
 4383SOL     OW19110   3.021   6.939   1.115  0.2874 -0.6120  0.5707
 4383SOL    HW119111   2.950   7.001   1.098  0.1742 -0.9865 -0.3889
 4383SOL    HW219112   3.086   6.990   1.164  0.6408  0.5739 -1.0531
 4384SOL     OW19113   6.631   2.054   4.976  0.2004 -0.7583 -0.2458
 4384SOL    HW119114   6.586   2.075   4.895  2.2606  2.4793 -0.7456
 4384SOL    HW219115   6.724   2.056   4.953  0.8132 -0.6310  2.0030
 4385SOL     OW19116   6.201   6.025   0.136 -0.4945  1.1156 -0.1021
 4385SOL    HW119117   6.162   5.978   0.063 -0.5231  1.4231 -0.2893
 4385SOL    HW219118   6.149   5.999   0.212  2.6602 -3.3565  0.9076
 4386SOL     OW19119   9.204   7.295   7.406 -0.1358  0.4567 -0.4415
 4386SOL    HW119120   9.205   7.328   7.495  1.4828 -0.8934  0.1035
 4386SOL    HW219121   9.294   7.265   7.391 -0.8941 -1.3839 -1.7101
 4387SOL     OW19122   4.860   5.390   0.512 -0.0064 -0.3731 -0.4244
 4387SOL    HW119123   4.930   5.382   0.576  0.2326 -0.0393 -0.6378
 4387SOL    HW219124   4.809   5.466   0.542 -0.3469 -0.6832 -0.2064
 4388SOL     OW19125   2.786   3.346   0.248  0.2911  0.4299  0.0491
 4388SOL    HW119126   2.798   3.281   0.317  1.0658  1.2865  0.7402
 4388SOL    HW219127   2.707   3.394   0.274 -1.0230 -0.9809 -1.1050
 4389SOL     OW19128   0.841   7.605   7.635  0.2154  0.6117 -0.0061
 4389SOL    HW119129   0.914   7.627   7.693 -0.4119  0.6046  0.8024
 4389SOL    HW219130   0.824   7.686   7.586 -0.3783  1.1599  1.0803
 4390SOL     OW19131   3.800   5.764   4.392 -0.5709  0.0933  0.0469
 4390SOL    HW119132   3.828   5.853   4.369  0.4458 -0.3912 -0.6470
 4390SOL    HW219133   3.814   5.759   4.487  0.5791  0.2780 -0.0923
 4391SOL     OW19134   6.656   8.074   2.482  0.4537  0.0542 -0.1772
 4391SOL    HW119135   6.680   7.985   2.456 -1.2225  0.1844 -2.5944
 4391SOL    HW219136   6.640   8.069   2.576  0.9472 -2.0681 -0.1703
 4392SOL     OW19137   8.515   1.389   5.624 -0.1837 -0.0403  0.1171
 4392SOL    HW119138   8.456   1.359   5.693  0.1760 -1.0128  0.0141
 4392SOL    HW219139   8.597   1.344   5.642  0.0302  0.0080 -0.7197
 4393SOL     OW19140   8.680   6.883   1.318  0.4634  0.6150 -0.2156
 4393SOL    HW119141   8.679   6.787   1.309  1.6876  0.5472  0.2038
 4393SOL    HW219142   8.769   6.908   1.293  0.4421  1.5431  0.6060
 4394SOL     OW19143   0.827   1.109   4.290  0.1637  0.4376  0.4128
 4394SOL    HW119144   0.908   1.127   4.338 -0.5208 -0.1593  1.8668
 4394SOL    HW219145   0.757   1.137   4.349 -0.7624 -1.7663  0.4655
 4395SOL     OW19146   0.419   3.590   5.534  0.0220  0.0325  0.2276
 4395SOL    HW119147   0.390   3.509   5.577 -0.7601  0.2452  0.1091
 4395SOL    HW219148   0.454   3.644   5.605 -0.9233  0.2307  0.5558
 4396SOL     OW19149   4.758   3.334   4.549  0.2516 -0.5002  0.5817
 4396SOL    HW119150   4.799   3.420   4.558  0.3293 -0.3292 -1.0336
 4396SOL    HW219151   4.671   3.344   4.588  0.8388 -0.1771  1.8728
 4397SOL     OW19152   7.358   2.417   4.126  0.2710 -0.0709  0.1450
 4397SOL    HW119153   7.444   2.436   4.162  0.2637  0.7795 -0.2624
 4397SOL    HW219154   7.374   2.347   4.062  0.6806  0.1570 -0.0073
 4398SOL     OW19155   2.784   1.925   4.742 -0.4335  0.1168  0.2644
 4398SOL    HW119156   2.738   1.843   4.758  0.5946 -0.7153 -0.8498
 4398SOL    HW219157   2.784   1.934   4.647  1.1148  0.4128  0.2671
 4399SOL     OW19158   0.696   0.423   1.331 -0.6058 -0.0369  0.2034
 4399SOL    HW119159   0.664   0.393   1.416 -1.4453  1.3241  0.3945
 4399SOL    HW219160   0.789   0.398   1.330 -0.7402 -0.6247  1.2467
 4400SOL     OW19161   6.592   7.670   2.964  0.2844 -0.0638  0.1141
 4400SOL    HW119162   6.521   7.607   2.954  0.6930 -0.3507 -1.2350
 4400SOL    HW219163   6.592   7.719   2.881  2.6228 -1.1051 -0.5870
 4401SOL     OW19164   8.970   8.472   3.633 -0.3285 -0.2721  0.5442
 4401SOL    HW119165   8.996   8.434   3.717 -1.0753  1.9013  1.8537
 4401SOL    HW219166   9.052   8.504   3.595 -0.3792  2.6766  2.6093
 4402SOL     OW19167   6.314   3.388   3.917  0.0899 -0.0122 -0.3188
 4402SOL    HW119168   6.331   3.460   3.979  1.3399  0.3405 -1.0331
 4402SOL    HW219169   6.390   3.388   3.859  0.1612 -1.9672 -0.3020
 4403SOL     OW19170   3.641   2.044   5.076  0.2234  0.1249 -0.1576
 4403SOL    HW119171   3.690   2.006   5.149 -1.0748 -0.1969  0.5839
 4403SOL    HW219172   3.549   2.035   5.101 -0.2042  1.8857 -0.8991
 4404SOL     OW19173   7.211   4.936   8.294  0.1635 -0.2694  0.1434
 4404SOL    HW119174   7.289   4.983   8.324 -0.3945  0.2006  0.9095
 4404SOL    HW219175   7.159   5.003   8.249  0.6427 -0.8047 -1.2644
 4405SOL     OW19176   4.761   3.210   2.694 -0.0709 -0.2065 -0.3999
 4405SOL    HW119177   4.756   3.285   2.634  0.4729 -1.2581 -1.8050
 4405SOL    HW219178   4.805   3.142   2.643 -0.3146 -1.3990  0.9458
 4406SOL     OW19179   5.939   2.674   2.280 -0.1670  0.5615 -0.6245
 4406SOL    HW119180   6.029   2.689   2.250  0.6693 -0.3859  1.2149
 4406SOL    HW219181   5.900   2.761   2.281  1.0997  1.1608 -0.4055
 4407SOL     OW19182   4.070   8.338   7.802  0.2669  0.4955  0.7056
 4407SOL    HW119183   3.983   8.310   7.832 -0.7695  3.1579  0.5041
 4407SOL    HW219184   4.061   8.350   7.708  1.2514 -0.3857  0.4790
 4408SOL     OW19185   0.768   4.378   9.001  0.4724 -0.0311 -0.2137
 4408SOL    HW119186   0.796   4.459   8.958 -0.6865  0.6698  0.3051
 4408SOL    HW219187   0.846   4.323   9.001  0.9844  0.6385 -1.5859
 4409SOL     OW19188   3.152   6.687   2.545 -0.2300  0.0892  0.3845
 4409SOL    HW119189   3.132   6.671   2.453  1.4343  1.3022 -0.2238
 4409SOL    HW219190   3.066   6.690   2.587 -0.9712 -2.2784 -0.7666
 4410SOL     OW19191   8.317   7.748   0.541 -0.0932  0.5691 -0.1911
 4410SOL    HW119192   8.409   7.772   0.534 -0.0922  0.8026  0.5477
 4410SOL    HW219193   8.295   7.712   0.455  0.7498  0.2813 -0.2946
 4411SOL     OW19194   5.448   1.566   1.290 -0.9086 -0.0348 -0.0662
 4411SOL    HW119195   5.399   1.585   1.211 -0.2687  0.4854 -0.3473
 4411SOL    HW219196   5.536   1.544   1.260 -0.0131  2.2877  0.5557
 4412SOL     OW19197   9.346   8.758   6.235  0.4955  0.0410  0.5968
 4412SOL    HW119198   9.263   8.711   6.234  1.5210 -1.9091 -0.3106
 4412SOL    HW219199   9.349   8.805   6.152 -0.7245  2.1821  1.6930
 4413SOL     OW19200   5.083   3.574   7.147  0.6686 -0.2894 -0.9892
 4413SOL    HW119201   5.012   3.549   7.087 -1.5831  1.9227  0.5549
 4413SOL    HW219202   5.040   3.583   7.232  2.8370  1.0768  0.0364
 4414SOL     OW19203   1.062   0.878   4.207  0.3710  0.3721 -1.0263
 4414SOL    HW119204   1.119   0.842   4.138  0.1708 -0.7735 -0.6199
 4414SOL    HW219205   0.995   0.811   4.219  2.0551 -0.9514  2.3395
 4415SOL     OW19206   6.748   3.295   3.276  0.4432 -0.4360  0.3674
 4415SOL    HW119207   6.725   3.283   3.184 -0.9882 -1.0344  0.7781
 4415SOL    HW219208   6.843   3.305   3.275  0.4811 -0.6140 -1.1561
 4416SOL     OW19209   8.955   4.405   8.103 -0.1134  0.2114  0.0999
 4416SOL    HW119210   9.025   4.411   8.168  1.1022 -1.6484 -0.9776
 4416SOL    HW219211   8.998   4.378   8.023 -1.9421 -0.0512 -0.8511
 4417SOL     OW19212   4.137   3.155   6.423 -0.1571  0.0181 -0.0017
 4417SOL    HW119213   4.116   3.127   6.513  0.3027  1.7953  0.7105
 4417SOL    HW219214   4.198   3.228   6.435  0.0557  0.1598 -1.7810
 4418SOL     OW19215   5.338   1.389   4.342 -0.5107 -0.0926  0.0080
 4418SOL    HW119216   5.296   1.303   4.346 -0.3018 -0.1623  1.0446
 4418SOL    HW219217   5.432   1.369   4.345 -0.4523  0.2142  2.7497
 4419SOL     OW19218   7.611   1.871   3.267  0.3021 -0.1584  0.0639
 4419SOL    HW119219   7.620   1.962   3.293 -1.2516  0.3608 -1.0406
 4419SOL    HW219220   7.697   1.848   3.231  1.3576  0.1809  2.1952
 4420SOL     OW19221   5.053   4.916   7.659  0.1839 -0.0313  0.1365
 4420SOL    HW119222   5.048   4.918   7.564  0.9262 -2.1454  0.0022
 4420SOL    HW219223   5.008   4.836   7.685  2.8219 -1.2850  1.2534
 4421SOL     OW19224   6.513   0.332   0.065 -0.0082  0.3489 -0.0317
 4421SOL    HW119225   6.464   0.375  -0.004 -0.1741  0.2360  0.0150
 4421SOL    HW219226   6.447   0.287   0.117  0.0272  1.0579  0.6540
 4422SOL     OW19227   2.484   8.790   7.786 -0.1218 -0.2981  0.3703
 4422SOL    HW119228   2.524   8.810   7.871  0.8083 -2.2502  0.4582
 4422SOL    HW219229   2.535   8.715   7.753  0.9765  1.6982 -2.9233
 4423SOL     OW19230   8.120   8.439   7.241 -0.2883  1.0587 -0.0429
 4423SOL    HW119231   8.126   8.370   7.307 -0.2556 -1.9026 -2.8781
 4423SOL    HW219232   8.026   8.458   7.235 -0.4902  0.0464 -0.3174
 4424SOL     OW19233   5.258   6.692   2.308 -0.0196  0.2049 -0.2987
 4424SOL    HW119234   5.349   6.663   2.312  0.2255  0.9962  0.1644
 4424SOL    HW219235   5.261   6.785   2.330 -1.0239  0.0788  0.4859
 4425SOL     OW19236   4.005   0.248   8.862 -0.7563  0.5120  0.1341
 4425SOL    HW119237   4.085   0.197   8.850 -0.9313  0.3655 -0.4369
 4425SOL    HW219238   4.028   0.336   8.832 -1.3406  0.0280 -1.9163
 4426SOL     OW19239   0.796   2.515   1.109  0.0146  0.1584  0.0961
 4426SOL    HW119240   0.748   2.548   1.033 -2.8859 -0.9993  1.2677
 4426SOL    HW219241   0.826   2.594   1.154  0.1634  0.9065 -1.2573
 4427SOL     OW19242   3.827   7.010   4.844  0.4702 -0.1985  0.2780
 4427SOL    HW119243   3.919   6.992   4.861  0.1801 -0.2374  1.9110
 4427SOL    HW219244   3.780   6.964   4.913 -0.8169 -0.4683 -0.7289
 4428SOL     OW19245   2.134   0.847   5.782 -0.4135 -0.1802  0.3145
 4428SOL    HW119246   2.039   0.843   5.783 -0.4568  0.7398  0.9510
 4428SOL    HW219247   2.157   0.832   5.690 -1.2250  0.4123 -0.0041
 4429SOL     OW19248   7.169   5.248   6.077 -0.8704  0.5218 -0.7687
 4429SOL    HW119249   7.148   5.327   6.126 -0.2024  0.6040 -0.6049
 4429SOL    HW219250   7.206   5.279   5.995  0.4833  0.4076 -0.2339
 4430SOL     OW19251   5.438   7.847   4.849  0.2224  0.1797 -0.1348
 4430SOL    HW119252   5.517   7.895   4.874  0.9420 -0.4696 -1.1209
 4430SOL    HW219253   5.394   7.829   4.932  1.0277  0.6820  0.4121
 4431SOL     OW19254   8.064   0.801   5.524 -0.5405 -0.3510  0.4017
 4431SOL    HW119255   7.975   0.830   5.505 -0.6623 -1.1543 -0.2745
 4431SOL    HW219256   8.119   0.878   5.508 -0.5987 -0.9405 -3.3888
 4432SOL     OW19257   2.436   0.459   3.539  0.4825  0.2978  0.1607
 4432SOL    HW119258   2.365   0.414   3.493  0.5111 -2.2696  2.3360
 4432SOL    HW219259   2.513   0.446   3.484  0.0861 -0.7540 -0.1779
 4433SOL     OW19260   0.171   5.778   6.629  0.0745 -0.5765 -0.2309
 4433SOL    HW119261   0.164   5.864   6.586  0.3386 -0.6129 -0.3502
 4433SOL    HW219262   0.120   5.719   6.573 -0.7937 -0.3355  0.2986
 4434SOL     OW19263   8.075   4.321   4.174  0.2446  0.0969 -0.3449
 4434SOL    HW119264   8.110   4.323   4.264  0.4310 -0.0009 -0.4152
 4434SOL    HW219265   7.986   4.288   4.184 -0.6844  2.5548  0.1186
 4435SOL     OW19266   5.974   4.887   6.208  0.0156  0.2598  0.3965
 4435SOL    HW119267   5.917   4.880   6.132  1.3193  3.1395 -1.0108
 4435SOL    HW219268   5.920   4.929   6.275 -0.2507  0.6613 -0.0603
 4436SOL     OW19269   7.301   1.240   2.301  0.3084  0.1511 -0.0908
 4436SOL    HW119270   7.231   1.181   2.330 -0.1179  0.4070 -0.5860
 4436SOL    HW219271   7.284   1.322   2.347 -0.5461  0.6536 -1.2623
 4437SOL     OW19272   8.260   2.692   0.203 -0.0972 -0.2561 -0.0323
 4437SOL    HW119273   8.205   2.722   0.275 -0.1795 -1.7219  0.5493
 4437SOL    HW219274   8.304   2.771   0.172  1.1540  0.2153  2.6438
 4438SOL     OW19275   3.697   0.097   2.668 -0.3216  0.1759 -0.7946
 4438SOL    HW119276   3.699   0.004   2.690  1.9730 -0.2269 -2.3931
 4438SOL    HW219277   3.772   0.110   2.611  0.0921  3.2563  0.2674
 4439SOL     OW19278   0.860   2.851   3.567  0.3277 -0.2383  0.2384
 4439SOL    HW119279   0.937   2.878   3.617 -0.6676  0.2551  1.5488
 4439SOL    HW219280   0.791   2.911   3.594 -0.2375  0.1378 -1.8474
 4440SOL     OW19281   5.164   6.033   2.289  0.1412 -0.3066 -0.1121
 4440SOL    HW119282   5.192   6.044   2.199 -0.4890 -0.3914 -0.3249
 4440SOL    HW219283   5.069   6.024   2.284 -0.2469  2.3479  0.7799
 4441SOL     OW19284   2.604   5.739   7.077 -0.3668  0.2675  0.4446
 4441SOL    HW119285   2.600   5.791   6.997  1.0230 -0.7953 -0.3696
 4441SOL    HW219286   2.571   5.653   7.051 -0.9227  0.2047  1.3084
 4442SOL     OW19287   1.816   8.823   9.023  0.3864 -0.0852  0.3292
 4442SOL    HW119288   1.796   8.898   8.967 -2.3244  0.3876  1.7554
 4442SOL    HW219289   1.777   8.748   8.978  1.4353 -0.3665 -0.1544
 4443SOL     OW19290   1.696   3.852   1.136  0.3768 -0.1064  0.1837
 4443SOL    HW119291   1.641   3.787   1.178  1.0806 -1.1638 -0.4604
 4443SOL    HW219292   1.766   3.870   1.199 -0.7056  1.3072  1.0391
 4444SOL     OW19293   7.778   4.913   8.070 -0.1741 -0.1251  0.0543
 4444SOL    HW119294   7.719   4.869   8.009  0.4171 -1.5991  0.5206
 4444SOL    HW219295   7.864   4.909   8.027  0.0349 -0.1616  0.4751
 4445SOL     OW19296   4.447   2.638   0.592  0.3721  0.0338 -0.3378
 4445SOL    HW119297   4.372   2.694   0.573  2.2687  2.8549 -0.0732
 4445SOL    HW219298   4.493   2.629   0.509  1.2945  0.8406  0.0630
 4446SOL     OW19299   7.536   8.855   2.637  0.2243  0.2339  0.3661
 4446SOL    HW119300   7.583   8.938   2.633  0.5428  0.0641  0.5042
 4446SOL    HW219301   7.566   8.807   2.559 -0.7594  0.6620 -0.2890
 4447SOL     OW19302   5.606   1.791   9.267  0.2135 -1.0655 -0.0524
 4447SOL    HW119303   5.686   1.809   9.218 -0.2140 -0.4880 -0.5391
 4447SOL    HW219304   5.553   1.737   9.208 -0.4396 -0.0995 -0.3687
 4448SOL     OW19305   0.831   7.230   1.771 -0.2305  0.2729  0.2966
 4448SOL    HW119306   0.854   7.242   1.679  0.3796  0.6903  0.4911
 4448SOL    HW219307   0.916   7.224   1.816 -0.4878 -2.5304  0.5367
 4449SOL     OW19308   2.171   1.315   7.453  0.8534 -0.4908  0.3406
 4449SOL    HW119309   2.196   1.303   7.545 -0.8660  1.5139  1.1602
 4449SOL    HW219310   2.234   1.378   7.419  1.2635 -0.9511  0.2317
 4450SOL     OW19311   6.519   7.142   6.477 -0.0119 -0.2197 -0.2055
 4450SOL    HW119312   6.514   7.050   6.451  0.8502 -0.7581  1.3872
 4450SOL    HW219313   6.611   7.166   6.463 -0.1712  0.3103 -0.3576
 4451SOL     OW19314   3.065   1.930   8.856  0.3738  0.4789 -0.2215
 4451SOL    HW119315   2.978   1.894   8.873  1.3959 -2.2991 -0.4671
 4451SOL    HW219316   3.095   1.962   8.941 -0.5523  0.7440  0.0156
 4452SOL     OW19317   0.347   5.534   9.290  0.2705  0.4163  0.3346
 4452SOL    HW119318   0.269   5.588   9.285  0.6388  1.0098  0.7164
 4452SOL    HW219319   0.327   5.469   9.357 -0.3745 -0.2712 -0.5109
 4453SOL     OW19320   2.123   9.255   0.562 -0.8268 -0.0249 -0.2739
 4453SOL    HW119321   2.217   9.274   0.566 -0.5609 -1.3503  0.0872
 4453SOL    HW219322   2.117   9.160   0.558 -2.1002  0.0618 -2.1413
 4454SOL     OW19323   3.022   8.725   2.570  0.1693 -0.6773  0.2543
 4454SOL    HW119324   2.956   8.658   2.587 -2.3438  1.7179  0.5137
 4454SOL    HW219325   2.992   8.801   2.619  2.4236  0.9719 -0.7685
 4455SOL     OW19326   7.848   6.298   8.703  0.0011  0.3285 -0.0782
 4455SOL    HW119327   7.831   6.376   8.755 -1.0711  0.1207 -0.0956
 4455SOL    HW219328   7.899   6.241   8.761  1.5234  1.3603 -0.3531
 4456SOL     OW19329   8.936   1.711   5.048  0.0611 -0.3471  0.2965
 4456SOL    HW119330   8.962   1.678   5.134  0.5558 -0.4813  0.0979
 4456SOL    HW219331   8.855   1.760   5.065 -1.2574 -2.4419  0.4509
 4457SOL     OW19332   4.051   7.333   6.969 -0.5895 -0.3570 -0.1271
 4457SOL    HW119333   4.105   7.262   7.004  0.2932  0.0020 -0.7258
 4457SOL    HW219334   4.114   7.397   6.936 -1.2950  1.6705  2.1486
 4458SOL     OW19335   6.446   5.349   5.503  0.5033  0.1523 -0.2116
 4458SOL    HW119336   6.357   5.377   5.522  1.1754  2.5407 -0.1419
 4458SOL    HW219337   6.449   5.341   5.407  0.7160  2.4107 -0.4721
 4459SOL     OW19338   8.489   8.295   7.111  0.2020 -0.0576 -0.6506
 4459SOL    HW119339   8.569   8.317   7.062  0.5669  0.5503  0.2069
 4459SOL    HW219340   8.484   8.361   7.180  0.0629 -1.3000  0.5584
 4460SOL     OW19341   1.229   6.130   4.163  0.6347  0.2727  0.3250
 4460SOL    HW119342   1.229   6.111   4.257  0.9760  1.9931  0.7035
 4460SOL    HW219343   1.318   6.156   4.143  0.7579 -0.8366 -0.6715
 4461SOL     OW19344   0.710   6.598   2.198  0.0420  0.0565 -0.0110
 4461SOL    HW119345   0.755   6.666   2.148 -2.5400  0.3766 -2.1707
 4461SOL    HW219346   0.683   6.534   2.132 -1.8253 -0.5335  1.2278
 4462SOL     OW19347   7.554   2.483   1.543  0.5292  0.2289  0.4165
 4462SOL    HW119348   7.461   2.489   1.564  0.8930  0.4099  2.0704
 4462SOL    HW219349   7.585   2.574   1.548  1.1358 -0.0248  1.6321
 4463SOL     OW19350   1.625   9.359   1.628 -0.0320 -1.1760  0.5916
 4463SOL    HW119351   1.720   9.353   1.615  0.1194 -0.4651  1.3068
 4463SOL    HW219352   1.589   9.290   1.572  0.7694 -0.0205 -1.4731
 4464SOL     OW19353   8.188   5.325   5.635  0.2969 -0.3955 -0.8034
 4464SOL    HW119354   8.176   5.378   5.556  2.1773  1.9724  0.3704
 4464SOL    HW219355   8.281   5.334   5.656 -0.2036 -0.6802  1.8370
 4465SOL     OW19356   3.625   0.622   5.764  0.4257  0.1409 -0.4162
 4465SOL    HW119357   3.642   0.531   5.741 -1.2672 -0.2143 -0.3701
 4465SOL    HW219358   3.685   0.640   5.836 -0.3107 -1.4604  0.6670
 4466SOL     OW19359   3.514   7.321   0.026 -0.0723 -0.8135 -0.0150
 4466SOL    HW119360   3.424   7.332   0.057  0.2873  0.7342  0.5850
 4466SOL    HW219361   3.568   7.349   0.100  0.8831 -0.9911 -0.6324
 4467SOL     OW19362   6.816   8.500   5.223 -0.2028 -0.4257 -0.0581
 4467SOL    HW119363   6.746   8.446   5.186 -1.1082  0.2133  0.6520
 4467SOL    HW219364   6.816   8.579   5.169  0.8185 -0.9221 -0.8188
 4468SOL     OW19365   7.022   5.671   1.995  0.1008 -0.2250 -0.2585
 4468SOL    HW119366   7.112   5.637   1.997 -0.5344 -2.1241 -1.6670
 4468SOL    HW219367   7.030   5.756   1.951  1.1658 -0.4304 -0.5013
 4469SOL     OW19368   5.576   7.515   8.368 -0.0565  0.0211  0.1178
 4469SOL    HW119369   5.622   7.556   8.441  1.0499 -1.6693  0.4302
 4469SOL    HW219370   5.644   7.499   8.303 -1.0766  1.7880 -1.4843
 4470SOL     OW19371   8.898   8.922   7.359 -0.3772 -0.0155 -0.2649
 4470SOL    HW119372   8.978   8.936   7.309 -1.1956  0.2834 -1.5423
 4470SOL    HW219373   8.873   9.009   7.389  1.1794 -0.3978  2.4898
 4471SOL     OW19374   4.991   7.911   3.904 -0.5506  0.0568  0.5362
 4471SOL    HW119375   4.903   7.936   3.876 -0.1245  1.1902  0.1450
 4471SOL    HW219376   5.044   7.919   3.824  0.2668  1.2586  1.1753
 4472SOL     OW19377   6.753   2.455   4.879 -0.6205 -0.0119 -0.2191
 4472SOL    HW119378   6.708   2.527   4.923  0.0369 -0.4640  1.2967
 4472SOL    HW219379   6.829   2.438   4.935  1.1055  0.3158 -2.3253
 4473SOL     OW19380   8.041   1.124   0.851 -0.4081  0.1640  0.8588
 4473SOL    HW119381   8.079   1.164   0.929 -0.7230  0.2976  0.9430
 4473SOL    HW219382   8.106   1.141   0.782  1.1702 -2.2206  1.6112
 4474SOL     OW19383   6.086   0.195   6.663  0.3018 -1.0216 -0.2510
 4474SOL    HW119384   6.181   0.190   6.672  0.2667 -1.9363 -0.3492
 4474SOL    HW219385   6.072   0.223   6.573  0.4610 -2.7135 -0.8328
 4475SOL     OW19386   2.649   5.399   6.178  0.1379  0.2462  0.4789
 4475SOL    HW119387   2.609   5.365   6.098  2.2450 -0.8036 -0.2056
 4475SOL    HW219388   2.612   5.486   6.189 -0.4932  0.2533 -1.4177
 4476SOL     OW19389   7.774   3.468   1.890  0.3786  0.0213  0.0559
 4476SOL    HW119390   7.727   3.472   1.807 -2.3514  0.7474  1.4914
 4476SOL    HW219391   7.730   3.397   1.938  1.1550  0.3377  1.2679
 4477SOL     OW19392   1.272   4.448   7.187  0.3640 -0.1375  0.3299
 4477SOL    HW119393   1.263   4.526   7.243 -0.6085  0.2482 -0.3288
 4477SOL    HW219394   1.195   4.451   7.129  0.6745 -1.2193 -0.1700
 4478SOL     OW19395   4.311   2.971   6.862 -1.0980  0.5198 -0.1494
 4478SOL    HW119396   4.338   2.880   6.850  1.0532  1.1027 -0.0686
 4478SOL    HW219397   4.270   2.973   6.948 -0.0936 -0.1546  0.3591
 4479SOL     OW19398   6.660   8.599   5.499  0.3851 -0.3046 -0.0924
 4479SOL    HW119399   6.647   8.504   5.500  1.1504 -0.5229  3.3016
 4479SOL    HW219400   6.744   8.612   5.544  2.0565  1.9244 -3.4732
 4480SOL     OW19401   1.628   2.743   7.924 -0.2218  0.6158 -0.1301
 4480SOL    HW119402   1.612   2.660   7.969  0.6145  1.6325  2.1807
 4480SOL    HW219403   1.672   2.717   7.843  0.5316 -1.1863  0.7894
 4481SOL     OW19404   0.326   5.476   1.392  0.3826 -0.4513 -0.3534
 4481SOL    HW119405   0.264   5.515   1.330 -0.0482 -0.6862 -0.0716
 4481SOL    HW219406   0.398   5.539   1.396 -0.0291  0.0260 -0.3647
 4482SOL     OW19407   5.056   7.175   8.561  0.1721 -0.4815 -0.2515
 4482SOL    HW119408   5.125   7.227   8.520  0.2937  0.2454  0.8191
 4482SOL    HW219409   5.084   7.165   8.652 -0.9089 -0.5523  0.0944
 4483SOL     OW19410   4.733   7.642   5.917  0.1982  0.0938 -0.0750
 4483SOL    HW119411   4.700   7.687   5.994  0.4005 -0.6295  0.4464
 4483SOL    HW219412   4.737   7.549   5.943 -2.4783 -0.6489 -1.8600
 4484SOL     OW19413   3.502   6.165   2.430 -0.0827 -0.1969 -0.4069
 4484SOL    HW119414   3.434   6.144   2.494  0.3337 -1.1902 -0.2586
 4484SOL    HW219415   3.582   6.171   2.483  0.0186  0.5311 -0.6362
 4485SOL     OW19416   3.212   7.710   2.301 -0.3704 -0.4499 -0.8272
 4485SOL    HW119417   3.165   7.747   2.227 -1.7238  0.4191  0.4116
 4485SOL    HW219418   3.283   7.772   2.318 -1.2112  0.3790 -0.2342
 4486SOL     OW19419   9.179   4.975   2.390  0.1890 -0.3657 -0.2869
 4486SOL    HW119420   9.160   4.881   2.381 -2.5972 -0.0095  0.7182
 4486SOL    HW219421   9.177   5.009   2.300 -1.3569 -0.9120 -0.4930
 4487SOL     OW19422   9.175   3.542   5.089 -0.9879  0.2998 -0.2145
 4487SOL    HW119423   9.243   3.518   5.151 -1.6605 -1.4141 -0.0994
 4487SOL    HW219424   9.167   3.637   5.099  0.5410  0.3780  0.6088
 4488SOL     OW19425   8.719   4.464   4.482  0.3691  0.0935  0.0866
 4488SOL    HW119426   8.716   4.381   4.529 -0.0120 -0.3606 -0.7104
 4488SOL    HW219427   8.806   4.500   4.499  1.6058 -1.8063 -1.7906
 4489SOL     OW19428   5.528   5.720   3.818  0.0782  0.0935  0.0610
 4489SOL    HW119429   5.544   5.654   3.885 -0.5869  0.0830  0.2065
 4489SOL    HW219430   5.523   5.670   3.736 -0.6734 -0.0634  0.2018
 4490SOL     OW19431   6.477   0.637   3.246  0.3644  0.3121 -0.2608
 4490SOL    HW119432   6.468   0.569   3.313 -0.6164  0.6685 -0.0162
 4490SOL    HW219433   6.462   0.591   3.163  0.3843  0.1003 -0.1477
 4491SOL     OW19434   6.253   0.033   1.932 -0.5386 -0.9230  0.1175
 4491SOL    HW119435   6.318   0.022   2.001  0.2334 -1.4875 -0.6891
 4491SOL    HW219436   6.181  -0.025   1.957  0.2459 -2.0460 -0.1439
 4492SOL     OW19437   0.589   5.117   8.228  0.0174 -0.0950 -0.0689
 4492SOL    HW119438   0.507   5.086   8.267 -1.1997  1.8325 -0.9054
 4492SOL    HW219439   0.589   5.081   8.140 -1.3037  1.8965 -0.9747
 4493SOL     OW19440   5.896   3.376   6.889 -0.2294 -0.8377  0.5257
 4493SOL    HW119441   5.843   3.415   6.819 -0.3425 -2.1350 -0.1616
 4493SOL    HW219442   5.904   3.444   6.955 -0.4842  0.2888 -0.5698
 4494SOL     OW19443   7.513   5.833   5.925  0.2901 -0.6815 -0.4378
 4494SOL    HW119444   7.464   5.866   6.000  0.8246  0.6462 -0.6536
 4494SOL    HW219445   7.573   5.904   5.901  1.4663 -1.7922 -0.9414
 4495SOL     OW19446   2.024   3.305   8.463 -0.1584 -0.3610 -0.4013
 4495SOL    HW119447   1.950   3.280   8.519  1.0575  0.0206  1.4425
 4495SOL    HW219448   2.067   3.222   8.442  0.2121 -0.3914  0.4494
 4496SOL     OW19449   8.140   2.049   4.680 -0.2781  1.4817 -0.5683
 4496SOL    HW119450   8.195   2.000   4.741 -1.2091  0.6413 -0.3671
 4496SOL    HW219451   8.178   2.137   4.678  1.3535  0.8061 -0.8299
 4497SOL     OW19452   4.885   5.795   7.691 -0.1853 -0.0108 -0.5099
 4497SOL    HW119453   4.953   5.858   7.666 -1.7145  2.0134  0.1049
 4497SOL    HW219454   4.878   5.805   7.786 -1.5637  0.1173 -0.6041
 4498SOL     OW19455   5.310   8.092   7.329  0.5439  0.1107  0.0867
 4498SOL    HW119456   5.392   8.045   7.329  0.1404 -0.6460 -1.4971
 4498SOL    HW219457   5.247   8.033   7.287  0.0841  2.0954 -2.2356
 4499SOL     OW19458   5.977   9.071   4.934  0.1548  0.0989 -0.0412
 4499SOL    HW119459   6.048   9.059   4.871 -0.1246 -0.9593 -0.1780
 4499SOL    HW219460   5.949   8.982   4.955  0.3227  0.4098  1.6785
 4500SOL     OW19461   4.131   9.307   5.265  0.4403  0.0034 -0.0685
 4500SOL    HW119462   4.065   9.252   5.307 -0.3560  1.2258  0.3267
 4500SOL    HW219463   4.140   9.270   5.177 -1.7307  0.5325 -0.5935
 4501SOL     OW19464   0.042   1.110   7.011  0.7716 -0.1384  0.0860
 4501SOL    HW119465   0.123   1.109   7.063 -0.2625  1.4532  1.8489
 4501SOL    HW219466  -0.009   1.036   7.045  0.7110  0.0125  0.3304
 4502SOL     OW19467   5.055   6.117   2.910  0.5460  0.6618 -0.3397
 4502SOL    HW119468   5.001   6.187   2.947 -0.1822 -0.2846  0.4655
 4502SOL    HW219469   4.996   6.072   2.849  0.5905 -0.0323  0.1211
 4503SOL     OW19470   4.862   8.732   4.079 -0.1337 -0.1551 -0.2407
 4503SOL    HW119471   4.914   8.740   3.999  0.3167 -1.7512 -0.1263
 4503SOL    HW219472   4.807   8.811   4.079 -1.7682 -1.1205 -3.3036
 4504SOL     OW19473   8.677   3.195   7.864 -0.0177 -0.3997  0.1015
 4504SOL    HW119474   8.647   3.196   7.773 -1.0403 -0.4535  0.4227
 4504SOL    HW219475   8.596   3.188   7.915  0.4118  1.2537  1.0798
 4505SOL     OW19476   6.620   8.322   5.130  0.0370  0.2639  0.1405
 4505SOL    HW119477   6.589   8.271   5.205  1.1319  0.6561  0.8840
 4505SOL    HW219478   6.563   8.400   5.129 -0.9886 -0.4735 -0.3987
 4506SOL     OW19479   0.636   3.311   7.737  0.1406 -0.0308 -0.2959
 4506SOL    HW119480   0.583   3.381   7.699  0.1629 -0.9237 -2.0825
 4506SOL    HW219481   0.619   3.235   7.682  2.0783 -0.7661  0.0228
 4507SOL     OW19482   4.405   3.855   4.763 -0.3486  0.6278  0.1306
 4507SOL    HW119483   4.328   3.869   4.708 -0.9909 -1.2907  0.4593
 4507SOL    HW219484   4.472   3.824   4.702 -0.8072 -0.6905  0.2659
 4508SOL     OW19485   8.328   8.692   0.879 -0.3062  0.0470  0.1653
 4508SOL    HW119486   8.316   8.742   0.959  0.8780 -0.7322  0.8653
 4508SOL    HW219487   8.423   8.685   0.869 -0.4440 -0.7860 -0.7140
 4509SOL     OW19488   3.954   0.577   1.355 -0.9012 -0.8428  0.0819
 4509SOL    HW119489   4.016   0.644   1.325 -1.4060 -0.8627 -1.0801
 4509SOL    HW219490   4.006   0.496   1.354 -0.2268 -0.4706  1.7119
 4510SOL     OW19491   2.664   0.599   1.352 -0.0202 -0.2321 -0.0602
 4510SOL    HW119492   2.612   0.571   1.427 -1.3974  0.8024 -0.5872
 4510SOL    HW219493   2.652   0.529   1.287 -0.7042 -0.0475 -0.1425
 4511SOL     OW19494   8.448   7.531   4.662  0.2751  0.2842  0.1092
 4511SOL    HW119495   8.464   7.605   4.721 -2.1816  1.4647 -0.5594
 4511SOL    HW219496   8.415   7.462   4.718  2.8099 -0.4551  0.7766
 4512SOL     OW19497   5.172   8.136   6.921 -0.0968  0.6153 -0.6706
 4512SOL    HW119498   5.094   8.088   6.949 -0.2555  0.7828 -0.8277
 4512SOL    HW219499   5.241   8.070   6.919 -0.6835 -0.0092 -2.6208
 4513SOL     OW19500   7.556   0.602   8.094 -0.3063 -0.7161 -0.4824
 4513SOL    HW119501   7.618   0.673   8.107 -0.4747 -1.0578  2.9868
 4513SOL    HW219502   7.577   0.568   8.007  3.3911  0.0709 -0.0649
 4514SOL     OW19503   4.707   4.347   6.408 -0.5571 -0.0152  0.1346
 4514SOL    HW119504   4.689   4.420   6.468 -0.9137  1.3536 -1.5699
 4514SOL    HW219505   4.801   4.352   6.390 -0.7913  0.8239 -0.9403
 4515SOL     OW19506   8.607   1.266   9.108 -0.3627  0.1321  0.1501
 4515SOL    HW119507   8.699   1.290   9.097 -0.6792  1.8898  1.0144
 4515SOL    HW219508   8.562   1.349   9.124 -1.9685 -0.7866  0.6528
 4516SOL     OW19509   6.205   4.798   7.251  0.9086  0.0127 -0.3350
 4516SOL    HW119510   6.114   4.789   7.223  0.5055  0.7474  0.6797
 4516SOL    HW219511   6.254   4.811   7.170 -0.0352  0.7234 -0.8071
 4517SOL     OW19512   0.845   7.414   8.892  0.3569 -0.3719  0.8132
 4517SOL    HW119513   0.838   7.407   8.987  0.7695 -0.0099  0.8718
 4517SOL    HW219514   0.886   7.499   8.877 -0.9444  0.1883  0.2524
 4518SOL     OW19515   7.353   1.048   0.398 -0.6156  0.2671  0.2636
 4518SOL    HW119516   7.431   1.089   0.435  0.0385 -1.9701  1.5250
 4518SOL    HW219517   7.356   1.071   0.305  0.5279  1.7267  0.6112
 4519SOL     OW19518   8.254   5.784   6.511 -0.3182  0.1497 -0.0125
 4519SOL    HW119519   8.276   5.691   6.521 -2.4382 -0.2797  1.2022
 4519SOL    HW219520   8.250   5.797   6.416  1.9756 -0.4444 -0.2461
 4520SOL     OW19521   3.617   6.026   4.467  0.0806 -0.1284  0.2130
 4520SOL    HW119522   3.706   6.023   4.432 -0.3833 -0.6685 -0.9724
 4520SOL    HW219523   3.570   6.084   4.407 -0.7293 -1.0422 -0.0587
 4521SOL     OW19524   0.154   8.123   1.602 -0.6073  0.5439  0.5708
 4521SOL    HW119525   0.199   8.096   1.682  1.5326  0.2330 -0.6552
 4521SOL    HW219526   0.133   8.041   1.557  2.5234  0.6134 -1.3624
 4522SOL     OW19527   1.639   1.218   8.057 -0.1174  0.6247 -0.2644
 4522SOL    HW119528   1.556   1.227   8.009  0.6761 -0.1220 -1.8499
 4522SOL    HW219529   1.650   1.302   8.101 -1.0384  1.2303 -1.1464
 4523SOL     OW19530   7.484   6.988   3.876  0.0495 -0.0283 -0.0369
 4523SOL    HW119531   7.497   7.071   3.832 -1.0961  0.4428  0.4600
 4523SOL    HW219532   7.570   6.965   3.911  0.6522  0.2989 -1.2651
 4524SOL     OW19533   3.886   8.710   5.877 -0.0693  0.0739 -0.5602
 4524SOL    HW119534   3.959   8.649   5.866  0.2605  0.3895 -0.1424
 4524SOL    HW219535   3.920   8.779   5.934 -1.0189 -0.3544  0.5859
 4525SOL     OW19536   1.136   2.589   1.287 -0.0001 -0.0923 -0.5493
 4525SOL    HW119537   1.156   2.595   1.194  1.9711  0.8235 -0.1223
 4525SOL    HW219538   1.057   2.641   1.298  1.3098  2.2231 -1.3353
 4526SOL     OW19539   5.495   3.844   2.039  0.9188  0.5934 -0.4004
 4526SOL    HW119540   5.561   3.911   2.024 -0.2404  1.9275  0.2595
 4526SOL    HW219541   5.544   3.762   2.046  2.5599  1.6346  0.7490
 4527SOL     OW19542   6.047   4.212   4.033  0.7780  0.3596 -0.1836
 4527SOL    HW119543   6.029   4.303   4.011  0.1660  0.4506  0.6437
 4527SOL    HW219544   6.016   4.162   3.958  1.3422  0.8421 -0.7486
 4528SOL     OW19545   0.134   7.521   1.310 -0.1374  0.2625 -0.4484
 4528SOL    HW119546   0.106   7.602   1.352  0.4737  0.2606 -0.0298
 4528SOL    HW219547   0.080   7.516   1.231 -0.2750  1.0088 -0.4134
 4529SOL     OW19548   5.511   3.202   0.142 -0.7491  0.0208  0.3090
 4529SOL    HW119549   5.599   3.213   0.179 -0.1306  0.2171 -1.1372
 4529SOL    HW219550   5.480   3.119   0.178  0.5984 -0.7327 -0.2072
 4530SOL     OW19551   3.903   6.142   3.887  0.0907 -0.1250 -0.1802
 4530SOL    HW119552   3.901   6.053   3.923  1.3630 -0.6621 -1.3634
 4530SOL    HW219553   3.839   6.140   3.816  0.8313 -0.3981 -0.8476
 4531SOL     OW19554   5.058   5.672   8.718 -0.1404  0.1156  0.0995
 4531SOL    HW119555   5.103   5.635   8.641  0.6893  0.0764  0.5901
 4531SOL    HW219556   5.123   5.731   8.757 -1.4546  2.2417 -0.7308
 4532SOL     OW19557   1.979   0.258   5.083 -0.0024 -0.3040 -0.1950
 4532SOL    HW119558   1.958   0.335   5.135  1.2674 -0.3905  0.4914
 4532SOL    HW219559   1.987   0.290   4.993  2.5735  0.7981  0.3673
 4533SOL     OW19560   5.788   6.682   4.177 -0.6854  0.6602  0.4354
 4533SOL    HW119561   5.699   6.647   4.169 -1.1066  1.6977  0.4183
 4533SOL    HW219562   5.836   6.642   4.104 -1.3471  0.7105 -0.0312
 4534SOL     OW19563   5.273   7.863   7.592 -0.0719 -0.1273  0.0416
 4534SOL    HW119564   5.348   7.884   7.538  0.6336  1.1431  1.4544
 4534SOL    HW219565   5.296   7.893   7.680 -1.1486 -2.1253  1.1073
 4535SOL     OW19566   2.931   6.124   5.882 -0.8427  0.3591 -0.0208
 4535SOL    HW119567   3.026   6.135   5.886 -0.8369  1.4922 -1.8497
 4535SOL    HW219568   2.900   6.155   5.967  0.4847 -1.5277  1.2491
 4536SOL     OW19569   9.274   3.754   9.183 -0.0400 -0.3384 -0.2764
 4536SOL    HW119570   9.321   3.758   9.099  0.7128  0.0568  0.1512
 4536SOL    HW219571   9.295   3.667   9.218 -1.3688 -1.0059 -1.0533
 4537SOL     OW19572   7.433   4.874   5.285 -0.7071  0.1010 -0.0963
 4537SOL    HW119573   7.395   4.805   5.231 -1.1225 -0.1731  0.5333
 4537SOL    HW219574   7.516   4.838   5.315 -1.5679 -0.7323  1.4071
 4538SOL     OW19575   3.489   3.582   6.998  0.3010  0.4780  0.0123
 4538SOL    HW119576   3.424   3.511   6.995  1.5058 -0.6331 -1.1007
 4538SOL    HW219577   3.555   3.552   7.060  1.0521  0.3866 -0.8089
 4539SOL     OW19578   2.273   1.355   5.574 -0.4676  0.1175  0.6431
 4539SOL    HW119579   2.341   1.294   5.544 -0.7474 -0.4781  1.1829
 4539SOL    HW219580   2.282   1.431   5.517  1.6365  0.6918  1.6410
 4540SOL     OW19581   8.878   6.125   1.198  0.0555  0.4981 -0.5883
 4540SOL    HW119582   8.954   6.149   1.251  0.7366 -0.0139 -1.2969
 4540SOL    HW219583   8.803   6.160   1.246  0.8097  1.9537 -0.4018
 4541SOL     OW19584   8.782   6.924   0.351 -0.0786  0.1685  0.0235
 4541SOL    HW119585   8.814   6.927   0.261  0.7808 -0.1417  0.3015
 4541SOL    HW219586   8.766   7.015   0.375  0.9963  0.3828 -0.0061
 4542SOL     OW19587   4.488   7.971   0.248  0.0287  0.1546  0.1051
 4542SOL    HW119588   4.406   7.962   0.200  0.4220 -1.4714 -0.3517
 4542SOL    HW219589   4.542   7.898   0.216  2.0999  1.8277 -0.5013
 4543SOL     OW19590   3.087   7.299   4.712 -0.0906 -0.0074  0.0165
 4543SOL    HW119591   2.999   7.271   4.685 -0.8238  2.6378 -0.6884
 4543SOL    HW219592   3.122   7.225   4.760 -2.5658 -1.3050  0.0001
 4544SOL     OW19593   1.577   8.336   0.810 -0.1984  0.8045  0.2710
 4544SOL    HW119594   1.646   8.384   0.764 -0.7787 -1.1348 -2.8674
 4544SOL    HW219595   1.624   8.286   0.877  1.4489  0.0002 -1.3747
 4545SOL     OW19596   7.605   5.321   2.009  0.1851  0.9004 -0.3897
 4545SOL    HW119597   7.579   5.318   1.917  0.5220 -0.7382 -0.4538
 4545SOL    HW219598   7.632   5.232   2.030  1.7723  1.6172  0.8272
 4546SOL     OW19599   7.557   7.566   3.385 -0.0329 -0.2733  0.2192
 4546SOL    HW119600   7.612   7.642   3.369 -0.5902  0.2989  0.9677
 4546SOL    HW219601   7.476   7.585   3.337  0.3077 -1.0037 -0.6807
 4547SOL     OW19602   1.566   7.673   8.434 -0.3594  0.3912 -0.1177
 4547SOL    HW119603   1.615   7.668   8.515 -1.2530  0.0152  0.4137
 4547SOL    HW219604   1.562   7.766   8.413  1.8523  0.3482 -0.9915
 4548SOL     OW19605   3.794   5.069   6.416  0.2635  0.3682  0.2102
 4548SOL    HW119606   3.765   5.149   6.371 -0.9641 -0.1607  0.0053
 4548SOL    HW219607   3.780   4.999   6.351 -0.0873 -0.2059  0.8935
 4549SOL     OW19608   6.330   1.740   2.054  0.0266  0.3807 -1.0562
 4549SOL    HW119609   6.262   1.726   2.121  0.8099  0.3019 -0.2563
 4549SOL    HW219610   6.388   1.806   2.092  1.4535 -0.9169 -0.8959
 4550SOL     OW19611   1.962   6.019   8.209 -0.0973 -0.1589 -0.1044
 4550SOL    HW119612   1.972   6.002   8.115  0.7491 -2.4788  0.3470
 4550SOL    HW219613   1.880   5.975   8.232 -1.8098  2.7506 -0.2048
 4551SOL     OW19614   9.058   5.485   8.162  0.3161 -0.2978  0.3029
 4551SOL    HW119615   8.998   5.536   8.108 -2.4301 -0.0931  3.2740
 4551SOL    HW219616   9.038   5.394   8.140  0.3174 -0.2098 -0.0797
 4552SOL     OW19617   7.745   7.745   8.699 -0.1552  0.2790  0.2920
 4552SOL    HW119618   7.815   7.775   8.757  1.3676  0.0615 -1.3615
 4552SOL    HW219619   7.790   7.696   8.630 -2.0683 -0.9130 -0.1669
 4553SOL     OW19620   6.774   6.325   3.019  0.1892 -0.3215  0.0333
 4553SOL    HW119621   6.713   6.315   3.093 -0.2158  0.7058 -0.1432
 4553SOL    HW219622   6.724   6.294   2.943 -0.4698  1.3529 -0.2540
 4554SOL     OW19623   0.732   6.705   7.218  0.0577 -0.2731 -0.0955
 4554SOL    HW119624   0.688   6.624   7.245 -0.4662 -0.0975 -0.4068
 4554SOL    HW219625   0.702   6.771   7.281  0.1071 -0.2159 -0.1313
 4555SOL     OW19626   8.857   8.184   4.075 -0.1359  0.2605 -0.0112
 4555SOL    HW119627   8.768   8.194   4.042  0.0924  0.7206 -0.4921
 4555SOL    HW219628   8.857   8.232   4.158 -0.3667  0.1484  0.0556
 4556SOL     OW19629   3.914   1.921   1.403 -0.2588  0.2345 -0.6527
 4556SOL    HW119630   4.004   1.954   1.402  0.2750 -1.1500 -0.4302
 4556SOL    HW219631   3.866   1.984   1.457  1.0121 -0.0706  0.9057
 4557SOL     OW19632   4.277   4.454   5.385  0.2259 -0.4459 -0.1502
 4557SOL    HW119633   4.365   4.475   5.416  0.6563  1.4803 -2.3333
 4557SOL    HW219634   4.289   4.376   5.330  0.0221 -1.8611  1.7252
 4558SOL     OW19635   5.237   8.239   0.555  0.0182  0.3315  0.3814
 4558SOL    HW119636   5.255   8.183   0.479  0.4983  0.7205  0.2033
 4558SOL    HW219637   5.146   8.266   0.543  0.2952  0.9469 -0.4290
 4559SOL     OW19638   9.047   0.597   2.280 -0.2492 -0.5179  0.2493
 4559SOL    HW119639   9.131   0.580   2.236  0.3841 -1.3314  1.6933
 4559SOL    HW219640   9.012   0.674   2.236 -0.7512 -2.4961 -3.1852
 4560SOL     OW19641   7.634   1.051   2.443  0.7398  0.1653 -0.2979
 4560SOL    HW119642   7.704   1.044   2.508  0.0024  1.5204  0.6690
 4560SOL    HW219643   7.553   1.051   2.494  0.0592 -0.4088 -1.3382
 4561SOL     OW19644   3.277   8.815   5.975 -0.0803  0.1349  0.5259
 4561SOL    HW119645   3.185   8.825   5.950 -0.6848 -1.7738  1.7395
 4561SOL    HW219646   3.305   8.903   5.999 -1.3977  0.8607 -0.4361
 4562SOL     OW19647   8.972   6.895   1.472 -0.5525  0.6758  0.5301
 4562SOL    HW119648   8.979   6.921   1.380 -1.9646 -1.5385 -0.3012
 4562SOL    HW219649   9.004   6.804   1.473 -1.9089  0.1676  1.9028
 4563SOL     OW19650   7.288   6.203   5.756 -0.8925  0.3206 -0.3975
 4563SOL    HW119651   7.271   6.296   5.742  0.3011  0.6209  0.0419
 4563SOL    HW219652   7.248   6.183   5.840 -0.4473  0.6450 -0.1044
 4564SOL     OW19653   9.233   7.850   8.064  0.1393  0.0341  0.1962
 4564SOL    HW119654   9.287   7.910   8.012 -0.3773 -0.6694 -1.2047
 4564SOL    HW219655   9.180   7.804   7.999 -1.9377  0.4696  1.5077
 4565SOL     OW19656   6.174   7.357   8.490  0.1239  0.1556  0.0047
 4565SOL    HW119657   6.143   7.293   8.554 -0.2365 -0.4060 -0.7142
 4565SOL    HW219658   6.251   7.316   8.451 -0.9045 -0.4969 -1.4486
 4566SOL     OW19659   5.645   2.195   2.559 -0.1294  0.1588 -0.1116
 4566SOL    HW119660   5.587   2.210   2.484 -1.2988  0.7490  0.8736
 4566SOL    HW219661   5.587   2.197   2.635  1.1362  0.4171  0.8874
 4567SOL     OW19662   0.813   1.717   6.272 -0.6236  0.0586 -0.2940
 4567SOL    HW119663   0.856   1.802   6.283 -1.0996  0.4625 -1.3931
 4567SOL    HW219664   0.728   1.728   6.314 -1.4250  0.7575 -2.0365
 4568SOL     OW19665   2.494   1.423   0.652 -0.3680 -0.0242  0.1609
 4568SOL    HW119666   2.447   1.340   0.645 -2.1531  0.9329  0.2114
 4568SOL    HW219667   2.571   1.412   0.596 -0.4529 -1.7663  0.3283
 4569SOL     OW19668   5.626   5.182   1.084 -0.4497  0.3430  0.4390
 4569SOL    HW119669   5.684   5.168   1.158 -0.0905  2.0008  0.5179
 4569SOL    HW219670   5.643   5.108   1.026 -1.2419 -1.3672  2.2779
 4570SOL     OW19671   1.335   0.423   7.844 -0.6259 -0.3726 -0.0213
 4570SOL    HW119672   1.421   0.449   7.878 -0.6546  0.2658 -0.4202
 4570SOL    HW219673   1.342   0.434   7.750 -1.8984  2.0234  0.1014
 4571SOL     OW19674   8.618   3.466   5.814  0.3139  0.2674  0.4108
 4571SOL    HW119675   8.662   3.494   5.734  0.0132 -0.5989 -0.0681
 4571SOL    HW219676   8.536   3.427   5.783  0.7753 -1.2694  1.0283
 4572SOL     OW19677   6.716   0.659   4.391 -0.1111 -0.0350 -0.1566
 4572SOL    HW119678   6.629   0.700   4.387 -0.1710 -0.1863 -0.4325
 4572SOL    HW219679   6.734   0.651   4.485 -1.1714 -1.6430 -0.0413
 4573SOL     OW19680   2.182   4.824   7.329  0.4084  0.3388 -0.7035
 4573SOL    HW119681   2.129   4.901   7.348  1.9029  1.0352  0.8364
 4573SOL    HW219682   2.120   4.751   7.333 -0.7449  1.2808 -0.7065
 4574SOL     OW19683   6.006   7.423   5.782 -0.2908  0.2862  0.5581
 4574SOL    HW119684   6.058   7.382   5.714  1.7993  0.9868  1.6273
 4574SOL    HW219685   5.984   7.352   5.842 -0.5759 -0.0249  0.0860
 4575SOL     OW19686   7.699   2.217   3.780  0.0500 -0.7295  0.3071
 4575SOL    HW119687   7.604   2.219   3.782  0.0207 -1.2984 -0.3638
 4575SOL    HW219688   7.725   2.309   3.789 -0.5460 -0.6021  0.7988
 4576SOL     OW19689   3.457   4.502   7.672 -0.2799  0.1780 -0.7452
 4576SOL    HW119690   3.479   4.411   7.652 -0.2362  0.3012 -1.2835
 4576SOL    HW219691   3.442   4.542   7.586 -2.2087  0.2083 -0.4286
 4577SOL     OW19692   9.128   4.919   0.616  0.3078 -0.3490  0.2140
 4577SOL    HW119693   9.090   4.932   0.703 -1.1624  1.4106 -0.6219
 4577SOL    HW219694   9.110   4.827   0.595  0.3510 -0.6901  1.5985
 4578SOL     OW19695   1.745   5.000   9.125 -1.0408  0.0660 -0.9233
 4578SOL    HW119696   1.833   4.968   9.105 -0.6051 -1.4513  2.6813
 4578SOL    HW219697   1.687   4.926   9.108 -1.2703  0.2098 -0.7863
 4579SOL     OW19698   5.272   4.109   0.832  0.0370  0.0544  0.4850
 4579SOL    HW119699   5.323   4.039   0.874  0.1270 -0.5317 -0.5776
 4579SOL    HW219700   5.322   4.130   0.753 -0.1950  1.0647  0.5971
 4580SOL     OW19701   3.828   3.478   7.519  0.4739 -0.1254  0.1425
 4580SOL    HW119702   3.893   3.492   7.451  0.7703  0.9772  0.6262
 4580SOL    HW219703   3.864   3.524   7.596  0.1950 -1.3993  1.0696
 4581SOL     OW19704   6.635   3.249   2.891  0.0323  0.9408 -0.2106
 4581SOL    HW119705   6.704   3.194   2.854 -0.3531  0.4804 -0.2466
 4581SOL    HW219706   6.563   3.190   2.908 -0.8951  1.6488 -1.5083
 4582SOL     OW19707   6.445   4.550   7.554  0.9474  0.2390 -0.4032
 4582SOL    HW119708   6.424   4.637   7.520  1.1169  0.5398  0.2516
 4582SOL    HW219709   6.446   4.494   7.477  0.9319  0.8364 -0.8432
 4583SOL     OW19710   1.387   5.947   6.704 -0.3534 -0.1750  0.1186
 4583SOL    HW119711   1.399   5.864   6.658 -0.3926 -0.1058 -0.0167
 4583SOL    HW219712   1.476   5.973   6.729 -0.4535 -0.9107  1.3161
 4584SOL     OW19713   6.508   7.119   8.771  0.0534  0.3084  0.5214
 4584SOL    HW119714   6.518   7.142   8.864  1.0442 -1.9534  1.0471
 4584SOL    HW219715   6.414   7.106   8.759  0.0710 -1.0715  1.6830
 4585SOL     OW19716   0.082   4.466   6.167 -0.2415 -0.1543  0.1905
 4585SOL    HW119717   0.071   4.373   6.182  3.8476 -0.6576  1.4794
 4585SOL    HW219718   0.111   4.501   6.252 -3.1480  2.7242  0.2002
 4586SOL     OW19719   6.019   5.545   9.196  0.1372 -0.2416  0.5421
 4586SOL    HW119720   5.936   5.530   9.153  0.3964  1.1240 -0.5093
 4586SOL    HW219721   6.082   5.491   9.148  0.3140  0.8067 -0.4626
 4587SOL     OW19722   3.464   4.649   6.367  0.3058  0.8542  0.0442
 4587SOL    HW119723   3.397   4.689   6.422 -0.0302  2.1192 -1.2131
 4587SOL    HW219724   3.541   4.641   6.423 -0.5786  0.3112  1.2227
 4588SOL     OW19725   5.117   4.464   9.119 -0.1251  0.1550 -0.0678
 4588SOL    HW119726   5.096   4.532   9.056  0.4684  0.1852 -0.2329
 4588SOL    HW219727   5.182   4.503   9.177 -3.8840  1.8652  3.5590
 4589SOL     OW19728   3.547   4.446   4.774  0.0277  0.1770  0.1430
 4589SOL    HW119729   3.566   4.539   4.774 -2.8060  0.8620 -0.2276
 4589SOL    HW219730   3.614   4.407   4.719  0.7931  2.1167 -0.3648
 4590SOL     OW19731   3.651   8.691   7.416 -0.4169 -0.0949 -0.1188
 4590SOL    HW119732   3.561   8.682   7.448 -0.3616 -0.0319  0.0560
 4590SOL    HW219733   3.648   8.661   7.325 -0.4590 -0.8432  0.1215
 4591SOL     OW19734   0.810   1.173   7.814  0.0597  0.7410  0.0442
 4591SOL    HW119735   0.888   1.118   7.810  0.1010  0.7915  0.1448
 4591SOL    HW219736   0.747   1.122   7.866  0.1964  0.9087  0.3761
 4592SOL     OW19737   1.995   7.310   8.327 -0.1135 -0.9226 -0.0345
 4592SOL    HW119738   1.917   7.330   8.275 -0.1226  1.6531  0.8024
 4592SOL    HW219739   1.962   7.294   8.415  0.1302 -2.4596 -0.1977
 4593SOL     OW19740   7.094   8.211   6.235  0.1889  0.0691 -0.3142
 4593SOL    HW119741   7.184   8.194   6.208  0.7617  1.8622  0.3294
 4593SOL    HW219742   7.096   8.300   6.270 -1.5358 -0.3656  1.0304
 4594SOL     OW19743   8.609   0.136   3.988 -0.2913  0.2838 -0.3945
 4594SOL    HW119744   8.647   0.060   3.943  1.3365 -0.2363  1.6703
 4594SOL    HW219745   8.575   0.101   4.070 -0.9974  1.5423 -0.1242
 4595SOL     OW19746   0.091   4.964   2.187  0.0499  0.3503  0.0128
 4595SOL    HW119747   0.156   5.030   2.161  0.6182 -1.0967 -2.4594
 4595SOL    HW219748   0.007   5.005   2.166  0.3958  0.2994 -1.5486
 4596SOL     OW19749   0.119   6.583   0.129  0.2146 -0.1774  0.1764
 4596SOL    HW119750   0.106   6.559   0.037 -1.6375 -1.4878  0.7165
 4596SOL    HW219751   0.213   6.574   0.143  0.2378 -2.3362 -0.9771
 4597SOL     OW19752   3.177   3.859   5.487 -0.1435  0.3897  0.3343
 4597SOL    HW119753   3.271   3.860   5.475 -0.3450  1.8873 -1.5295
 4597SOL    HW219754   3.165   3.849   5.582  1.7459 -4.1783  0.3611
 4598SOL     OW19755   4.978   7.586   6.269  0.3650  0.3051  0.7802
 4598SOL    HW119756   5.040   7.534   6.320 -0.1463  1.3634  2.5851
 4598SOL    HW219757   4.893   7.550   6.291  0.1820  0.3039  0.0799
 4599SOL     OW19758   7.199   2.236   4.860  0.0302  0.2026  0.2722
 4599SOL    HW119759   7.214   2.162   4.802  1.0105 -0.1686  0.9761
 4599SOL    HW219760   7.226   2.205   4.947 -0.5646  1.0305  0.7751
 4600SOL     OW19761   9.160   7.754   1.204 -0.3615  0.8357  0.2616
 4600SOL    HW119762   9.223   7.820   1.234 -1.3131  1.8283  0.1408
 4600SOL    HW219763   9.176   7.748   1.110  0.4252  0.1197  0.4338
 4601SOL     OW19764   3.689   5.989   1.742  0.0046 -0.4396 -0.4049
 4601SOL    HW119765   3.602   5.964   1.774 -0.5079 -0.4856 -1.7380
 4601SOL    HW219766   3.726   6.044   1.811 -0.9256 -0.7370  0.3518
 4602SOL     OW19767   7.364   1.222   2.043 -0.2765 -0.2489 -0.2730
 4602SOL    HW119768   7.456   1.213   2.066 -0.1764  1.5758  0.1757
 4602SOL    HW219769   7.319   1.235   2.127 -0.8454 -0.4795 -0.5377
 4603SOL     OW19770   4.477   2.458   8.202 -0.2880 -0.2508 -0.6643
 4603SOL    HW119771   4.417   2.384   8.212  0.7926 -0.8970  2.1563
 4603SOL    HW219772   4.428   2.534   8.230 -0.5605 -0.3446 -0.8832
 4604SOL     OW19773   2.769   3.207   2.689  0.0506  0.0699  0.3135
 4604SOL    HW119774   2.745   3.115   2.699 -0.7200  0.4166  2.0047
 4604SOL    HW219775   2.685   3.252   2.679  0.4209  0.5944 -0.4490
 4605SOL     OW19776   5.560   6.145   7.476  0.1385 -0.3550 -0.6726
 4605SOL    HW119777   5.490   6.210   7.471 -0.8914 -1.5052 -2.1611
 4605SOL    HW219778   5.540   6.094   7.555  1.7070  1.8571  1.2805
 4606SOL     OW19779   1.159   3.815   0.004  0.3102 -0.3180  0.1887
 4606SOL    HW119780   1.158   3.811  -0.092 -1.0808  1.6301  0.0642
 4606SOL    HW219781   1.083   3.764   0.031  0.7009 -0.8645  0.2663
 4607SOL     OW19782   6.712   1.086   8.406 -0.1897  0.4271  0.3985
 4607SOL    HW119783   6.748   1.086   8.494 -1.8972  0.0110  1.1424
 4607SOL    HW219784   6.682   1.176   8.391  0.9742  0.7366 -0.1594
 4608SOL     OW19785   9.359   8.871   5.572 -0.1695 -0.0151  0.3991
 4608SOL    HW119786   9.428   8.880   5.637  0.0712  0.3610  0.0939
 4608SOL    HW219787   9.400   8.897   5.490 -1.2961  2.6263  0.5627
 4609SOL     OW19788   2.104   8.378   3.378 -0.1183 -0.2956  0.3067
 4609SOL    HW119789   2.024   8.325   3.381 -0.6670  0.3197 -1.8156
 4609SOL    HW219790   2.171   8.323   3.417 -1.2759 -1.4077  0.7826
 4610SOL     OW19791   5.380   8.502   0.114  0.2328 -0.7295 -0.4796
 4610SOL    HW119792   5.309   8.438   0.119  0.6937 -1.2048 -0.0275
 4610SOL    HW219793   5.345   8.580   0.158  0.1781 -1.1285  0.1827
 4611SOL     OW19794   7.601   3.452   0.477  0.2809  0.8306 -0.5287
 4611SOL    HW119795   7.579   3.509   0.404  0.0758 -0.7392 -1.7210
 4611SOL    HW219796   7.629   3.370   0.437 -1.3494 -0.6444  1.1536
 4612SOL     OW19797   2.061   7.481   5.189 -0.2132  0.3087  0.2173
 4612SOL    HW119798   2.085   7.559   5.138 -0.3507  1.2503  1.5655
 4612SOL    HW219799   1.986   7.445   5.142 -1.1183  1.8622  0.4132
 4613SOL     OW19800   2.879   0.225   5.202 -0.3750  0.0966  0.1815
 4613SOL    HW119801   2.805   0.174   5.169 -0.8036 -0.1481  1.4860
 4613SOL    HW219802   2.956   0.179   5.168 -0.7877 -0.3548 -0.1709
 4614SOL     OW19803   3.977   4.732   6.862  0.1913  0.7920  0.3912
 4614SOL    HW119804   4.032   4.740   6.940  1.0533 -1.1680  0.0386
 4614SOL    HW219805   3.896   4.779   6.885  0.4260  0.2944  2.4589
 4615SOL     OW19806   3.738   7.835   5.969 -0.2973 -0.1061 -0.4845
 4615SOL    HW119807   3.714   7.923   5.998 -0.9817  0.1514 -1.7625
 4615SOL    HW219808   3.657   7.784   5.974 -0.1495 -0.3731 -0.7536
 4616SOL     OW19809   7.001   2.072   2.178 -0.0940 -0.1525  0.1182
 4616SOL    HW119810   6.958   2.151   2.212 -0.0940 -0.2129  0.2598
 4616SOL    HW219811   7.091   2.100   2.159  0.1464 -0.3192  0.9533
 4617SOL     OW19812   8.105   0.858   2.690  0.0272 -0.1042 -0.1344
 4617SOL    HW119813   8.142   0.932   2.642 -1.0716 -0.1414 -1.0586
 4617SOL    HW219814   8.172   0.837   2.755  1.5219  0.0270 -1.5536
 4618SOL     OW19815   5.646   7.625   6.036 -0.2053 -0.9297 -0.2607
 4618SOL    HW119816   5.640   7.596   5.945 -1.7189 -1.4875 -0.0129
 4618SOL    HW219817   5.715   7.691   6.036  0.9678 -2.0881 -1.4918
 4619SOL     OW19818   6.344   2.037   7.442 -0.3443  0.1394 -0.2454
 4619SOL    HW119819   6.436   2.030   7.468 -0.7501 -2.3747  0.8486
 4619SOL    HW219820   6.329   1.958   7.389 -1.6958  0.9024 -1.0462
 4620SOL     OW19821   5.952   2.213   6.713 -0.2579 -0.2299  0.0382
 4620SOL    HW119822   6.029   2.231   6.766 -1.6205  2.6489  1.3019
 4620SOL    HW219823   5.982   2.222   6.623  1.0790 -0.1445  0.4713
 4621SOL     OW19824   8.152   3.877   2.964  0.4071  0.0827 -0.2043
 4621SOL    HW119825   8.202   3.959   2.971 -0.2646  0.5515 -0.8451
 4621SOL    HW219826   8.061   3.905   2.954  0.3133 -0.7070 -1.7514
 4622SOL     OW19827   5.981   0.094   0.522  0.2171 -0.1656  0.8951
 4622SOL    HW119828   5.936   0.091   0.438  1.5237 -1.4948  0.1927
 4622SOL    HW219829   6.029   0.177   0.521  2.2944 -1.2897 -0.8753
 4623SOL     OW19830   6.116   1.685   3.279 -0.0326 -0.5814  0.2179
 4623SOL    HW119831   6.084   1.702   3.367  0.5860 -1.2686  0.5912
 4623SOL    HW219832   6.201   1.641   3.292 -0.2624 -1.3433 -0.6995
 4624SOL     OW19833   4.264   3.726   0.770  0.6382  0.7278 -0.3570
 4624SOL    HW119834   4.175   3.724   0.805  0.6346 -0.4096 -0.3972
 4624SOL    HW219835   4.292   3.817   0.781 -0.4600  1.0595 -0.1863
 4625SOL     OW19836   8.276   4.323   8.981  0.5265 -0.2606  0.2645
 4625SOL    HW119837   8.360   4.279   8.999  0.2079 -0.8323  0.3851
 4625SOL    HW219838   8.249   4.358   9.066 -0.2476 -1.6718  0.6398
 4626SOL     OW19839   5.223   7.475   2.463 -0.2465  0.8166  0.2355
 4626SOL    HW119840   5.194   7.497   2.552 -0.1184  1.0087  0.2302
 4626SOL    HW219841   5.246   7.559   2.424  1.6329  0.5568  0.6874
 4627SOL     OW19842   6.560   5.610   8.100  0.4729 -0.3295  0.0740
 4627SOL    HW119843   6.483   5.579   8.051 -0.1671  0.0382  0.8162
 4627SOL    HW219844   6.550   5.705   8.102  1.0654 -0.2645 -0.0009
 4628SOL     OW19845   7.350   2.242   8.633 -0.5684  0.1875 -0.4898
 4628SOL    HW119846   7.291   2.299   8.683  0.0035 -0.8685  1.5062
 4628SOL    HW219847   7.429   2.236   8.687  0.3335 -0.5664 -1.8252
 4629SOL     OW19848   0.560   1.762   5.274 -0.5629  0.5704  0.2095
 4629SOL    HW119849   0.607   1.845   5.272  1.7967 -0.6955  0.0035
 4629SOL    HW219850   0.606   1.710   5.340 -0.6479 -1.2941 -1.1420
 4630SOL     OW19851   1.628   5.917   5.551  0.1349 -0.0063 -0.5189
 4630SOL    HW119852   1.684   5.881   5.620 -0.6044  1.6528  1.0142
 4630SOL    HW219853   1.688   5.963   5.493  0.6012 -0.0366 -0.0654
 4631SOL     OW19854   4.424   5.981   6.577  0.4186 -0.2686  0.6468
 4631SOL    HW119855   4.415   5.886   6.582  0.0104 -0.2555  0.2590
 4631SOL    HW219856   4.343   6.014   6.616 -1.1939 -0.1313 -2.4687
 4632SOL     OW19857   5.383   7.478   2.070 -0.7245  0.2168  0.5306
 4632SOL    HW119858   5.464   7.448   2.110 -0.5722 -1.9950 -1.2491
 4632SOL    HW219859   5.323   7.404   2.078 -0.8812 -0.1284 -2.6107
 4633SOL     OW19860   1.741   4.404   1.820  0.1844  0.3958 -0.2030
 4633SOL    HW119861   1.660   4.438   1.858  0.4671 -0.6636  1.4591
 4633SOL    HW219862   1.793   4.377   1.895  0.4215 -2.6660 -1.2999
 4634SOL     OW19863   6.115   0.332   0.570 -0.1642 -0.2696  0.5056
 4634SOL    HW119864   6.052   0.371   0.631  1.7356  1.5667  1.4283
 4634SOL    HW219865   6.114   0.390   0.494  1.9408  1.1968  1.4672
 4635SOL     OW19866   4.483   0.468   1.869  0.3863 -0.3718  0.0869
 4635SOL    HW119867   4.571   0.463   1.830 -0.0898 -0.5079 -0.9995
 4635SOL    HW219868   4.440   0.387   1.842 -0.4719  0.2339 -0.3702
 4636SOL     OW19869   1.329   4.804   0.667  0.5166  0.1542  0.3320
 4636SOL    HW119870   1.300   4.796   0.576  1.0242 -0.9992  0.2567
 4636SOL    HW219871   1.261   4.760   0.717 -0.4949  2.0104  0.6842
 4637SOL     OW19872   5.365   1.798   0.056 -0.0576 -0.3848 -0.0705
 4637SOL    HW119873   5.460   1.804   0.049  0.0748 -1.2351  0.7332
 4637SOL    HW219874   5.331   1.849  -0.018  1.0267 -0.4986 -0.6577
 4638SOL     OW19875   8.655   0.742   5.842  0.0786  0.0987 -0.1921
 4638SOL    HW119876   8.573   0.787   5.866 -0.2615 -0.5311 -0.1434
 4638SOL    HW219877   8.628   0.680   5.774  0.4878 -0.2361 -0.0472
 4639SOL     OW19878   7.933   3.975   7.184 -0.0454  0.1939 -0.0066
 4639SOL    HW119879   7.932   3.894   7.135 -1.2162 -0.8259  1.5843
 4639SOL    HW219880   7.963   3.950   7.272  3.5074  2.1882 -0.4706
 4640SOL     OW19881   8.254   0.592   7.112 -0.1235 -0.0851  0.5127
 4640SOL    HW119882   8.333   0.562   7.156 -0.6121  1.6543  2.8419
 4640SOL    HW219883   8.274   0.681   7.084 -0.5409 -0.4325 -0.9652
 4641SOL     OW19884   0.568   4.992   6.824  0.0294  0.1395 -0.0300
 4641SOL    HW119885   0.473   5.003   6.825  0.0473  0.2590  0.4267
 4641SOL    HW219886   0.589   4.957   6.911  0.2421 -1.2454 -0.6070
 4642SOL     OW19887   2.586   6.552   7.110 -0.5143 -0.3995 -0.8011
 4642SOL    HW119888   2.493   6.529   7.109 -0.2417 -1.6458  0.1490
 4642SOL    HW219889   2.593   6.627   7.050 -2.0791 -0.4386 -1.0706
 4643SOL     OW19890   2.472   3.107   3.047 -0.2024  0.1832 -0.0427
 4643SOL    HW119891   2.487   3.072   2.960  0.0313  1.4881 -0.5534
 4643SOL    HW219892   2.386   3.150   3.041 -1.1101 -1.4038  0.9419
 4644SOL     OW19893   0.204   5.631   8.016  0.1925  0.7287  0.0519
 4644SOL    HW119894   0.162   5.568   7.957  0.0865 -0.6535  1.5334
 4644SOL    HW219895   0.130   5.675   8.059  0.2734  1.0686 -0.1524
 4645SOL     OW19896   2.446   1.023   9.028 -0.6319  0.3878 -0.4403
 4645SOL    HW119897   2.423   0.948   8.974 -1.3204  0.6219 -0.4897
 4645SOL    HW219898   2.437   0.991   9.118  0.2622  0.0714 -0.4599
 4646SOL     OW19899   4.001   4.393   6.996  0.0495  0.4216  0.5017
 4646SOL    HW119900   4.066   4.398   6.926  1.3207 -1.6761  1.4478
 4646SOL    HW219901   3.916   4.392   6.951  0.8503 -3.1663 -1.2722
 4647SOL     OW19902   5.467   6.911   0.295  0.2376  0.1715 -0.0128
 4647SOL    HW119903   5.394   6.971   0.281  0.9832  1.2134  0.4028
 4647SOL    HW219904   5.428   6.833   0.334 -0.6704  0.6604  0.0772
 4648SOL     OW19905   3.574   4.375   8.898  0.1011 -1.1478 -0.1382
 4648SOL    HW119906   3.643   4.429   8.860 -1.0168 -0.2700 -0.9711
 4648SOL    HW219907   3.523   4.435   8.952 -1.1016 -1.3509 -1.0006
 4649SOL     OW19908   7.092   7.943   3.489  0.0201 -0.0599  0.0989
 4649SOL    HW119909   7.006   7.903   3.474 -0.1246  0.8396 -1.8224
 4649SOL    HW219910   7.074   8.018   3.546 -0.1468 -0.9627  1.2783
 4650SOL     OW19911   3.909   2.754   2.124 -0.0726 -0.0601  0.1470
 4650SOL    HW119912   3.949   2.674   2.088  0.0116  0.7118 -1.5719
 4650SOL    HW219913   3.975   2.789   2.183 -0.7922 -2.1646  2.3503
 4651SOL     OW19914   5.965   9.251   0.977  0.4750  0.4364 -0.3439
 4651SOL    HW119915   5.896   9.217   1.033  1.4711 -2.2038 -0.5591
 4651SOL    HW219916   5.921   9.278   0.897 -0.4283 -0.1700 -0.0588
 4652SOL     OW19917   5.868   7.013   0.027 -0.4760  0.2571 -0.2757
 4652SOL    HW119918   5.895   6.926   0.054  0.4103  0.5889 -0.0425
 4652SOL    HW219919   5.790   7.032   0.079  1.5621  1.1658  2.7217
 4653SOL     OW19920   1.214   5.621   6.368 -0.8520  0.3131 -0.1737
 4653SOL    HW119921   1.200   5.633   6.462 -3.6386  0.2788 -0.4841
 4653SOL    HW219922   1.298   5.576   6.361  0.1455  1.6311  2.1719
 4654SOL     OW19923   4.815   5.467   6.473 -0.2353  0.1875 -0.0834
 4654SOL    HW119924   4.889   5.419   6.436 -0.0472  0.4162 -0.0087
 4654SOL    HW219925   4.740   5.444   6.418 -0.1369 -0.1569 -0.0724
 4655SOL     OW19926   8.427   4.405   2.338 -0.0888  0.2884  0.2412
 4655SOL    HW119927   8.420   4.315   2.306 -1.4105  0.9410 -1.4550
 4655SOL    HW219928   8.491   4.447   2.280 -0.8720  0.9105 -0.2018
 4656SOL     OW19929   8.354   2.889   2.408 -0.0258 -0.6118 -0.2801
 4656SOL    HW119930   8.266   2.900   2.444 -0.0052  0.3605 -0.5060
 4656SOL    HW219931   8.413   2.914   2.480  0.0143  1.4737 -0.9864
 4657SOL     OW19932   0.188   1.948   2.490  0.1425  0.5004 -0.2813
 4657SOL    HW119933   0.173   1.893   2.567 -1.1072  0.5108 -0.5088
 4657SOL    HW219934   0.272   1.991   2.508  0.1375  0.0841  0.8188
 4658SOL     OW19935   5.359   0.614   2.074  0.0891  0.2474 -0.1265
 4658SOL    HW119936   5.310   0.694   2.090  0.7581  0.3558  1.7422
 4658SOL    HW219937   5.437   0.643   2.027 -0.3461  0.4828 -0.7049
 4659SOL     OW19938   0.560   0.559   6.989 -0.4824 -0.2540  0.2389
 4659SOL    HW119939   0.614   0.482   7.006 -0.2357 -0.3120 -0.7460
 4659SOL    HW219940   0.592   0.625   7.051 -1.4219 -1.2284  1.8696
 4660SOL     OW19941   5.340   2.358   4.612  0.1042 -0.4530 -0.0096
 4660SOL    HW119942   5.407   2.314   4.560 -1.9349 -1.3707 -2.0335
 4660SOL    HW219943   5.388   2.397   4.685  2.6768 -1.8528 -0.8296
 4661SOL     OW19944   6.519   7.192   8.095  0.4312  0.3701 -0.3035
 4661SOL    HW119945   6.431   7.172   8.062 -0.4627  4.3028 -0.8139
 4661SOL    HW219946   6.535   7.126   8.161 -2.1544 -1.5555 -1.4184
 4662SOL     OW19947   6.382   6.140   7.347 -0.0450  0.2132 -0.1797
 4662SOL    HW119948   6.389   6.068   7.284  0.6311 -1.4912  1.7295
 4662SOL    HW219949   6.288   6.144   7.367  0.0573 -1.1143  0.7065
 4663SOL     OW19950   9.114   8.692   7.503  0.2735  0.0150 -0.5047
 4663SOL    HW119951   9.032   8.739   7.484  0.4786  0.5416 -0.0841
 4663SOL    HW219952   9.100   8.653   7.589 -0.0374 -1.0256 -1.0055
 4664SOL     OW19953   4.877   2.660   0.350  0.1208 -0.0777  0.3203
 4664SOL    HW119954   4.846   2.597   0.414  0.2069 -0.5535 -0.0949
 4664SOL    HW219955   4.833   2.742   0.372  0.7624 -0.0273  1.4776
 4665SOL     OW19956   3.446   1.337   8.380  0.1618 -0.0689  0.1036
 4665SOL    HW119957   3.353   1.333   8.403  0.1793  0.1119  0.2119
 4665SOL    HW219958   3.491   1.307   8.459  0.3146  2.5670  1.1277
 4666SOL     OW19959   0.558   0.051   8.706 -0.1345  0.3394 -0.1276
 4666SOL    HW119960   0.614   0.079   8.778  0.2566 -1.7671  0.4346
 4666SOL    HW219961   0.526  -0.035   8.732 -2.5389  0.8829 -1.0787
 4667SOL     OW19962   5.602   6.987   6.206  0.2366 -0.0968  0.2981
 4667SOL    HW119963   5.597   6.907   6.258 -1.4193 -0.7196 -0.7178
 4667SOL    HW219964   5.655   6.963   6.130 -1.4528 -0.7410 -0.7425
 4668SOL     OW19965   9.192   5.474   4.614  0.2742  0.0887 -0.1157
 4668SOL    HW119966   9.259   5.462   4.682 -1.2735  2.2659  1.9282
 4668SOL    HW219967   9.132   5.401   4.626  0.5725 -0.1194  0.1307
 4669SOL     OW19968   5.489   0.126   1.885 -0.2913 -0.1130 -0.2945
 4669SOL    HW119969   5.430   0.053   1.907  0.1323  0.2486  2.4070
 4669SOL    HW219970   5.567   0.083   1.849 -0.0362 -1.0587  1.2830
 4670SOL     OW19971   5.480   8.640   2.511  0.5067  0.3753  0.7556
 4670SOL    HW119972   5.535   8.656   2.588  0.7590  2.5789  0.2010
 4670SOL    HW219973   5.542   8.616   2.442  0.8761  2.6413  0.1891
 4671SOL     OW19974   7.445   2.643   3.654 -0.4840 -0.3587  0.2561
 4671SOL    HW119975   7.523   2.637   3.600  0.3235 -0.9530  1.4458
 4671SOL    HW219976   7.372   2.630   3.593  0.3633 -0.3863 -0.7738
 4672SOL     OW19977   7.795   6.122   2.135 -0.0345  0.7298 -0.2590
 4672SOL    HW119978   7.828   6.033   2.132 -0.2733  0.5997  0.6657
 4672SOL    HW219979   7.826   6.157   2.219 -0.4753  1.3027 -0.3246
 4673SOL     OW19980   4.073   1.039   4.368 -0.3240  0.6086 -0.6679
 4673SOL    HW119981   4.052   1.104   4.434 -0.2446  1.3871 -1.4021
 4673SOL    HW219982   4.116   0.969   4.416 -1.4388  0.5597  0.3120
 4674SOL     OW19983   2.405   5.227   0.964 -0.0256  0.1230 -0.2060
 4674SOL    HW119984   2.495   5.236   0.935  0.0756 -1.3680 -0.4155
 4674SOL    HW219985   2.367   5.161   0.906 -0.8977 -0.1563  0.6488
 4675SOL     OW19986   0.799   4.129   1.626 -0.1682 -0.3303  0.4511
 4675SOL    HW119987   0.808   4.222   1.607 -0.0090 -0.5049 -0.3555
 4675SOL    HW219988   0.882   4.104   1.665 -0.0262 -0.2426  0.2062
 4676SOL     OW19989   4.409   8.850   8.355  0.1398  0.2916 -0.1330
 4676SOL    HW119990   4.394   8.883   8.267 -0.3622  1.1122  0.2498
 4676SOL    HW219991   4.502   8.866   8.371  0.1933  0.3007 -0.4421
 4677SOL     OW19992   7.624   3.462   4.356 -0.6694  0.2628  0.1535
 4677SOL    HW119993   7.627   3.406   4.278 -0.1979 -1.5946  1.4591
 4677SOL    HW219994   7.534   3.455   4.388 -0.0467 -1.6892  1.6294
 4678SOL     OW19995   4.463   6.640   0.508 -0.4595 -0.0730  0.1450
 4678SOL    HW119996   4.482   6.567   0.566 -0.7613  0.7691  1.3481
 4678SOL    HW219997   4.432   6.600   0.427 -1.3597 -1.2647  1.0506
 4679SOL     OW19998   3.811   9.008   8.213  0.2488 -0.6872  0.1581
 4679SOL    HW119999   3.749   8.949   8.256  0.7178 -1.0357  0.3644
 4679SOL    HW220000   3.861   9.046   8.285  1.0001 -1.2257 -0.0691
 4680SOL     OW20001   7.744   6.030   0.806  0.0012  0.1575  0.4329
 4680SOL    HW120002   7.661   6.075   0.786  0.3339  0.8750  0.6428
 4680SOL    HW220003   7.739   5.948   0.756 -0.4695  0.5775 -0.2289
 4681SOL     OW20004   6.103   9.325   7.033  0.6560 -0.9292 -0.0807
 4681SOL    HW120005   6.080   9.321   6.940  1.4344 -2.9554 -0.2454
 4681SOL    HW220006   6.192   9.361   7.034 -0.2725  1.5832  0.1424
 4682SOL     OW20007   6.022   2.151   3.766 -0.1157  0.6795  0.0153
 4682SOL    HW120008   6.109   2.121   3.741 -0.4467 -0.3592  0.0929
 4682SOL    HW220009   6.037   2.239   3.802  0.9708  0.3105  0.5087
 4683SOL     OW20010   6.930   9.218   2.213 -0.4710 -0.3658 -0.2828
 4683SOL    HW120011   7.014   9.175   2.228 -0.9709 -1.3132 -0.0791
 4683SOL    HW220012   6.865   9.150   2.232 -1.2711  0.2212 -0.8574
 4684SOL     OW20013   7.919   5.068   1.967 -0.0096 -0.1482  0.2118
 4684SOL    HW120014   7.945   5.160   1.952  0.7775 -0.3685  0.1554
 4684SOL    HW220015   7.830   5.073   2.000  0.2017  0.6693  0.6830
 4685SOL     OW20016   8.019   3.501   6.039  0.0065 -0.1465 -0.2982
 4685SOL    HW120017   7.990   3.516   6.129  0.1390 -1.0870 -0.0869
 4685SOL    HW220018   7.967   3.425   6.009 -0.7612  0.7534 -1.3675
 4686SOL     OW20019   1.354   7.626   2.918 -0.1206 -0.0567  0.6187
 4686SOL    HW120020   1.373   7.712   2.880 -0.8956 -0.6919 -1.3019
 4686SOL    HW220021   1.410   7.565   2.870  1.2905 -0.5660  2.7383
 4687SOL     OW20022   2.003   9.246   3.806 -0.3000  0.0847 -0.1841
 4687SOL    HW120023   2.002   9.151   3.806  1.0189  0.0369  1.1366
 4687SOL    HW220024   2.054   9.270   3.884 -0.9356  1.8734 -0.2599
 4688SOL     OW20025   1.121   5.064   4.302  0.4393  0.1902  0.2085
 4688SOL    HW120026   1.046   5.102   4.348 -1.7961 -2.4321 -0.9556
 4688SOL    HW220027   1.103   5.079   4.209 -1.5427 -4.6457 -0.5220
 4689SOL     OW20028   3.764   7.129   2.437  0.0892 -0.6557  0.1712
 4689SOL    HW120029   3.857   7.122   2.412 -0.2739 -0.7628 -1.2185
 4689SOL    HW220030   3.742   7.042   2.471  0.9243 -0.1478  2.1728
 4690SOL     OW20031   8.377   5.967   0.590  0.4290 -0.3265 -0.0376
 4690SOL    HW120032   8.382   5.871   0.591  2.3411 -0.2591  0.2708
 4690SOL    HW220033   8.361   5.991   0.682  2.4544 -0.3022  0.3543
 4691SOL     OW20034   6.471   9.014   9.179  0.2141 -0.3477  0.0900
 4691SOL    HW120035   6.387   9.041   9.141 -0.1835 -2.0533 -0.3475
 4691SOL    HW220036   6.452   8.997   9.271  0.3014  0.1873  0.2057
 4692SOL     OW20037   8.721   8.171   5.388  0.0430  0.1523 -0.1968
 4692SOL    HW120038   8.702   8.255   5.345 -1.4358 -0.4587 -0.8178
 4692SOL    HW220039   8.737   8.110   5.317  1.6315 -0.0113  0.2676
 4693SOL     OW20040   7.583   1.362   6.871  0.3320  0.1298 -0.1680
 4693SOL    HW120041   7.636   1.362   6.950 -0.5390 -0.1854  0.4340
 4693SOL    HW220042   7.632   1.416   6.809  0.1250  2.0000  1.2106
 4694SOL     OW20043   8.425   1.537   0.358  0.0403 -0.2517  0.6214
 4694SOL    HW120044   8.501   1.490   0.390 -0.4803 -0.6164  1.3443
 4694SOL    HW220045   8.396   1.591   0.431 -0.2627  0.0588  0.2822
 4695SOL     OW20046   1.980   3.307   7.285  0.6152  0.1253  0.3834
 4695SOL    HW120047   1.886   3.300   7.272  0.6130  1.9713 -1.1169
 4695SOL    HW220048   2.017   3.310   7.196  2.1046 -0.6883  0.9390
 4696SOL     OW20049   3.466   7.473   6.364 -0.3152  0.5376 -0.3430
 4696SOL    HW120050   3.422   7.551   6.329  2.0566  0.8539 -2.9550
 4696SOL    HW220051   3.530   7.508   6.426  0.6548  0.7430 -1.4136
 4697SOL     OW20052   7.908   3.268   5.951  0.2423 -0.4113  0.0751
 4697SOL    HW120053   7.849   3.223   6.011 -0.0754  0.0290  0.0986
 4697SOL    HW220054   7.993   3.226   5.965 -0.0829 -1.1351 -0.0416
 4698SOL     OW20055   5.841   1.780   6.435 -0.0981  0.3677 -0.4625
 4698SOL    HW120056   5.749   1.763   6.455 -0.3801  2.1187 -0.0630
 4698SOL    HW220057   5.840   1.863   6.386  1.4136  1.7851  1.7403
 4699SOL     OW20058   8.354   5.790   3.883 -0.4639  0.6958 -0.5863
 4699SOL    HW120059   8.309   5.775   3.800 -0.3820 -1.9634 -0.2345
 4699SOL    HW220060   8.378   5.703   3.914 -1.7417  1.4002  2.9558
 4700SOL     OW20061   9.153   7.821   4.651  0.7620 -0.4843 -0.1022
 4700SOL    HW120062   9.227   7.771   4.616  1.3461 -1.8651  2.8253
 4700SOL    HW220063   9.181   7.912   4.642  1.8911 -0.8765 -0.9464
 4701SOL     OW20064   4.033   0.257   0.648 -0.3526  0.4212  0.0958
 4701SOL    HW120065   3.972   0.217   0.709 -2.3041  2.5329 -0.3297
 4701SOL    HW220066   3.987   0.334   0.615  2.5726  2.1688 -0.2456
 4702SOL     OW20067   8.907   9.086   1.136  0.4343  0.1201  0.1055
 4702SOL    HW120068   8.995   9.111   1.164  0.0342  0.6979  0.8987
 4702SOL    HW220069   8.872   9.165   1.094  0.0765  0.1048  0.3629
 4703SOL     OW20070   8.606   7.635   1.176 -0.8379 -0.0696 -0.5821
 4703SOL    HW120071   8.638   7.723   1.193 -0.5124  0.2597 -2.6233
 4703SOL    HW220072   8.685   7.583   1.159 -1.1258 -0.2180 -1.5460
 4704SOL     OW20073   5.842   3.482   0.448 -0.1142 -0.0979  0.1968
 4704SOL    HW120074   5.888   3.425   0.510 -0.6979 -1.1466 -0.3031
 4704SOL    HW220075   5.907   3.501   0.380  0.2427  0.2730  0.6375
 4705SOL     OW20076   2.563   5.846   3.007 -0.1122  0.3848 -0.2094
 4705SOL    HW120077   2.652   5.855   3.042 -1.0274  1.4338  1.9571
 4705SOL    HW220078   2.557   5.915   2.941  0.1014  1.5484  0.9470
 4706SOL     OW20079   7.768   7.690   9.209  0.8159 -0.4105  0.2667
 4706SOL    HW120080   7.768   7.786   9.211  1.1704 -0.4238  1.2276
 4706SOL    HW220081   7.766   7.664   9.301  2.1018 -1.3356  0.0510
 4707SOL     OW20082   2.553   7.106   3.173  0.1668 -0.3813  0.2367
 4707SOL    HW120083   2.573   7.015   3.194  1.8049  0.0169  0.4746
 4707SOL    HW220084   2.614   7.129   3.103  0.7778  0.9529  1.1609
 4708SOL     OW20085   6.292   2.090   3.726  0.2198 -0.4118 -0.0032
 4708SOL    HW120086   6.380   2.083   3.691  0.0602 -1.4887 -0.2301
 4708SOL    HW220087   6.300   2.062   3.817  0.2805  0.4474  0.2611
 4709SOL     OW20088   3.343   6.043   3.417  0.2957 -0.2002 -0.0620
 4709SOL    HW120089   3.270   5.988   3.444 -0.9554  1.0565 -0.7260
 4709SOL    HW220090   3.421   6.000   3.452 -0.6958 -1.9431  0.0880
 4710SOL     OW20091   3.146   1.603   0.206  0.6330  0.0699 -0.4005
 4710SOL    HW120092   3.189   1.661   0.142  0.8593  0.0703 -0.2498
 4710SOL    HW220093   3.206   1.529   0.214  1.0595  0.5038  0.5045
 4711SOL     OW20094   3.297   0.588   3.150 -0.4137 -0.2067 -0.7283
 4711SOL    HW120095   3.251   0.607   3.232  0.9891  1.6931 -0.3018
 4711SOL    HW220096   3.253   0.511   3.115 -2.0184 -0.1833  1.0620
 4712SOL     OW20097   7.230   2.698   9.258  0.3368  0.7457  0.1385
 4712SOL    HW120098   7.182   2.616   9.270 -0.4076  1.1695  0.1193
 4712SOL    HW220099   7.263   2.720   9.345  0.4103  0.5058  0.1714
 4713SOL     OW20100   0.425   4.052   7.343 -0.3897 -0.6437 -0.4182
 4713SOL    HW120101   0.390   3.973   7.304  1.4303 -1.4669 -0.4785
 4713SOL    HW220102   0.455   4.105   7.269 -0.6380 -0.3861 -0.3331
 4714SOL     OW20103   2.386   9.101   8.622  0.2650  0.2111 -0.7298
 4714SOL    HW120104   2.449   9.031   8.638  1.3672  0.8020 -2.2212
 4714SOL    HW220105   2.407   9.168   8.686 -1.5604 -1.1775  1.5263
 4715SOL     OW20106   8.977   5.527   1.832  0.2600 -0.1752 -0.1267
 4715SOL    HW120107   8.958   5.466   1.903 -1.0272 -0.7190 -0.8806
 4715SOL    HW220108   9.062   5.500   1.799  0.4407 -0.5150  0.5995
 4716SOL     OW20109   5.723   2.617   3.820 -0.5200  0.2294  0.5093
 4716SOL    HW120110   5.769   2.697   3.793 -0.3706 -0.3132 -0.9768
 4716SOL    HW220111   5.647   2.648   3.870  0.9260  1.1716  2.2154
 4717SOL     OW20112   8.338   6.707   0.199 -0.0576  0.9334  0.6960
 4717SOL    HW120113   8.423   6.728   0.159  0.2293  1.0238  1.3370
 4717SOL    HW220114   8.352   6.621   0.239 -1.6747 -1.4089 -3.2793
 4718SOL     OW20115   0.346   3.005   0.161 -0.5404 -0.2043 -0.0967
 4718SOL    HW120116   0.435   3.039   0.158 -0.3328 -0.6595  0.6970
 4718SOL    HW220117   0.347   2.940   0.231 -1.2427 -0.9512 -0.7514
 4719SOL     OW20118   3.730   7.492   1.023 -0.0177  0.2782 -0.4463
 4719SOL    HW120119   3.823   7.512   1.021  0.1035 -0.3437 -1.8974
 4719SOL    HW220120   3.717   7.427   0.954 -1.2330 -0.9389  0.8386
 4720SOL     OW20121   2.991   4.130   1.342  0.3424 -0.7048 -0.0323
 4720SOL    HW120122   3.042   4.080   1.406  2.3606  1.8456  0.4776
 4720SOL    HW220123   2.939   4.191   1.395  0.7077  0.2413 -0.7416
 4721SOL     OW20124   4.460   4.764   6.636  0.0212 -0.3244 -0.1736
 4721SOL    HW120125   4.482   4.832   6.572  1.8167 -0.1995  0.5208
 4721SOL    HW220126   4.412   4.698   6.586 -1.3630  1.2083 -0.9644
 4722SOL     OW20127   1.305   0.769   6.474  0.0425 -0.8192 -0.5829
 4722SOL    HW120128   1.280   0.689   6.520 -0.1696 -0.8672 -0.7757
 4722SOL    HW220129   1.379   0.743   6.420  0.2773 -0.7681 -0.2884
 4723SOL     OW20130   3.491   6.286   3.668  0.1348  0.0169  0.0474
 4723SOL    HW120131   3.511   6.371   3.708 -0.6353 -0.2881  1.1382
 4723SOL    HW220132   3.418   6.304   3.610 -0.3364  0.0243  0.6325
 4724SOL     OW20133   1.760   2.579   2.466 -0.1291 -0.5380 -0.6295
 4724SOL    HW120134   1.674   2.549   2.434 -0.4495  0.1031 -0.3790
 4724SOL    HW220135   1.777   2.660   2.418 -1.8043  1.9202  2.5138
 4725SOL     OW20136   1.730   7.585   8.654  0.7339 -0.7404  0.0128
 4725SOL    HW120137   1.752   7.494   8.634  0.8466 -0.0519 -3.7397
 4725SOL    HW220138   1.809   7.634   8.634  0.1548  0.3651  0.3251
 4726SOL     OW20139   5.658   8.584   1.165 -0.2161  0.0534  0.4993
 4726SOL    HW120140   5.665   8.547   1.252  1.0534  0.1683  0.4562
 4726SOL    HW220141   5.739   8.634   1.152 -0.3779  0.0467 -0.7367
 4727SOL     OW20142   6.754   8.039   2.157  0.0512  0.1217  0.1766
 4727SOL    HW120143   6.844   8.017   2.133 -0.0378  0.6544 -0.6545
 4727SOL    HW220144   6.733   7.979   2.229  1.3165  0.4835  0.8642
 4728SOL     OW20145   3.873   6.472   8.042 -0.3010 -0.2382 -0.4877
 4728SOL    HW120146   3.800   6.532   8.026 -0.9310 -1.1778 -1.2675
 4728SOL    HW220147   3.946   6.508   7.992 -0.6157 -0.0209 -0.7926
 4729SOL     OW20148   7.381   4.297   0.807 -0.6087  0.1893 -0.6579
 4729SOL    HW120149   7.433   4.329   0.881 -0.9075  0.4777 -0.5654
 4729SOL    HW220150   7.445   4.273   0.740 -0.3625  0.7654 -0.6358
 4730SOL     OW20151   8.057   2.068   0.074 -0.0175  0.0088 -0.0966
 4730SOL    HW120152   8.035   2.004   0.006  0.0311  0.2012 -0.2915
 4730SOL    HW220153   8.024   2.151   0.041  1.6938  0.4633 -0.7600
 4731SOL     OW20154   6.839   6.103   8.716 -0.9684 -0.2812  0.0510
 4731SOL    HW120155   6.850   6.152   8.798 -0.2221 -1.1165  0.4747
 4731SOL    HW220156   6.850   6.168   8.647  0.5850  0.0766  0.5857
 4732SOL     OW20157   7.059   6.543   7.364 -0.3218 -0.0656 -0.7756
 4732SOL    HW120158   6.993   6.510   7.425 -1.2509  1.1296 -1.1030
 4732SOL    HW220159   7.143   6.523   7.407 -0.9468  1.0822  1.0861
 4733SOL     OW20160   3.980   8.953   4.157  0.3608 -0.1739  0.0186
 4733SOL    HW120161   3.964   8.882   4.219  1.1037 -0.4057 -0.0464
 4733SOL    HW220162   3.914   8.941   4.089  1.7346 -2.0812 -1.0963
 4734SOL     OW20163   3.571   1.929   0.338 -0.0542  0.3723 -0.5464
 4734SOL    HW120164   3.643   1.973   0.384  2.7841 -2.4464 -1.9210
 4734SOL    HW220165   3.606   1.912   0.250 -3.5401  1.3954 -2.3121
 4735SOL     OW20166   6.749   0.768   0.591 -0.6609 -0.7292 -0.0275
 4735SOL    HW120167   6.715   0.799   0.507  1.8578  2.2220 -0.1159
 4735SOL    HW220168   6.728   0.837   0.653  0.0989 -1.4985  1.1218
 4736SOL     OW20169   6.367   0.501   8.298 -0.3305  0.1477  0.1528
 4736SOL    HW120170   6.365   0.521   8.204  1.6784 -0.4273 -0.0824
 4736SOL    HW220171   6.406   0.413   8.302  0.2575  0.4484  1.5522
 4737SOL     OW20172   7.186   2.115   0.810  0.3258  0.1540 -0.2457
 4737SOL    HW120173   7.146   2.038   0.852 -0.7241  0.9675  0.2862
 4737SOL    HW220174   7.153   2.113   0.720  1.9625 -1.1571 -0.8679
 4738SOL     OW20175   5.261   5.180   0.515 -0.0644 -0.0096 -0.4806
 4738SOL    HW120176   5.341   5.137   0.544 -0.1163  0.7022  0.7579
 4738SOL    HW220177   5.278   5.204   0.424  1.1365  0.1654 -0.2248
 4739SOL     OW20178   2.606   9.135   9.299 -0.4087  0.2363 -0.1121
 4739SOL    HW120179   2.585   9.182   9.380 -0.6299 -0.2482  0.1108
 4739SOL    HW220180   2.595   9.043   9.321 -0.1380  0.0868 -0.6015
 4740SOL     OW20181   8.657   1.262   5.151  0.1547  0.3921 -0.3233
 4740SOL    HW120182   8.676   1.352   5.123  1.1104  0.0510 -0.8183
 4740SOL    HW220183   8.699   1.255   5.237  1.2296  0.0325 -0.8578
 4741SOL     OW20184   5.360   1.245   0.342 -0.6633  1.0686 -0.3608
 4741SOL    HW120185   5.285   1.186   0.332 -1.2629  1.9409 -1.1904
 4741SOL    HW220186   5.357   1.270   0.435 -0.9599  0.5281 -0.2184
 4742SOL     OW20187   7.446   1.437   8.557  0.5347  0.1081  0.7825
 4742SOL    HW120188   7.378   1.387   8.601  0.2565  2.4042  3.1527
 4742SOL    HW220189   7.526   1.419   8.607  1.6924 -1.9683 -1.5269
 4743SOL     OW20190   2.072   7.242   6.483 -0.3818  0.3735 -0.3567
 4743SOL    HW120191   2.003   7.289   6.530  1.5263  0.9750  2.0810
 4743SOL    HW220192   2.109   7.308   6.424 -1.0901  0.3907 -0.7933
 4744SOL     OW20193   8.355   6.449   8.292  0.9871 -0.3316 -0.1834
 4744SOL    HW120194   8.386   6.535   8.318 -2.7837  1.1280  0.1218
 4744SOL    HW220195   8.356   6.450   8.197  0.2318  0.4019 -0.1933
 4745SOL     OW20196   3.473   8.335   8.692  0.5509 -0.0563 -0.3606
 4745SOL    HW120197   3.514   8.412   8.653 -0.5068  0.5320 -0.3277
 4745SOL    HW220198   3.441   8.365   8.777  1.3334 -0.8901  0.2510
 4746SOL     OW20199   7.436   3.761   8.287  0.0173 -0.0472 -0.1011
 4746SOL    HW120200   7.348   3.743   8.254 -0.2992 -0.7073  1.0175
 4746SOL    HW220201   7.429   3.846   8.330  0.0828  0.1853 -0.5507
 4747SOL     OW20202   8.440   1.118   1.299  0.4820  0.5139  0.2715
 4747SOL    HW120203   8.349   1.148   1.298  0.9346  1.9626 -0.5841
 4747SOL    HW220204   8.449   1.070   1.382 -0.8515  0.9960  0.7140
 4748SOL     OW20205   5.246   0.531   2.942 -0.2917 -0.5095 -0.1001
 4748SOL    HW120206   5.242   0.621   2.908 -0.8426 -0.7966 -0.8107
 4748SOL    HW220207   5.251   0.476   2.864 -0.4536 -1.1267  0.3179
 4749SOL     OW20208   7.853   6.197   4.346 -0.3022  0.1953 -0.3731
 4749SOL    HW120209   7.838   6.217   4.254  2.2654 -1.1699 -1.2013
 4749SOL    HW220210   7.888   6.278   4.383  1.1684  0.0395 -1.3246
 4750SOL     OW20211   0.206   8.408   0.107 -0.2646 -0.3464 -0.0089
 4750SOL    HW120212   0.232   8.478   0.167 -0.7543 -0.3013  0.1557
 4750SOL    HW220213   0.288   8.376   0.070 -0.0612  0.5982 -0.3988
 4751SOL     OW20214   6.045   5.039   2.583  0.5319 -0.4774 -0.3527
 4751SOL    HW120215   6.074   5.100   2.651 -0.6793  0.7530 -0.8972
 4751SOL    HW220216   6.095   5.064   2.505  0.7900 -0.8689 -0.3144
 4752SOL     OW20217   9.123   7.084   8.576  0.0259 -0.0610  0.1180
 4752SOL    HW120218   9.213   7.078   8.545 -0.8048  1.0271 -2.8383
 4752SOL    HW220219   9.094   6.993   8.582  0.5983 -0.3651 -1.3580
 4753SOL     OW20220   6.164   2.237   8.435 -0.4115 -0.0587 -0.2180
 4753SOL    HW120221   6.256   2.226   8.411 -0.2902  0.4130  0.0160
 4753SOL    HW220222   6.119   2.165   8.391 -0.2006  0.8020 -1.9067
 4754SOL     OW20223   0.842   1.801   5.708 -0.3448 -0.1425 -0.7743
 4754SOL    HW120224   0.917   1.826   5.655 -0.1487 -1.0310 -0.9227
 4754SOL    HW220225   0.879   1.753   5.782 -0.5084  2.0061  0.8056
 4755SOL     OW20226   8.705   5.872   1.120  0.2677  0.1192  0.3576
 4755SOL    HW120227   8.798   5.887   1.103 -0.2457  1.8623 -1.2610
 4755SOL    HW220228   8.660   5.910   1.044 -1.8625  0.9838  1.9387
 4756SOL     OW20229   3.524   3.511   3.388  0.3622  0.1444 -0.6925
 4756SOL    HW120230   3.613   3.479   3.378  0.2622 -0.5789  0.4978
 4756SOL    HW220231   3.468   3.436   3.369  0.0453  0.2649 -0.2595
 4757SOL     OW20232   8.091   6.935   5.141  0.0097  0.1199  0.6544
 4757SOL    HW120233   8.107   6.916   5.233  0.0551  0.3456  0.6933
 4757SOL    HW220234   8.001   6.966   5.137  0.2489  0.8515  0.7376
 4758SOL     OW20235   0.331   7.502   0.226 -0.4552  0.0993 -0.2171
 4758SOL    HW120236   0.406   7.557   0.205 -1.3438  1.2259 -0.5784
 4758SOL    HW220237   0.278   7.556   0.285 -0.0016 -1.4648  1.7254
 4759SOL     OW20238   3.683   2.300   6.099 -0.4750  0.1652  0.1848
 4759SOL    HW120239   3.670   2.278   6.006  3.0447  0.4776 -0.5130
 4759SOL    HW220240   3.684   2.396   6.101 -1.7727  0.1859  0.8104
 4760SOL     OW20241   5.883   1.336   1.346  0.1306  0.1642  0.1334
 4760SOL    HW120242   5.843   1.344   1.433  2.6079 -1.8614  1.6174
 4760SOL    HW220243   5.974   1.365   1.358  0.3401  0.6229 -2.0357
 4761SOL     OW20244   9.368   3.005   2.142 -0.2814 -0.6882  0.1002
 4761SOL    HW120245   9.444   3.052   2.108 -0.2306 -0.2597  0.7869
 4761SOL    HW220246   9.296   3.068   2.135 -0.1531 -0.3959  1.2896
 4762SOL     OW20247   7.409   6.087   5.051  0.2601  0.2707  0.1385
 4762SOL    HW120248   7.467   6.024   5.009 -1.7763 -1.1541 -0.6762
 4762SOL    HW220249   7.406   6.161   4.991  0.0786 -0.2784 -0.5311
 4763SOL     OW20250   3.829   5.036   2.436 -0.1706 -0.1201  0.0942
 4763SOL    HW120251   3.841   5.032   2.531  0.2803 -0.7739  0.0200
 4763SOL    HW220252   3.740   5.003   2.422  0.0380 -0.7527  0.2364
 4764SOL     OW20253   1.296   4.910   6.320  0.0781  0.3818  0.1610
 4764SOL    HW120254   1.278   4.931   6.411 -0.8992  1.2053 -0.1985
 4764SOL    HW220255   1.285   4.815   6.315  0.5035  0.2883  0.9736
 4765SOL     OW20256   3.373   0.171   7.293 -0.4982 -0.2528 -0.4952
 4765SOL    HW120257   3.389   0.206   7.205  0.0309  1.2975  0.1844
 4765SOL    HW220258   3.433   0.096   7.299  0.3660  0.3709 -1.0246
 4766SOL     OW20259   7.925   0.387   7.092 -0.0545 -0.7724 -0.4641
 4766SOL    HW120260   7.982   0.393   7.168  0.6432 -0.0949 -1.0235
 4766SOL    HW220261   7.971   0.437   7.024 -0.7700 -1.1776 -1.2578
 4767SOL     OW20262   7.694   6.287   7.227 -0.1292  0.3051 -0.2234
 4767SOL    HW120263   7.697   6.333   7.143  0.9222  0.5199 -0.0823
 4767SOL    HW220264   7.631   6.216   7.213 -0.8212  1.0158 -0.8330
 4768SOL     OW20265   0.677   4.498   7.995 -0.2731 -0.4106 -0.5256
 4768SOL    HW120266   0.588   4.524   8.018 -0.0883 -1.2368  1.3429
 4768SOL    HW220267   0.722   4.580   7.973 -1.2599  0.1022 -0.6638
 4769SOL     OW20268   8.897   0.902   8.469 -0.3660 -0.6459  0.5265
 4769SOL    HW120269   8.949   0.930   8.544 -0.7701 -0.9688  0.9385
 4769SOL    HW220270   8.891   0.980   8.414 -0.6541 -0.1938  1.1780
 4770SOL     OW20271   8.157   7.531   5.358 -0.2898  0.0439 -0.6167
 4770SOL    HW120272   8.253   7.537   5.355 -0.2780 -0.4533 -1.4895
 4770SOL    HW220273   8.135   7.550   5.449  0.7572 -1.4410 -0.0098
 4771SOL     OW20274   0.877   4.191   1.236  0.0639 -0.2949 -0.1556
 4771SOL    HW120275   0.858   4.101   1.265 -0.8737 -0.7950 -2.1425
 4771SOL    HW220276   0.794   4.237   1.242  0.1475 -0.0513 -0.7263
 4772SOL     OW20277   1.461   5.528   6.911  0.2556  0.3333 -0.2734
 4772SOL    HW120278   1.466   5.587   6.985  0.0020 -0.1581  0.1400
 4772SOL    HW220279   1.367   5.511   6.900  0.4023 -1.4132  0.7659
 4773SOL     OW20280   0.015   1.423   4.540  0.3010 -0.6746  1.0561
 4773SOL    HW120281   0.108   1.416   4.561  1.2693 -3.2314 -2.8736
 4773SOL    HW220282   0.006   1.510   4.500  1.4748 -1.0685 -0.1182
 4774SOL     OW20283   5.157   5.193   3.573 -0.2012  0.1359 -0.1240
 4774SOL    HW120284   5.115   5.279   3.582  0.6718  0.4308  1.8857
 4774SOL    HW220285   5.250   5.212   3.586  0.2161 -0.9049 -1.4368
 4775SOL     OW20286   0.940   5.421   8.243 -0.0954  0.0552 -0.3025
 4775SOL    HW120287   0.904   5.503   8.209 -0.8327 -0.2665 -0.3080
 4775SOL    HW220288   0.958   5.369   8.165  1.2568  0.5558 -0.3535
 4776SOL     OW20289   4.290   2.369   8.636 -0.8155  0.7423 -0.1896
 4776SOL    HW120290   4.281   2.355   8.730 -2.5701  0.2967 -0.3861
 4776SOL    HW220291   4.370   2.323   8.612 -2.1439 -2.1216  0.5336
 4777SOL     OW20292   3.008   0.760   0.694  0.1339 -0.3143 -0.0799
 4777SOL    HW120293   3.065   0.700   0.646  2.0285  0.4769  1.0527
 4777SOL    HW220294   3.020   0.845   0.650 -0.3191 -0.1694  0.0659
 4778SOL     OW20295   5.677   2.449   6.325  0.3937  0.3131  0.0417
 4778SOL    HW120296   5.587   2.416   6.330  0.8565 -0.8875  1.3142
 4778SOL    HW220297   5.670   2.542   6.345 -0.4514 -0.0020  1.3257
 4779SOL     OW20298   1.719   4.037   3.982 -0.5827  0.0824  0.6012
 4779SOL    HW120299   1.715   3.942   3.992  0.5805 -0.0436 -0.0362
 4779SOL    HW220300   1.706   4.052   3.889 -0.0318  0.4957  0.5857
 4780SOL     OW20301   7.409   1.837   4.616  0.2504 -0.0212 -0.4527
 4780SOL    HW120302   7.384   1.788   4.537 -0.6202  0.1131 -0.2738
 4780SOL    HW220303   7.376   1.784   4.689  0.6125  0.1011 -0.2002
 4781SOL     OW20304   6.814   0.890   7.740  0.4755 -0.7781  0.2978
 4781SOL    HW120305   6.748   0.933   7.685  1.9099 -0.0022 -0.8908
 4781SOL    HW220306   6.886   0.953   7.745  2.1546 -2.5297 -0.5003
 4782SOL     OW20307   0.063   1.696   6.989  0.4090  0.0067 -0.1666
 4782SOL    HW120308   0.006   1.767   6.958 -0.8039 -0.7386  0.2873
 4782SOL    HW220309   0.008   1.646   7.049  1.4032 -1.0390 -0.0982
 4783SOL     OW20310   6.788   1.442   1.611  0.1379 -0.2969  0.3181
 4783SOL    HW120311   6.700   1.480   1.600  0.1974 -0.3727 -0.4939
 4783SOL    HW220312   6.791   1.413   1.702 -0.8865 -0.8067  0.2010
 4784SOL     OW20313   5.321   1.173   3.352 -0.1515 -0.4803 -0.1487
 4784SOL    HW120314   5.341   1.106   3.286  0.0711 -0.8221  0.2627
 4784SOL    HW220315   5.392   1.236   3.344 -0.4302 -0.2127 -0.6265
 4785SOL     OW20316   2.305   1.789   2.627  0.0330  0.0425 -0.1751
 4785SOL    HW120317   2.363   1.749   2.563  1.1916  1.5251 -0.1173
 4785SOL    HW220318   2.261   1.859   2.580 -1.1056 -0.5267  0.0061
 4786SOL     OW20319   7.885   4.881   0.289 -0.0830 -0.4976 -0.0745
 4786SOL    HW120320   7.807   4.923   0.253  0.6349  0.8744 -0.1374
 4786SOL    HW220321   7.932   4.953   0.333  1.6504 -1.0306 -0.9521
 4787SOL     OW20322   7.930   4.292   3.150  0.3600  0.2952  0.0564
 4787SOL    HW120323   7.984   4.218   3.179  0.7932  0.1862 -0.9547
 4787SOL    HW220324   7.840   4.261   3.158  0.4808  0.1196  0.8285
 4788SOL     OW20325   9.028   6.596   9.290  0.1383  0.2669  0.3779
 4788SOL    HW120326   8.985   6.511   9.284  1.9011 -0.7966  1.7013
 4788SOL    HW220327   9.018   6.634   9.203 -0.7554 -1.2724 -0.2343
 4789SOL     OW20328   0.349   9.007   6.237 -0.0018 -0.3280 -0.1707
 4789SOL    HW120329   0.303   8.994   6.320 -0.8059 -2.7457 -0.9058
 4789SOL    HW220330   0.438   8.976   6.255  0.6030  1.6019  0.4390
 4790SOL     OW20331   4.619   5.569   4.342 -0.1652  1.2105  0.5736
 4790SOL    HW120332   4.620   5.601   4.433 -0.8557  1.2141  0.5913
 4790SOL    HW220333   4.530   5.536   4.330 -0.0533  1.1367 -0.0808
 4791SOL     OW20334   0.132   2.885   7.901  0.5879  0.4898  0.7739
 4791SOL    HW120335   0.096   2.802   7.869  0.6655  1.1953 -1.2846
 4791SOL    HW220336   0.226   2.877   7.887  0.4890  1.3247 -0.5200
 4792SOL     OW20337   7.527   1.506   0.790  0.0744  0.2054  0.0981
 4792SOL    HW120338   7.454   1.514   0.852  1.8361  1.8777  2.1541
 4792SOL    HW220339   7.529   1.591   0.746  0.3473 -0.1061 -0.4948
 4793SOL     OW20340   3.851   6.618   2.063  0.1170 -0.5741  0.1482
 4793SOL    HW120341   3.781   6.661   2.015  0.6466 -0.3300 -0.4210
 4793SOL    HW220342   3.862   6.670   2.142  1.5896  1.1420 -1.0909
 4794SOL     OW20343   7.626   1.142   8.737  0.3300  0.0397  0.1190
 4794SOL    HW120344   7.544   1.092   8.730 -0.3825  1.1591  0.2590
 4794SOL    HW220345   7.691   1.077   8.765 -1.0609 -0.3632  2.6836
 4795SOL     OW20346   7.449   3.065   2.866  0.5253  0.5048 -0.1293
 4795SOL    HW120347   7.470   3.085   2.957 -1.0372 -1.2452  0.6915
 4795SOL    HW220348   7.358   3.035   2.869  0.4799  0.3315 -2.2534
 4796SOL     OW20349   0.834   6.570   0.140 -0.1388 -0.1991  0.4323
 4796SOL    HW120350   0.916   6.598   0.180  0.4419 -1.1473 -0.0518
 4796SOL    HW220351   0.777   6.550   0.215  0.5208 -0.7850  0.7928
 4797SOL     OW20352   7.278   4.690   1.983 -0.3072  0.1668 -0.4757
 4797SOL    HW120353   7.329   4.613   1.957  0.2836  0.6102 -0.6546
 4797SOL    HW220354   7.253   4.674   2.073  0.6230  0.1808 -0.2036
 4798SOL     OW20355   1.473   6.195   5.288  0.1272 -0.1453 -0.5080
 4798SOL    HW120356   1.424   6.243   5.221 -0.6651  0.8964  0.7795
 4798SOL    HW220357   1.559   6.237   5.289 -0.4569  1.0931  0.3850
 4799SOL     OW20358   6.210   1.078   5.099 -0.2083  0.2114 -0.2287
 4799SOL    HW120359   6.169   1.001   5.139  0.4233 -0.2235 -0.3845
 4799SOL    HW220360   6.206   1.060   5.005 -0.4989  0.5993 -0.2883
 4800SOL     OW20361   4.219   8.176   8.444 -0.1363  0.2779  0.4181
 4800SOL    HW120362   4.146   8.116   8.425  0.8957 -0.7662 -0.3375
 4800SOL    HW220363   4.182   8.263   8.429 -0.6072 -0.3154 -2.3253
 4801SOL     OW20364   5.806   3.558   2.890  0.4223 -0.0113  0.8696
 4801SOL    HW120365   5.803   3.651   2.912 -0.8142 -0.4790  3.0081
 4801SOL    HW220366   5.764   3.551   2.804  0.7584  1.4258  0.5775
 4802SOL     OW20367   7.951   5.346   7.435 -0.0447 -0.2061 -0.5852
 4802SOL    HW120368   7.884   5.359   7.502  0.8847  0.7599  0.1989
 4802SOL    HW220369   7.921   5.399   7.361  0.4604  1.2707  0.2283
 4803SOL     OW20370   7.648   0.965   4.959 -0.0378 -0.0919 -0.5761
 4803SOL    HW120371   7.701   1.024   5.014 -1.0895 -0.8549  1.3536
 4803SOL    HW220372   7.696   0.882   4.962 -2.7132 -1.8622  4.0403
 4804SOL     OW20373   9.069   1.564   4.853 -0.1639  0.1494 -0.1129
 4804SOL    HW120374   9.072   1.621   4.777 -0.4260  0.6663  0.2624
 4804SOL    HW220375   9.012   1.609   4.915  0.0198 -0.2815  0.3748
 4805SOL     OW20376   1.630   4.035   9.002  0.1097  0.2008  0.3086
 4805SOL    HW120377   1.612   3.958   9.055 -1.4216 -0.1931 -0.7225
 4805SOL    HW220378   1.666   4.000   8.920  0.0490  0.6298  0.0940
 4806SOL     OW20379   8.443   0.241   3.715 -0.7923 -0.0521  0.0962
 4806SOL    HW120380   8.347   0.239   3.723 -0.7697  0.1902  0.5002
 4806SOL    HW220381   8.473   0.165   3.766 -0.6933  0.9317  1.5932
 4807SOL     OW20382   8.556   6.546   6.021 -0.3913 -0.0324  0.6374
 4807SOL    HW120383   8.468   6.570   5.990 -0.2372  0.5531  0.6433
 4807SOL    HW220384   8.591   6.627   6.058 -0.0404 -0.3882  1.0944
 4808SOL     OW20385   2.585   8.263   7.060  0.1853 -0.0804  0.0768
 4808SOL    HW120386   2.542   8.345   7.082 -0.1456  0.8975 -3.5305
 4808SOL    HW220387   2.519   8.196   7.079 -0.0085  0.5620  1.8686
 4809SOL     OW20388   7.620   4.385   7.142 -0.2656 -0.0467  0.1563
 4809SOL    HW120389   7.685   4.441   7.100  0.5409 -1.2025 -0.2026
 4809SOL    HW220390   7.647   4.381   7.234 -0.7642  0.7364  0.3452
 4810SOL     OW20391   8.206   7.871   8.779 -0.0320  0.3002 -0.8204
 4810SOL    HW120392   8.186   7.958   8.743 -1.3319  0.2837 -0.1753
 4810SOL    HW220393   8.293   7.881   8.818  0.7757  0.7133 -2.6315
 4811SOL     OW20394   2.181   8.713   2.886 -0.0924 -0.3222  0.0474
 4811SOL    HW120395   2.219   8.793   2.850  1.2071 -0.1319  1.7227
 4811SOL    HW220396   2.221   8.704   2.972 -1.9745 -1.5254  0.8661
 4812SOL     OW20397   6.211   7.364   4.845 -0.0299 -0.0207  0.0388
 4812SOL    HW120398   6.189   7.457   4.846 -0.9391 -0.0865 -2.9198
 4812SOL    HW220399   6.127   7.320   4.855  0.0296 -0.4370 -1.1007
 4813SOL     OW20400   9.277   6.349   1.429  0.4106  0.6747  0.2890
 4813SOL    HW120401   9.265   6.442   1.447  1.2037  0.4632  2.0922
 4813SOL    HW220402   9.370   6.333   1.443  0.1268 -0.5797  0.9408
 4814SOL     OW20403   2.545   7.815   4.967 -0.0873  0.1115 -0.0548
 4814SOL    HW120404   2.464   7.835   5.013  0.7782  2.0520  0.7335
 4814SOL    HW220405   2.568   7.726   4.994 -2.6572 -1.0716 -1.4508
 4815SOL     OW20406   1.352   4.266   1.846 -0.1659 -0.1465  0.6699
 4815SOL    HW120407   1.412   4.213   1.793 -1.3049 -0.1093 -0.7262
 4815SOL    HW220408   1.338   4.345   1.794  0.1307  0.7499  1.9169
 4816SOL     OW20409   5.924   7.778   4.800 -0.1035  0.3878 -0.2192
 4816SOL    HW120410   5.895   7.798   4.889  1.0476  0.6628  0.1233
 4816SOL    HW220411   5.984   7.850   4.778  1.5827 -0.9540 -0.2303
 4817SOL     OW20412   8.358   1.486   1.116  0.4193 -0.0364  0.7424
 4817SOL    HW120413   8.384   1.556   1.056 -0.5758  0.2943  0.6770
 4817SOL    HW220414   8.375   1.405   1.067 -0.0530  0.2177  0.1341
 4818SOL     OW20415   0.885   3.820   6.541  0.2620  0.4769  0.0716
 4818SOL    HW120416   0.841   3.877   6.605  1.0965  1.6147 -0.3291
 4818SOL    HW220417   0.906   3.741   6.590 -0.0832  0.8875  0.9111
 4819SOL     OW20418   3.251   6.019   6.421  0.3990 -0.0425 -0.2239
 4819SOL    HW120419   3.306   6.096   6.406  0.3740  0.3011  1.2685
 4819SOL    HW220420   3.256   6.004   6.515  0.0749 -1.6338 -0.4273
 4820SOL     OW20421   4.343   2.678   1.939  0.2665  0.2607  0.2657
 4820SOL    HW120422   4.364   2.768   1.963 -0.8727  0.7950 -0.6364
 4820SOL    HW220423   4.421   2.645   1.895  1.6463 -0.0678  2.7330
 4821SOL     OW20424   5.245   2.610   0.189 -0.6144  0.1487 -0.2946
 4821SOL    HW120425   5.206   2.690   0.226  0.0909  0.6015 -0.5019
 4821SOL    HW220426   5.181   2.579   0.126 -0.0977  1.6640 -1.6596
 4822SOL     OW20427   8.571   6.910   6.665  0.1585  0.2091  0.0899
 4822SOL    HW120428   8.627   6.872   6.733  0.0772  1.0400  0.6483
 4822SOL    HW220429   8.482   6.887   6.691 -0.0145  1.9878  1.2837
 4823SOL     OW20430   0.316   4.882   3.916 -0.0583 -0.6050 -0.0691
 4823SOL    HW120431   0.282   4.956   3.967 -0.2052  0.3416 -1.4863
 4823SOL    HW220432   0.398   4.914   3.880 -1.3641 -0.1096 -2.8564
 4824SOL     OW20433   3.792   8.742   4.858  0.1949  0.2712  0.2595
 4824SOL    HW120434   3.762   8.817   4.807  0.6785  2.1044  2.5367
 4824SOL    HW220435   3.720   8.679   4.853 -1.1796  1.7964  0.1225
 4825SOL     OW20436   3.867   0.221   8.180  0.1042  0.3208  0.0914
 4825SOL    HW120437   3.868   0.195   8.272 -0.0556 -2.7187 -0.6863
 4825SOL    HW220438   3.778   0.255   8.165 -0.3248 -0.5132  0.7256
 4826SOL     OW20439   2.881   4.436   6.381 -0.4109  0.0320  0.7134
 4826SOL    HW120440   2.825   4.374   6.428  0.6270  0.3333  2.4318
 4826SOL    HW220441   2.914   4.495   6.449  1.8778 -0.0664 -0.2131
 4827SOL     OW20442   2.601   5.234   2.756 -0.0801  0.1000 -0.1392
 4827SOL    HW120443   2.592   5.258   2.848 -1.9257  0.0899 -0.2643
 4827SOL    HW220444   2.662   5.160   2.755  1.4307  1.2852  0.8335
 4828SOL     OW20445   2.421   6.422   6.393  0.8546  0.3655  0.2532
 4828SOL    HW120446   2.487   6.473   6.347  0.6653  1.2802  0.9623
 4828SOL    HW220447   2.346   6.421   6.333  1.3462 -0.2777 -0.3531
 4829SOL     OW20448   0.183   6.390   1.754 -0.0206 -0.6914  0.4336
 4829SOL    HW120449   0.195   6.485   1.763  1.0198 -0.4842 -2.1982
 4829SOL    HW220450   0.090   6.376   1.770 -0.1677  0.7471  0.9905
 4830SOL     OW20451   4.392   3.902   3.163  0.1045  0.5245 -0.0070
 4830SOL    HW120452   4.429   3.824   3.121 -0.0355  2.1897 -3.6275
 4830SOL    HW220453   4.297   3.891   3.155  0.0126  0.2462  1.2489
 4831SOL     OW20454   5.860   3.216   8.355 -0.0819 -0.0572  0.1424
 4831SOL    HW120455   5.901   3.171   8.281  0.4066 -0.5097  0.6806
 4831SOL    HW220456   5.871   3.309   8.335 -0.4664 -0.1727 -0.6301
 4832SOL     OW20457   4.556   5.741   6.724  0.1465  0.1291 -0.5882
 4832SOL    HW120458   4.597   5.823   6.696  1.1215  0.0049  0.4270
 4832SOL    HW220459   4.511   5.709   6.646  0.2193  1.3459 -1.1520
 4833SOL     OW20460   3.058   8.272   1.639  0.0589  0.0302  0.4290
 4833SOL    HW120461   2.978   8.219   1.637  0.3514 -0.3990 -0.2298
 4833SOL    HW220462   3.039   8.340   1.704 -0.9333  0.0824  0.1104
 4834SOL     OW20463   4.122   7.121   4.872 -0.1537 -0.2791 -0.3784
 4834SOL    HW120464   4.131   7.199   4.817  1.0241 -0.3480 -0.3018
 4834SOL    HW220465   4.204   7.117   4.922  0.1460 -2.0133 -0.9564
 4835SOL     OW20466   6.400   9.356   2.164 -0.1795 -0.2994 -0.1079
 4835SOL    HW120467   6.489   9.357   2.128  0.1179 -1.5275  0.5398
 4835SOL    HW220468   6.400   9.283   2.227 -1.6692 -0.3754 -0.1593
 4836SOL     OW20469   7.114   2.441   6.124  0.8421  0.3822  0.0814
 4836SOL    HW120470   7.069   2.519   6.091  1.1005  0.2280 -0.6531
 4836SOL    HW220471   7.205   2.453   6.096  0.8003 -0.3752 -0.3829
 4837SOL     OW20472   4.710   4.893   4.914 -0.1612  0.1119 -0.2826
 4837SOL    HW120473   4.752   4.809   4.934 -0.6296  0.0519  0.4876
 4837SOL    HW220474   4.775   4.958   4.939  0.3735 -0.0164 -1.2854
 4838SOL     OW20475   6.019   2.323   0.960  0.0241  0.2234  0.0240
 4838SOL    HW120476   5.964   2.250   0.932  1.9489 -0.7445 -1.4803
 4838SOL    HW220477   5.984   2.399   0.912 -1.6948  0.2826  1.2499
 4839SOL     OW20478   0.910   9.130   7.753  0.1773 -0.4069 -0.0984
 4839SOL    HW120479   0.957   9.087   7.681  0.1846  0.6800 -0.7745
 4839SOL    HW220480   0.821   9.098   7.746  0.6003 -1.8523  0.6812
 4840SOL     OW20481   7.803   7.908   1.185 -0.1366  0.2789 -0.0225
 4840SOL    HW120482   7.811   7.991   1.139 -1.8110  0.7605  0.4851
 4840SOL    HW220483   7.736   7.860   1.137  2.6708 -2.0304 -1.9888
 4841SOL     OW20484   8.193   5.135   2.161 -0.0275  0.0573 -0.1898
 4841SOL    HW120485   8.147   5.191   2.223 -0.5296 -0.3076 -0.2274
 4841SOL    HW220486   8.185   5.180   2.077 -1.8747 -0.8419 -0.5583
 4842SOL     OW20487   7.878   4.873   4.840 -0.4684 -0.1556  0.0210
 4842SOL    HW120488   7.783   4.881   4.845 -0.5382 -1.3601  1.1977
 4842SOL    HW220489   7.894   4.779   4.832  0.6374 -0.0046  0.2829
 4843SOL     OW20490   2.652   7.686   0.826  0.5473 -0.4747 -0.4688
 4843SOL    HW120491   2.665   7.611   0.885  1.2471 -0.1148 -0.1483
 4843SOL    HW220492   2.558   7.689   0.811  0.4268 -0.9365  0.1617
 4844SOL     OW20493   5.662   1.354   4.298  0.0124 -0.1169  0.2879
 4844SOL    HW120494   5.743   1.316   4.332 -0.4799 -0.1673  1.4826
 4844SOL    HW220495   5.685   1.386   4.211  1.7277  1.2484  1.1847
 4845SOL     OW20496   7.864   9.008   7.480  0.0971 -0.3468 -0.0203
 4845SOL    HW120497   7.803   8.934   7.491  0.4150 -0.6326 -0.1581
 4845SOL    HW220498   7.938   8.986   7.537 -1.0465  1.2515  2.2202
 4846SOL     OW20499   8.458   1.804   6.586  0.1329 -0.0346  0.0899
 4846SOL    HW120500   8.488   1.798   6.495 -2.3736  1.6561 -0.9593
 4846SOL    HW220501   8.516   1.869   6.626  0.9947 -0.4854 -0.3968
 4847SOL     OW20502   0.875   1.183   6.266  0.1423 -0.0561 -0.0129
 4847SOL    HW120503   0.970   1.187   6.272  0.1155 -0.7934  1.0045
 4847SOL    HW220504   0.844   1.264   6.308  0.2775 -0.4240  0.7933
 4848SOL     OW20505   8.749   8.801   0.713  0.2871  0.2564 -0.0615
 4848SOL    HW120506   8.671   8.857   0.723  0.1996  0.0447  0.4755
 4848SOL    HW220507   8.822   8.857   0.738  0.2646  0.3151 -0.1238
 4849SOL     OW20508   8.945   5.388   3.857  0.0200 -0.2304  0.0236
 4849SOL    HW120509   8.955   5.483   3.846 -0.7603 -0.0576  0.7346
 4849SOL    HW220510   8.918   5.377   3.948  1.5083 -1.2641  0.3845
 4850SOL     OW20511   5.844   2.850   8.395 -0.4622 -0.3710  0.8538
 4850SOL    HW120512   5.772   2.797   8.360 -2.3327  2.4924  0.0669
 4850SOL    HW220513   5.901   2.864   8.320 -0.8545  0.0926  0.6364
 4851SOL     OW20514   5.390   2.678   6.112 -0.0689  0.4032  0.0146
 4851SOL    HW120515   5.322   2.745   6.099  0.5325  1.5899  2.4578
 4851SOL    HW220516   5.469   2.717   6.074 -0.0370  0.4770  0.1546
 4852SOL     OW20517   3.598   1.350   3.403 -0.3213  0.0003 -0.1132
 4852SOL    HW120518   3.602   1.397   3.486 -0.7249  0.6400 -0.4453
 4852SOL    HW220519   3.510   1.313   3.400 -0.6155  0.7272 -0.6467
 4853SOL     OW20520   5.749   7.808   1.375 -0.3174  0.6551  0.4393
 4853SOL    HW120521   5.818   7.875   1.370  0.6370 -0.0975  2.4340
 4853SOL    HW220522   5.786   7.733   1.329 -0.5795  0.8442 -0.0877
 4854SOL     OW20523   8.416   3.230   9.015  0.0022 -0.5459  0.2187
 4854SOL    HW120524   8.390   3.212   8.925 -1.1484 -0.9543  0.6080
 4854SOL    HW220525   8.384   3.319   9.032  0.1134 -0.5139  0.2630
 4855SOL     OW20526   5.660   0.485   1.331  0.3793  0.0214 -0.4744
 4855SOL    HW120527   5.588   0.526   1.283  1.7804  1.3833 -1.5151
 4855SOL    HW220528   5.681   0.406   1.281 -0.7201 -0.6953  0.1534
 4856SOL     OW20529   3.248   5.156   8.588  0.1811  0.2231  0.2191
 4856SOL    HW120530   3.268   5.071   8.627 -0.2859  0.0933  0.1867
 4856SOL    HW220531   3.211   5.134   8.502 -1.6547  0.3673  0.9328
 4857SOL     OW20532   2.408   4.789   4.083 -0.4928 -0.4986  0.2575
 4857SOL    HW120533   2.320   4.818   4.109 -0.4637  1.7678 -1.7578
 4857SOL    HW220534   2.466   4.859   4.113  0.3548 -0.9909 -0.1846
 4858SOL     OW20535   4.290   8.181   7.829 -0.0219  0.2360 -0.9686
 4858SOL    HW120536   4.214   8.239   7.825 -0.3338 -0.0632  0.2881
 4858SOL    HW220537   4.259   8.105   7.878  1.7328  1.1812  1.8346
 4859SOL     OW20538   0.562   5.212   3.217  0.3459  0.2461 -0.1399
 4859SOL    HW120539   0.656   5.201   3.229  0.4019  0.2841 -0.5337
 4859SOL    HW220540   0.536   5.142   3.157  0.5625  1.6980 -1.9972
 4860SOL     OW20541   8.258   4.701   4.455 -0.3535 -0.4004 -0.0202
 4860SOL    HW120542   8.247   4.793   4.432 -0.6606 -0.4817 -0.2032
 4860SOL    HW220543   8.348   4.680   4.430  0.1049  0.1639  1.1048
 4861SOL     OW20544   5.924   5.909   5.690 -0.5546  0.5701 -0.1753
 4861SOL    HW120545   5.945   5.832   5.742  1.6983  1.3800  0.2092
 4861SOL    HW220546   5.875   5.966   5.749  2.6813  1.8580  1.5359
 4862SOL     OW20547   5.770   3.857   6.522 -0.2898  0.2299 -0.8274
 4862SOL    HW120548   5.712   3.812   6.583 -0.9876  0.6252 -1.1762
 4862SOL    HW220549   5.772   3.947   6.554  1.5300 -0.1339  0.1850
 4863SOL     OW20550   6.219   3.749   2.450  0.1749 -0.3863  0.3074
 4863SOL    HW120551   6.310   3.768   2.471  0.1238  1.8223 -1.2262
 4863SOL    HW220552   6.223   3.672   2.392  1.0430 -0.3728  0.3397
 4864SOL     OW20553   6.721   9.271   3.367  0.3381 -0.1503  0.1099
 4864SOL    HW120554   6.748   9.242   3.280  1.6810  1.6804 -0.1213
 4864SOL    HW220555   6.798   9.256   3.422 -0.4845 -1.2611  1.0259
 4865SOL     OW20556   1.996   4.630   3.622 -0.3237  0.3704  0.2233
 4865SOL    HW120557   1.902   4.643   3.632 -0.4945 -0.1151 -0.6548
 4865SOL    HW220558   2.028   4.612   3.710 -1.2677 -0.8574  0.3306
 4866SOL     OW20559   5.550   2.019   0.063  0.0878 -0.0031  0.2090
 4866SOL    HW120560   5.516   2.102   0.098  0.4643  0.1655  0.1828
 4866SOL    HW220561   5.528   2.021  -0.030  2.2321  1.2076 -0.3454
 4867SOL     OW20562   7.847   0.184   2.340  0.7547  0.1006 -0.6020
 4867SOL    HW120563   7.757   0.191   2.306  1.2271 -1.0569 -2.2368
 4867SOL    HW220564   7.836   0.184   2.435 -0.9954 -0.0458 -0.7587
 4868SOL     OW20565   3.303   5.447   8.167  0.8495  0.1005 -0.6409
 4868SOL    HW120566   3.272   5.493   8.090  1.2973 -1.9104 -2.1330
 4868SOL    HW220567   3.396   5.471   8.173  1.6696 -2.0655 -2.7219
 4869SOL     OW20568   3.209   7.884   2.624  0.4260 -0.1951  0.3661
 4869SOL    HW120569   3.208   7.949   2.555  1.9721 -0.8572 -0.3417
 4869SOL    HW220570   3.156   7.812   2.590  0.3747 -0.1214  0.2909
 4870SOL     OW20571   1.848   4.227   8.638  0.4428  0.2836 -0.3016
 4870SOL    HW120572   1.926   4.203   8.588  0.6705 -0.7549  0.5100
 4870SOL    HW220573   1.775   4.185   8.592  0.3727  1.1018 -0.9555
 4871SOL     OW20574   1.990   5.793   0.046  0.1086 -0.8952  0.2537
 4871SOL    HW120575   1.911   5.753   0.083  0.3273 -2.8234 -1.2049
 4871SOL    HW220576   2.001   5.750  -0.038  1.5679  0.8501 -0.5207
 4872SOL     OW20577   5.662   2.553   8.155 -0.5501  0.1405 -0.5640
 4872SOL    HW120578   5.581   2.598   8.130 -0.0021  0.7624 -1.2858
 4872SOL    HW220579   5.732   2.610   8.122  0.1886 -0.2544  0.2809
 4873SOL     OW20580   9.197   5.254   3.561 -0.2335 -0.0437  0.3550
 4873SOL    HW120581   9.163   5.178   3.609 -1.1782  0.0694 -0.1072
 4873SOL    HW220582   9.292   5.248   3.570 -0.3715 -0.3364  1.7569
 4874SOL     OW20583   8.282   3.429   0.617 -0.1808  0.5319 -0.2006
 4874SOL    HW120584   8.306   3.348   0.574  1.8324  0.8439  0.2407
 4874SOL    HW220585   8.307   3.498   0.555 -0.6614  0.8572 -0.0397
 4875SOL     OW20586   7.475   1.653   1.256  0.4799 -0.4796  0.5062
 4875SOL    HW120587   7.428   1.629   1.337  0.7029  0.6163  0.9776
 4875SOL    HW220588   7.567   1.651   1.281  0.5066  0.7793  0.5499
 4876SOL     OW20589   4.226   6.979   7.699 -0.1576 -0.1851  0.2500
 4876SOL    HW120590   4.310   6.950   7.734  0.1147  0.7175  0.3640
 4876SOL    HW220591   4.190   7.037   7.768 -1.0430 -0.8525  0.3715
 4877SOL     OW20592   8.771   0.757   2.396 -0.3895 -0.0848  0.1513
 4877SOL    HW120593   8.792   0.687   2.458 -0.6403  0.9957  1.4920
 4877SOL    HW220594   8.821   0.832   2.425  0.9641 -0.0208 -2.0919
 4878SOL     OW20595   9.067   5.051   4.749  0.0248 -0.2402 -0.4295
 4878SOL    HW120596   9.151   5.086   4.778  1.0844 -3.0051  0.1964
 4878SOL    HW220597   9.032   5.007   4.827 -2.4862  1.5728 -0.4276
 4879SOL     OW20598   3.230   7.886   3.406 -0.6542 -0.0814 -0.6273
 4879SOL    HW120599   3.151   7.854   3.361 -0.7848  1.1226 -1.3053
 4879SOL    HW220600   3.238   7.977   3.378 -0.1347  0.4067  1.0023
 4880SOL     OW20601   2.556   5.720   5.404  0.1956 -0.0015 -0.1353
 4880SOL    HW120602   2.566   5.815   5.400 -1.3931  0.3006  1.6115
 4880SOL    HW220603   2.584   5.696   5.492 -1.2049 -0.8582  0.1168
 4881SOL     OW20604   1.906   4.483   9.034  0.0933 -0.4059  0.2423
 4881SOL    HW120605   2.002   4.478   9.028 -0.0163 -1.1291 -1.2604
 4881SOL    HW220606   1.875   4.404   8.991 -1.2154  0.5776 -0.7127
 4882SOL     OW20607   6.277   7.488   5.488  0.3341 -0.1239  0.0944
 4882SOL    HW120608   6.302   7.526   5.404  0.1814 -2.5229 -1.0975
 4882SOL    HW220609   6.353   7.504   5.545 -0.4584  3.6326  0.3695
 4883SOL     OW20610   5.410   2.444   8.541  0.9379 -0.2046  0.4947
 4883SOL    HW120611   5.458   2.411   8.465  2.2440  0.3335  1.0484
 4883SOL    HW220612   5.411   2.372   8.604  1.3717 -0.0604  0.6543
 4884SOL     OW20613   0.637   9.336   0.504 -0.1077  0.2488 -0.1427
 4884SOL    HW120614   0.674   9.421   0.526  1.3104 -0.5570  0.7798
 4884SOL    HW220615   0.573   9.354   0.435 -0.8233  2.2016  0.9776
 4885SOL     OW20616   4.779   6.157   3.388  0.7100  0.1293  0.3345
 4885SOL    HW120617   4.713   6.091   3.410  0.5178  0.9411  2.3665
 4885SOL    HW220618   4.837   6.113   3.326 -1.0494 -0.9848 -0.6085
 4886SOL     OW20619   7.012   8.650   2.156  0.2764 -0.2844  0.5577
 4886SOL    HW120620   6.968   8.566   2.155 -0.7724  0.2490 -0.0089
 4886SOL    HW220621   7.041   8.663   2.065 -1.6080  0.9692  0.0815
 4887SOL     OW20622   6.955   2.853   4.696 -0.2503  0.0493  0.0366
 4887SOL    HW120623   7.041   2.874   4.661 -0.5137  0.3546 -0.4236
 4887SOL    HW220624   6.935   2.924   4.757  0.0318 -0.2773  0.5256
 4888SOL     OW20625   2.592   3.221   0.421  0.1975  0.1777  0.0266
 4888SOL    HW120626   2.578   3.150   0.484 -0.3012  1.3951  1.3507
 4888SOL    HW220627   2.530   3.203   0.350 -1.7701  0.6020  1.5488
 4889SOL     OW20628   8.763   7.929   2.810  0.5815  0.5438  0.2963
 4889SOL    HW120629   8.692   7.889   2.860 -1.0723  2.5607 -0.3020
 4889SOL    HW220630   8.721   7.997   2.757  2.6165  0.2131 -1.9583
 4890SOL     OW20631   0.416   7.809   2.997  0.1212  0.3183  0.4804
 4890SOL    HW120632   0.320   7.816   2.998  0.0958  0.1145  2.2204
 4890SOL    HW220633   0.432   7.715   3.002  0.4307  0.3467  0.0814
 4891SOL     OW20634   0.473   9.040   2.403 -0.4295 -0.0992  0.0789
 4891SOL    HW120635   0.516   8.985   2.337  1.2469 -1.9813  2.5360
 4891SOL    HW220636   0.381   9.039   2.378 -0.6907 -4.7384  0.2401
 4892SOL     OW20637   6.848   4.081   1.053  0.0636 -0.5281  0.4767
 4892SOL    HW120638   6.941   4.091   1.032 -0.3181 -0.1672 -1.1861
 4892SOL    HW220639   6.836   4.134   1.132  1.2924 -0.7184  0.8210
 4893SOL     OW20640   2.122   5.398   2.349 -0.8606  0.0968 -0.0187
 4893SOL    HW120641   2.068   5.467   2.311  1.3609  1.8751 -0.1525
 4893SOL    HW220642   2.160   5.354   2.274 -0.1885  0.5037  0.0739
 4894SOL     OW20643   4.621   5.127   1.457 -0.2588  0.1557  0.2537
 4894SOL    HW120644   4.538   5.127   1.409 -0.1279  1.0629  0.0105
 4894SOL    HW220645   4.683   5.171   1.399  0.4687 -0.7217  0.3300
 4895SOL     OW20646   4.680   0.674   1.407 -0.2117 -0.1464  0.0348
 4895SOL    HW120647   4.622   0.726   1.352  1.0413  0.4785 -0.7553
 4895SOL    HW220648   4.622   0.613   1.452 -1.6230  1.2338  0.2033
 4896SOL     OW20649   3.331   3.703   8.995 -0.0237 -0.7997 -0.4511
 4896SOL    HW120650   3.314   3.671   9.083  1.4884 -0.4290  0.0115
 4896SOL    HW220651   3.333   3.799   9.004  0.4581 -0.7692 -0.8167
 4897SOL     OW20652   3.102   8.390   8.759 -0.4963  0.1494  0.3444
 4897SOL    HW120653   3.033   8.351   8.705 -0.4712  0.5112  0.0496
 4897SOL    HW220654   3.088   8.484   8.751 -0.0444  0.2214  0.3794
 4898SOL     OW20655   5.314   7.952   9.338  0.3880 -0.9503 -0.1028
 4898SOL    HW120656   5.261   7.892   9.286  0.9368 -0.4699 -1.2359
 4898SOL    HW220657   5.254   8.023   9.361  0.2791 -0.8886 -0.5612
 4899SOL     OW20658   6.190   4.177   0.789  0.5125  0.1303 -0.0422
 4899SOL    HW120659   6.171   4.262   0.829  1.5335  1.8396 -2.8823
 4899SOL    HW220660   6.108   4.151   0.747  0.1490 -0.4195  0.9781
 4900SOL     OW20661   5.304   6.118   3.819  0.0172 -0.2367  0.1952
 4900SOL    HW120662   5.336   6.052   3.758 -1.3370 -0.7435 -0.0073
 4900SOL    HW220663   5.291   6.071   3.901 -2.0711 -0.5560 -0.2575
 4901SOL     OW20664   7.602   8.832   7.903  0.0671 -0.1029 -0.1196
 4901SOL    HW120665   7.564   8.849   7.817 -1.3230 -0.4643  0.3920
 4901SOL    HW220666   7.578   8.741   7.922  1.7349 -0.5546 -0.0229
 4902SOL     OW20667   7.667   7.745   5.240 -0.5692  0.2964 -0.5015
 4902SOL    HW120668   7.576   7.753   5.269 -0.5067 -1.0039  0.1596
 4902SOL    HW220669   7.712   7.818   5.282 -1.1523  0.4870 -0.1905
 4903SOL     OW20670   5.855   3.784   4.131  0.1707  0.5294 -0.6144
 4903SOL    HW120671   5.839   3.711   4.190 -0.9634  2.1038  1.1832
 4903SOL    HW220672   5.947   3.778   4.108  0.1939 -1.1938 -0.1982
 4904SOL     OW20673   6.623   6.487   7.600 -0.2862  0.6952 -0.0561
 4904SOL    HW120674   6.534   6.477   7.633 -0.0805 -2.5791 -0.1322
 4904SOL    HW220675   6.674   6.422   7.649  1.7690  1.5364 -0.9765
 4905SOL     OW20676   8.761   2.528   5.466 -0.2443 -0.7764 -0.0927
 4905SOL    HW120677   8.778   2.580   5.388 -1.5958 -0.5627 -0.2809
 4905SOL    HW220678   8.847   2.502   5.498  0.5688  2.3842  0.5816
 4906SOL     OW20679   1.108   6.679   3.190 -0.7257 -0.5212 -0.2752
 4906SOL    HW120680   1.181   6.691   3.250 -0.7612 -2.7118  0.2857
 4906SOL    HW220681   1.055   6.758   3.201  0.6194  0.2995  0.6109
 4907SOL     OW20682   6.676   4.021   7.123  0.0586  0.0147  0.1261
 4907SOL    HW120683   6.700   4.111   7.148  0.0015  0.3045 -0.8412
 4907SOL    HW220684   6.582   4.016   7.139  0.2817 -0.3203  1.4882
 4908SOL     OW20685   7.321   7.241   9.238  0.3147  0.2864 -0.1202
 4908SOL    HW120686   7.264   7.196   9.301  1.0464 -2.3410 -1.2087
 4908SOL    HW220687   7.408   7.204   9.252  0.1707 -1.9614 -3.8775
 4909SOL     OW20688   8.175   5.765   2.239  0.4225 -0.0115 -0.3531
 4909SOL    HW120689   8.212   5.765   2.327  1.6826  1.5523 -0.8366
 4909SOL    HW220690   8.082   5.743   2.252  0.7396 -0.5122  1.2749
 4910SOL     OW20691   3.514   4.279   1.631 -0.2594 -0.4936 -0.3263
 4910SOL    HW120692   3.540   4.353   1.576  1.2497 -0.8414 -0.1393
 4910SOL    HW220693   3.426   4.256   1.601 -1.5249  2.3964  0.7324
 4911SOL     OW20694   8.092   3.405   0.270  0.1650 -0.2602  0.5522
 4911SOL    HW120695   8.126   3.351   0.343  1.3845 -0.8798 -0.4269
 4911SOL    HW220696   8.131   3.366   0.192  0.6721  1.7416 -0.2525
 4912SOL     OW20697   7.707   3.413   6.659  0.1396 -0.4876 -0.2328
 4912SOL    HW120698   7.788   3.451   6.623  0.0865 -0.6803 -0.5656
 4912SOL    HW220699   7.694   3.334   6.607 -2.6839  1.7540 -3.3014
 4913SOL     OW20700   9.300   5.217   4.770  0.5656 -0.2934 -0.3668
 4913SOL    HW120701   9.389   5.195   4.741  1.1014  0.5328  0.5688
 4913SOL    HW220702   9.311   5.299   4.818 -0.6060 -0.5382  0.3459
 4914SOL     OW20703   6.307   8.511   7.566 -0.1722  0.4528 -0.3094
 4914SOL    HW120704   6.350   8.565   7.500  2.2761  1.4441  1.9438
 4914SOL    HW220705   6.260   8.574   7.621 -0.1683 -0.1002  0.3360
 4915SOL     OW20706   4.360   5.727   6.521 -0.0303 -0.5775  0.3207
 4915SOL    HW120707   4.320   5.752   6.437  0.1623 -0.0234  0.3930
 4915SOL    HW220708   4.344   5.633   6.527  0.1032 -0.6590 -0.4234
 4916SOL     OW20709   5.426   4.991   7.123  0.1138  0.1227  0.5513
 4916SOL    HW120710   5.456   5.078   7.148 -0.7064  0.0989  1.7040
 4916SOL    HW220711   5.401   4.950   7.205  1.5434 -1.6287  0.1577
 4917SOL     OW20712   7.800   6.361   6.955 -0.0816 -1.1010 -0.0290
 4917SOL    HW120713   7.840   6.285   6.912  0.2107 -1.1374  0.3064
 4917SOL    HW220714   7.871   6.399   7.006 -0.1255 -0.3746 -0.4922
 4918SOL     OW20715   7.161   7.820   5.295 -0.3545 -0.3923 -0.5514
 4918SOL    HW120716   7.194   7.770   5.370  1.4303 -0.0656 -1.0559
 4918SOL    HW220717   7.205   7.781   5.220 -1.2848 -0.0084 -1.3118
 4919SOL     OW20718   2.995   0.270   3.633  0.5855  0.1276  0.5904
 4919SOL    HW120719   2.979   0.264   3.727 -0.3708 -1.4468  0.3679
 4919SOL    HW220720   2.937   0.203   3.595  2.0075 -0.2587 -0.9923
 4920SOL     OW20721   3.023   4.011   5.351  0.4556  0.1333 -0.2344
 4920SOL    HW120722   3.085   3.960   5.403  0.9244 -0.2872 -1.1705
 4920SOL    HW220723   3.048   3.993   5.260 -1.9390 -1.2083 -0.7078
 4921SOL     OW20724   3.298   0.987   1.134 -0.1028 -0.3717 -0.1466
 4921SOL    HW120725   3.307   0.913   1.193 -0.2135 -0.8112 -0.6677
 4921SOL    HW220726   3.278   0.948   1.049  1.0710  0.1939 -0.6986
 4922SOL     OW20727   4.083   7.408   3.562 -0.2965  0.1607  0.3693
 4922SOL    HW120728   4.054   7.490   3.600 -0.9027 -0.2101  0.7267
 4922SOL    HW220729   4.056   7.413   3.470 -0.6344  0.2266  0.4702
 4923SOL     OW20730   7.824   6.281   4.065  0.3274 -0.0217  0.8020
 4923SOL    HW120731   7.795   6.372   4.074 -1.6770 -0.7178  1.9843
 4923SOL    HW220732   7.748   6.235   4.030  0.3996 -1.7005  2.6601
 4924SOL     OW20733   3.648   2.645   0.078  0.1897  0.3124  0.3783
 4924SOL    HW120734   3.590   2.652   0.002  0.1599  0.8533  0.4436
 4924SOL    HW220735   3.715   2.712   0.062  0.8558 -0.3742  0.2524
 4925SOL     OW20736   3.912   6.926   4.555 -0.0616 -0.2820  0.5998
 4925SOL    HW120737   3.990   6.882   4.588 -0.5137 -1.4487  0.1414
 4925SOL    HW220738   3.839   6.875   4.589 -0.5703 -0.6006 -0.9120
 4926SOL     OW20739   5.077   7.521   4.833  0.5661  0.3952  0.2153
 4926SOL    HW120740   5.109   7.527   4.743 -3.3090  0.6166 -1.3303
 4926SOL    HW220741   5.083   7.427   4.853 -2.1966 -0.3934 -1.9575
 4927SOL     OW20742   4.331   4.450   9.030 -0.9376  0.0240  0.0367
 4927SOL    HW120743   4.301   4.373   9.079 -0.1718 -0.8094 -0.7844
 4927SOL    HW220744   4.354   4.513   9.098 -3.2589  0.2384  0.7373
 4928SOL     OW20745   0.757   1.917   1.934  0.8647 -0.1614  0.0956
 4928SOL    HW120746   0.754   1.841   1.993 -2.2094 -1.2788 -1.2630
 4928SOL    HW220747   0.697   1.980   1.974 -1.2820 -0.9453 -1.6859
 4929SOL     OW20748   5.705   1.401   9.293 -0.3504 -0.1640 -0.4549
 4929SOL    HW120749   5.747   1.477   9.334  0.6529 -0.2716 -1.2236
 4929SOL    HW220750   5.675   1.434   9.208 -1.5515 -0.1793 -0.0520
 4930SOL     OW20751   5.311   4.878   7.348 -0.1594  0.2247  0.3683
 4930SOL    HW120752   5.217   4.871   7.359 -0.0229 -1.3463  0.8750
 4930SOL    HW220753   5.336   4.795   7.307  1.0897  0.2297  1.0537
 4931SOL     OW20754   8.352   8.708   8.144  0.2443  0.2274 -0.4926
 4931SOL    HW120755   8.340   8.803   8.144  0.4881  0.3145  2.0483
 4931SOL    HW220756   8.267   8.673   8.119  0.0623  1.1010 -1.1520
 4932SOL     OW20757   1.302   6.098   4.803 -0.7529 -0.0795  0.0945
 4932SOL    HW120758   1.317   6.005   4.787  0.4177 -0.0162  0.7094
 4932SOL    HW220759   1.257   6.101   4.887  0.2481 -0.0675  0.6556
 4933SOL     OW20760   7.822   3.113   0.909 -0.1328 -0.1168 -0.3272
 4933SOL    HW120761   7.741   3.164   0.907  1.2332  2.1767 -1.3567
 4933SOL    HW220762   7.881   3.163   0.966  1.4145 -0.2904 -1.6925
 4934SOL     OW20763   4.331   8.296   2.295 -0.5742 -0.4569 -0.4055
 4934SOL    HW120764   4.299   8.247   2.219 -1.8859 -0.2041 -0.0441
 4934SOL    HW220765   4.366   8.377   2.258 -1.1897 -0.3412 -0.7510
 4935SOL     OW20766   2.228   1.358   4.767  0.4808 -0.0715  0.2010
 4935SOL    HW120767   2.216   1.335   4.859  2.2143 -0.4734  0.3645
 4935SOL    HW220768   2.322   1.374   4.759  0.0543  2.0513 -1.0488
 4936SOL     OW20769   0.993   9.304   3.084 -0.1812 -0.0860 -0.6124
 4936SOL    HW120770   1.042   9.340   3.158 -0.5144  0.2598 -0.5545
 4936SOL    HW220771   0.973   9.214   3.109  0.6405 -0.3076 -0.7438
 4937SOL     OW20772   3.682   4.113   1.994  0.0158  0.2799  0.0383
 4937SOL    HW120773   3.722   4.151   2.073  1.0282  1.0428 -0.8150
 4937SOL    HW220774   3.698   4.178   1.926 -2.8803  0.7332 -0.3259
 4938SOL     OW20775   1.007   3.810   1.097 -0.1990 -0.4601 -0.7770
 4938SOL    HW120776   1.046   3.734   1.139 -2.8466 -0.9868  0.9927
 4938SOL    HW220777   0.974   3.777   1.013 -1.1389 -1.2351 -0.1160
 4939SOL     OW20778   8.549   7.424   2.516 -0.7908 -0.8103 -0.0221
 4939SOL    HW120779   8.486   7.467   2.574 -1.4306 -1.5601 -0.1487
 4939SOL    HW220780   8.516   7.335   2.506  0.4159 -1.2946  0.0945
 4940SOL     OW20781   5.330   8.797   2.357 -0.0148 -0.1440  0.5438
 4940SOL    HW120782   5.258   8.733   2.351 -0.9735  0.9335  0.2152
 4940SOL    HW220783   5.390   8.759   2.420  0.3690 -2.2640 -1.0000
 4941SOL     OW20784   4.026   6.304   2.171 -0.4153  0.4755  0.9532
 4941SOL    HW120785   4.065   6.261   2.095 -2.6947 -1.0921  0.5365
 4941SOL    HW220786   3.989   6.385   2.136 -2.2699 -0.6665  0.0562
 4942SOL     OW20787   7.120   1.341   0.569 -0.2613 -0.3862 -0.4420
 4942SOL    HW120788   7.088   1.383   0.489  0.9577 -1.1793 -1.3988
 4942SOL    HW220789   7.118   1.410   0.635  1.6930  1.2658 -1.9568
 4943SOL     OW20790   4.114   8.014   7.982 -0.1450  0.0122  0.6461
 4943SOL    HW120791   4.070   7.973   7.907  0.3621  1.4002 -0.4607
 4943SOL    HW220792   4.070   7.977   8.058 -0.3936 -1.7737 -0.3013
 4944SOL     OW20793   4.772   6.642   2.776 -0.1272  0.5873  0.4005
 4944SOL    HW120794   4.740   6.730   2.795 -0.8748  0.1184  1.3840
 4944SOL    HW220795   4.697   6.585   2.791 -0.2399 -0.0661 -2.1060
 4945SOL     OW20796   5.992   1.627   6.611 -0.4086  0.4385 -0.0815
 4945SOL    HW120797   5.936   1.675   6.550 -0.9445 -0.4572 -0.3154
 4945SOL    HW220798   5.971   1.663   6.697  0.6208  1.9760 -0.4245
 4946SOL     OW20799   3.158   9.344   0.994 -0.1175  0.5112 -0.1802
 4946SOL    HW120800   3.140   9.255   0.963 -1.0005  0.4384  0.4938
 4946SOL    HW220801   3.243   9.338   1.036 -0.7427 -0.3450  1.0348
 4947SOL     OW20802   6.907   5.704   4.171 -0.3413 -0.0551 -0.2541
 4947SOL    HW120803   6.892   5.791   4.134 -1.6488  1.0294  2.4890
 4947SOL    HW220804   6.819   5.674   4.196 -0.0008 -2.5031 -1.6863
 4948SOL     OW20805   6.561   7.548   3.526 -0.1193  0.0770 -0.2282
 4948SOL    HW120806   6.491   7.612   3.515  0.6973  1.4314  1.8821
 4948SOL    HW220807   6.551   7.516   3.615  2.1557  0.6101  0.2898
 4949SOL     OW20808   2.438   3.819   5.707  0.7886  0.2023  0.4316
 4949SOL    HW120809   2.499   3.868   5.653  0.3312  1.6073  1.1604
 4949SOL    HW220810   2.352   3.857   5.689  0.0986 -1.6720 -0.4987
 4950SOL     OW20811   5.566   4.740   5.057 -0.3468  0.7468 -0.4184
 4950SOL    HW120812   5.533   4.705   5.140 -0.6737  0.2350 -0.7607
 4950SOL    HW220813   5.533   4.680   4.991 -0.1680  1.2078 -0.9320
 4951SOL     OW20814   1.936   3.193   6.942 -0.1401  0.1660 -0.6548
 4951SOL    HW120815   1.880   3.270   6.933 -0.5277  0.1025  0.9442
 4951SOL    HW220816   2.025   3.228   6.943 -0.3010  0.5733 -0.2104
 4952SOL     OW20817   0.035   8.407   0.930  0.6837  0.6536 -0.1465
 4952SOL    HW120818   0.018   8.327   0.881  0.1014  0.4028  0.4490
 4952SOL    HW220819   0.109   8.385   0.987  0.4850  0.5110  0.0615
 4953SOL     OW20820   2.492   3.381   6.789 -0.5461 -0.5188 -0.0633
 4953SOL    HW120821   2.577   3.421   6.769  0.5324 -1.7832  1.6967
 4953SOL    HW220822   2.466   3.422   6.872 -2.5496  1.0951 -1.3836
 4954SOL     OW20823   3.235   5.182   7.346 -0.1747  0.4460  0.4922
 4954SOL    HW120824   3.284   5.233   7.411  0.2237  1.4389 -0.5564
 4954SOL    HW220825   3.174   5.244   7.307 -0.9492 -0.3237  0.4273
 4955SOL     OW20826   7.134   2.211   7.308  0.2873 -0.8708  0.5421
 4955SOL    HW120827   7.110   2.152   7.379  0.6408 -0.7661  0.7486
 4955SOL    HW220828   7.206   2.167   7.263 -0.4179 -1.2916 -0.2196
 4956SOL     OW20829   8.942   4.738   8.458 -0.0132 -0.0276 -0.5462
 4956SOL    HW120830   8.961   4.830   8.439 -1.7823  0.2010 -1.4576
 4956SOL    HW220831   8.929   4.735   8.553  1.6147  0.3175 -0.2824
 4957SOL     OW20832   0.033   8.308   3.290  0.3498 -0.1967  0.0685
 4957SOL    HW120833   0.058   8.241   3.354  1.3237  0.6042  0.5425
 4957SOL    HW220834   0.086   8.384   3.313 -0.7124  0.7355 -0.4833
 4958SOL     OW20835   3.296   3.469   8.363  0.3408  0.0538 -0.0704
 4958SOL    HW120836   3.252   3.536   8.310  0.0390 -1.1228 -1.3601
 4958SOL    HW220837   3.350   3.421   8.300  0.7240 -0.7713  0.8731
 4959SOL     OW20838   0.408   7.852   8.981  0.5238 -0.4152 -0.6584
 4959SOL    HW120839   0.320   7.883   9.003  0.5864  0.2204 -1.2696
 4959SOL    HW220840   0.444   7.822   9.064  0.1732  0.4383 -0.1866
 4960SOL     OW20841   5.253   0.460   9.095  1.2011 -0.0738 -0.4281
 4960SOL    HW120842   5.167   0.500   9.088  2.0954  2.3961  1.5520
 4960SOL    HW220843   5.244   0.377   9.047 -2.2047  0.1119 -0.3597
 4961SOL     OW20844   3.746   1.851   2.451  0.4447  0.0149  0.2822
 4961SOL    HW120845   3.659   1.889   2.464  0.6436  0.1829  1.2176
 4961SOL    HW220846   3.806   1.924   2.467  0.7475  0.0461 -0.9449
 4962SOL     OW20847   2.629   3.867   2.162 -0.5024  0.3792 -0.1573
 4962SOL    HW120848   2.666   3.939   2.111 -0.5910  0.5349  0.0013
 4962SOL    HW220849   2.651   3.789   2.111 -0.4551  0.5216 -0.3564
 4963SOL     OW20850   6.424   4.110   0.259 -0.3163  0.3225  0.9278
 4963SOL    HW120851   6.489   4.044   0.280 -0.0901  0.3394  0.2884
 4963SOL    HW220852   6.373   4.120   0.339 -1.7768 -2.2011  0.4263
 4964SOL     OW20853   4.791   5.952   3.048 -0.5356 -0.4062  0.0537
 4964SOL    HW120854   4.769   5.911   2.965  0.8612 -0.8761 -0.1159
 4964SOL    HW220855   4.810   5.879   3.107 -2.1952 -0.1129  1.0246
 4965SOL     OW20856   8.173   6.344   0.722 -0.3048  0.8415 -0.0423
 4965SOL    HW120857   8.212   6.264   0.759  0.3793 -0.2205 -2.8280
 4965SOL    HW220858   8.129   6.385   0.796 -0.8057 -2.1926  1.4955
 4966SOL     OW20859   3.254   4.683   0.561  0.3191 -0.4310 -0.3064
 4966SOL    HW120860   3.194   4.648   0.496  0.9672  0.0880 -1.2013
 4966SOL    HW220861   3.332   4.629   0.554  0.3491 -0.4545  0.1418
 4967SOL     OW20862   4.588   5.354   4.814 -0.5882  0.6094  0.3122
 4967SOL    HW120863   4.662   5.407   4.783 -1.3684  0.4503 -2.0120
 4967SOL    HW220864   4.514   5.414   4.815 -0.9632  0.1540  0.1321
 4968SOL     OW20865   5.292   8.371   8.382  0.0088 -0.2181 -0.6332
 4968SOL    HW120866   5.247   8.455   8.391  1.7563  0.6514  0.4182
 4968SOL    HW220867   5.271   8.324   8.463  0.6439  0.0393 -0.3098
 4969SOL     OW20868   3.984   4.380   2.161  0.1271 -0.3336  0.6951
 4969SOL    HW120869   3.897   4.347   2.138  0.2414 -2.1538  2.5090
 4969SOL    HW220870   3.982   4.386   2.257  2.2155 -1.1774  0.8399
 4970SOL     OW20871   3.733   2.340   7.170 -0.2693 -0.2401 -0.0904
 4970SOL    HW120872   3.805   2.337   7.232 -0.3048 -0.9565 -0.0741
 4970SOL    HW220873   3.769   2.301   7.090 -0.7957 -1.1557  0.0995
 4971SOL     OW20874   1.350   4.795   7.780 -0.8437  0.0530  0.5648
 4971SOL    HW120875   1.276   4.794   7.719 -1.1833  1.1650  0.9327
 4971SOL    HW220876   1.311   4.820   7.864 -0.0965  0.3579  0.8291
 4972SOL     OW20877   6.106   3.275   3.455 -0.0709 -0.1367  0.2937
 4972SOL    HW120878   6.111   3.347   3.392  3.9297  0.2186  0.7793
 4972SOL    HW220879   6.087   3.318   3.539  1.0860  0.2645  0.3719
 4973SOL     OW20880   6.704   5.766   6.108 -0.3932 -0.5034 -0.4896
 4973SOL    HW120881   6.627   5.764   6.164  0.3823 -0.4040  0.6258
 4973SOL    HW220882   6.732   5.675   6.101  0.1292 -0.4021  0.1928
 4974SOL     OW20883   2.004   6.173   0.099  1.2527  0.0428  0.3584
 4974SOL    HW120884   1.996   6.091   0.049 -4.1746 -0.1792  0.9574
 4974SOL    HW220885   2.010   6.241   0.032  0.9639 -0.6003 -0.3462
 4975SOL     OW20886   2.320   4.075   3.218 -0.2780  0.4377 -0.0166
 4975SOL    HW120887   2.252   4.110   3.161 -0.3636  1.2182  0.5462
 4975SOL    HW220888   2.279   3.999   3.260 -0.3945  0.1868 -0.5760
 4976SOL     OW20889   4.626   5.938   3.470  0.2138  0.2423 -0.2040
 4976SOL    HW120890   4.701   5.918   3.525  0.2158  0.0862 -0.2630
 4976SOL    HW220891   4.557   5.962   3.532 -0.4657 -2.0796  0.0342
 4977SOL     OW20892   6.433   0.668   5.991 -0.0864 -0.7562  0.0937
 4977SOL    HW120893   6.471   0.660   6.078  1.0306  2.9739  0.1293
 4977SOL    HW220894   6.361   0.730   6.002 -0.2083 -0.5565 -1.5541
 4978SOL     OW20895   5.167   2.594   1.908  0.1671 -0.0250 -0.1619
 4978SOL    HW120896   5.141   2.682   1.932  0.6761  0.2546 -0.6213
 4978SOL    HW220897   5.201   2.555   1.989 -0.9534 -0.1423  0.2700
 4979SOL     OW20898   9.052   5.636   7.239 -0.3193  0.8157 -0.5111
 4979SOL    HW120899   9.114   5.594   7.299  0.2054  0.6934 -1.1354
 4979SOL    HW220900   8.972   5.645   7.291 -0.4498 -0.9274 -0.3391
 4980SOL     OW20901   8.027   3.823   0.881  0.0891  0.1172 -0.0216
 4980SOL    HW120902   8.109   3.798   0.840  0.7204 -0.6107  1.5771
 4980SOL    HW220903   8.053   3.868   0.962 -1.0693  0.2440  0.3079
 4981SOL     OW20904   8.245   4.148   8.023  0.2791  0.0349 -0.3061
 4981SOL    HW120905   8.219   4.093   8.096 -0.1593  0.7894  0.1269
 4981SOL    HW220906   8.286   4.088   7.960 -0.6152 -0.8501 -0.0673
 4982SOL     OW20907   5.749   5.236   3.481 -0.0314 -0.0971  0.3783
 4982SOL    HW120908   5.796   5.166   3.435  0.0084  0.7662 -0.9615
 4982SOL    HW220909   5.662   5.201   3.497 -0.3644 -0.1132 -1.2680
 4983SOL     OW20910   8.464   1.113   5.837 -0.4525  0.5190 -0.0002
 4983SOL    HW120911   8.486   1.105   5.744 -0.7228  1.0451 -0.1092
 4983SOL    HW220912   8.454   1.207   5.851 -0.6412  0.4214  0.5100
 4984SOL     OW20913   1.457   5.640   0.307 -0.0507  0.1939 -0.2429
 4984SOL    HW120914   1.420   5.553   0.316 -0.1647  0.3871  1.6955
 4984SOL    HW220915   1.531   5.641   0.368 -0.0731  1.4592 -0.1976
 4985SOL     OW20916   0.257   8.855   0.462 -0.2401 -0.0250 -0.3264
 4985SOL    HW120917   0.290   8.938   0.428 -4.7014  3.0421  1.9516
 4985SOL    HW220918   0.196   8.824   0.395 -0.2600 -0.2938 -0.1872
 4986SOL     OW20919   8.577   0.442   3.596  0.8122 -0.0870 -0.2777
 4986SOL    HW120920   8.545   0.373   3.654  0.9043 -0.3965 -0.5874
 4986SOL    HW220921   8.654   0.477   3.640  0.8714 -0.3083 -0.2054
 4987SOL     OW20922   3.222   1.606   5.481 -0.4644 -0.4247 -0.5544
 4987SOL    HW120923   3.160   1.670   5.444  0.8977  0.7140 -0.9499
 4987SOL    HW220924   3.293   1.660   5.516  0.1217 -1.6861  0.2527
 4988SOL     OW20925   6.906   2.302   2.941  0.2480 -0.1125  0.0959
 4988SOL    HW120926   6.813   2.283   2.937  0.6039 -1.9192 -0.6876
 4988SOL    HW220927   6.922   2.332   3.030 -0.9562 -0.4721  0.4392
 4989SOL     OW20928   4.982   3.357   9.313  0.2133  0.0015 -0.0320
 4989SOL    HW120929   4.963   3.266   9.288 -3.3713  0.9969 -1.4903
 4989SOL    HW220930   4.923   3.375   9.386  1.3536  1.0198  0.6796
 4990SOL     OW20931   8.575   8.900   5.880  0.4180 -0.1943 -0.3473
 4990SOL    HW120932   8.498   8.875   5.829 -0.9753  0.1546  1.5015
 4990SOL    HW220933   8.649   8.883   5.821 -1.0383 -0.6407 -2.1361
 4991SOL     OW20934   0.425   4.260   2.881  0.3031 -0.0698  0.3897
 4991SOL    HW120935   0.497   4.321   2.867 -0.0607  0.3549  0.3559
 4991SOL    HW220936   0.392   4.280   2.968  2.4738 -2.6267  1.9644
 4992SOL     OW20937   6.755   8.984   3.164  0.1751 -0.1177  0.0869
 4992SOL    HW120938   6.831   9.040   3.147  3.3773 -4.1190 -0.3692
 4992SOL    HW220939   6.791   8.909   3.212 -3.3841 -2.5299 -0.6334
 4993SOL     OW20940   7.029   2.826   2.174 -0.6945  0.4326  0.5646
 4993SOL    HW120941   6.971   2.900   2.159 -0.3670  0.5486 -0.1352
 4993SOL    HW220942   7.114   2.855   2.143 -0.4100  0.0048  0.9234
 4994SOL     OW20943   8.090   1.860   4.235  0.4527  0.2214 -0.1542
 4994SOL    HW120944   8.124   1.917   4.304  1.0915  1.4766 -1.4400
 4994SOL    HW220945   8.006   1.900   4.211 -0.6612 -1.2477  1.0785
 4995SOL     OW20946   0.338   3.326   7.306 -0.5230  0.0896  0.0556
 4995SOL    HW120947   0.425   3.329   7.266 -1.4985  2.1519 -2.2051
 4995SOL    HW220948   0.352   3.351   7.397  1.3522 -0.7367  0.0461
 4996SOL     OW20949   4.739   2.590   7.362 -0.2264  0.0713 -0.2924
 4996SOL    HW120950   4.742   2.592   7.458  0.4704  0.1272 -0.3053
 4996SOL    HW220951   4.750   2.682   7.336 -1.7238  0.2410 -0.4181
 4997SOL     OW20952   4.376   5.571   2.896 -0.0427 -0.1272 -0.1371
 4997SOL    HW120953   4.455   5.622   2.913  0.0201 -0.0331 -0.7207
 4997SOL    HW220954   4.315   5.634   2.857 -0.0513 -0.4463 -0.6324
 4998SOL     OW20955   8.135   5.306   3.636  0.2057  0.2811 -0.4158
 4998SOL    HW120956   8.061   5.346   3.682  0.6080  0.3137  0.2220
 4998SOL    HW220957   8.139   5.217   3.671  0.7335  0.4185 -0.1104
 4999SOL     OW20958   6.260   0.857   5.731 -0.2360 -0.5913  0.0052
 4999SOL    HW120959   6.203   0.931   5.749 -2.3969 -2.2816  0.4410
 4999SOL    HW220960   6.266   0.854   5.635 -1.7921 -0.9969 -0.1043
 5000SOL     OW20961   3.316   8.329   6.351  0.1121  0.1853 -0.3361
 5000SOL    HW120962   3.369   8.405   6.325 -0.1020  0.5110  0.1630
 5000SOL    HW220963   3.333   8.264   6.283 -0.5007  1.0495 -1.3376
 5001SOL     OW20964   6.461   3.920   4.398  0.1761 -0.1224  0.0595
 5001SOL    HW120965   6.425   3.832   4.390  2.7775 -1.4431  1.4717
 5001SOL    HW220966   6.433   3.950   4.485  0.9995 -0.4718  0.4616
 5002SOL     OW20967   8.348   3.954   5.045 -0.3838 -0.0716  0.2647
 5002SOL    HW120968   8.317   4.038   5.009  1.0338 -0.1624 -1.2572
 5002SOL    HW220969   8.325   3.890   4.978  0.5243 -0.5618  0.4175
 5003SOL     OW20970   1.756   3.921   6.440  0.5011 -0.2924  0.5023
 5003SOL    HW120971   1.711   3.843   6.410  0.9423  0.0529 -1.2137
 5003SOL    HW220972   1.844   3.914   6.402 -0.3892  2.5237 -2.6317
 5004SOL     OW20973   5.530   1.406   4.557 -0.1981  0.0247  0.1339
 5004SOL    HW120974   5.602   1.427   4.496  2.4521 -1.7047  2.4217
 5004SOL    HW220975   5.560   1.328   4.603 -2.1132  1.1058  3.5192
 5005SOL     OW20976   8.571   3.399   7.047  0.2732 -0.8481 -0.1129
 5005SOL    HW120977   8.519   3.319   7.054  1.8812 -1.8840  0.5586
 5005SOL    HW220978   8.604   3.399   6.958  1.9224 -2.0666  0.4409
 5006SOL     OW20979   7.620   4.854   7.147 -0.3797 -0.3430 -1.1173
 5006SOL    HW120980   7.635   4.839   7.054 -0.0714 -1.8461 -0.8504
 5006SOL    HW220981   7.528   4.881   7.153 -0.0883  0.9376 -1.9418
 5007SOL     OW20982   5.834   4.217   3.630  0.1368  0.2313 -0.2520
 5007SOL    HW120983   5.832   4.229   3.725  0.1088 -1.5799  0.0113
 5007SOL    HW220984   5.748   4.246   3.601 -0.6495 -1.1486  0.5797
 5008SOL     OW20985   6.462   6.212   7.783  0.8404  0.1568  0.5626
 5008SOL    HW120986   6.389   6.154   7.762  0.0835  0.9986  0.8059
 5008SOL    HW220987   6.428   6.300   7.769  1.9471  0.5622  0.2702
 5009SOL     OW20988   0.637   0.075   6.868  0.2043 -0.1518  0.1616
 5009SOL    HW120989   0.566   0.078   6.803  1.5053 -2.6476 -1.5450
 5009SOL    HW220990   0.592   0.073   6.952 -1.7082 -0.5141 -0.7977
 5010SOL     OW20991   6.022   8.557   0.457 -0.4894 -0.0727  0.0619
 5010SOL    HW120992   6.046   8.610   0.381 -2.3198 -1.9421 -1.9988
 5010SOL    HW220993   6.062   8.472   0.440 -1.3342 -0.6611  0.9274
 5011SOL     OW20994   3.112   2.770   2.969 -0.3100  0.3864  0.7293
 5011SOL    HW120995   3.046   2.814   2.915 -2.0150 -0.7070  1.8418
 5011SOL    HW220996   3.178   2.837   2.985  0.4066  0.7447 -2.7830
 5012SOL     OW20997   9.042   7.970   9.104  0.5274  0.1382  0.7531
 5012SOL    HW120998   9.060   7.895   9.048  0.0871  0.4119  0.2354
 5012SOL    HW220999   9.072   8.045   9.053  2.2244  0.2263  1.8219
 5013SOL     OW21000   4.659   3.113   1.901 -0.8551  0.2479 -0.7477
 5013SOL    HW121001   4.664   3.142   1.992  1.3871  1.4311 -1.1824
 5013SOL    HW221002   4.626   3.023   1.907 -3.7143  1.2936  0.9574
 5014SOL     OW21003   6.415   8.684   2.113 -0.0032 -0.4420 -0.0140
 5014SOL    HW121004   6.395   8.756   2.054 -0.3699 -0.1960  0.4118
 5014SOL    HW221005   6.361   8.699   2.190 -0.2316 -1.2759  0.0048
 5015SOL     OW21006   0.839   0.003   2.674 -0.3676  0.2045 -0.0107
 5015SOL    HW121007   0.768   0.033   2.618 -1.9571 -1.4246  1.0142
 5015SOL    HW221008   0.814   0.030   2.762  0.4712 -0.0585  0.3225
 5016SOL     OW21009   1.581   3.944   7.520 -0.5007 -0.0597  0.3181
 5016SOL    HW121010   1.521   3.954   7.595 -0.6733 -2.5403  0.5815
 5016SOL    HW221011   1.551   3.865   7.476  1.2050 -0.0753 -0.8846
 5017SOL     OW21012   3.199   8.474   5.636 -0.0895  0.4097  0.2129
 5017SOL    HW121013   3.238   8.536   5.575 -1.0796 -0.6523 -1.5673
 5017SOL    HW221014   3.274   8.435   5.682  0.6133  1.9024  0.3907
 5018SOL     OW21015   3.367   4.904   8.479  0.2671 -0.8399  0.0866
 5018SOL    HW121016   3.373   4.827   8.536 -0.9178 -1.0760 -0.0822
 5018SOL    HW221017   3.400   4.874   8.394  0.6772 -0.8965  0.2644
 5019SOL     OW21018   6.330   7.055   7.231  0.1683  0.7058  0.2764
 5019SOL    HW121019   6.273   7.132   7.241  1.6097  1.8713 -0.0448
 5019SOL    HW221020   6.323   7.031   7.139 -1.5930 -0.6518  0.7249
 5020SOL     OW21021   5.042   9.169   1.814  0.7424  0.0561 -0.7242
 5020SOL    HW121022   5.037   9.083   1.857 -1.8556 -0.3459 -1.6472
 5020SOL    HW221023   4.963   9.215   1.844  0.1100  0.6655 -3.1540
 5021SOL     OW21024   7.886   7.851   0.839 -0.3257 -0.0921 -0.1829
 5021SOL    HW121025   7.962   7.908   0.829 -0.5550  0.1554 -0.5172
 5021SOL    HW221026   7.890   7.822   0.930  0.6420 -0.7576 -0.4253
 5022SOL     OW21027   5.830   2.896   7.778  0.0415 -0.2696 -0.5224
 5022SOL    HW121028   5.835   2.893   7.682 -0.9984 -0.4998 -0.5906
 5022SOL    HW221029   5.918   2.918   7.807  0.5552 -0.9694 -1.5043
 5023SOL     OW21030   3.752   3.114   3.052  0.4876  0.0466  0.8525
 5023SOL    HW121031   3.756   3.207   3.030 -0.3574  0.1381  1.0492
 5023SOL    HW221032   3.835   3.078   3.020 -0.2409  0.3489 -1.5733
 5024SOL     OW21033   3.439   2.963   4.071 -0.0935  0.4401 -0.0877
 5024SOL    HW121034   3.493   3.014   4.010 -0.5117 -0.0355 -0.8682
 5024SOL    HW221035   3.383   2.909   4.015  0.4310 -0.9945  0.7056
 5025SOL     OW21036   7.565   0.858   9.233 -1.0575 -0.4033  0.1288
 5025SOL    HW121037   7.656   0.886   9.222 -1.5840  1.7536  0.7824
 5025SOL    HW221038   7.565   0.810   9.316 -0.3152 -1.5463 -0.5015
 5026SOL     OW21039   4.105   3.945   6.258 -0.0069  0.4323 -0.1717
 5026SOL    HW121040   4.125   3.859   6.295  0.2791  0.1673 -0.9269
 5026SOL    HW221041   4.121   3.935   6.164  0.5137  1.4569 -0.2025
 5027SOL     OW21042   2.051   3.501   3.714 -0.0387  0.0355 -0.2186
 5027SOL    HW121043   1.989   3.571   3.738 -0.1722  0.1657 -0.9285
 5027SOL    HW221044   2.012   3.422   3.751 -1.4663 -0.1427 -1.9836
 5028SOL     OW21045   6.453   0.863   4.899  0.3534 -0.0415  0.7931
 5028SOL    HW121046   6.535   0.908   4.917  0.6032 -0.5961  1.0539
 5028SOL    HW221047   6.432   0.885   4.808  0.7841  0.1083  0.7311
 5029SOL     OW21048   4.887   6.109   1.579  0.1569 -0.2406 -0.1641
 5029SOL    HW121049   4.897   6.190   1.629  1.9625 -0.1322 -0.6393
 5029SOL    HW221050   4.953   6.116   1.509  0.6335 -2.3004  0.0291
 5030SOL     OW21051   1.185   0.222   7.210  0.7025 -0.1547 -0.3416
 5030SOL    HW121052   1.171   0.130   7.190  0.8585 -0.2052 -0.2196
 5030SOL    HW221053   1.264   0.223   7.263  0.8491  0.0744 -0.5634
 5031SOL     OW21054   3.700   8.391   6.818 -0.0638 -0.0630 -0.2861
 5031SOL    HW121055   3.611   8.397   6.852 -0.8651 -0.7005 -2.1317
 5031SOL    HW221056   3.742   8.325   6.873 -1.1235 -0.6134 -0.0978
 5032SOL     OW21057   0.826   4.144   7.505 -0.0587 -0.1907  0.6499
 5032SOL    HW121058   0.919   4.152   7.484  0.0285 -1.9207  0.2579
 5032SOL    HW221059   0.805   4.226   7.550  1.3061  0.8379 -0.4747
 5033SOL     OW21060   4.532   3.848   8.167 -0.1258  0.1207 -0.3394
 5033SOL    HW121061   4.523   3.846   8.263 -1.2949 -0.3999 -0.4365
 5033SOL    HW221062   4.620   3.815   8.151  0.6270  1.5642  0.6064
 5034SOL     OW21063   5.075   8.491   1.698 -0.2765 -0.2993  0.3866
 5034SOL    HW121064   5.141   8.456   1.758  0.3696 -0.3080 -0.3198
 5034SOL    HW221065   5.125   8.535   1.630 -1.0392  1.7149  1.0371
 5035SOL     OW21066   7.531   3.281   1.490 -0.0448 -0.0394  0.0765
 5035SOL    HW121067   7.440   3.298   1.465  0.0041  0.7413  0.4072
 5035SOL    HW221068   7.524   3.237   1.575 -0.0806  1.6852  1.0042
 5036SOL     OW21069   4.319   5.078   5.287  0.0698  0.5315  0.9200
 5036SOL    HW121070   4.329   5.137   5.213 -1.4121  0.0465  0.2984
 5036SOL    HW221071   4.237   5.104   5.328 -0.2982 -0.6890  1.0003
 5037SOL     OW21072   6.690   7.034   4.090 -0.0247  0.2320  0.0785
 5037SOL    HW121073   6.626   6.974   4.053  0.5739 -0.0638 -0.4960
 5037SOL    HW221074   6.668   7.040   4.183  1.6101 -3.1122  0.8200
 5038SOL     OW21075   7.791   5.292   1.175 -0.1420 -0.0804 -0.0465
 5038SOL    HW121076   7.881   5.324   1.176 -0.1078 -0.1635 -0.4323
 5038SOL    HW221077   7.749   5.338   1.103 -0.0933 -0.8975 -0.6081
 5039SOL     OW21078   6.953   4.038   4.218 -0.4691  0.7229  0.1231
 5039SOL    HW121079   6.967   3.999   4.304  1.0369 -0.0851 -0.4512
 5039SOL    HW221080   7.027   4.098   4.207 -1.1987  1.5803 -0.2055
 5040SOL     OW21081   0.515   1.184   5.313  0.3663 -0.2808  0.3841
 5040SOL    HW121082   0.430   1.172   5.356 -0.3465 -0.5334 -1.0030
 5040SOL    HW221083   0.522   1.279   5.299  0.7467 -0.1675  1.3152
 5041SOL     OW21084   8.021   0.777   6.546 -0.1110 -0.5896  1.1054
 5041SOL    HW121085   7.955   0.843   6.566  0.4216  0.1242  0.5245
 5041SOL    HW221086   7.970   0.696   6.537 -1.0055  0.0609  0.0016
 5042SOL     OW21087   7.962   6.250   7.312  0.1378 -0.2921  0.2575
 5042SOL    HW121088   8.004   6.222   7.230 -0.2932 -1.5199  0.4292
 5042SOL    HW221089   7.871   6.265   7.289  0.2071  0.2623  0.3307
 5043SOL     OW21090   1.724   3.768   4.048  0.4011  0.6355 -0.0909
 5043SOL    HW121091   1.639   3.727   4.064  0.5753  0.4579  0.3876
 5043SOL    HW221092   1.764   3.714   3.979  0.3728  0.3667  0.1035
 5044SOL     OW21093   3.404   0.525   6.631  0.0191  0.0815 -0.2216
 5044SOL    HW121094   3.322   0.562   6.599 -0.7657 -1.6613 -0.3674
 5044SOL    HW221095   3.454   0.600   6.662 -1.4425  1.2368 -0.5391
 5045SOL     OW21096   2.316   3.208   9.122 -0.3918 -0.0054 -1.0080
 5045SOL    HW121097   2.271   3.292   9.134  1.4822  1.1132 -1.4142
 5045SOL    HW221098   2.351   3.187   9.209  0.7639  0.6410 -1.2983
 5046SOL     OW21099   0.736   1.601   0.079  0.1318 -0.3388 -0.1539
 5046SOL    HW121100   0.692   1.669   0.130  0.1561  0.2523 -0.9050
 5046SOL    HW221101   0.717   1.519   0.126 -0.1790  0.1374  0.5682
 5047SOL     OW21102   4.180   0.558   1.084 -0.1655 -0.0150 -0.2619
 5047SOL    HW121103   4.250   0.610   1.044  0.2166  1.3285  1.9705
 5047SOL    HW221104   4.182   0.582   1.177 -2.6239 -1.0719  0.1521
 5048SOL     OW21105   4.439   7.226   4.156 -0.4081  0.3091 -0.1022
 5048SOL    HW121106   4.353   7.248   4.191  0.7194  2.3880  1.5574
 5048SOL    HW221107   4.476   7.310   4.129  0.6515 -0.6905 -1.9738
 5049SOL     OW21108   1.327   7.299   5.126  0.4881  0.4619 -0.0817
 5049SOL    HW121109   1.323   7.283   5.032 -0.8244  1.0920 -0.1548
 5049SOL    HW221110   1.342   7.393   5.134 -0.3792  0.5775  0.3263
 5050SOL     OW21111   5.378   0.614   6.550  0.1922  0.6873  0.2153
 5050SOL    HW121112   5.436   0.690   6.555  0.1852  0.7659 -0.7428
 5050SOL    HW221113   5.396   0.575   6.464  0.3618 -0.5334  0.7851
 5051SOL     OW21114   9.134   4.261   5.048  0.0958  0.4191 -0.2587
 5051SOL    HW121115   9.172   4.221   5.126  0.4897  1.0325 -0.1322
 5051SOL    HW221116   9.160   4.353   5.052 -2.5729  1.2524  0.6078
 5052SOL     OW21117   4.414   8.504   1.411 -0.1444  0.5196 -0.3898
 5052SOL    HW121118   4.452   8.574   1.464  0.9137  0.2675 -0.7956
 5052SOL    HW221119   4.421   8.425   1.465  0.1380  0.4261 -0.5607
 5053SOL     OW21120   9.074   5.789   3.922  0.0681  0.3262  0.3882
 5053SOL    HW121121   9.141   5.857   3.914  0.7453 -0.2577  0.9197
 5053SOL    HW221122   9.066   5.753   3.834  1.2024 -0.2827  0.5181
 5054SOL     OW21123   5.552   7.568   0.428 -0.0573  0.3195  0.7081
 5054SOL    HW121124   5.548   7.574   0.524 -0.4774 -0.7118  0.7745
 5054SOL    HW221125   5.461   7.557   0.401  0.0486  0.7146  0.1772
 5055SOL     OW21126   3.974   8.426   2.068  0.4374  1.0126  0.0865
 5055SOL    HW121127   3.901   8.477   2.034 -0.3322  0.7755  1.3203
 5055SOL    HW221128   3.980   8.450   2.160  2.0497  1.1616 -0.0240
 5056SOL     OW21129   0.995   9.066   5.005  0.0509 -0.3826  0.1128
 5056SOL    HW121130   0.913   9.035   5.041 -0.4996  0.7676 -0.1014
 5056SOL    HW221131   1.018   9.001   4.938 -0.6400 -0.7503  0.2267
 5057SOL     OW21132   8.579   3.078   8.521  0.0522 -0.2086 -0.5446
 5057SOL    HW121133   8.491   3.116   8.511 -0.8117 -1.3762  1.7841
 5057SOL    HW221134   8.584   3.011   8.453 -1.1001 -0.4934 -0.3702
 5058SOL     OW21135   7.539   3.988   8.521 -0.4808 -0.1514 -0.9120
 5058SOL    HW121136   7.492   3.974   8.603  0.1237 -1.5299 -0.7619
 5058SOL    HW221137   7.495   4.062   8.479 -1.2803  0.0732  0.2944
 5059SOL     OW21138   4.153   6.125   2.542  0.2060 -0.2192  0.3204
 5059SOL    HW121139   4.126   6.034   2.539 -0.0148 -0.2269  2.0061
 5059SOL    HW221140   4.083   6.172   2.496 -0.2147 -0.7820  0.3796
 5060SOL     OW21141   0.537   8.379   6.551  0.2518  0.1769 -0.0242
 5060SOL    HW121142   0.623   8.339   6.541 -0.4690 -1.2240 -1.1360
 5060SOL    HW221143   0.548   8.470   6.524  1.7101  0.4914  1.4691
 5061SOL     OW21144   1.199   8.418   2.218  0.4522  0.7197 -0.4009
 5061SOL    HW121145   1.115   8.381   2.190 -0.4891  0.8263  2.0141
 5061SOL    HW221146   1.265   8.357   2.184 -0.9247 -2.2730  1.8031
 5062SOL     OW21147   9.269   4.708   1.381  0.0216  1.0029  0.2308
 5062SOL    HW121148   9.362   4.717   1.400  0.2262 -0.6143  0.1616
 5062SOL    HW221149   9.261   4.619   1.345 -1.2605  1.7688 -1.5126
 5063SOL     OW21150   0.609   5.026   5.473 -0.3764 -0.2819 -0.0974
 5063SOL    HW121151   0.637   4.960   5.409 -0.1326 -0.8456  0.5767
 5063SOL    HW221152   0.689   5.046   5.523 -0.5319  0.2592 -0.0578
 5064SOL     OW21153   3.032   5.637   6.198 -0.1024  0.0717  0.1318
 5064SOL    HW121154   2.990   5.554   6.177  1.5335 -1.3386  2.0102
 5064SOL    HW221155   3.022   5.690   6.119  0.5457 -2.6365 -1.9114
 5065SOL     OW21156   2.847   9.151   7.980 -0.0390 -0.2489  0.1940
 5065SOL    HW121157   2.932   9.110   7.965  0.8214  1.7146 -0.6720
 5065SOL    HW221158   2.859   9.204   8.059  0.9636  3.3074 -2.1065
 5066SOL     OW21159   3.660   3.909   2.343  0.5632  0.3314  0.2392
 5066SOL    HW121160   3.665   3.916   2.438  0.8033  1.2562  0.1724
 5066SOL    HW221161   3.567   3.896   2.324 -0.0453  3.5254  0.4501
 5067SOL     OW21162   0.683   3.944   1.102 -0.4971 -0.3570  0.0230
 5067SOL    HW121163   0.772   3.910   1.107  1.1980  3.5879  0.8067
 5067SOL    HW221164   0.688   4.014   1.037 -2.1300  2.0111  2.2456
 5068SOL     OW21165   0.806   7.940   2.575  0.0446  0.1492 -0.7084
 5068SOL    HW121166   0.757   7.957   2.495  0.8333  0.0393 -1.2289
 5068SOL    HW221167   0.776   8.008   2.636 -0.6370  0.1711 -1.0578
 5069SOL     OW21168   1.818   2.419   8.375 -0.9964  0.4391 -0.3298
 5069SOL    HW121169   1.763   2.421   8.297 -2.8296 -0.8292  0.8571
 5069SOL    HW221170   1.775   2.477   8.437 -1.0352 -0.6111  0.6420
 5070SOL     OW21171   1.724   5.630   1.652  0.5724  0.3101 -0.3251
 5070SOL    HW121172   1.637   5.590   1.654  0.4871  0.5114  0.5089
 5070SOL    HW221173   1.712   5.711   1.602  0.6539 -0.4636 -1.6450
 5071SOL     OW21174   7.195   0.910   3.681 -0.1499 -0.3111 -0.1518
 5071SOL    HW121175   7.265   0.920   3.746  0.2808 -0.0185 -0.6558
 5071SOL    HW221176   7.192   0.816   3.664 -0.3106 -0.3985  0.3352
 5072SOL     OW21177   2.672   3.969   3.604 -0.8335  0.3847 -0.0819
 5072SOL    HW121178   2.624   4.044   3.641 -1.8084 -0.1305 -0.2845
 5072SOL    HW221179   2.640   3.962   3.514 -0.5739 -0.1276 -0.1366
 5073SOL     OW21180   2.409   8.567   1.424 -0.0078 -0.5600  0.2037
 5073SOL    HW121181   2.401   8.525   1.339 -1.1120  2.1353 -1.1440
 5073SOL    HW221182   2.499   8.599   1.428 -0.2326  0.1881 -0.4423
 5074SOL     OW21183   8.227   2.155   4.339  0.1770  0.6004  0.1669
 5074SOL    HW121184   8.238   2.211   4.416 -0.1493  0.3714  0.3846
 5074SOL    HW221185   8.150   2.190   4.295  0.3270  0.6926 -0.0192
 5075SOL     OW21186   8.662   7.475   2.815 -0.1315 -0.3971  0.2239
 5075SOL    HW121187   8.607   7.528   2.871 -0.6234 -1.2887  0.5963
 5075SOL    HW221188   8.633   7.385   2.829 -0.4123 -0.6433 -1.5958
 5076SOL     OW21189   2.898   7.750   3.598 -0.3577 -1.2917 -0.4177
 5076SOL    HW121190   2.927   7.840   3.612 -1.0560 -1.0410 -0.5328
 5076SOL    HW221191   2.965   7.711   3.543 -1.0195 -0.2504 -2.0274
 5077SOL     OW21192   7.102   7.811   9.288  0.1524 -0.4774 -0.1131
 5077SOL    HW121193   7.109   7.778   9.198 -0.9836  0.9486 -0.7910
 5077SOL    HW221194   7.075   7.736   9.339  1.1108 -1.3901 -0.9057
 5078SOL     OW21195   3.845   8.084   9.073  0.5093 -0.2964  0.0040
 5078SOL    HW121196   3.875   8.012   9.017  1.9457  0.5344 -0.3499
 5078SOL    HW221197   3.849   8.161   9.016 -0.7688  0.1172  0.4496
 5079SOL     OW21198   1.714   6.675   4.171  0.3459 -0.2523  0.2032
 5079SOL    HW121199   1.667   6.743   4.123  2.4662  1.1623  0.0009
 5079SOL    HW221200   1.645   6.621   4.210 -1.4090  0.9240 -1.1290
 5080SOL     OW21201   2.569   8.612   7.305 -0.2250 -0.2591  0.3504
 5080SOL    HW121202   2.663   8.626   7.303 -0.1183 -1.0260 -0.1215
 5080SOL    HW221203   2.539   8.662   7.382  0.8585 -1.6907  1.7727
 5081SOL     OW21204   5.261   5.843   8.823  0.0488 -0.0708  0.4450
 5081SOL    HW121205   5.318   5.908   8.865  0.5265  1.1747 -1.9500
 5081SOL    HW221206   5.284   5.847   8.730 -0.3898 -3.2443  0.0855
 5082SOL     OW21207   4.717   2.476   5.853  0.5004 -0.1185 -0.4068
 5082SOL    HW121208   4.675   2.452   5.770 -2.3377 -3.2858  1.6476
 5082SOL    HW221209   4.784   2.409   5.865 -1.1214 -1.5935  1.0697
 5083SOL     OW21210   6.174   3.938   4.262  0.4893 -0.1577  0.5735
 5083SOL    HW121211   6.190   4.028   4.290 -0.6257  0.1277  0.3667
 5083SOL    HW221212   6.167   3.889   4.344  1.4625 -0.1295  0.6779
 5084SOL     OW21213   2.483   8.306   5.242 -0.1896  0.0027 -0.0310
 5084SOL    HW121214   2.512   8.216   5.252  1.3157  0.5477  0.8041
 5084SOL    HW221215   2.429   8.305   5.163 -2.4040 -2.1030  1.3825
 5085SOL     OW21216   5.810   2.380   5.003 -0.4523 -0.1169 -0.2287
 5085SOL    HW121217   5.807   2.297   5.050 -1.2828 -1.3002 -2.2387
 5085SOL    HW221218   5.775   2.444   5.065  2.1079 -0.7821  2.1295
 5086SOL     OW21219   4.333   6.117   9.030 -0.2293 -0.4640  0.3149
 5086SOL    HW121220   4.324   6.177   8.955 -2.2281 -0.9836  0.0609
 5086SOL    HW221221   4.405   6.058   9.005 -0.9119 -0.6946 -1.3012
 5087SOL     OW21222   4.877   4.676   5.052  0.7998  0.5834 -0.2151
 5087SOL    HW121223   4.874   4.624   5.132  1.7930  2.3360  1.0503
 5087SOL    HW221224   4.949   4.738   5.067 -0.1665  2.1590 -1.7061
 5088SOL     OW21225   0.144   1.326   5.152  0.1039  0.0898 -0.4856
 5088SOL    HW121226   0.227   1.309   5.199  0.9154  0.9012 -1.5732
 5088SOL    HW221227   0.127   1.419   5.168  0.3666  0.3674 -1.7173
 5089SOL     OW21228   4.335   0.702   1.654  0.0335 -0.2421  0.1381
 5089SOL    HW121229   4.391   0.768   1.613 -1.0127  0.2595 -0.5268
 5089SOL    HW221230   4.338   0.723   1.747  1.1384 -0.3736  0.1402
 5090SOL     OW21231   6.821   1.715   0.437 -0.0238 -0.1467 -0.0955
 5090SOL    HW121232   6.842   1.779   0.506  1.1133 -0.4393 -0.1433
 5090SOL    HW221233   6.880   1.641   0.454  0.1802 -0.2854 -1.2910
 5091SOL     OW21234   4.218   4.205   7.044  0.1766  0.2744  0.4794
 5091SOL    HW121235   4.163   4.253   7.106 -2.4520 -0.7560 -0.9300
 5091SOL    HW221236   4.233   4.266   6.972 -1.6722 -0.3759 -0.4943
 5092SOL     OW21237   6.682   9.309   4.532 -0.6180 -0.5662  0.1820
 5092SOL    HW121238   6.615   9.245   4.508 -0.9781 -0.3164  0.5089
 5092SOL    HW221239   6.641   9.361   4.602 -1.1159  1.4099 -1.5072
 5093SOL     OW21240   2.039   0.483   0.337  0.5794 -0.0304 -0.1560
 5093SOL    HW121241   1.971   0.425   0.371 -0.8099  0.2952 -2.2141
 5093SOL    HW221242   1.992   0.549   0.287  2.3957  0.3309 -1.4916
 5094SOL     OW21243   5.575   0.742   6.665  0.0355 -0.5665  0.0771
 5094SOL    HW121244   5.618   0.769   6.746  1.7399 -1.1598 -0.5923
 5094SOL    HW221245   5.597   0.810   6.602  0.1377 -0.9719 -0.3264
 5095SOL     OW21246   2.855   1.640   0.169  0.2448 -0.1453 -0.4984
 5095SOL    HW121247   2.786   1.608   0.228  0.2797  1.3005  0.3750
 5095SOL    HW221248   2.920   1.570   0.169 -0.3498 -0.7225  0.1668
 5096SOL     OW21249   4.706   2.990   6.280  0.3971 -0.3334 -0.2587
 5096SOL    HW121250   4.620   2.986   6.237  0.4065 -1.2997 -0.2234
 5096SOL    HW221251   4.769   2.978   6.210  0.4321 -1.3388 -0.0758
 5097SOL     OW21252   2.039   2.358   0.599 -0.6223 -0.1849 -0.3454
 5097SOL    HW121253   2.004   2.441   0.568  0.1602  0.2901  0.0147
 5097SOL    HW221254   2.023   2.297   0.527 -1.7139  0.1283 -0.3884
 5098SOL     OW21255   7.606   5.015   4.485  0.2209 -0.1646 -1.0619
 5098SOL    HW121256   7.687   5.040   4.529 -0.9051 -1.6250  2.1500
 5098SOL    HW221257   7.548   5.090   4.497 -0.1176 -0.5989  0.1737
 5099SOL     OW21258   2.354   7.739   2.719 -0.3161  0.0465 -0.3024
 5099SOL    HW121259   2.389   7.788   2.644 -2.0025 -1.6907 -2.3665
 5099SOL    HW221260   2.259   7.751   2.714 -1.0083 -4.2842 -1.8080
 5100SOL     OW21261   0.726   5.083   8.998  0.1647 -0.4188  0.5840
 5100SOL    HW121262   0.817   5.090   8.968 -0.0136  0.7064  0.2526
 5100SOL    HW221263   0.674   5.100   8.919 -0.3251  0.1526  1.0245
 5101SOL     OW21264   5.140   3.573   1.676 -0.3698  0.2083 -0.0559
 5101SOL    HW121265   5.060   3.552   1.628 -0.3428 -2.0223  0.7559
 5101SOL    HW221266   5.110   3.604   1.762 -0.4470 -1.7141  0.6740
 5102SOL     OW21267   9.234   2.684   4.772 -0.6819 -0.1284 -0.0533
 5102SOL    HW121268   9.216   2.772   4.805 -0.2411 -0.5019  1.2366
 5102SOL    HW221269   9.192   2.681   4.686  0.0376  1.6292 -0.5011
 5103SOL     OW21270   2.529   5.560   4.747  0.6933 -0.3442  0.3206
 5103SOL    HW121271   2.440   5.561   4.780  1.1428 -1.1748  1.6639
 5103SOL    HW221272   2.543   5.647   4.711 -0.5046 -0.0679  0.4989
 5104SOL     OW21273   0.385   6.926   5.416  0.1826 -0.2428 -0.1369
 5104SOL    HW121274   0.435   6.870   5.475  1.5524 -1.4228 -2.2652
 5104SOL    HW221275   0.433   7.009   5.416 -0.4795  0.1627  1.2160
 5105SOL     OW21276   7.454   8.520   2.471 -0.2828  0.0174 -0.2615
 5105SOL    HW121277   7.391   8.560   2.411 -0.7574  1.0778  0.8927
 5105SOL    HW221278   7.527   8.494   2.416  0.2891  2.9648 -1.0520
 5106SOL     OW21279   2.080   2.543   5.641 -0.3527 -0.3131  0.2350
 5106SOL    HW121280   2.060   2.464   5.590  0.8494  0.9444 -2.3977
 5106SOL    HW221281   2.163   2.522   5.685  0.1737 -0.4276 -0.7750
 5107SOL     OW21282   4.575   0.951   8.543  0.0924  0.7967 -0.3129
 5107SOL    HW121283   4.486   0.916   8.537  0.6639 -0.5866 -1.2004
 5107SOL    HW221284   4.575   1.029   8.487 -0.5882  0.9145 -0.1549
 5108SOL     OW21285   7.961   0.909   3.504 -0.5053  0.2686  0.2942
 5108SOL    HW121286   7.876   0.934   3.542 -1.2635 -0.0592 -1.1058
 5108SOL    HW221287   7.938   0.863   3.423  0.9895 -0.7825  0.4252
 5109SOL     OW21288   3.697   8.288   3.454 -0.1345  0.1339  0.1234
 5109SOL    HW121289   3.718   8.210   3.403  2.0644 -0.4045  1.6936
 5109SOL    HW221290   3.608   8.272   3.487 -0.0977 -1.2352 -0.3782
 5110SOL     OW21291   5.938   0.706   0.515 -0.5611  0.4123 -0.3751
 5110SOL    HW121292   5.981   0.699   0.600 -0.4218  1.6252 -0.3257
 5110SOL    HW221293   6.010   0.716   0.452 -0.7125  3.0073 -0.2326
 5111SOL     OW21294   4.811   8.553   8.702 -0.2306 -0.0604 -0.3232
 5111SOL    HW121295   4.767   8.571   8.785 -1.0951  0.0297 -0.7930
 5111SOL    HW221296   4.858   8.634   8.682  1.3367 -0.6181  0.8738
 5112SOL     OW21297   7.125   2.411   8.738  0.0372 -0.1044  0.2933
 5112SOL    HW121298   7.037   2.383   8.712  1.3607 -1.8734 -2.9025
 5112SOL    HW221299   7.137   2.495   8.693 -0.0063  0.1013  0.6690
 5113SOL     OW21300   3.777   0.941   5.959  0.2970 -1.1603 -0.6312
 5113SOL    HW121301   3.855   0.964   6.009 -0.5209 -1.2685  0.7491
 5113SOL    HW221302   3.772   0.845   5.965 -1.4932 -1.0258  1.8603
 5114SOL     OW21303   6.816   3.724   2.003 -0.3411 -0.0716 -1.0741
 5114SOL    HW121304   6.777   3.748   2.087 -0.4617  0.2076 -1.2090
 5114SOL    HW221305   6.802   3.801   1.947  0.2468 -0.0396 -1.1770
 5115SOL     OW21306   8.472   7.905   7.703 -0.0774 -0.4641 -0.1886
 5115SOL    HW121307   8.376   7.906   7.704 -0.1069 -0.1789 -1.4751
 5115SOL    HW221308   8.498   7.991   7.735 -0.3060  0.1566 -1.6062
 5116SOL     OW21309   2.033   3.821   6.663  0.1767  0.2904  0.1014
 5116SOL    HW121310   2.001   3.909   6.643 -0.8545  1.1672  4.4450
 5116SOL    HW221311   1.954   3.767   6.670  0.5287 -0.1976  0.4814
 5117SOL     OW21312   2.185   7.375   0.270 -0.2538 -0.7947 -0.0393
 5117SOL    HW121313   2.242   7.380   0.347  0.2789  1.8460 -0.5283
 5117SOL    HW221314   2.245   7.373   0.196 -0.7758 -0.1665 -0.4894
 5118SOL     OW21315   0.811   0.474   7.271 -0.0225 -0.8977  0.2527
 5118SOL    HW121316   0.870   0.523   7.214  0.6666 -0.8038  1.0144
 5118SOL    HW221317   0.867   0.447   7.345 -1.0400 -0.3589  1.2526
 5119SOL     OW21318   7.195   2.569   4.820  0.4648 -0.0613 -0.2382
 5119SOL    HW121319   7.169   2.528   4.738  1.6886 -1.4678  0.0395
 5119SOL    HW221320   7.277   2.613   4.800  0.2940  0.3815  0.0191
 5120SOL     OW21321   9.273   0.979   4.823  0.4388  0.4173 -0.1358
 5120SOL    HW121322   9.190   0.972   4.776  0.0431 -0.4009  0.6663
 5120SOL    HW221323   9.261   0.926   4.902  1.6972  0.3565  0.0336
 5121SOL     OW21324   8.345   0.082   1.900  0.3926 -0.6945 -0.3096
 5121SOL    HW121325   8.317   0.162   1.856  1.9379 -0.1826 -0.4590
 5121SOL    HW221326   8.371   0.023   1.829  0.2504 -0.9320 -0.1653
 5122SOL     OW21327   4.594   5.993   9.018 -0.8390  0.4333  1.1807
 5122SOL    HW121328   4.686   5.991   8.990 -0.5758 -0.2756  2.0666
 5122SOL    HW221329   4.591   5.936   9.094 -2.3216 -0.7805  0.2776
 5123SOL     OW21330   9.270   0.621   8.734 -0.0945 -0.2527 -0.3920
 5123SOL    HW121331   9.265   0.525   8.735 -1.6156 -0.3102 -3.1356
 5123SOL    HW221332   9.316   0.641   8.653 -0.2212  1.3471 -0.0896
 5124SOL     OW21333   0.189   5.261   4.297  0.2641 -0.4305  0.6289
 5124SOL    HW121334   0.160   5.341   4.255 -0.2091 -2.6078 -3.7786
 5124SOL    HW221335   0.109   5.221   4.331  0.2666  0.0934  1.2765
 5125SOL     OW21336   6.407   7.992   3.654 -0.1259  0.3545  0.0855
 5125SOL    HW121337   6.490   7.965   3.694  0.0885 -0.8651 -1.0911
 5125SOL    HW221338   6.396   8.083   3.681  0.9649  0.1625  1.2856
 5126SOL     OW21339   6.770   1.461   4.736  0.0235 -0.1831 -0.4765
 5126SOL    HW121340   6.675   1.451   4.734  0.1899 -2.3588 -0.7614
 5126SOL    HW221341   6.785   1.554   4.752 -2.1380  0.3210 -1.1060
 5127SOL     OW21342   5.323   1.266   0.611  0.1069  0.2624  0.3571
 5127SOL    HW121343   5.368   1.268   0.695 -2.1430 -1.0233  1.6798
 5127SOL    HW221344   5.267   1.189   0.615  0.0296  0.0670 -2.4221
 5128SOL     OW21345   6.491   8.189   4.812 -0.2836  0.2219 -0.3997
 5128SOL    HW121346   6.492   8.165   4.720 -0.3537  0.5983 -0.4997
 5128SOL    HW221347   6.471   8.282   4.813 -0.7779  0.1234  0.0134
 5129SOL     OW21348   2.996   0.107   0.447  0.2192 -0.5152 -0.1783
 5129SOL    HW121349   2.919   0.086   0.394  0.2252 -2.5397  0.5283
 5129SOL    HW221350   3.065   0.125   0.383 -0.3357 -0.6708 -0.8348
 5130SOL     OW21351   2.259   3.381   3.560  0.2127 -0.2767 -0.0803
 5130SOL    HW121352   2.177   3.417   3.591  0.1215 -1.1854  0.8195
 5130SOL    HW221353   2.294   3.446   3.500 -0.8438  0.4098  0.0351
 5131SOL     OW21354   1.413   8.170   7.125 -0.7061  0.1865  0.2477
 5131SOL    HW121355   1.410   8.261   7.155 -2.6117  0.8323 -1.6264
 5131SOL    HW221356   1.321   8.145   7.115 -0.2714 -0.6777 -2.6880
 5132SOL     OW21357   5.573   7.616   2.687  0.6057  0.1806 -0.0720
 5132SOL    HW121358   5.660   7.597   2.654  1.2178  2.4446  0.0850
 5132SOL    HW221359   5.581   7.607   2.782  0.4209 -0.5003 -0.1189
 5133SOL     OW21360   8.994   5.327   2.361 -0.1536 -0.1366  0.4576
 5133SOL    HW121361   8.905   5.362   2.353 -0.4654 -1.2956 -2.1086
 5133SOL    HW221362   8.985   5.254   2.422 -0.3274  1.4613  2.4603
 5134SOL     OW21363   8.170   4.813   8.803  0.0000  0.0471 -0.4726
 5134SOL    HW121364   8.078   4.832   8.787  0.1754  0.7370 -0.7224
 5134SOL    HW221365   8.177   4.800   8.897  0.0636  2.4847 -0.0895
 5135SOL     OW21366   9.044   8.565   2.536 -0.4835 -0.2182 -0.0713
 5135SOL    HW121367   8.971   8.567   2.474 -1.3032 -1.3923  0.8105
 5135SOL    HW221368   9.002   8.552   2.621  0.6330  1.0173  0.7124
 5136SOL     OW21369   3.640   6.793   9.367  0.2768  0.5606  0.2504
 5136SOL    HW121370   3.606   6.882   9.365 -1.7446 -0.1604 -1.8493
 5136SOL    HW221371   3.577   6.742   9.316  0.0499 -2.5693  3.2518
 5137SOL     OW21372   1.215   2.604   0.282  0.0329  0.6758 -0.2231
 5137SOL    HW121373   1.218   2.605   0.186  2.5056 -0.2787 -0.2183
 5137SOL    HW221374   1.137   2.655   0.304 -0.4893  1.0791 -2.7290
 5138SOL     OW21375   0.144   4.703   5.796  0.1417 -0.0713  0.6392
 5138SOL    HW121376   0.100   4.780   5.833 -1.2816 -0.7192  0.3509
 5138SOL    HW221377   0.095   4.628   5.830 -0.1589 -0.7529 -1.1641
 5139SOL     OW21378   6.567   3.665   6.174  0.4391  0.8166  0.2360
 5139SOL    HW121379   6.561   3.578   6.213  4.0561  0.7642  0.9651
 5139SOL    HW221380   6.586   3.649   6.082 -1.2393  0.9287 -0.1694
 5140SOL     OW21381   7.719   2.480   1.176 -0.3263 -0.3098  0.3238
 5140SOL    HW121382   7.778   2.522   1.113  0.1522  0.9751  1.5800
 5140SOL    HW221383   7.665   2.551   1.210 -1.1561 -1.1266  0.7697
 5141SOL     OW21384   4.442   8.454   6.866  0.0353 -0.1730 -0.0115
 5141SOL    HW121385   4.432   8.416   6.954 -1.1380 -0.4968 -0.2705
 5141SOL    HW221386   4.441   8.548   6.881 -0.1516 -0.2244  0.3302
 5142SOL     OW21387   5.733   3.417   5.923 -0.3206  0.4103 -0.3657
 5142SOL    HW121388   5.738   3.453   5.835  0.3540  0.6392 -0.2418
 5142SOL    HW221389   5.773   3.330   5.916 -2.1085 -0.4262 -0.7031
 5143SOL     OW21390   6.882   2.823   2.410 -0.6635 -0.7337  0.7340
 5143SOL    HW121391   6.954   2.799   2.352 -1.3764  0.5159 -0.7226
 5143SOL    HW221392   6.874   2.918   2.400 -4.9500 -1.1592 -2.1741
 5144SOL     OW21393   8.811   0.029   2.181 -0.0021 -0.3553 -0.5214
 5144SOL    HW121394   8.858   0.068   2.254  1.9772 -1.8055 -0.9335
 5144SOL    HW221395   8.738  -0.018   2.222 -0.3161  0.7824  0.2731
 5145SOL     OW21396   7.764   4.986   5.854 -0.1538  0.4181  0.0944
 5145SOL    HW121397   7.784   5.079   5.860  1.9858 -0.0047  0.2309
 5145SOL    HW221398   7.849   4.944   5.844 -1.0851 -1.5292 -0.0362
 5146SOL     OW21399   3.429   1.070   7.951  0.2535 -0.5598 -0.0265
 5146SOL    HW121400   3.459   0.983   7.976 -1.3433 -1.5528 -1.3813
 5146SOL    HW221401   3.504   1.127   7.970  1.4381 -2.2387  0.6334
 5147SOL     OW21402   4.922   8.358   0.508 -0.0817 -0.0943 -0.7870
 5147SOL    HW121403   4.941   8.290   0.443 -1.2278 -0.8916 -0.3210
 5147SOL    HW221404   4.931   8.440   0.459 -0.1187 -0.6388 -1.7446
 5148SOL     OW21405   7.038   9.336   9.027  0.1241 -0.6718  0.0244
 5148SOL    HW121406   7.073   9.408   8.975  0.1023  0.0337  0.9496
 5148SOL    HW221407   6.943   9.347   9.023  0.0615 -1.4221 -0.8756
 5149SOL     OW21408   0.378   8.477   0.690  0.0433 -0.3386 -0.1777
 5149SOL    HW121409   0.428   8.551   0.725 -0.4753 -0.0882  0.0449
 5149SOL    HW221410   0.372   8.415   0.763 -0.5473 -0.0697  0.0041
 5150SOL     OW21411   8.284   1.513   8.639 -0.3404  0.2408  0.1351
 5150SOL    HW121412   8.215   1.474   8.693 -0.4245 -1.2696 -1.0049
 5150SOL    HW221413   8.239   1.578   8.586 -0.9619 -0.8329 -0.7034
 5151SOL     OW21414   8.770   2.397   6.103 -0.2660 -0.1527  0.0583
 5151SOL    HW121415   8.722   2.472   6.068 -0.9412 -0.2088  0.8286
 5151SOL    HW221416   8.858   2.429   6.118  0.4788 -0.4580 -2.8961
 5152SOL     OW21417   5.862   8.732   8.989 -0.0895  0.5651  0.3383
 5152SOL    HW121418   5.898   8.697   8.908  0.7380 -1.9191  1.6517
 5152SOL    HW221419   5.770   8.705   8.988  0.1042 -0.1262  0.5357
 5153SOL     OW21420   5.411   7.100   2.141  0.1667 -0.2382 -0.5144
 5153SOL    HW121421   5.458   7.151   2.076  1.7324 -1.1222 -0.1347
 5153SOL    HW221422   5.439   7.137   2.225 -0.4993 -0.2195 -0.2931
 5154SOL     OW21423   5.879   3.165   3.347 -0.3216 -0.0894 -0.6379
 5154SOL    HW121424   5.949   3.212   3.393  0.0752 -0.1589 -1.1575
 5154SOL    HW221425   5.886   3.075   3.377 -0.7702  0.0809 -0.0087
 5155SOL     OW21426   3.870   0.115   1.059 -0.0856 -0.5814 -0.0469
 5155SOL    HW121427   3.960   0.132   1.086 -0.4305  3.3999 -0.8158
 5155SOL    HW221428   3.875   0.104   0.964 -0.4248 -0.3466 -0.0904
 5156SOL     OW21429   6.345   7.901   4.992  0.0801  0.3165 -0.1058
 5156SOL    HW121430   6.295   7.974   4.954  0.6050  1.0490  0.5740
 5156SOL    HW221431   6.298   7.878   5.072  0.1041  0.1355 -0.1430
 5157SOL     OW21432   9.335   3.139   3.538  0.4154  0.0422 -0.0309
 5157SOL    HW121433   9.375   3.217   3.577  2.6871 -1.4611  0.8152
 5157SOL    HW221434   9.377   3.132   3.452 -0.1163 -0.0135 -0.2868
 5158SOL     OW21435   4.943   5.293   6.943 -0.9139 -0.4350 -0.1534
 5158SOL    HW121436   4.963   5.219   6.885 -2.7539 -0.2025 -1.1484
 5158SOL    HW221437   5.023   5.304   6.995  1.0189 -0.4117 -2.8789
 5159SOL     OW21438   9.042   8.968   1.483 -0.2619  0.6755 -0.2249
 5159SOL    HW121439   8.996   8.907   1.426  0.6335 -1.7311  1.4550
 5159SOL    HW221440   8.977   8.992   1.550 -0.3632  0.9184 -0.4069
 5160SOL     OW21441   7.331   3.205   2.215  0.1992 -0.2896 -0.0742
 5160SOL    HW121442   7.306   3.216   2.307  0.2728  0.4490 -0.1337
 5160SOL    HW221443   7.412   3.256   2.207  0.4510 -0.7489 -0.4312
 5161SOL     OW21444   2.235   0.669   0.665 -0.1580 -0.6636 -0.3658
 5161SOL    HW121445   2.318   0.698   0.627  0.4565 -2.3336 -0.3615
 5161SOL    HW221446   2.202   0.603   0.604 -0.3208 -1.6831  0.7850
 5162SOL     OW21447   5.878   6.378   8.048  0.0730  0.0498  0.3745
 5162SOL    HW121448   5.960   6.426   8.063  0.0419 -0.2311  1.4927
 5162SOL    HW221449   5.810   6.433   8.087 -0.1722 -0.1156  0.1840
 5163SOL     OW21450   8.164   9.222   5.357 -0.2658  0.2520  0.5359
 5163SOL    HW121451   8.169   9.300   5.412  0.4582 -1.5342  3.2312
 5163SOL    HW221452   8.224   9.240   5.284  1.2123  1.5834  1.9971
 5164SOL     OW21453   0.590   6.974   4.664 -0.6377 -0.3448  0.1619
 5164SOL    HW121454   0.520   7.038   4.672 -0.6477 -0.1944 -0.9476
 5164SOL    HW221455   0.628   6.991   4.578  0.8639 -0.3172  0.7996
 5165SOL     OW21456   4.005   2.432   3.056  0.5932 -0.0783 -0.1354
 5165SOL    HW121457   3.950   2.508   3.034 -1.1269 -1.3498 -0.4473
 5165SOL    HW221458   4.095   2.464   3.045 -0.0802  1.6928 -1.0068
 5166SOL     OW21459   0.867   4.996   1.260 -0.0477  0.4219 -0.4378
 5166SOL    HW121460   0.786   5.046   1.244 -1.6599 -1.4509  1.3896
 5166SOL    HW221461   0.878   4.944   1.181 -0.4331  0.9241 -0.8361
 5167SOL     OW21462   6.847   0.845   8.378 -0.0539  0.1519  0.5720
 5167SOL    HW121463   6.786   0.918   8.365  0.9052  0.8054 -0.4554
 5167SOL    HW221464   6.923   0.885   8.419  1.3802  0.2441 -1.9605
 5168SOL     OW21465   8.803   6.388   6.691 -0.4135 -0.5015 -0.1317
 5168SOL    HW121466   8.720   6.372   6.646 -0.9594  1.3910  0.1061
 5168SOL    HW221467   8.868   6.394   6.621 -0.8479  0.0745 -0.4942
 5169SOL     OW21468   2.242   7.921   7.275  0.2096 -0.5114 -0.2788
 5169SOL    HW121469   2.251   7.872   7.193  2.4634  1.9555 -1.7003
 5169SOL    HW221470   2.168   7.881   7.319 -0.0535 -3.0635 -2.7337
 5170SOL     OW21471   5.955   0.474   1.467  0.2067  0.3331 -0.1205
 5170SOL    HW121472   6.024   0.495   1.530  0.0329 -1.5768  0.7693
 5170SOL    HW221473   5.961   0.379   1.455 -1.3349  0.3261 -1.1384
 5171SOL     OW21474   3.727   2.091   2.045 -0.3890 -0.0241 -0.6239
 5171SOL    HW121475   3.680   2.073   1.963  1.0561 -2.3260 -1.0217
 5171SOL    HW221476   3.816   2.114   2.017  0.0475 -0.5732  0.2803
 5172SOL     OW21477   9.214   5.589   3.109 -0.1652  0.2183  0.0807
 5172SOL    HW121478   9.196   5.497   3.130  1.8649 -0.4022 -0.6779
 5172SOL    HW221479   9.159   5.608   3.033  0.7873 -1.0036 -0.9648
 5173SOL     OW21480   2.939   1.366   0.897  0.1212 -0.0201 -0.4611
 5173SOL    HW121481   2.857   1.344   0.942  0.0268  0.4907 -0.3775
 5173SOL    HW221482   2.944   1.462   0.902  0.1033  0.0531 -1.5410
 5174SOL     OW21483   0.109   7.776   8.182  0.0532 -0.1477 -0.0503
 5174SOL    HW121484   0.019   7.785   8.151 -0.2397 -1.0515  0.5084
 5174SOL    HW221485   0.101   7.770   8.277  0.5891 -1.4934 -0.0641
 5175SOL     OW21486   4.455   2.419   1.095  0.3637 -0.1740 -0.3175
 5175SOL    HW121487   4.434   2.326   1.097 -1.4177  0.1800 -0.5963
 5175SOL    HW221488   4.414   2.451   1.014 -0.0762  1.0604  0.3673
 5176SOL     OW21489   0.784   2.020   4.785 -0.3299  0.0035 -0.5731
 5176SOL    HW121490   0.706   2.029   4.730  0.1174 -1.9843 -1.6323
 5176SOL    HW221491   0.750   2.018   4.875 -1.2684  1.3503 -0.8782
 5177SOL     OW21492   3.900   6.461   5.894 -0.4720  0.1172  0.3505
 5177SOL    HW121493   3.992   6.442   5.875 -0.5121 -0.7709  1.0015
 5177SOL    HW221494   3.900   6.552   5.924  0.0870  0.3629 -0.3571
 5178SOL     OW21495   9.025   2.710   8.227 -0.0621  0.2231 -0.5453
 5178SOL    HW121496   9.052   2.791   8.184  1.4558  0.2467  0.3568
 5178SOL    HW221497   8.947   2.682   8.180 -0.3257  1.9408 -1.1936
 5179SOL     OW21498   9.114   5.508   9.262  0.3074  0.4525 -0.1256
 5179SOL    HW121499   9.062   5.577   9.219  1.0582  1.1585  0.0746
 5179SOL    HW221500   9.140   5.450   9.190  0.1183  0.6767 -0.3785
 5180SOL     OW21501   0.008   6.418   8.907 -0.2042 -0.5176  0.0688
 5180SOL    HW121502   0.094   6.396   8.944 -0.6187 -1.0769  0.7164
 5180SOL    HW221503  -0.055   6.391   8.973 -0.8535  0.7451  0.0050
 5181SOL     OW21504   5.871   7.359   0.304  0.2820 -0.0623  0.4407
 5181SOL    HW121505   5.895   7.451   0.287  1.8815 -0.2267  1.6091
 5181SOL    HW221506   5.954   7.312   0.302 -0.6878 -1.9318 -2.2789
 5182SOL     OW21507   5.228   7.752   1.401 -0.4601  0.5015 -0.0672
 5182SOL    HW121508   5.256   7.787   1.316  0.4532  0.2485  0.1136
 5182SOL    HW221509   5.239   7.657   1.392 -1.1673  0.4093  0.0520
 5183SOL     OW21510   2.537   4.408   9.198  0.1784  0.2305 -0.7876
 5183SOL    HW121511   2.458   4.418   9.144 -1.5127  0.2692  1.5692
 5183SOL    HW221512   2.559   4.497   9.224  0.9975  0.2086 -1.3629
 5184SOL     OW21513   8.383   2.257   0.180  0.0212 -0.4026 -0.5258
 5184SOL    HW121514   8.364   2.168   0.210  1.2085 -0.7659 -0.7917
 5184SOL    HW221515   8.422   2.245   0.093 -1.3309  0.4958 -1.2953
 5185SOL     OW21516   7.437   3.144   8.966 -0.1222  0.2194  0.0819
 5185SOL    HW121517   7.393   3.223   8.996  2.0439  1.7391 -0.4934
 5185SOL    HW221518   7.479   3.169   8.884  0.8800 -1.4389  0.0227
 5186SOL     OW21519   1.055   6.118   2.672  0.3142  0.3379 -0.1638
 5186SOL    HW121520   1.096   6.033   2.658 -0.8424 -0.0778 -1.1538
 5186SOL    HW221521   0.968   6.098   2.705  0.9911  1.2198  2.4304
 5187SOL     OW21522   0.980   0.885   7.603  0.3042  0.8008  0.1693
 5187SOL    HW121523   1.022   0.804   7.632 -1.3182  0.0032  0.3866
 5187SOL    HW221524   1.016   0.952   7.660  1.8077  0.2844 -0.1270
 5188SOL     OW21525   7.259   6.956   4.025 -0.1773 -0.1212  0.2011
 5188SOL    HW121526   7.192   6.994   3.967 -0.1993 -0.4757 -0.0086
 5188SOL    HW221527   7.342   6.976   3.982 -0.1759 -0.1299  0.1996
 5189SOL     OW21528   1.671   7.903   2.795 -0.3277  0.5781  0.1894
 5189SOL    HW121529   1.701   7.927   2.882  0.3250  2.3112 -0.4686
 5189SOL    HW221530   1.734   7.836   2.766 -0.0428  0.6152  0.7160
 5190SOL     OW21531   4.380   5.569   5.834  0.7945 -0.9126 -0.3046
 5190SOL    HW121532   4.386   5.619   5.753  0.6281 -1.7844 -0.8713
 5190SOL    HW221533   4.360   5.479   5.806 -1.3356 -0.8586  0.7625
 5191SOL     OW21534   0.363   1.522   7.621 -0.2769 -0.0257 -0.1493
 5191SOL    HW121535   0.287   1.559   7.666 -0.0124  0.2377  0.0794
 5191SOL    HW221536   0.393   1.452   7.679  1.2821  1.6025  1.0910
 5192SOL     OW21537   2.921   7.613   8.339 -0.5954  0.1432 -0.0648
 5192SOL    HW121538   3.002   7.665   8.347 -0.1424 -0.5957  0.2509
 5192SOL    HW221539   2.935   7.560   8.261 -0.3281 -0.7439  0.5708
 5193SOL     OW21540   5.744   6.085   1.190  0.4797  0.0960 -0.6486
 5193SOL    HW121541   5.737   6.173   1.227  0.1288 -0.0728 -0.3186
 5193SOL    HW221542   5.667   6.076   1.135 -0.4772 -0.7035  0.7845
 5194SOL     OW21543   1.713   4.242   0.751  0.1106 -0.2575  0.5038
 5194SOL    HW121544   1.768   4.293   0.811 -0.3480  0.2185  0.5307
 5194SOL    HW221545   1.697   4.301   0.677 -1.3212  0.0619  1.0357
 5195SOL     OW21546   4.387   5.526   1.541 -0.8649 -0.0233  0.4266
 5195SOL    HW121547   4.344   5.538   1.456 -0.8277 -1.6006  0.1518
 5195SOL    HW221548   4.364   5.437   1.567 -0.1443  0.1296  1.6583
 5196SOL     OW21549   5.780   0.910   4.020 -0.4737 -0.5075 -0.3605
 5196SOL    HW121550   5.787   0.901   4.115  0.7976 -0.0259 -0.3947
 5196SOL    HW221551   5.853   0.858   3.985 -0.4159  0.0109 -1.0297
 5197SOL     OW21552   5.838   2.837   3.730 -0.6322  0.0300 -0.3470
 5197SOL    HW121553   5.878   2.903   3.787  0.5663 -1.8256  1.0510
 5197SOL    HW221554   5.889   2.841   3.649 -0.8103  1.0356 -0.4261
 5198SOL     OW21555   5.276   8.596   7.589  0.3463 -0.1408  0.2834
 5198SOL    HW121556   5.301   8.510   7.553 -0.2879  0.4280 -1.6325
 5198SOL    HW221557   5.358   8.646   7.590  0.7503 -0.7604  1.5413
 5199SOL     OW21558   7.842   6.591   1.722 -0.6555  0.6228 -0.1583
 5199SOL    HW121559   7.809   6.677   1.746  1.1082  1.3055 -0.0544
 5199SOL    HW221560   7.764   6.535   1.722 -1.7780  2.1133  0.1415
 5200SOL     OW21561   3.695   5.002   0.366 -0.2522 -0.0454 -0.7622
 5200SOL    HW121562   3.692   4.922   0.314 -0.7654 -0.1061 -0.6383
 5200SOL    HW221563   3.620   4.996   0.425 -0.9854  1.0731 -1.5522
 5201SOL     OW21564   1.478   7.914   4.499 -0.7501 -0.2459 -0.0812
 5201SOL    HW121565   1.496   8.007   4.487 -2.9772  0.2605  0.0469
 5201SOL    HW221566   1.397   7.911   4.549 -0.3101 -2.2842  0.6172
 5202SOL     OW21567   8.552   3.767   0.516  0.3345 -0.0508  0.0020
 5202SOL    HW121568   8.541   3.684   0.563 -1.5819 -0.0428 -0.3433
 5202SOL    HW221569   8.598   3.743   0.436 -1.1791 -1.0411 -0.6358
 5203SOL     OW21570   4.945   6.258   6.068 -0.1860  0.0592 -0.4966
 5203SOL    HW121571   4.906   6.320   6.129  2.1596  0.4465  0.7507
 5203SOL    HW221572   5.019   6.305   6.030 -0.0866 -1.0324 -1.7255
 5204SOL     OW21573   3.353   1.920   8.892 -0.2909 -0.2433 -0.5046
 5204SOL    HW121574   3.267   1.949   8.861  0.0046  1.9463  0.5753
 5204SOL    HW221575   3.415   1.980   8.852  0.8575 -2.0763 -1.6312
 5205SOL     OW21576   0.531   2.621   1.263 -0.0776  0.0727 -0.1783
 5205SOL    HW121577   0.604   2.568   1.294 -1.7620 -2.4998 -0.3025
 5205SOL    HW221578   0.466   2.616   1.333 -1.0345  0.3692 -1.0192
 5206SOL     OW21579   5.075   6.743   5.449  0.4675  0.1274 -0.3147
 5206SOL    HW121580   5.145   6.690   5.411 -0.7407 -1.2557 -0.7370
 5206SOL    HW221581   5.017   6.679   5.491 -0.7546  1.1656 -0.3517
 5207SOL     OW21582   4.818   5.167   5.353  0.8689 -0.1691  0.2481
 5207SOL    HW121583   4.767   5.149   5.274 -1.1527 -1.4439  1.7446
 5207SOL    HW221584   4.906   5.135   5.333  0.7732  0.8181 -1.9427
 5208SOL     OW21585   9.080   3.512   8.959 -0.1252  0.2144 -0.2613
 5208SOL    HW121586   9.041   3.461   9.030  1.7923 -0.2256  0.5368
 5208SOL    HW221587   9.058   3.603   8.979 -1.0433 -0.0507 -0.0529
 5209SOL     OW21588   1.851   8.447   0.702  0.4850 -0.0664 -0.0114
 5209SOL    HW121589   1.913   8.379   0.676 -0.1385 -0.7718  0.2850
 5209SOL    HW221590   1.841   8.502   0.624  0.3807 -0.8037 -0.5273
 5210SOL     OW21591   4.582   0.931   1.319  0.0575  0.0253  0.1507
 5210SOL    HW121592   4.511   0.962   1.262  1.5250  0.4347 -1.5366
 5210SOL    HW221593   4.659   0.931   1.263  1.5457  0.2087  2.1018
 5211SOL     OW21594   2.556   3.851   8.074  0.2366 -0.0445 -0.3203
 5211SOL    HW121595   2.629   3.789   8.081 -1.0490 -1.6000 -0.0965
 5211SOL    HW221596   2.590   3.922   8.020  1.5384 -1.3273 -1.2839
 5212SOL     OW21597   4.269   7.130   0.005 -0.6682 -0.4292  0.3196
 5212SOL    HW121598   4.181   7.132  -0.032 -0.7681  0.1154  0.5740
 5212SOL    HW221599   4.300   7.041  -0.010 -1.2211 -0.5918  0.1356
 5213SOL     OW21600   7.575   2.326   2.743 -0.5831  0.2043  0.1039
 5213SOL    HW121601   7.619   2.246   2.711 -1.9623 -0.5583  0.0482
 5213SOL    HW221602   7.646   2.389   2.754  0.2025 -0.0684 -2.7038
 5214SOL     OW21603   6.591   3.409   4.913 -0.4321 -0.0609  0.2021
 5214SOL    HW121604   6.532   3.447   4.977 -2.1437  2.7033 -2.7194
 5214SOL    HW221605   6.667   3.467   4.912  0.1592 -0.8206  0.6026
 5215SOL     OW21606   0.224   6.956   7.560  0.3847 -0.2552 -0.4738
 5215SOL    HW121607   0.129   6.955   7.575  0.4155  1.3113 -0.0307
 5215SOL    HW221608   0.262   6.975   7.645  1.1099 -0.8529 -0.6557
 5216SOL     OW21609   0.854   4.901   3.680 -0.1909 -0.6757  0.4861
 5216SOL    HW121610   0.890   4.874   3.595 -0.5962 -0.0958  0.1237
 5216SOL    HW221611   0.782   4.839   3.696  0.6829 -1.5691  1.0106
 5217SOL     OW21612   1.998   5.280   3.457 -0.2624  0.3882  0.4300
 5217SOL    HW121613   1.997   5.361   3.508 -0.8210  0.2380  0.6623
 5217SOL    HW221614   2.091   5.262   3.442 -0.1538  2.1234 -1.3219
 5218SOL     OW21615   1.427   3.752   3.623 -0.4663 -0.0951 -0.1936
 5218SOL    HW121616   1.419   3.815   3.552  0.5977 -0.2343 -0.4598
 5218SOL    HW221617   1.339   3.716   3.633 -0.5168 -0.5573 -1.8980
 5219SOL     OW21618   1.463   8.142   5.349  0.8278 -0.0462  0.3283
 5219SOL    HW121619   1.430   8.184   5.269 -0.1395 -1.6719 -0.1827
 5219SOL    HW221620   1.398   8.075   5.369  2.0396 -0.9480  1.3994
 5220SOL     OW21621   3.493   1.085   0.369 -0.0081 -0.2248  0.5963
 5220SOL    HW121622   3.573   1.034   0.354  0.3460  0.3069  0.6514
 5220SOL    HW221623   3.524   1.174   0.387 -0.6137 -0.0089  0.6015
 5221SOL     OW21624   1.573   4.925   2.939  0.2052  0.3799 -0.7883
 5221SOL    HW121625   1.526   4.964   2.865  0.9807 -0.8346 -1.9773
 5221SOL    HW221626   1.531   4.961   3.017 -0.7779  1.5369 -1.8233
 5222SOL     OW21627   5.985   3.291   1.698 -0.4067  0.0480 -0.5115
 5222SOL    HW121628   6.074   3.289   1.661  0.2801  0.8282  0.9793
 5222SOL    HW221629   5.988   3.229   1.771 -1.4355 -0.7408 -1.1186
 5223SOL     OW21630   8.491   0.070   7.516 -0.3165  0.1246 -0.0492
 5223SOL    HW121631   8.492   0.100   7.607  0.0946 -0.3894  0.1223
 5223SOL    HW221632   8.437  -0.009   7.518  1.5211 -1.1955  0.2010
 5224SOL     OW21633   1.029   2.312   1.717  0.0893 -0.2881 -0.0585
 5224SOL    HW121634   0.992   2.297   1.803  0.1122 -0.7589 -0.1265
 5224SOL    HW221635   1.119   2.341   1.734 -0.1267  0.2893  0.0906
 5225SOL     OW21636   3.312   3.982   6.752 -0.2934  0.0937  0.4642
 5225SOL    HW121637   3.258   3.972   6.830 -1.3627 -0.0070 -0.2674
 5225SOL    HW221638   3.321   3.894   6.717  1.5046 -0.0974  1.2994
 5226SOL     OW21639   0.852   3.754   1.748 -0.1372  0.5844  0.4308
 5226SOL    HW121640   0.917   3.809   1.792  0.2991 -0.4662  1.1290
 5226SOL    HW221641   0.771   3.770   1.797 -0.2529  1.3392  0.0129
 5227SOL     OW21642   8.380   8.406   4.081  0.0259  0.6120 -0.6652
 5227SOL    HW121643   8.370   8.311   4.090  1.0208  0.4875 -0.7825
 5227SOL    HW221644   8.294   8.436   4.052 -1.0484  0.0836  1.7814
 5228SOL     OW21645   1.950   0.098   1.854  0.0849  0.3533  1.0052
 5228SOL    HW121646   1.941   0.006   1.829 -0.9083  0.7721 -0.3185
 5228SOL    HW221647   1.914   0.146   1.780  1.3233  1.8499  1.3277
 5229SOL     OW21648   2.317   7.392   9.204  0.2065 -0.2709 -0.0510
 5229SOL    HW121649   2.361   7.382   9.288 -1.2005  0.2916  0.7852
 5229SOL    HW221650   2.285   7.483   9.204 -0.5124 -0.5048 -0.8292
 5230SOL     OW21651   4.984   5.112   1.180  0.0137 -0.1170 -0.1658
 5230SOL    HW121652   4.917   5.048   1.158 -2.1295  1.3269  1.7233
 5230SOL    HW221653   5.046   5.109   1.107 -0.7574 -3.2444 -0.8256
 5231SOL     OW21654   0.575   0.460   8.045 -0.5733 -0.5409  0.1765
 5231SOL    HW121655   0.623   0.495   8.120  1.1316 -0.4019 -0.9475
 5231SOL    HW221656   0.627   0.385   8.016 -1.8966 -1.3947 -0.1139
 5232SOL     OW21657   9.276   1.445   1.862  0.4856 -0.2298  0.7016
 5232SOL    HW121658   9.318   1.516   1.813  1.0049  0.7738  2.5136
 5232SOL    HW221659   9.346   1.409   1.916 -0.0605 -1.3350  0.7084
 5233SOL     OW21660   0.264   4.743   8.722  0.1601 -0.1849  0.1884
 5233SOL    HW121661   0.337   4.682   8.721  0.0244 -0.4391  2.0355
 5233SOL    HW221662   0.186   4.688   8.719  0.0388 -0.1391  1.7242
 5234SOL     OW21663   5.570   1.217   3.620  0.8374 -0.5642 -0.1625
 5234SOL    HW121664   5.531   1.272   3.552  0.7623  0.1387  0.4349
 5234SOL    HW221665   5.623   1.277   3.672  0.7550 -1.0604  0.5065
 5235SOL     OW21666   7.378   3.005   8.230 -0.0752  0.3083  0.2081
 5235SOL    HW121667   7.330   2.953   8.166  0.8415 -1.5037  0.9291
 5235SOL    HW221668   7.455   3.037   8.182 -0.3788  0.5894 -0.0981
 5236SOL     OW21669   6.629   5.492   0.653  0.0502  0.2954  0.0203
 5236SOL    HW121670   6.624   5.573   0.704 -0.0607 -0.3778  1.1156
 5236SOL    HW221671   6.671   5.430   0.712  1.7711  0.0140 -1.4127
 5237SOL     OW21672   1.988   6.443   8.434  0.0253  0.0899  0.6903
 5237SOL    HW121673   2.023   6.354   8.431  0.2721  0.1325  1.8818
 5237SOL    HW221674   1.953   6.458   8.346  0.1558 -1.1108  0.4188
 5238SOL     OW21675   6.278   5.262   3.535  0.1151  0.5314 -0.2441
 5238SOL    HW121676   6.200   5.295   3.580 -0.0558 -1.1267  0.7635
 5238SOL    HW221677   6.342   5.248   3.606  1.1777  1.3723 -0.9923
 5239SOL     OW21678   6.404   1.565   1.857 -0.7224  0.5304  0.5619
 5239SOL    HW121679   6.378   1.619   1.931  1.1404 -0.0077  1.6843
 5239SOL    HW221680   6.366   1.479   1.875 -0.0802  0.3364  1.0576
 5240SOL     OW21681   3.956   5.006   1.151 -0.0176  0.0170  0.5727
 5240SOL    HW121682   3.919   5.006   1.063  0.3313  0.5027  0.4245
 5240SOL    HW221683   4.018   4.933   1.150  0.1496  0.1608  0.3469
 5241SOL     OW21684   5.855   3.723   3.411 -0.1033  0.1634 -0.1355
 5241SOL    HW121685   5.832   3.641   3.456  2.6076 -0.1731  0.8746
 5241SOL    HW221686   5.816   3.715   3.324 -2.7231 -0.6563  1.0127
 5242SOL     OW21687   8.675   6.173   2.749  0.0480  0.2050 -0.0870
 5242SOL    HW121688   8.675   6.099   2.689 -1.2479 -0.0750  0.2299
 5242SOL    HW221689   8.662   6.250   2.693 -2.3373 -0.1519 -0.1160
 5243SOL     OW21690   1.877   3.855   7.935  0.4312  0.2027 -0.9499
 5243SOL    HW121691   1.945   3.846   8.001  0.8697  0.0375 -1.4222
 5243SOL    HW221692   1.814   3.787   7.956 -0.5642  1.5265  0.6247
 5244SOL     OW21693   5.056   6.883   3.064  0.3097 -0.6841 -0.2557
 5244SOL    HW121694   5.104   6.939   3.125 -0.8604  0.4649 -0.3433
 5244SOL    HW221695   4.974   6.863   3.109 -0.0162 -0.9005 -0.9354
 5245SOL     OW21696   4.947   4.765   7.208  0.1146 -0.0102 -0.2202
 5245SOL    HW121697   4.964   4.695   7.271 -1.7300 -0.0786  0.2524
 5245SOL    HW221698   4.909   4.720   7.132  0.8460  0.2587 -0.7586
 5246SOL     OW21699   2.959   3.838   0.720  0.2471 -0.0138  0.1243
 5246SOL    HW121700   2.941   3.780   0.646 -1.9112  0.2378  0.4030
 5246SOL    HW221701   2.953   3.926   0.682 -0.3701  0.1035  0.4867
 5247SOL     OW21702   1.552   1.589   4.441  0.2415 -0.2611 -0.2934
 5247SOL    HW121703   1.570   1.521   4.377 -2.9459 -0.0734 -1.5278
 5247SOL    HW221704   1.582   1.670   4.399  0.5793 -0.4362 -0.3964
 5248SOL     OW21705   2.264   3.067   8.899 -0.2972 -0.4182  0.2429
 5248SOL    HW121706   2.296   2.977   8.906  1.3960  0.2095  1.0767
 5248SOL    HW221707   2.282   3.105   8.985 -0.7759  0.7996 -0.1827
 5249SOL     OW21708   7.583   5.003   3.484 -0.3122 -0.1856 -0.0210
 5249SOL    HW121709   7.646   4.973   3.418 -2.4166 -2.5238 -1.1060
 5249SOL    HW221710   7.587   4.937   3.553  0.4367  1.1982  1.3267
 5250SOL     OW21711   2.922   6.542   4.990  0.2459 -0.7923 -0.1363
 5250SOL    HW121712   2.843   6.546   5.044 -0.2133  0.9532 -0.8765
 5250SOL    HW221713   2.993   6.524   5.052 -0.4763 -0.4008  0.8209
 5251SOL     OW21714   1.964   3.013   2.067  0.8050  0.3387  0.6337
 5251SOL    HW121715   1.914   2.999   1.987  1.4863 -0.3192  0.3096
 5251SOL    HW221716   2.029   2.942   2.068  1.5833  1.0306  1.1505
 5252SOL     OW21717   8.072   5.382   0.317 -0.1506  0.0313  0.1585
 5252SOL    HW121718   8.017   5.447   0.361 -1.7141 -0.6441 -0.7362
 5252SOL    HW221719   8.084   5.417   0.229 -1.2399 -0.9999 -0.4215
 5253SOL     OW21720   7.354   1.488   6.895  0.0507 -0.0035  0.1474
 5253SOL    HW121721   7.437   1.444   6.911  0.1343  0.3328  0.6834
 5253SOL    HW221722   7.379   1.575   6.864 -0.0907  0.2207  0.6490
 5254SOL     OW21723   3.241   8.855   0.120 -0.3648  0.5191  0.5229
 5254SOL    HW121724   3.170   8.896   0.169 -0.8337 -0.1147  0.3993
 5254SOL    HW221725   3.257   8.772   0.166 -0.3479  0.2310  0.0127
 5255SOL     OW21726   4.818   4.856   4.162  0.0791  0.4770 -0.5139
 5255SOL    HW121727   4.753   4.860   4.091  0.5906 -0.8384 -1.0905
 5255SOL    HW221728   4.765   4.845   4.241 -0.4589  0.8280 -0.8139
 5256SOL     OW21729   5.237   8.046   4.822 -0.3696 -0.0136  0.9527
 5256SOL    HW121730   5.197   8.057   4.908 -1.6373 -0.3412  0.4283
 5256SOL    HW221731   5.178   7.988   4.775 -0.6087  1.4701 -0.7112
 5257SOL     OW21732   7.158   4.438   8.276 -0.0312  0.2007 -0.2841
 5257SOL    HW121733   7.092   4.502   8.250  1.1776  1.3091 -0.7246
 5257SOL    HW221734   7.184   4.396   8.194  0.8506  0.8139 -0.3310
 5258SOL     OW21735   3.321   3.463   1.305 -0.2403  0.0179 -0.0946
 5258SOL    HW121736   3.323   3.515   1.386 -1.6488  0.4129 -0.2859
 5258SOL    HW221737   3.277   3.382   1.330 -1.6262  0.5621 -0.6615
 5259SOL     OW21738   5.256   8.171   0.265 -0.2240  0.1838 -0.2283
 5259SOL    HW121739   5.225   8.080   0.261  1.5351 -0.4440 -0.3019
 5259SOL    HW221740   5.249   8.203   0.175 -2.6374  0.8053  0.1032
 5260SOL     OW21741   2.425   5.313   2.063  0.0616 -0.0873  0.4812
 5260SOL    HW121742   2.516   5.341   2.077 -0.3801  1.0830  1.2114
 5260SOL    HW221743   2.430   5.249   1.992  1.7556 -1.9892  2.1896
 5261SOL     OW21744   9.184   0.991   1.961  0.0725  0.3655  0.5087
 5261SOL    HW121745   9.133   1.038   2.027  0.8572  1.2255  0.5202
 5261SOL    HW221746   9.148   0.903   1.962 -0.0003  0.3777  2.0311
 5262SOL     OW21747   9.034   4.886   0.889  0.1336  0.3716  0.7128
 5262SOL    HW121748   9.095   4.945   0.932 -0.0674  0.8629  0.3398
 5262SOL    HW221749   9.029   4.810   0.946  1.1874  0.2700  0.6858
 5263SOL     OW21750   8.455   7.050   1.476 -0.1249 -0.6399 -0.2359
 5263SOL    HW121751   8.518   7.121   1.488 -0.5391 -0.3728  0.4331
 5263SOL    HW221752   8.508   6.975   1.447  0.2380  0.0880 -1.5287
 5264SOL     OW21753   7.182   4.479   7.175  0.5571 -0.2120 -0.2118
 5264SOL    HW121754   7.188   4.461   7.269 -1.1044 -2.6777 -0.4685
 5264SOL    HW221755   7.262   4.442   7.138  1.6678  1.6041  0.2767
 5265SOL     OW21756   0.533   3.040   8.572  0.0550 -0.6135  0.5688
 5265SOL    HW121757   0.529   3.008   8.662 -1.2504 -0.3067  0.6458
 5265SOL    HW221758   0.536   3.135   8.581  1.9598 -0.6079  0.3029
 5266SOL     OW21759   4.622   7.232   2.392  0.0809 -0.1972  0.4163
 5266SOL    HW121760   4.655   7.186   2.315  0.7006 -0.8141  1.0407
 5266SOL    HW221761   4.542   7.185   2.416  0.3837 -0.5720  0.6920
 5267SOL     OW21762   1.331   7.059   7.352 -0.1582 -0.0672 -0.5812
 5267SOL    HW121763   1.389   7.095   7.420  0.0385 -0.2344 -0.6583
 5267SOL    HW221764   1.383   6.990   7.311 -0.6554 -0.6907 -0.1913
 5268SOL     OW21765   8.151   7.932   5.154 -0.5860 -0.5348  0.0008
 5268SOL    HW121766   8.179   7.922   5.063 -0.3390 -1.2412  0.1475
 5268SOL    HW221767   8.222   7.979   5.196 -0.0482 -1.4581  0.1465
 5269SOL     OW21768   6.954   3.700   2.554  0.7047 -0.0102 -0.0422
 5269SOL    HW121769   6.943   3.703   2.649 -0.1473  0.8394 -0.1535
 5269SOL    HW221770   6.865   3.703   2.519  0.8291 -2.8958 -0.8605
 5270SOL     OW21771   6.356   9.251   2.717 -0.0109  0.4979 -0.0248
 5270SOL    HW121772   6.422   9.184   2.702  1.3098  1.6502  0.4589
 5270SOL    HW221773   6.403   9.323   2.760 -1.3637  1.7589 -0.5567
 5271SOL     OW21774   6.706   1.101   9.355 -0.6748  0.4779  0.7770
 5271SOL    HW121775   6.768   1.174   9.351 -1.4607  1.2540  2.1838
 5271SOL    HW221776   6.651   1.112   9.277  1.9920 -1.2853 -1.5698
 5272SOL     OW21777   8.603   5.759   9.098  0.3591 -0.0426  0.1210
 5272SOL    HW121778   8.616   5.783   9.007 -1.8929  1.1825  0.0424
 5272SOL    HW221779   8.514   5.723   9.101 -0.2226  1.3870  2.0718
 5273SOL     OW21780   7.633   7.843   5.871 -0.4529 -0.4804  0.2375
 5273SOL    HW121781   7.621   7.755   5.835  1.6853  0.0248 -1.9817
 5273SOL    HW221782   7.692   7.831   5.945  0.2807 -0.8909 -0.3985
 5274SOL     OW21783   2.751   8.527   1.718 -0.7437  0.0995  0.6239
 5274SOL    HW121784   2.658   8.509   1.734 -0.8304 -0.0683 -0.0456
 5274SOL    HW221785   2.796   8.445   1.741 -1.0467 -0.7449 -1.5683
 5275SOL     OW21786   5.102   6.899   0.381  0.1552 -0.2496 -0.4634
 5275SOL    HW121787   5.114   6.806   0.360 -0.2407 -0.2780 -0.5880
 5275SOL    HW221788   5.148   6.945   0.311 -0.7877 -0.3494 -1.1797
 5276SOL     OW21789   0.975   6.887   0.095  0.5370 -0.2469 -0.1052
 5276SOL    HW121790   0.976   6.858   0.186 -1.2429  0.3890  0.1477
 5276SOL    HW221791   1.056   6.851   0.058  0.6308 -1.6494  1.3542
 5277SOL     OW21792   0.069   0.951   2.128  0.2354  0.0956 -0.5433
 5277SOL    HW121793   0.016   0.961   2.048 -1.8021 -1.0264  0.5930
 5277SOL    HW221794   0.006   0.954   2.199  1.9835  0.8368  1.0561
 5278SOL     OW21795   0.900   4.929   6.540  0.2985  0.0955 -0.0262
 5278SOL    HW121796   0.932   4.968   6.621 -0.7277  1.6780 -0.3493
 5278SOL    HW221797   0.894   5.003   6.479 -2.0782 -0.4741 -0.5574
 5279SOL     OW21798   3.116   1.171   1.770  0.4443 -0.1169 -0.0568
 5279SOL    HW121799   3.022   1.168   1.786  0.2115 -1.7320 -1.4855
 5279SOL    HW221800   3.128   1.249   1.716 -0.2120 -0.3753 -0.5913
 5280SOL     OW21801   1.015   8.390   3.278  0.2217 -0.2640 -0.3465
 5280SOL    HW121802   0.987   8.438   3.356 -0.0418 -1.5132  0.3601
 5280SOL    HW221803   0.967   8.432   3.206 -1.1118 -0.3695  0.4373
 5281SOL     OW21804   7.998   4.368   2.886 -0.2868  0.1328 -0.2990
 5281SOL    HW121805   7.949   4.450   2.878 -1.3081 -0.3907  0.3186
 5281SOL    HW221806   7.968   4.330   2.968  0.1384 -0.8834 -0.5958
 5282SOL     OW21807   0.571   8.399   2.667  0.9110  0.5394  0.0314
 5282SOL    HW121808   0.614   8.332   2.613  0.5460 -0.4703  0.9573
 5282SOL    HW221809   0.487   8.415   2.624  0.7361 -0.0644  0.1433
 5283SOL     OW21810   3.244   7.099   6.186 -0.0001 -0.1697  0.4468
 5283SOL    HW121811   3.152   7.126   6.186 -0.4382 -1.5237 -1.0799
 5283SOL    HW221812   3.250   7.037   6.258 -0.2571  0.0024  0.6212
 5284SOL     OW21813   3.684   7.080   0.525 -0.1947 -0.3959 -0.1248
 5284SOL    HW121814   3.674   7.149   0.591 -1.6936  1.4178 -2.1286
 5284SOL    HW221815   3.603   7.082   0.475  0.6782 -2.0775 -1.7267
 5285SOL     OW21816   6.433   9.291   9.011 -0.0862 -0.2622 -0.5291
 5285SOL    HW121817   6.366   9.223   9.002  0.5692 -0.6795 -3.1810
 5285SOL    HW221818   6.424   9.343   8.932  2.5748 -0.2310 -0.8838
 5286SOL     OW21819   3.070   5.970   1.645 -0.2292  0.1884 -0.3867
 5286SOL    HW121820   3.131   5.917   1.697  1.1847 -0.3458 -2.4458
 5286SOL    HW221821   2.990   5.916   1.640 -0.2212  0.0447  0.7869
 5287SOL     OW21822   7.343   3.871   7.440 -0.4225 -0.6779  0.4777
 5287SOL    HW121823   7.272   3.867   7.375  0.6389 -0.6014 -0.7398
 5287SOL    HW221824   7.321   3.946   7.495 -0.7095  0.0493 -0.5976
 5288SOL     OW21825   6.248   2.498   9.030  0.2677  0.4539 -0.0462
 5288SOL    HW121826   6.306   2.442   9.080 -0.1210  0.4184  0.3676
 5288SOL    HW221827   6.243   2.457   8.944  2.5291  1.5820 -0.8030
 5289SOL     OW21828   5.226   7.495   0.659  0.2690 -0.4109  0.5958
 5289SOL    HW121829   5.206   7.404   0.684  1.1470 -0.6492  0.4866
 5289SOL    HW221830   5.211   7.498   0.565  0.2031 -0.4387  0.6059
 5290SOL     OW21831   2.206   5.330   5.352 -0.5035 -0.0083 -0.4410
 5290SOL    HW121832   2.260   5.256   5.379 -0.7412  0.6001  1.9505
 5290SOL    HW221833   2.163   5.301   5.272  0.4614 -1.9233 -0.3138
 5291SOL     OW21834   3.278   8.951   1.842  0.4527  0.4397  0.2877
 5291SOL    HW121835   3.303   8.964   1.751  0.2182  0.7496  0.2654
 5291SOL    HW221836   3.302   8.860   1.861  0.5871  0.4031 -0.0539
 5292SOL     OW21837   0.422   8.136   1.404 -0.2971  0.1712 -0.4568
 5292SOL    HW121838   0.435   8.065   1.340  0.0027 -0.6325  0.4665
 5292SOL    HW221839   0.369   8.097   1.473  0.4510  0.6248  0.4047
 5293SOL     OW21840   6.413   8.544   5.749 -0.0135 -0.4966 -0.5384
 5293SOL    HW121841   6.451   8.513   5.831 -1.7819 -0.0020  0.4959
 5293SOL    HW221842   6.391   8.635   5.766 -1.0875 -0.6001 -1.3173
 5294SOL     OW21843   2.720   5.246   1.761  0.5104  0.2421  0.1280
 5294SOL    HW121844   2.643   5.303   1.765  1.1676  1.1512  0.0826
 5294SOL    HW221845   2.696   5.169   1.813  0.0762  1.1348  1.2996
 5295SOL     OW21846   0.075   5.604   2.475  0.0527  0.4310 -0.0514
 5295SOL    HW121847   0.013   5.535   2.449 -1.2455  2.4844 -3.0530
 5295SOL    HW221848   0.151   5.590   2.419 -0.0652  1.1453 -0.4074
 5296SOL     OW21849   0.617   5.431   1.217  0.4514 -0.5452 -0.2211
 5296SOL    HW121850   0.553   5.361   1.206 -1.8236  1.2084  1.0188
 5296SOL    HW221851   0.592   5.496   1.151  0.9147  0.1953  0.3154
 5297SOL     OW21852   8.233   3.073   3.243 -0.1881 -0.0128 -0.2878
 5297SOL    HW121853   8.240   2.991   3.291 -0.9383  0.7145  1.1119
 5297SOL    HW221854   8.165   3.123   3.288  0.7277  1.6755 -0.6485
 5298SOL     OW21855   3.672   7.941   0.390  0.2020  0.7700 -0.3020
 5298SOL    HW121856   3.584   7.927   0.355 -0.4942  0.4290  1.4790
 5298SOL    HW221857   3.715   7.995   0.324 -0.9191 -0.0768 -1.8007
 5299SOL     OW21858   8.679   6.640   5.579  0.0575 -0.3783 -0.1429
 5299SOL    HW121859   8.745   6.705   5.606  1.0291 -1.1004 -0.7149
 5299SOL    HW221860   8.600   6.667   5.625  0.9379  0.0729  1.1966
 5300SOL     OW21861   5.397   5.973   9.203 -0.0938  0.1832 -0.5795
 5300SOL    HW121862   5.413   6.041   9.269 -0.3842 -0.5377  0.2534
 5300SOL    HW221863   5.376   6.022   9.124  1.1605  1.0797 -0.3927
 5301SOL     OW21864   7.497   0.354   4.351  0.1991 -0.1570  0.2675
 5301SOL    HW121865   7.477   0.418   4.283  0.4574 -0.6072 -0.2406
 5301SOL    HW221866   7.512   0.407   4.429  1.3210  0.4880 -0.3525
 5302SOL     OW21867   7.500   5.397   3.257  0.1618 -0.2906  0.5538
 5302SOL    HW121868   7.424   5.383   3.314 -0.8124  1.0421 -0.3615
 5302SOL    HW221869   7.464   5.435   3.177  1.8087  0.6564  0.2070
 5303SOL     OW21870   8.471   3.186   5.912  0.3454  0.1211  0.3153
 5303SOL    HW121871   8.442   3.221   5.827  2.2434 -0.6430 -0.7106
 5303SOL    HW221872   8.566   3.179   5.904  0.7226  1.2443  3.0179
 5304SOL     OW21873   4.702   7.020   3.827  0.0655  0.4293 -0.5231
 5304SOL    HW121874   4.782   7.066   3.851 -0.4523  0.9453  0.2687
 5304SOL    HW221875   4.664   7.073   3.758  0.7592 -0.2085 -1.4195
 5305SOL     OW21876   5.104   5.441   0.625  0.0776  0.0161 -0.1376
 5305SOL    HW121877   5.153   5.382   0.684 -3.1618 -2.0648  0.7510
 5305SOL    HW221878   5.091   5.520   0.677  0.3505 -0.3812  0.5580
 5306SOL     OW21879   1.542   8.800   2.537 -0.2185  0.5369  0.2059
 5306SOL    HW121880   1.498   8.852   2.604  1.1748 -0.8763  2.3402
 5306SOL    HW221881   1.595   8.738   2.586 -0.1471 -1.4845 -2.2223
 5307SOL     OW21882   9.265   7.386   2.851 -0.0462 -0.3446 -0.0763
 5307SOL    HW121883   9.224   7.464   2.813 -0.3844  0.2065  1.3850
 5307SOL    HW221884   9.289   7.333   2.775  1.3713  1.7400 -1.1844
 5308SOL     OW21885   5.282   5.343   1.216  0.0843  0.1965  0.0317
 5308SOL    HW121886   5.310   5.252   1.206  1.2681  0.4083  1.1521
 5308SOL    HW221887   5.261   5.351   1.309  1.4019  1.4284  0.2545
 5309SOL     OW21888   8.242   5.045   7.676  0.1760 -0.7140  0.1156
 5309SOL    HW121889   8.284   5.117   7.628  1.3961 -1.8228 -0.5467
 5309SOL    HW221890   8.154   5.078   7.696 -0.7143 -0.4206 -3.5568
 5310SOL     OW21891   8.255   6.862   8.814 -0.3858  0.1571  0.2202
 5310SOL    HW121892   8.252   6.801   8.888 -1.0769 -1.7067 -1.2633
 5310SOL    HW221893   8.348   6.870   8.793 -0.3280 -0.9155  0.0329
 5311SOL     OW21894   4.633   1.333   2.690 -0.5094  0.2154 -0.8254
 5311SOL    HW121895   4.563   1.366   2.747 -0.4962 -0.1210 -0.6124
 5311SOL    HW221896   4.713   1.373   2.724 -0.5921  0.5680 -1.0438
 5312SOL     OW21897   3.341   4.086   0.307 -0.3576  0.1787  0.1907
 5312SOL    HW121898   3.400   4.051   0.375  0.5549  1.4398  0.0899
 5312SOL    HW221899   3.368   4.177   0.297 -1.9790  0.6381 -0.2856
 5313SOL     OW21900   3.312   1.572   0.910  0.5348 -0.3327  0.1403
 5313SOL    HW121901   3.301   1.506   0.842  2.7137  0.7219 -1.3350
 5313SOL    HW221902   3.291   1.655   0.867 -0.2179  0.1691  1.4068
 5314SOL     OW21903   0.603   5.875   2.399  0.0699  0.5654 -0.5530
 5314SOL    HW121904   0.693   5.851   2.380 -0.0386  0.0409 -0.4055
 5314SOL    HW221905   0.581   5.826   2.479 -0.4717  0.3840 -0.8081
 5315SOL     OW21906   7.188   0.726   8.105 -0.1778  0.7715  0.1060
 5315SOL    HW121907   7.121   0.769   8.053 -0.4277  1.3407  0.8893
 5315SOL    HW221908   7.270   0.747   8.060 -0.4876  0.2754 -0.7137
 5316SOL     OW21909   0.892   3.654   0.280  0.0061 -0.0140 -0.6195
 5316SOL    HW121910   0.809   3.656   0.326  1.4794  1.2650  2.2241
 5316SOL    HW221911   0.904   3.743   0.247  0.4308 -0.0828 -0.6557
 5317SOL     OW21912   1.102   6.823   0.958 -0.0037  0.0623 -0.5119
 5317SOL    HW121913   1.044   6.898   0.967  0.1384  0.0307  0.9294
 5317SOL    HW221914   1.153   6.841   0.879 -1.3956  0.4609 -1.3723
 5318SOL     OW21915   8.574   7.899   0.561 -0.1113 -0.3072  0.1176
 5318SOL    HW121916   8.656   7.936   0.529  0.2924 -1.3257 -0.0771
 5318SOL    HW221917   8.592   7.873   0.651 -0.2540 -0.4271  0.1128
 5319SOL     OW21918   0.764   3.230   7.314 -1.0203 -0.8208  0.2708
 5319SOL    HW121919   0.727   3.312   7.281 -0.5230 -0.7827 -0.2068
 5319SOL    HW221920   0.853   3.252   7.339 -0.7944 -1.2749 -0.1156
 5320SOL     OW21921   2.785   6.177   5.031 -0.3217  0.2436 -0.2523
 5320SOL    HW121922   2.695   6.159   5.003 -0.0264 -0.3808 -0.8269
 5320SOL    HW221923   2.807   6.105   5.090 -0.0646  0.1787 -0.4271
 5321SOL     OW21924   3.444   3.670   1.778  0.3688  0.2023 -0.2238
 5321SOL    HW121925   3.467   3.662   1.871  1.9420  1.2565 -0.4688
 5321SOL    HW221926   3.469   3.760   1.755  0.1407 -0.0785 -1.6932
 5322SOL     OW21927   0.397   1.086   4.088 -0.6352 -0.8394 -0.5312
 5322SOL    HW121928   0.376   1.156   4.025 -1.3233 -0.5098  0.0563
 5322SOL    HW221929   0.470   1.122   4.139 -1.2575 -0.3781  0.0415
 5323SOL     OW21930   1.783   9.150   4.224  0.2536  0.3558 -0.2090
 5323SOL    HW121931   1.827   9.066   4.239 -0.1281  0.2142  0.1478
 5323SOL    HW221932   1.723   9.159   4.298 -1.0034  0.0801 -1.1672
 5324SOL     OW21933   1.207   2.407   6.120  0.2919  0.4302  0.2364
 5324SOL    HW121934   1.258   2.326   6.129  1.3576  0.8853 -1.2454
 5324SOL    HW221935   1.153   2.411   6.199  0.4517 -1.5547  0.4855
 5325SOL     OW21936   8.828   3.512   0.705  0.4500  0.4302 -0.3128
 5325SOL    HW121937   8.897   3.446   0.712  0.9454  1.0349  0.7289
 5325SOL    HW221938   8.875   3.594   0.692 -0.1629  0.5834 -1.7575
 5326SOL     OW21939   0.564   8.965   9.132 -0.0523 -0.5720  0.0358
 5326SOL    HW121940   0.574   8.905   9.206 -1.7882 -1.1806 -0.1705
 5326SOL    HW221941   0.647   9.012   9.127  0.3567 -1.0185  1.9304
 5327SOL     OW21942   3.587   5.017   6.610  0.4743 -0.4972  0.0018
 5327SOL    HW121943   3.638   5.023   6.529  1.2410  0.7139  0.5389
 5327SOL    HW221944   3.517   5.081   6.599 -0.4371 -1.5290 -0.3696
 5328SOL     OW21945   1.364   5.281   0.013 -0.0966  0.0098 -0.0866
 5328SOL    HW121946   1.420   5.332   0.072 -0.7473 -1.2258  1.6615
 5328SOL    HW221947   1.285   5.334   0.003  0.5808  0.8795 -1.0407
 5329SOL     OW21948   6.090   4.133   2.050  0.3307  0.2643  0.1290
 5329SOL    HW121949   6.128   4.193   2.114  2.2831 -1.4457  0.7078
 5329SOL    HW221950   6.117   4.046   2.080 -0.6987 -0.7678 -1.7431
 5330SOL     OW21951   3.598   4.391   6.147 -0.0301 -0.6019 -0.1928
 5330SOL    HW121952   3.551   4.362   6.069  0.4851 -1.9542 -0.0177
 5330SOL    HW221953   3.549   4.468   6.176 -0.9331 -0.7791 -1.1659
 5331SOL     OW21954   7.418   0.407   8.228  0.6350  0.5789  0.0706
 5331SOL    HW121955   7.448   0.476   8.168  2.0228 -0.5375 -0.5726
 5331SOL    HW221956   7.498   0.367   8.260 -0.1476 -0.7361  0.4472
 5332SOL     OW21957   5.069   5.205   8.905 -0.7348  0.5575 -0.5167
 5332SOL    HW121958   4.991   5.156   8.878  0.1630 -0.2702 -1.7296
 5332SOL    HW221959   5.073   5.279   8.844  1.0680 -1.0859 -2.5329
 5333SOL     OW21960   4.131   3.286   7.537 -0.6972  0.3737 -0.6941
 5333SOL    HW121961   4.043   3.280   7.573 -1.2519 -0.0487 -2.0489
 5333SOL    HW221962   4.118   3.303   7.443  0.6637  0.7658 -0.8395
 5334SOL     OW21963   2.913   8.087   1.059 -0.4363 -0.2292  0.1655
 5334SOL    HW121964   3.000   8.049   1.049  0.0375  0.5818  0.9776
 5334SOL    HW221965   2.871   8.076   0.974  0.2568 -1.1164 -0.0737
 5335SOL     OW21966   7.332   7.893   0.474 -0.5267 -0.1649  0.8650
 5335SOL    HW121967   7.302   7.964   0.417 -0.9778 -1.5034 -0.6656
 5335SOL    HW221968   7.405   7.930   0.523 -0.9413  1.4300  0.3233
 5336SOL     OW21969   6.487   8.588   3.870 -0.1852 -0.9081 -0.2065
 5336SOL    HW121970   6.504   8.533   3.794 -1.3646 -1.2430 -0.2482
 5336SOL    HW221971   6.549   8.559   3.936  1.7299  0.2145 -1.4059
 5337SOL     OW21972   0.556   2.857   2.760  0.2972  0.0664  1.0112
 5337SOL    HW121973   0.510   2.776   2.781  0.0647  0.4809  2.2176
 5337SOL    HW221974   0.486   2.922   2.750  0.5408  0.4291  1.5882
 5338SOL     OW21975   6.867   5.298   6.644 -0.2377 -0.0008  0.1587
 5338SOL    HW121976   6.816   5.238   6.698 -0.8097 -1.2355 -1.6600
 5338SOL    HW221977   6.819   5.302   6.561  2.9735 -1.8848 -2.0127
 5339SOL     OW21978   0.097   6.515   6.054  0.3106  0.1273 -0.1006
 5339SOL    HW121979   0.180   6.518   6.100 -0.8942 -0.7118  2.2753
 5339SOL    HW221980   0.102   6.587   5.990  2.1737  1.1681  1.1343
 5340SOL     OW21981   7.664   7.090   8.579 -0.7862  0.1596 -0.6702
 5340SOL    HW121982   7.666   7.126   8.667 -1.5774 -1.4160  0.0370
 5340SOL    HW221983   7.577   7.049   8.572 -1.0782  0.9783 -2.5036
 5341SOL     OW21984   9.215   2.893   8.562  0.0436 -0.0831  0.2977
 5341SOL    HW121985   9.194   2.878   8.654  0.9311 -2.1683  0.2127
 5341SOL    HW221986   9.201   2.808   8.520  0.9237  0.4962 -1.2459
 5342SOL     OW21987   3.748   5.282   5.141  0.1505  0.6847  0.0154
 5342SOL    HW121988   3.658   5.301   5.168 -0.1929 -0.1876 -0.4524
 5342SOL    HW221989   3.803   5.336   5.197 -0.6264  0.3426  1.1239
 5343SOL     OW21990   7.130   8.091   4.732  0.0772 -0.0936 -0.2177
 5343SOL    HW121991   7.122   8.131   4.645 -0.0340 -1.1270 -0.7057
 5343SOL    HW221992   7.041   8.072   4.759  0.1176  0.1372  0.0820
 5344SOL     OW21993   5.850   6.261   6.872  0.3071 -0.2222  0.5706
 5344SOL    HW121994   5.916   6.329   6.864 -0.5907  0.5973 -0.2073
 5344SOL    HW221995   5.799   6.267   6.790  0.0673 -1.6761  0.5844
 5345SOL     OW21996   1.774   2.943   2.657  0.3481 -0.0068  0.1487
 5345SOL    HW121997   1.789   2.996   2.735 -0.8814 -0.6436  0.8611
 5345SOL    HW221998   1.856   2.946   2.609  1.1296  0.4281  1.4632
 5346SOL     OW21999   8.791   4.480   9.087 -0.3974  0.1619  0.2530
 5346SOL    HW122000   8.732   4.531   9.032 -0.9874  1.1674  1.7536
 5346SOL    HW222001   8.739   4.458   9.165  0.0237 -2.2519 -0.0640
 5347SOL     OW22002   6.221   2.369   8.717 -0.3487 -0.1709  0.1212
 5347SOL    HW122003   6.255   2.366   8.627  1.0103 -0.0871  0.6215
 5347SOL    HW222004   6.142   2.424   8.711 -1.1784 -1.4299 -1.2975
 5348SOL     OW22005   5.962   7.456   1.325  0.3077  0.0841 -0.5951
 5348SOL    HW122006   6.039   7.500   1.361  0.5889  0.3572 -1.4999
 5348SOL    HW222007   5.929   7.517   1.258 -0.9945  0.1998  0.1167
 5349SOL     OW22008   7.691   0.612   8.385  0.2269  0.0879 -0.2819
 5349SOL    HW122009   7.639   0.687   8.353  0.0449 -0.1601 -0.5699
 5349SOL    HW222010   7.654   0.593   8.472  0.8527  0.8872  0.1737
 5350SOL     OW22011   8.440   6.621   5.153  0.0986  0.1878 -0.2856
 5350SOL    HW122012   8.480   6.569   5.223  1.4113  0.6561 -0.6471
 5350SOL    HW222013   8.348   6.595   5.152  0.7059 -2.1238 -0.4549
 5351SOL     OW22014   4.019   6.848   1.188 -0.3648  0.5009  0.0082
 5351SOL    HW122015   3.989   6.933   1.221  0.6257  0.0136  2.3716
 5351SOL    HW222016   4.073   6.869   1.112  0.4039  2.0564  0.9432
 5352SOL     OW22017   8.803   9.159   4.852  0.1860  0.3143  0.4908
 5352SOL    HW122018   8.878   9.109   4.887  0.0299  0.5869  1.2363
 5352SOL    HW222019   8.787   9.227   4.918  2.0899  3.1079 -1.6876
 5353SOL     OW22020   1.504   3.640   4.140  0.2117  0.7868  0.1068
 5353SOL    HW122021   1.412   3.624   4.120  0.2652  0.7837 -0.1354
 5353SOL    HW222022   1.502   3.678   4.228 -0.1941  2.6873 -0.6676
 5354SOL     OW22023   6.769   6.734   5.169  0.3162 -0.6164 -0.2405
 5354SOL    HW122024   6.698   6.677   5.139 -0.2250  0.8880 -2.0598
 5354SOL    HW222025   6.725   6.802   5.220  0.4719  0.1088 -1.0528
 5355SOL     OW22026   4.302   0.843   8.562 -0.3659  0.4511 -0.8356
 5355SOL    HW122027   4.270   0.926   8.597 -1.8311 -0.4313  0.0216
 5355SOL    HW222028   4.314   0.788   8.639  2.6115  0.4581 -1.1785
 5356SOL     OW22029   5.678   8.142   7.149 -0.5621  0.2439  0.1895
 5356SOL    HW122030   5.676   8.197   7.227  1.1371 -1.9141  1.9034
 5356SOL    HW222031   5.763   8.098   7.154 -0.3512  0.0739 -2.9694
 5357SOL     OW22032   1.405   4.014   3.109  0.5490  0.4399 -0.0290
 5357SOL    HW122033   1.460   4.053   3.177 -0.3701  1.3255  0.2426
 5357SOL    HW222034   1.438   4.052   3.028  1.4181 -0.3433 -0.0578
 5358SOL     OW22035   7.449   0.500   3.304 -0.2108 -0.1162 -0.2405
 5358SOL    HW122036   7.507   0.571   3.275 -0.2791 -0.4862 -1.3368
 5358SOL    HW222037   7.361   0.529   3.279 -0.4252  0.0797  0.6902
 5359SOL     OW22038   1.057   8.995   6.935 -0.0497  0.0772  0.0925
 5359SOL    HW122039   0.978   9.050   6.927 -0.9063 -1.2076 -0.7015
 5359SOL    HW222040   1.036   8.934   7.005  0.6651  0.3764  0.5729
 5360SOL     OW22041   0.914   8.030   8.349 -0.1098 -0.1024 -0.0773
 5360SOL    HW122042   1.005   8.004   8.360 -0.0023  0.8992  1.7937
 5360SOL    HW222043   0.899   8.026   8.254  1.2187 -2.3405 -0.2452
 5361SOL     OW22044   5.561   4.074   6.450  0.1578 -0.1924  0.3367
 5361SOL    HW122045   5.476   4.074   6.407  1.0299 -2.2279 -1.5545
 5361SOL    HW222046   5.544   4.032   6.535 -0.7027 -0.8494 -0.1350
 5362SOL     OW22047   5.328   2.968   6.950 -0.2801  0.9895  0.2570
 5362SOL    HW122048   5.395   3.007   6.894 -1.1825  0.4469 -1.2677
 5362SOL    HW222049   5.327   2.875   6.925 -2.2926  1.1692 -0.5541
 5363SOL     OW22050   2.956   7.650   7.342 -0.3765  0.5370  0.2544
 5363SOL    HW122051   2.958   7.702   7.423 -0.7275 -1.6266  1.7333
 5363SOL    HW222052   2.884   7.589   7.354  0.5507 -0.8827 -1.0136
 5364SOL     OW22053   7.917   8.476   4.800 -0.4355  0.1914 -0.1303
 5364SOL    HW122054   7.850   8.504   4.863  1.1941  0.5599  1.5225
 5364SOL    HW222055   7.924   8.381   4.813 -0.5264  0.1751 -0.2000
 5365SOL     OW22056   6.570   9.129   6.078 -0.7594  0.4526 -0.0559
 5365SOL    HW122057   6.615   9.134   5.994  0.6130  1.6884  0.6928
 5365SOL    HW222058   6.625   9.072   6.132 -0.0384  1.9431  0.8562
 5366SOL     OW22059   7.807   1.111   8.180  0.0097  0.3523 -0.0340
 5366SOL    HW122060   7.760   1.102   8.263  1.6153  0.9653  0.9933
 5366SOL    HW222061   7.896   1.080   8.199  0.1413 -0.4960 -1.8288
 5367SOL     OW22062   0.179   4.892   9.033 -0.3968  0.2397  0.3458
 5367SOL    HW122063   0.226   4.933   8.961  1.2226 -1.7585  0.1655
 5367SOL    HW222064   0.182   4.957   9.104  3.2582  0.0248  0.5487
 5368SOL     OW22065   1.956   2.055   8.675  0.1653 -0.2991 -0.1275
 5368SOL    HW122066   1.894   2.127   8.662 -0.4897 -0.9385 -0.6267
 5368SOL    HW222067   2.026   2.093   8.727  0.4590  1.0462 -1.4322
 5369SOL     OW22068   6.781   6.698   7.237  0.0922 -0.2699 -0.2821
 5369SOL    HW122069   6.793   6.610   7.199  2.0332 -0.1888  0.0581
 5369SOL    HW222070   6.800   6.686   7.330  1.5955  0.7214 -0.4355
 5370SOL     OW22071   1.643   3.250   1.084 -0.1347 -0.5055  0.6992
 5370SOL    HW122072   1.561   3.297   1.097 -0.4125 -0.4894 -0.8634
 5370SOL    HW222073   1.711   3.317   1.095 -0.5374  0.4320 -1.7422
 5371SOL     OW22074   0.442   6.898   2.291  0.3026  0.1932  0.0551
 5371SOL    HW122075   0.348   6.916   2.285  0.5262  1.2477 -0.6409
 5371SOL    HW222076   0.448   6.804   2.303 -0.8283 -0.0187 -0.8666
 5372SOL     OW22077   9.370   5.347   0.928  0.1238 -0.6382 -0.0857
 5372SOL    HW122078   9.401   5.351   1.018  1.3396  0.3004 -0.5115
 5372SOL    HW222079   9.429   5.284   0.886  1.5005  1.0684 -0.8745
 5373SOL     OW22080   5.729   0.522   7.175 -0.1962  0.2278 -0.0593
 5373SOL    HW122081   5.740   0.428   7.185 -1.3390  0.0979  0.1598
 5373SOL    HW222082   5.775   0.543   7.093  2.1631 -0.0804  1.1127
 5374SOL     OW22083   7.166   7.045   3.134  0.2164  0.2887  0.0277
 5374SOL    HW122084   7.215   7.080   3.059  2.5812 -0.4266  1.1237
 5374SOL    HW222085   7.102   7.113   3.155 -0.6613  0.4105 -2.7362
 5375SOL     OW22086   5.233   3.222   1.887  0.2757  0.5056  0.1780
 5375SOL    HW122087   5.200   3.311   1.895 -2.5285 -0.2809 -1.0877
 5375SOL    HW222088   5.322   3.231   1.854 -0.2508  2.8237 -0.7905
 5376SOL     OW22089   1.143   6.719   7.695  0.1552 -0.0667 -0.6713
 5376SOL    HW122090   1.059   6.682   7.723  1.0148 -1.6415 -0.0141
 5376SOL    HW222091   1.204   6.694   7.764  0.9661  2.0596 -0.5534
 5377SOL     OW22092   1.630   8.567   4.187 -0.0187  0.4703  0.2345
 5377SOL    HW122093   1.673   8.582   4.272 -0.4209  0.8387  0.3774
 5377SOL    HW222094   1.648   8.647   4.137  0.5735  0.0860 -0.1887
 5378SOL     OW22095   0.791   7.153   3.184  0.0546  0.1815  0.2530
 5378SOL    HW122096   0.717   7.181   3.238 -1.3859 -0.4893 -1.2550
 5378SOL    HW222097   0.759   7.073   3.141  1.7946 -0.3053 -0.1960
 5379SOL     OW22098   0.799   2.222   4.475  0.3973  0.7078  0.1735
 5379SOL    HW122099   0.796   2.314   4.499  0.1663  0.4029  1.3939
 5379SOL    HW222100   0.724   2.183   4.521  1.0563 -0.2496  0.4754
 5380SOL     OW22101   0.750   0.795   0.066 -0.1286 -0.3056 -0.8202
 5380SOL    HW122102   0.833   0.751   0.050 -0.0753 -0.6981  0.4698
 5380SOL    HW222103   0.695   0.771  -0.008  0.4252 -1.2430 -0.9344
 5381SOL     OW22104   9.012   4.227   2.227 -0.1138  0.3193 -0.4329
 5381SOL    HW122105   9.047   4.290   2.291 -1.1863  2.2585 -1.6668
 5381SOL    HW222106   8.927   4.202   2.262 -0.8606  1.6576 -1.2022
 5382SOL     OW22107   1.404   2.540   2.865 -0.7697 -0.1209 -0.1750
 5382SOL    HW122108   1.318   2.509   2.837 -1.1275  1.3030 -0.7524
 5382SOL    HW222109   1.428   2.606   2.799 -0.3870  1.3364  1.3593
 5383SOL     OW22110   6.708   4.259   0.579  0.2659 -0.0886  0.4672
 5383SOL    HW122111   6.766   4.183   0.578  1.2351  0.5884 -1.6167
 5383SOL    HW222112   6.751   4.322   0.637  0.9976 -0.0634 -0.0882
 5384SOL     OW22113   0.815   5.256   8.717 -0.2862 -0.1097  0.1156
 5384SOL    HW122114   0.730   5.229   8.753 -0.2879  0.1796  0.3291
 5384SOL    HW222115   0.797   5.273   8.624 -0.2609 -0.9489 -0.0459
 5385SOL     OW22116   2.348   8.412   0.885  0.1302  0.2255 -0.3453
 5385SOL    HW122117   2.319   8.496   0.849 -0.2359  0.1958 -0.1307
 5385SOL    HW222118   2.268   8.372   0.920  0.1130 -0.6785 -1.3581
 5386SOL     OW22119   3.337   5.319   2.064 -0.0334  0.0185 -0.0037
 5386SOL    HW122120   3.413   5.288   2.113  1.1787 -2.0647 -2.9306
 5386SOL    HW222121   3.357   5.410   2.043  0.4921  0.2255  1.3330
 5387SOL     OW22122   7.450   0.258   5.574 -0.1398 -0.2940  0.4832
 5387SOL    HW122123   7.495   0.335   5.608  0.7391 -0.9954  0.9354
 5387SOL    HW222124   7.510   0.222   5.508 -0.5070 -0.6429  0.3376
 5388SOL     OW22125   8.366   4.991   0.840 -0.1775 -0.0799  0.3544
 5388SOL    HW122126   8.378   4.954   0.753  1.1461 -1.9469  1.2697
 5388SOL    HW222127   8.445   4.967   0.888 -1.0638  0.5000  2.2015
 5389SOL     OW22128   8.206   5.566   1.291 -0.0400 -0.0458 -0.4876
 5389SOL    HW122129   8.157   5.625   1.349  0.2234 -0.6848  0.3965
 5389SOL    HW222130   8.281   5.618   1.263  0.5309 -0.1529  0.7961
 5390SOL     OW22131   4.935   7.208   7.426  0.1442 -0.2465 -0.1866
 5390SOL    HW122132   4.862   7.270   7.421  0.1620 -0.0027  1.8566
 5390SOL    HW222133   5.005   7.250   7.375 -0.2552  0.8096  0.1095
 5391SOL     OW22134   7.340   1.385   5.353 -0.5771 -0.0523  0.0091
 5391SOL    HW122135   7.370   1.441   5.281 -1.1601 -0.2720 -0.4163
 5391SOL    HW222136   7.281   1.441   5.404  0.3205  0.2928  0.6812
 5392SOL     OW22137   1.017   3.368   7.752 -0.0260  0.1100 -0.0343
 5392SOL    HW122138   1.076   3.293   7.746 -0.5284 -0.3247  0.3612
 5392SOL    HW222139   1.001   3.379   7.845 -0.7832  0.0421 -0.1466
 5393SOL     OW22140   7.245   8.264   0.571  0.2584 -1.0790  0.3527
 5393SOL    HW122141   7.320   8.322   0.575 -0.2034 -0.5316  1.3919
 5393SOL    HW222142   7.274   8.190   0.518  2.0415 -1.6009  1.9550
 5394SOL     OW22143   8.763   6.746   8.030  0.0541  0.2293 -0.1705
 5394SOL    HW122144   8.742   6.831   7.993 -2.2016  0.2609  1.0289
 5394SOL    HW222145   8.700   6.734   8.101 -0.8419 -3.1640 -1.3598
 5395SOL     OW22146   6.215   6.569   4.813 -0.5546  0.1721  0.1292
 5395SOL    HW122147   6.262   6.646   4.845  0.0386 -0.2995  0.4052
 5395SOL    HW222148   6.186   6.523   4.892  2.3036 -1.8603  0.1276
 5396SOL     OW22149   0.789   3.653   2.271 -0.6554 -0.3472 -0.2699
 5396SOL    HW122150   0.885   3.655   2.279 -0.3935 -1.3256 -2.4374
 5396SOL    HW222151   0.758   3.716   2.337  1.4740  0.1788  0.3117
 5397SOL     OW22152   7.782   6.460   2.276 -0.0360  0.5029 -0.0396
 5397SOL    HW122153   7.873   6.452   2.248 -0.7360 -1.7789 -1.9697
 5397SOL    HW222154   7.735   6.492   2.198 -1.1395  0.0148  0.3991
 5398SOL     OW22155   4.923   6.200   4.056 -0.1687 -0.3916  0.1198
 5398SOL    HW122156   4.998   6.240   4.099 -2.2465  0.5992  3.1165
 5398SOL    HW222157   4.953   6.112   4.032  2.3332  0.4642 -0.0844
 5399SOL     OW22158   1.456   4.008   4.161  0.0565  0.1170  0.0508
 5399SOL    HW122159   1.405   3.953   4.221  0.1141  0.1164  0.0990
 5399SOL    HW222160   1.434   3.974   4.074 -0.3362  0.3781  0.0473
 5400SOL     OW22161   5.691   4.936   8.600 -0.1466  0.1763  0.1802
 5400SOL    HW122162   5.733   4.900   8.678  1.4995 -0.1128 -0.7986
 5400SOL    HW222163   5.745   4.905   8.527 -1.8758  0.0950 -1.1219
 5401SOL     OW22164   8.297   5.872   1.867  0.4746 -0.3573 -0.0069
 5401SOL    HW122165   8.274   5.868   1.959  1.3541  2.9625  0.4873
 5401SOL    HW222166   8.214   5.869   1.820 -0.0827 -0.4605  0.9745
 5402SOL     OW22167   1.090   8.064   7.698  0.2639 -0.2221 -0.6207
 5402SOL    HW122168   1.004   8.104   7.686  0.6430  0.6836 -0.4128
 5402SOL    HW222169   1.146   8.109   7.634  1.0745  0.7837  0.7399
 5403SOL     OW22170   7.264   0.511   5.357  0.3612 -0.2292 -0.1956
 5403SOL    HW122171   7.355   0.538   5.364  1.0753 -1.8984 -2.1879
 5403SOL    HW222172   7.241   0.483   5.446  2.0316 -0.4921  0.1852
 5404SOL     OW22173   1.162   9.144   4.539 -0.2065  0.3268 -0.1304
 5404SOL    HW122174   1.187   9.235   4.554 -1.1750  0.4854  0.6983
 5404SOL    HW222175   1.162   9.105   4.627 -1.1783 -0.0872 -0.3024
 5405SOL     OW22176   6.557   3.966   0.453 -0.2019 -0.4413  0.5672
 5405SOL    HW122177   6.608   4.039   0.485 -0.2628 -0.4742  0.7400
 5405SOL    HW222178   6.613   3.889   0.465 -0.8323 -0.6889  2.1105
 5406SOL     OW22179   5.801   5.522   3.895 -0.3945  0.6615 -0.5654
 5406SOL    HW122180   5.772   5.610   3.918 -0.4177  0.4522  0.2374
 5406SOL    HW222181   5.877   5.506   3.951 -1.7476 -0.6850  1.0041
 5407SOL     OW22182   1.148   9.233   8.178  0.0310  0.3850 -0.5856
 5407SOL    HW122183   1.142   9.290   8.101  1.9383  0.0960 -1.0089
 5407SOL    HW222184   1.182   9.151   8.143 -1.7538 -0.7240  0.1770
 5408SOL     OW22185   2.282   4.038   6.295 -0.5993  0.5638 -0.0147
 5408SOL    HW122186   2.328   4.122   6.300 -2.5705  1.6542  1.0267
 5408SOL    HW222187   2.293   4.010   6.204  0.1428  1.9389 -0.3773
 5409SOL     OW22188   0.516   8.716   0.389 -0.3148 -0.0584  0.4086
 5409SOL    HW122189   0.524   8.745   0.480  1.3920 -1.6772  0.8389
 5409SOL    HW222190   0.571   8.777   0.339  1.3180 -0.9807  0.9738
 5410SOL     OW22191   4.787   3.622   6.591  0.0694  0.6030 -0.2249
 5410SOL    HW122192   4.733   3.596   6.517 -0.6960  0.4279  0.3879
 5410SOL    HW222193   4.782   3.718   6.592  1.8028  0.7547 -1.6648
 5411SOL     OW22194   4.056   7.835   7.793  0.0579  0.0542 -0.4242
 5411SOL    HW122195   4.012   7.750   7.783  0.1714  0.1247 -1.6344
 5411SOL    HW222196   4.095   7.852   7.708  1.6035  0.4683  0.3153
 5412SOL     OW22197   0.373   5.610   3.082  0.4215 -0.1748 -0.3624
 5412SOL    HW122198   0.280   5.588   3.083  0.8014 -1.9001  0.7446
 5412SOL    HW222199   0.381   5.684   3.142 -0.0320 -1.0928  0.8605
 5413SOL     OW22200   7.813   9.350   2.130 -0.9041  0.3131 -0.1559
 5413SOL    HW122201   7.767   9.277   2.171  2.7962 -2.4101 -0.2828
 5413SOL    HW222202   7.837   9.408   2.203 -3.4038  1.2625  0.0088
 5414SOL     OW22203   6.167   0.627   8.452  0.0031  0.8484 -0.3464
 5414SOL    HW122204   6.228   0.571   8.404  0.9747  1.7434 -0.1943
 5414SOL    HW222205   6.223   0.678   8.511 -1.0669  0.4283  1.1006
 5415SOL     OW22206   2.323   7.406   7.687  0.2357 -0.4314 -0.0105
 5415SOL    HW122207   2.303   7.348   7.615  0.2035 -1.5251  0.8574
 5415SOL    HW222208   2.342   7.490   7.645  0.8177 -1.1870 -1.3198
 5416SOL     OW22209   0.595   1.289   6.132  0.7350 -0.1505 -0.1887
 5416SOL    HW122210   0.679   1.309   6.172  0.4264  1.3297 -0.2252
 5416SOL    HW222211   0.579   1.197   6.155  3.3668 -1.1992 -2.0666
 5417SOL     OW22212   6.174   8.552   8.025  0.0189 -0.0527 -0.1373
 5417SOL    HW122213   6.153   8.527   8.115  0.3287 -0.2925 -0.1283
 5417SOL    HW222214   6.269   8.552   8.021  0.0751  1.9383  0.0768
 5418SOL     OW22215   8.235   8.326   1.741  0.3412  0.5213 -0.4542
 5418SOL    HW122216   8.157   8.291   1.698  0.7792 -0.0983 -0.7476
 5418SOL    HW222217   8.277   8.250   1.781  0.8954  0.8282 -0.4545
 5419SOL     OW22218   5.047   3.385   8.560  0.5249 -0.3146  0.0743
 5419SOL    HW122219   5.081   3.471   8.584  1.0441 -0.7698  1.0475
 5419SOL    HW222220   4.994   3.401   8.482  2.2894  0.5709 -1.0148
 5420SOL     OW22221   2.162   6.326   0.406  0.0015  0.1461 -0.1943
 5420SOL    HW122222   2.229   6.387   0.439 -1.3399  0.6958  1.6562
 5420SOL    HW222223   2.117   6.375   0.337 -0.2656  0.8108  0.4412
 5421SOL     OW22224   7.924   7.557   1.477 -0.5345 -0.1096 -0.3200
 5421SOL    HW122225   7.840   7.568   1.433 -0.1017  2.4504 -0.6684
 5421SOL    HW222226   7.901   7.541   1.569 -1.4938  2.4831 -0.0209
 5422SOL     OW22227   3.003   7.896   0.404  0.0469 -0.2297  0.1730
 5422SOL    HW122228   2.975   7.898   0.496  2.0605  0.9267  0.8280
 5422SOL    HW222229   3.020   7.987   0.382 -0.0057 -0.5443 -1.2347
 5423SOL     OW22230   7.745   0.229   4.426  0.2047  0.4762 -0.2219
 5423SOL    HW122231   7.776   0.287   4.496 -0.8619  0.5910  0.1697
 5423SOL    HW222232   7.671   0.276   4.387 -1.4663 -1.0962  0.8723
 5424SOL     OW22233   1.583   1.816   7.960 -0.0991  0.1998  0.6334
 5424SOL    HW122234   1.590   1.733   7.914 -0.6241  0.6827 -0.3332
 5424SOL    HW222235   1.576   1.882   7.891 -0.2113  1.0021  1.3907
 5425SOL     OW22236   7.243   5.270   0.718  0.6398 -0.4153 -0.7967
 5425SOL    HW122237   7.235   5.365   0.718  0.6446 -0.3718  1.2225
 5425SOL    HW222238   7.304   5.250   0.648  1.7177  1.1893 -0.3566
 5426SOL     OW22239   5.311   0.311   7.153  0.0753 -0.2034  0.0884
 5426SOL    HW122240   5.390   0.347   7.194  0.3810  0.1444 -0.7990
 5426SOL    HW222241   5.284   0.240   7.212 -0.1162  0.9774  1.4839
 5427SOL     OW22242   1.761   4.737   6.992 -0.1576  0.0999 -0.1774
 5427SOL    HW122243   1.827   4.729   6.924  0.3567 -1.4954  0.4718
 5427SOL    HW222244   1.755   4.831   7.009 -0.7657  0.6192 -2.8358
 5428SOL     OW22245   0.124   3.114   4.453  0.4634  0.2244 -0.3292
 5428SOL    HW122246   0.195   3.077   4.505  0.7802 -0.8005 -1.4522
 5428SOL    HW222247   0.145   3.208   4.446  2.0538 -0.1608 -1.1528
 5429SOL     OW22248   7.068   0.880   1.285 -0.3241 -0.1809 -0.2168
 5429SOL    HW122249   7.090   0.787   1.295  0.1818  0.1179  1.9022
 5429SOL    HW222250   6.974   0.884   1.300 -0.2507 -0.2939  0.2959
 5430SOL     OW22251   5.408   9.318   0.748 -0.2055  0.0021 -0.2422
 5430SOL    HW122252   5.361   9.356   0.674  0.1570  0.6492 -0.1504
 5430SOL    HW222253   5.493   9.362   0.747 -0.1770 -0.0327  0.5214
 5431SOL     OW22254   6.296   3.090   4.043 -0.2953 -0.6073 -0.3570
 5431SOL    HW122255   6.233   3.019   4.053  0.1024 -1.3177 -2.5174
 5431SOL    HW222256   6.266   3.139   3.967  1.7096 -0.9791 -1.4544
 5432SOL     OW22257   9.010   7.603   0.406 -0.1124  0.3401  0.1393
 5432SOL    HW122258   8.973   7.691   0.407  0.3010  0.5058  0.5953
 5432SOL    HW222259   9.072   7.601   0.479 -2.7256 -1.4388  2.5266
 5433SOL     OW22260   9.026   4.067   6.093  0.1552  0.3014  0.2933
 5433SOL    HW122261   9.015   3.992   6.034  1.0650 -0.2701  0.8157
 5433SOL    HW222262   9.036   4.028   6.180  0.8431  1.0118  0.5463
 5434SOL     OW22263   0.398   6.873   7.092  0.1642  0.2891 -0.6266
 5434SOL    HW122264   0.400   6.882   7.188  0.1488  0.7751 -0.6713
 5434SOL    HW222265   0.488   6.889   7.065  0.2632 -0.3075 -0.6547
 5435SOL     OW22266   3.961   9.193   3.364  0.3998  0.6335 -0.3747
 5435SOL    HW122267   3.913   9.269   3.330  1.1584  1.2910 -0.0168
 5435SOL    HW222268   3.912   9.117   3.333 -1.1146  1.2840  0.3407
 5436SOL     OW22269   5.327   0.838   4.347  0.6113  0.0873  0.4881
 5436SOL    HW122270   5.344   0.922   4.305  0.8762 -0.4891 -0.5986
 5436SOL    HW222271   5.241   0.849   4.389  0.0429  0.4986 -0.7454
 5437SOL     OW22272   5.267   2.991   7.220 -0.0682 -0.0840  0.5174
 5437SOL    HW122273   5.191   3.048   7.215 -0.2913 -0.3387  0.9608
 5437SOL    HW222274   5.300   2.986   7.130 -1.1684 -0.7877  0.1400
 5438SOL     OW22275   3.225   2.246   2.915 -0.3632 -0.1273  0.4772
 5438SOL    HW122276   3.198   2.316   2.855 -0.1195 -0.9485 -0.6205
 5438SOL    HW222277   3.272   2.292   2.984 -1.8759  0.9992  0.8216
 5439SOL     OW22278   0.397   4.549   6.376 -0.3774 -0.0439  0.0506
 5439SOL    HW122279   0.475   4.524   6.325 -0.9219  0.3271 -1.0048
 5439SOL    HW222280   0.426   4.547   6.467  1.0735  0.7791 -0.3600
 5440SOL     OW22281   8.121   1.583   8.412 -0.3754  0.6394  0.0618
 5440SOL    HW122282   8.030   1.615   8.414  0.3525  3.0037 -0.6634
 5440SOL    HW222283   8.162   1.633   8.341  2.1622  1.7051  2.1179
 5441SOL     OW22284   4.668   4.910   2.683  0.1317 -0.2110 -0.3597
 5441SOL    HW122285   4.719   4.829   2.681  1.0242  0.2855  0.7416
 5441SOL    HW222286   4.691   4.950   2.767 -1.1665  0.6335 -0.3765
 5442SOL     OW22287   4.909   5.092   2.171 -0.3903 -0.1077 -0.4396
 5442SOL    HW122288   4.952   5.016   2.132  0.0107  0.0375 -0.2839
 5442SOL    HW222289   4.904   5.072   2.264 -2.4208 -0.9801 -0.6754
 5443SOL     OW22290   2.185   3.949   4.825  0.1144 -0.2658 -0.1968
 5443SOL    HW122291   2.105   3.990   4.792 -0.6122 -1.4011  0.1091
 5443SOL    HW222292   2.220   3.901   4.750  0.2757 -0.1191 -0.2152
 5444SOL     OW22293   7.043   1.500   5.498 -0.1168  0.1925  0.0064
 5444SOL    HW122294   7.057   1.580   5.447 -1.1742  0.1288 -0.4051
 5444SOL    HW222295   6.951   1.479   5.485 -0.3162 -0.0752  1.6056
 5445SOL     OW22296   5.445   2.533   3.329  0.8082 -0.1741  0.0019
 5445SOL    HW122297   5.473   2.621   3.301 -3.9582  1.0510 -1.9908
 5445SOL    HW222298   5.413   2.545   3.418  0.6538  0.0451 -0.0803
 5446SOL     OW22299   9.238   4.178   5.291  0.0811  0.2816 -0.7079
 5446SOL    HW122300   9.204   4.185   5.381  0.3645  0.8128 -0.6394
 5446SOL    HW222301   9.329   4.206   5.298  0.2894 -0.3008 -1.0515
 5447SOL     OW22302   8.245   3.949   1.817  0.1475 -0.2563  0.2281
 5447SOL    HW122303   8.324   4.000   1.799 -0.6870  0.8977 -0.2729
 5447SOL    HW222304   8.175   4.014   1.825 -1.4837 -1.3907 -2.9891
 5448SOL     OW22305   6.966   8.915   3.894  0.1869 -0.8027  0.1999
 5448SOL    HW122306   6.966   8.932   3.988 -0.9535  1.3226 -0.1179
 5448SOL    HW222307   6.874   8.918   3.869  0.4554 -1.5588 -0.9616
 5449SOL     OW22308   4.272   8.935   5.659 -0.0073 -0.5219  0.0573
 5449SOL    HW122309   4.189   8.908   5.698 -2.3166  0.0639 -3.8854
 5449SOL    HW222310   4.248   9.004   5.597  3.1883 -1.3452 -2.3566
 5450SOL     OW22311   8.943   3.793   9.248 -0.3225 -0.2800  0.0257
 5450SOL    HW122312   9.022   3.740   9.250 -0.6577 -0.7609  0.8898
 5450SOL    HW222313   8.937   3.831   9.335 -0.1092  1.1752 -0.5570
 5451SOL     OW22314   3.527   1.646   2.697  0.2038  0.0784 -0.0098
 5451SOL    HW122315   3.475   1.645   2.617  0.5531 -1.6798 -0.2399
 5451SOL    HW222316   3.545   1.739   2.712 -2.9650  0.7879  0.0752
 5452SOL     OW22317   1.615   8.998   7.300  0.2133  0.2441  0.0571
 5452SOL    HW122318   1.568   8.919   7.326  0.8399  0.1050  0.7908
 5452SOL    HW222319   1.550   9.050   7.253 -0.3540 -0.4590  0.0469
 5453SOL     OW22320   1.727   5.185   0.609 -0.3177 -0.1904 -0.1038
 5453SOL    HW122321   1.656   5.121   0.605 -0.0146 -0.5319 -0.0945
 5453SOL    HW222322   1.803   5.134   0.636 -0.4064  0.4704  1.5153
 5454SOL     OW22323   8.566   8.502   4.561 -0.0407 -0.3827 -0.2308
 5454SOL    HW122324   8.521   8.555   4.495  0.2237  1.0683  0.7289
 5454SOL    HW222325   8.496   8.471   4.619 -0.1237 -0.5923 -0.4404
 5455SOL     OW22326   1.034   6.839   8.386 -0.5540  0.0374  0.1885
 5455SOL    HW122327   1.027   6.922   8.339  1.5282  0.2212  0.0974
 5455SOL    HW222328   0.945   6.821   8.417 -0.7687  3.2646  1.8594
 5456SOL     OW22329   3.094   5.727   2.036  0.0051  0.8518  0.3782
 5456SOL    HW122330   3.071   5.675   1.959 -1.2489 -1.6358  2.2750
 5456SOL    HW222331   3.010   5.757   2.071  0.3484  0.1978  1.8521
 5457SOL     OW22332   4.606   4.676   3.984 -0.8868  0.2681  0.2599
 5457SOL    HW122333   4.560   4.609   4.034 -2.1962  2.1923  1.7302
 5457SOL    HW222334   4.693   4.638   3.969 -0.5809 -0.6112  3.5950
 5458SOL     OW22335   3.371   6.688   0.215 -0.3564  0.1036  0.0249
 5458SOL    HW122336   3.299   6.628   0.197 -0.5440  0.1544  0.5950
 5458SOL    HW222337   3.450   6.634   0.207 -0.6231 -1.0214  3.4718
 5459SOL     OW22338   1.185   4.701   2.195 -0.0811 -0.3973 -0.3591
 5459SOL    HW122339   1.235   4.747   2.127  1.1145 -1.3239 -0.1176
 5459SOL    HW222340   1.157   4.620   2.152 -3.1732  0.9371 -1.1691
 5460SOL     OW22341   3.552   1.601   8.833 -0.3519  0.1890 -0.3841
 5460SOL    HW122342   3.635   1.556   8.817 -1.0254 -1.6789  1.0495
 5460SOL    HW222343   3.572   1.663   8.903  0.1063  0.6141 -0.8860
 5461SOL     OW22344   7.532   2.145   0.617 -0.4000  0.1781 -0.0452
 5461SOL    HW122345   7.620   2.108   0.626 -0.7126 -0.8206 -1.0132
 5461SOL    HW222346   7.514   2.183   0.703  1.1234  0.7431  0.0529
 5462SOL     OW22347   3.582   1.610   6.781  0.4706 -0.0557  0.5864
 5462SOL    HW122348   3.586   1.616   6.876 -2.6345  0.3603  0.7995
 5462SOL    HW222349   3.672   1.625   6.751  1.2827  1.1158  3.3636
 5463SOL     OW22350   2.546   4.771   7.614 -0.4916 -0.0093  0.3176
 5463SOL    HW122351   2.642   4.774   7.618 -0.4832 -0.4332  0.4503
 5463SOL    HW222352   2.526   4.776   7.520 -0.2970 -1.0641  0.2113
 5464SOL     OW22353   3.393   5.350   9.044 -0.2290  0.1838  0.2354
 5464SOL    HW122354   3.413   5.256   9.046  0.5084  0.2955 -1.1750
 5464SOL    HW222355   3.332   5.362   9.117  0.2218 -1.2539  0.8973
 5465SOL     OW22356   3.354   4.871   0.319  0.4231 -0.1532  0.0120
 5465SOL    HW122357   3.385   4.879   0.410 -0.9234 -1.3488  0.6090
 5465SOL    HW222358   3.324   4.959   0.296  2.7788  0.7082 -0.0868
 5466SOL     OW22359   3.227   8.486   4.704  0.3823  0.6056 -0.0624
 5466SOL    HW122360   3.189   8.512   4.788  2.8581 -0.3014  1.4609
 5466SOL    HW222361   3.311   8.532   4.701  0.0669  1.1445 -2.4149
 5467SOL     OW22362   5.681   7.367   7.532 -0.7391 -0.0910  0.4193
 5467SOL    HW122363   5.646   7.345   7.446 -0.5714  1.9550 -0.2445
 5467SOL    HW222364   5.695   7.462   7.528  1.8530 -0.3153  1.7425
 5468SOL     OW22365   2.454   7.042   0.793 -0.1447 -0.3942 -0.3286
 5468SOL    HW122366   2.544   7.016   0.773 -0.1424 -0.6120 -0.0423
 5468SOL    HW222367   2.425   6.979   0.858 -0.4697 -0.2577 -0.3397
 5469SOL     OW22368   0.645   3.784   9.157  0.3416  0.0909  0.3114
 5469SOL    HW122369   0.641   3.799   9.062  1.1054  1.1766  0.4274
 5469SOL    HW222370   0.568   3.830   9.191  1.2228  1.5896  0.3964
 5470SOL     OW22371   0.428   1.527   3.575 -0.4102  0.2169  0.4347
 5470SOL    HW122372   0.362   1.465   3.544  0.9081 -0.7895 -0.4720
 5470SOL    HW222373   0.379   1.589   3.630 -2.2723  0.1218 -1.0103
 5471SOL     OW22374   5.978   8.758   3.443 -0.3642 -0.3145 -0.3133
 5471SOL    HW122375   5.901   8.777   3.497 -0.7110  0.8801 -1.1775
 5471SOL    HW222376   5.972   8.821   3.370  2.4912  1.2141  0.6286
 5472SOL     OW22377   3.205   6.383   0.455  0.3891 -0.1314  0.0396
 5472SOL    HW122378   3.241   6.367   0.368 -1.1455 -0.9167 -0.4995
 5472SOL    HW222379   3.243   6.314   0.509  0.6962 -0.1558 -0.2033
 5473SOL     OW22380   7.422   6.515   4.652 -0.3393  0.0097 -0.0345
 5473SOL    HW122381   7.512   6.548   4.651  0.1860 -1.3611  0.0032
 5473SOL    HW222382   7.371   6.588   4.687  0.7953  0.7221  0.2181
 5474SOL     OW22383   8.853   3.176   3.802  0.9992 -0.0409 -0.1282
 5474SOL    HW122384   8.934   3.170   3.752  1.4627  0.1345  0.5893
 5474SOL    HW222385   8.853   3.097   3.856  1.2310  0.4829  0.6558
 5475SOL     OW22386   1.260   7.440   8.215  0.0403 -0.3891 -0.1566
 5475SOL    HW122387   1.331   7.499   8.191 -1.1960  1.9245  1.5465
 5475SOL    HW222388   1.226   7.408   8.131  2.6461 -1.1530 -1.0275
 5476SOL     OW22389   0.919   7.764   1.882 -0.1933  0.4357 -0.1946
 5476SOL    HW122390   0.866   7.832   1.923 -1.0511  0.4286 -1.2648
 5476SOL    HW222391   0.956   7.805   1.805  1.0091  0.2979  0.2818
 5477SOL     OW22392   4.291   2.351   7.504  0.4039 -0.0228 -0.9854
 5477SOL    HW122393   4.207   2.388   7.532 -0.6973 -1.1764 -2.5828
 5477SOL    HW222394   4.356   2.416   7.532 -1.1718  1.8285 -1.3662
 5478SOL     OW22395   1.574   3.708   6.170  0.1971 -0.7202 -0.5976
 5478SOL    HW122396   1.607   3.640   6.112  0.2925  0.6778 -2.2413
 5478SOL    HW222397   1.543   3.660   6.247  1.0452 -2.5295 -1.3246
 5479SOL     OW22398   3.291   6.477   9.088 -0.3287 -0.4364  0.5640
 5479SOL    HW122399   3.198   6.492   9.072  0.2725  1.6728 -1.4274
 5479SOL    HW222400   3.331   6.476   9.001  1.6225 -0.3754  1.4048
 5480SOL     OW22401   1.393   7.111   4.425  0.0174 -0.1248 -0.8387
 5480SOL    HW122402   1.392   7.147   4.336 -4.4090 -2.5848 -2.0507
 5480SOL    HW222403   1.301   7.102   4.449  0.9559 -3.0055  2.5195
 5481SOL     OW22404   4.686   0.636   8.538 -0.1069  0.2164  0.1958
 5481SOL    HW122405   4.765   0.615   8.488  0.4566  0.9920  0.7283
 5481SOL    HW222406   4.627   0.676   8.475  0.6048  1.2043  0.1363
 5482SOL     OW22407   5.641   2.184   6.966  0.4958  0.0792  0.0694
 5482SOL    HW122408   5.688   2.104   6.943  1.7339  0.4805  1.0872
 5482SOL    HW222409   5.548   2.161   6.958  0.7740 -1.8857  1.6270
 5483SOL     OW22410   7.070   8.367   2.190 -0.0007 -0.1705  0.0235
 5483SOL    HW122411   6.982   8.348   2.223  0.1702 -2.1060 -0.4980
 5483SOL    HW222412   7.128   8.325   2.253  0.6542  1.9976  0.9574
 5484SOL     OW22413   2.585   9.244   6.247  0.3501  0.3991 -0.4100
 5484SOL    HW122414   2.557   9.162   6.206 -2.7578  0.7414  0.7590
 5484SOL    HW222415   2.540   9.312   6.197  0.7543  1.1856  0.2774
 5485SOL     OW22416   3.976   5.565   0.124 -0.1147  0.0069 -0.4415
 5485SOL    HW122417   3.958   5.554   0.218 -1.7207  3.7305 -0.1476
 5485SOL    HW222418   4.070   5.548   0.116  0.2063  0.1810  1.9714
 5486SOL     OW22419   8.457   5.826   7.707  0.1813 -0.1004 -0.3267
 5486SOL    HW122420   8.393   5.835   7.636  0.9767 -0.8098 -1.1490
 5486SOL    HW222421   8.506   5.747   7.685  1.3080  0.4047  0.3305
 5487SOL     OW22422   6.375   1.312   1.544  0.3411  0.0466 -0.2776
 5487SOL    HW122423   6.382   1.256   1.621 -0.4934 -0.1892 -0.3641
 5487SOL    HW222424   6.395   1.255   1.470 -0.1068 -0.0399 -0.3335
 5488SOL     OW22425   7.818   7.964   2.558  0.0982 -0.0211 -0.0655
 5488SOL    HW122426   7.764   8.017   2.499  0.8118  0.2082 -0.5178
 5488SOL    HW222427   7.801   7.874   2.530 -0.6197 -0.0014  0.2852
 5489SOL     OW22428   0.487   4.329   6.204  0.4943  0.0826 -0.4806
 5489SOL    HW122429   0.438   4.298   6.128 -2.4114  0.2070  1.2042
 5489SOL    HW222430   0.429   4.314   6.278  3.6134 -1.1044  1.9704
 5490SOL     OW22431   8.919   3.496   3.195 -0.2021 -0.0451  0.5752
 5490SOL    HW122432   8.881   3.409   3.193  0.7147 -0.5263  2.1516
 5490SOL    HW222433   8.997   3.491   3.139 -0.5062 -0.0522  0.1530
 5491SOL     OW22434   3.864   4.796   8.808  0.4681 -0.7745 -0.1636
 5491SOL    HW122435   3.913   4.724   8.848 -1.3340 -1.9173  0.0986
 5491SOL    HW222436   3.788   4.807   8.865  0.2687  0.7834 -0.6856
 5492SOL     OW22437   4.741   4.289   4.914 -0.0269 -0.0242 -0.2633
 5492SOL    HW122438   4.788   4.302   4.996 -0.4734 -1.1615  0.1895
 5492SOL    HW222439   4.777   4.208   4.878  1.0510  1.0991 -1.8421
 5493SOL     OW22440   5.696   8.778   6.869  0.7480  0.3620 -0.3422
 5493SOL    HW122441   5.772   8.832   6.885  1.2672 -0.6312  0.7563
 5493SOL    HW222442   5.726   8.711   6.807  0.9769 -0.3831  0.5417
 5494SOL     OW22443   6.935   1.389   2.531 -0.2396  0.0663  0.1149
 5494SOL    HW122444   6.961   1.297   2.538 -0.0144  0.1153 -0.0749
 5494SOL    HW222445   6.989   1.435   2.595  0.6884  0.2789 -0.7958
 5495SOL     OW22446   3.214   0.724   8.460  0.0831 -0.9133 -0.5998
 5495SOL    HW122447   3.304   0.746   8.484 -0.0863 -0.3666 -0.4536
 5495SOL    HW222448   3.211   0.628   8.466  0.8053 -0.9839 -1.1540
 5496SOL     OW22449   9.020   8.023   0.643  0.2270 -0.6190 -0.2289
 5496SOL    HW122450   9.024   8.046   0.550 -3.2750  0.3754 -0.2697
 5496SOL    HW222451   9.018   8.107   0.688 -1.8188 -0.9603  0.4184
 5497SOL     OW22452   8.656   4.077   6.168 -0.0633  0.6049  0.6763
 5497SOL    HW122453   8.666   4.147   6.104  1.5380 -0.2230 -0.0252
 5497SOL    HW222454   8.684   3.998   6.122  1.0780 -0.0302  2.3681
 5498SOL     OW22455   5.193   0.324   6.910 -0.0571 -0.3106 -0.1061
 5498SOL    HW122456   5.176   0.403   6.859 -3.2856 -0.7266  0.1539
 5498SOL    HW222457   5.239   0.356   6.988 -1.9277  1.4971  0.3572
 5499SOL     OW22458   3.547   2.441   4.349  0.1658 -0.1329 -0.1489
 5499SOL    HW122459   3.512   2.469   4.265 -1.2362 -1.9066 -0.2203
 5499SOL    HW222460   3.573   2.350   4.335 -0.7707 -0.6966  1.5034
 5500SOL     OW22461   5.220   6.862   6.679  0.9290 -0.2918  0.1657
 5500SOL    HW122462   5.281   6.869   6.605  0.6902 -1.2224 -0.1330
 5500SOL    HW222463   5.245   6.934   6.737  0.6668  0.9139 -1.1474
 5501SOL     OW22464   8.908   7.531   9.207  0.5915 -0.4603 -0.3855
 5501SOL    HW122465   8.840   7.598   9.202  0.5936 -0.2890  1.4422
 5501SOL    HW222466   8.861   7.449   9.187 -0.1500 -0.3316  0.7577
 5502SOL     OW22467   4.773   6.251   9.058 -0.0819 -0.6524  0.4133
 5502SOL    HW122468   4.776   6.235   9.152  0.1458 -1.1547  0.3232
 5502SOL    HW222469   4.686   6.289   9.043 -0.5348 -1.5617  0.6784
 5503SOL     OW22470   8.896   8.327   1.783  0.2918  0.1792 -0.2811
 5503SOL    HW122471   8.832   8.341   1.714  0.2495  1.1317 -0.0558
 5503SOL    HW222472   8.845   8.295   1.857  0.1316  0.5647 -0.2246
 5504SOL     OW22473   4.452   7.619   7.297 -0.2865  0.0198  0.2394
 5504SOL    HW122474   4.412   7.607   7.383 -0.5658 -1.6245 -0.0845
 5504SOL    HW222475   4.485   7.532   7.274 -0.6145  0.3283 -1.5020
 5505SOL     OW22476   6.509   2.930   1.881 -0.2205 -0.0043 -0.4656
 5505SOL    HW122477   6.521   2.864   1.812  0.0173 -0.9717  0.4676
 5505SOL    HW222478   6.584   2.916   1.939 -0.4069  0.8113 -0.0255
 5506SOL     OW22479   4.334   2.954   4.740  0.0619  0.4382 -0.6480
 5506SOL    HW122480   4.392   2.935   4.814 -2.1622  0.7078  1.2546
 5506SOL    HW222481   4.345   2.879   4.682  1.0220 -0.3289  0.4750
 5507SOL     OW22482   7.482   2.337   2.067 -0.7192  0.2896  0.3780
 5507SOL    HW122483   7.566   2.384   2.065  1.2118 -2.8842  0.1075
 5507SOL    HW222484   7.445   2.349   1.980  0.5627 -0.0217 -0.2366
 5508SOL     OW22485   3.045   1.860   3.980 -0.1226  0.1943 -0.3758
 5508SOL    HW122486   3.121   1.894   3.934  0.1840 -0.3629 -0.2980
 5508SOL    HW222487   3.014   1.932   4.034  1.7086 -0.1921  1.3390
 5509SOL     OW22488   1.076   1.178   8.456 -0.7163  0.7510  0.1406
 5509SOL    HW122489   1.133   1.255   8.456 -0.2048  0.3802  0.8543
 5509SOL    HW222490   1.057   1.162   8.364  1.2695  0.2060 -0.2060
 5510SOL     OW22491   2.668   6.137   3.157 -0.8302 -0.3179  0.2729
 5510SOL    HW122492   2.738   6.202   3.171 -2.2792  1.4148 -0.0628
 5510SOL    HW222493   2.714   6.056   3.136  1.0998  1.1812 -1.8388
 5511SOL     OW22494   1.515   5.603   7.891 -0.3387 -0.1380  0.5743
 5511SOL    HW122495   1.524   5.573   7.801  0.2579  0.6241  0.3681
 5511SOL    HW222496   1.523   5.523   7.943  0.0524 -0.4972 -0.0168
 5512SOL     OW22497   7.762   6.434   6.434 -0.0592 -0.2587  0.2392
 5512SOL    HW122498   7.742   6.474   6.519  1.4610 -1.0721  1.0241
 5512SOL    HW222499   7.844   6.475   6.406  0.9428 -1.9644  0.5357
 5513SOL     OW22500   7.322   0.583   6.665 -0.1133  0.5080  0.7620
 5513SOL    HW122501   7.369   0.598   6.747 -0.0076  0.9273  0.6267
 5513SOL    HW222502   7.382   0.532   6.611  0.3349  1.3661  0.4455
 5514SOL     OW22503   8.172   0.512   8.859 -0.3281 -0.0097  0.3473
 5514SOL    HW122504   8.179   0.559   8.942  0.9339 -0.3965  0.4807
 5514SOL    HW222505   8.238   0.552   8.802 -0.0261 -0.8451  0.0889
 5515SOL     OW22506   1.788   8.332   3.799  0.2458  0.1489 -0.3145
 5515SOL    HW122507   1.767   8.284   3.880  2.8054  0.0260  0.3417
 5515SOL    HW222508   1.766   8.271   3.729 -2.1806  0.3155  0.1967
 5516SOL     OW22509   5.128   6.420   5.925  0.2067  0.2759  0.3438
 5516SOL    HW122510   5.072   6.496   5.912  0.3831  0.2817 -0.4329
 5516SOL    HW222511   5.156   6.395   5.837  0.9384 -0.0933  0.6692
 5517SOL     OW22512   9.143   0.567   5.026  0.2768 -0.7820 -0.5689
 5517SOL    HW122513   9.155   0.588   4.933 -1.1649  1.9589 -0.2318
 5517SOL    HW222514   9.183   0.641   5.072 -1.3320 -0.7780  0.8934
 5518SOL     OW22515   4.068   0.445   6.272  0.2739  0.0521 -0.2506
 5518SOL    HW122516   4.128   0.484   6.335  0.8601  0.1912 -0.8773
 5518SOL    HW222517   4.092   0.352   6.270 -0.0136 -0.0311  0.0191
 5519SOL     OW22518   3.391   4.626   5.445  0.0484 -0.1563 -0.1934
 5519SOL    HW122519   3.373   4.717   5.420 -1.4844 -0.3716  0.0516
 5519SOL    HW222520   3.373   4.576   5.366  1.9511 -0.1772 -0.6607
 5520SOL     OW22521   5.565   9.317   7.543 -0.8129 -0.1794  0.0111
 5520SOL    HW122522   5.487   9.299   7.594 -1.8040  0.4055 -1.2533
 5520SOL    HW222523   5.561   9.410   7.523  1.2236  0.3206  1.5067
 5521SOL     OW22524   9.121   2.103   0.210 -0.0995 -0.0150  0.1961
 5521SOL    HW122525   9.130   2.165   0.281 -2.6871 -1.8991  2.3985
 5521SOL    HW222526   9.208   2.064   0.199  0.4187  0.5297  2.1511
 5522SOL     OW22527   1.051   5.378   4.146 -0.0583  0.1905 -0.5302
 5522SOL    HW122528   0.965   5.356   4.113  0.0604  0.8414 -1.3020
 5522SOL    HW222529   1.105   5.302   4.126 -0.1710  0.2677 -1.1478
 5523SOL     OW22530   2.622   3.442   7.218 -0.5938 -0.1287 -0.1159
 5523SOL    HW122531   2.574   3.437   7.301  0.5794  0.2277  0.6168
 5523SOL    HW222532   2.560   3.481   7.156 -1.3266  0.0859  0.7391
 5524SOL     OW22533   9.055   0.281   8.917 -0.0573 -0.5818 -0.3920
 5524SOL    HW122534   9.013   0.304   8.834  0.1939  1.0237 -0.1267
 5524SOL    HW222535   9.020   0.344   8.980  1.1071 -0.5859  0.3011
 5525SOL     OW22536   6.605   3.101   4.476 -0.0185 -0.3705 -0.4055
 5525SOL    HW122537   6.539   3.145   4.530  0.1121  0.0748 -0.6122
 5525SOL    HW222538   6.601   3.009   4.505 -0.7699 -0.3603 -0.4543
 5526SOL     OW22539   4.833   1.043   4.868  0.1433  0.2084 -0.3619
 5526SOL    HW122540   4.909   1.094   4.838  0.6173  0.9000  1.8526
 5526SOL    HW222541   4.764   1.066   4.806  0.7802  2.3522 -0.3741
 5527SOL     OW22542   6.343   5.100   7.241 -0.6823 -0.0446  0.2528
 5527SOL    HW122543   6.303   5.179   7.205 -1.5723  0.4161  2.0890
 5527SOL    HW222544   6.352   5.041   7.167  1.2966  2.2464 -1.4963
 5528SOL     OW22545   4.686   3.348   2.123 -0.0644  0.5926  0.1317
 5528SOL    HW122546   4.687   3.435   2.083 -0.4379 -0.2443 -1.8116
 5528SOL    HW222547   4.596   3.318   2.113  0.0220  0.0304  0.9432
 5529SOL     OW22548   9.008   2.708   5.439  0.3239 -0.0078 -0.1449
 5529SOL    HW122549   8.942   2.706   5.369 -0.1590 -1.5308  0.3364
 5529SOL    HW222550   9.011   2.800   5.466 -1.2771  0.1704 -0.4911
 5530SOL     OW22551   0.481   9.365   0.277  0.4507  0.1724  0.2900
 5530SOL    HW122552   0.517   9.320   0.201 -0.0066 -0.5515  0.4856
 5530SOL    HW222553   0.387   9.364   0.263  0.3573 -0.0611  0.9101
 5531SOL     OW22554   5.026   5.221   7.652 -0.2860 -0.0343  0.4524
 5531SOL    HW122555   5.037   5.133   7.689  0.7900 -0.0035  0.2394
 5531SOL    HW222556   5.101   5.231   7.593  0.3253  1.5369  1.4643
 5532SOL     OW22557   1.149   2.476   4.968  0.1585 -0.5894 -0.1237
 5532SOL    HW122558   1.199   2.529   4.907 -1.2982  1.1195  0.0609
 5532SOL    HW222559   1.213   2.445   5.032  1.3645 -0.7056 -1.3556
 5533SOL     OW22560   8.690   1.883   7.976 -0.2302  0.8494  0.1541
 5533SOL    HW122561   8.695   1.934   7.895  0.0347  0.7878  0.1315
 5533SOL    HW222562   8.781   1.866   8.000 -0.2694 -1.5647 -1.0633
 5534SOL     OW22563   1.461   7.629   2.413  0.2172 -0.6844 -0.1101
 5534SOL    HW122564   1.428   7.719   2.419  1.3945 -0.3416  1.8332
 5534SOL    HW222565   1.532   7.634   2.349 -0.0345 -0.3582 -0.3729
 5535SOL     OW22566   3.066   3.756   9.332 -0.0403 -0.3550 -0.5576
 5535SOL    HW122567   3.107   3.711   9.406 -1.1800 -1.5598 -0.6338
 5535SOL    HW222568   3.095   3.847   9.341  0.2331 -0.5701  1.0807
 5536SOL     OW22569   5.556   8.224   0.435  0.7603 -0.7611 -0.2373
 5536SOL    HW122570   5.562   8.239   0.529  1.2744  1.3461 -0.5621
 5536SOL    HW222571   5.464   8.206   0.419 -0.1672  2.8963  0.2117
 5537SOL     OW22572   1.602   5.371   8.012 -0.2189  0.3549  0.0941
 5537SOL    HW122573   1.687   5.391   8.051  0.3184 -2.6431  0.7007
 5537SOL    HW222574   1.546   5.347   8.085 -0.0175 -2.6177 -0.5980
 5538SOL     OW22575   6.044   1.069   3.259 -0.2828  0.5524 -0.5387
 5538SOL    HW122576   6.008   1.156   3.276  1.0239  0.9294  0.5528
 5538SOL    HW222577   6.110   1.057   3.328  0.0554 -1.0145 -1.0892
 5539SOL     OW22578   6.613   6.410   1.573  0.4173 -1.1381 -0.7386
 5539SOL    HW122579   6.596   6.445   1.485 -1.3302 -1.5255 -0.5813
 5539SOL    HW222580   6.626   6.488   1.627 -2.7628 -0.6077 -0.5286
 5540SOL     OW22581   1.963   1.121   8.063  0.1129 -0.3127  0.8106
 5540SOL    HW122582   1.870   1.097   8.060  0.2768 -1.0672  1.4473
 5540SOL    HW222583   1.964   1.207   8.104 -0.4840  0.8413 -1.4184
 5541SOL     OW22584   0.177   3.514   8.539 -0.0178  0.5359 -0.3112
 5541SOL    HW122585   0.178   3.565   8.458  2.8361  1.0069 -0.0995
 5541SOL    HW222586   0.124   3.437   8.518  1.9954 -0.2228 -3.2972
 5542SOL     OW22587   4.667   6.834   0.006 -0.0739  0.0629 -0.1661
 5542SOL    HW122588   4.757   6.839   0.038 -0.0866  0.3784 -0.1734
 5542SOL    HW222589   4.673   6.854  -0.088  0.0922 -1.8826 -0.6079
 5543SOL     OW22590   7.534   6.364   3.665  0.5403 -0.2530 -0.7816
 5543SOL    HW122591   7.627   6.382   3.673  0.6786 -1.5167  1.1543
 5543SOL    HW222592   7.520   6.285   3.717 -0.9339 -2.5054 -4.2139
 5544SOL     OW22593   4.340   6.567   2.588  0.3604 -0.2454  0.4765
 5544SOL    HW122594   4.378   6.554   2.675  0.0708  1.9028  0.9787
 5544SOL    HW222595   4.246   6.576   2.604  0.1198 -1.2245 -0.2555
 5545SOL     OW22596   4.411   3.454   5.796 -0.1065  0.4765  0.0010
 5545SOL    HW122597   4.472   3.427   5.728 -0.0691  0.0234  0.2119
 5545SOL    HW222598   4.467   3.481   5.869 -0.1489 -0.3625  0.3601
 5546SOL     OW22599   7.522   3.190   1.765 -0.4727 -0.0403 -0.2811
 5546SOL    HW122600   7.612   3.206   1.791  0.0803 -1.0101 -1.5113
 5546SOL    HW222601   7.477   3.273   1.782  1.2755  1.4198 -2.2402
 5547SOL     OW22602   5.703   5.934   3.649  0.1794  0.0223  0.4432
 5547SOL    HW122603   5.670   5.852   3.685 -0.1285 -0.6773 -1.3354
 5547SOL    HW222604   5.744   5.978   3.723 -1.2640 -0.8863  1.8436
 5548SOL     OW22605   0.408   1.144   3.629 -0.0038 -0.1819  0.0816
 5548SOL    HW122606   0.479   1.082   3.615 -0.7511 -1.6310  2.0832
 5548SOL    HW222607   0.433   1.192   3.708 -0.8503 -0.1537  0.3480
 5549SOL     OW22608   6.349   0.928   2.575  0.0326  0.5676 -0.3807
 5549SOL    HW122609   6.350   0.916   2.670 -1.3348  0.5436 -0.3493
 5549SOL    HW222610   6.285   0.998   2.561  1.1977  1.5030 -1.2021
 5550SOL     OW22611   8.257   8.397   5.698  0.1047 -0.9097  0.1071
 5550SOL    HW122612   8.238   8.485   5.664  1.0162 -0.9620 -0.5777
 5550SOL    HW222613   8.217   8.338   5.634 -2.3553 -1.0438  1.6361
 5551SOL     OW22614   0.651   0.179   8.971  0.0047  0.1947 -0.0909
 5551SOL    HW122615   0.597   0.134   9.036 -0.2197  1.4988  0.6624
 5551SOL    HW222616   0.637   0.272   8.989 -0.1082  0.6010 -2.0624
 5552SOL     OW22617   6.508   6.443   3.344 -0.4749 -0.3383  0.4875
 5552SOL    HW122618   6.570   6.412   3.278 -0.6601 -0.2172  0.2566
 5552SOL    HW222619   6.535   6.533   3.361 -1.5448  0.2520 -0.7729
 5553SOL     OW22620   9.139   8.735   8.865 -0.2136  0.5762 -0.0616
 5553SOL    HW122621   9.085   8.683   8.806 -0.1970 -0.2340  0.6113
 5553SOL    HW222622   9.079   8.800   8.901 -0.9161 -0.6707  1.1094
 5554SOL     OW22623   7.072   1.084   0.474 -0.1175  0.7942 -0.6248
 5554SOL    HW122624   7.066   1.172   0.512  1.6587  0.8546 -0.4049
 5554SOL    HW222625   7.161   1.078   0.441 -0.7257 -0.3270 -2.2101
 5555SOL     OW22626   2.512   6.153   4.937 -0.4572 -0.4562 -0.1783
 5555SOL    HW122627   2.478   6.102   4.864 -2.2548  1.1667 -0.5428
 5555SOL    HW222628   2.474   6.113   5.015  1.1771 -1.9629 -0.0826
 5556SOL     OW22629   5.995   6.640   3.423 -0.0695 -0.7805  0.3302
 5556SOL    HW122630   6.065   6.576   3.410  1.5787  1.2485 -1.6864
 5556SOL    HW222631   5.927   6.615   3.360  0.1671 -1.0191  0.1690
 5557SOL     OW22632   0.739   5.070   1.523  0.3364  0.5844 -0.2983
 5557SOL    HW122633   0.766   5.001   1.462  0.2442 -1.6081  1.9572
 5557SOL    HW222634   0.645   5.080   1.506  0.3550  0.1810 -0.6843
 5558SOL     OW22635   6.770   1.319   5.711 -0.1849  0.3390 -0.2460
 5558SOL    HW122636   6.769   1.369   5.629  0.1555  0.6219 -0.0830
 5558SOL    HW222637   6.848   1.263   5.704  0.6661  1.3992  0.4858
 5559SOL     OW22638   4.627   5.274   4.082 -0.4432 -0.0283  0.1870
 5559SOL    HW122639   4.571   5.348   4.059 -2.2816 -1.1514  0.8720
 5559SOL    HW222640   4.582   5.230   4.154  0.5955 -1.8107 -0.1804
 5560SOL     OW22641   1.985   3.038   0.310  0.4752  0.1469 -0.6966
 5560SOL    HW122642   2.058   3.100   0.313  1.6151 -1.0578 -2.1018
 5560SOL    HW222643   1.950   3.047   0.222  0.3726 -0.8785 -0.7683
 5561SOL     OW22644   0.369   0.863   5.329 -0.3431 -0.6954 -0.0089
 5561SOL    HW122645   0.286   0.903   5.306 -0.0164 -0.1461 -0.2567
 5561SOL    HW222646   0.402   0.916   5.401  0.4800  0.0135 -0.8768
 5562SOL     OW22647   3.457   5.793   3.987  0.0590 -0.4654 -0.2100
 5562SOL    HW122648   3.485   5.784   4.078 -2.5300  1.7588  0.9638
 5562SOL    HW222649   3.381   5.735   3.980  1.2357 -1.9285 -1.5430
 5563SOL     OW22650   0.587   0.739   3.186 -0.5131 -0.2024 -0.4075
 5563SOL    HW122651   0.535   0.820   3.178 -2.4612 -1.5735 -4.3438
 5563SOL    HW222652   0.665   0.766   3.234 -1.9549  3.5292  0.2370
 5564SOL     OW22653   4.017   4.268   5.143 -0.3630  0.1536  0.6133
 5564SOL    HW122654   4.020   4.226   5.057  1.6393  0.5365  0.4340
 5564SOL    HW222655   4.007   4.361   5.123  2.3709  0.5301  0.5957
 5565SOL     OW22656   3.341   1.008   4.535 -0.5987  0.7989  0.5174
 5565SOL    HW122657   3.326   1.084   4.592  1.7806 -0.6166  3.2941
 5565SOL    HW222658   3.268   0.949   4.556 -1.0523  1.2553  0.2540
 5566SOL     OW22659   8.922   8.586   8.768  0.1158 -0.0023  0.4968
 5566SOL    HW122660   8.862   8.519   8.801  0.0736 -0.0770  0.2672
 5566SOL    HW222661   8.943   8.558   8.679 -1.3183  1.2133 -0.2738
 5567SOL     OW22662   8.745   1.090   7.647  0.1682 -0.6162 -0.2381
 5567SOL    HW122663   8.728   1.121   7.736 -0.8611  0.4265 -0.7669
 5567SOL    HW222664   8.715   0.999   7.647 -0.2842 -0.4744  0.3652
 5568SOL     OW22665   5.072   4.438   0.946  0.5289  0.9564 -0.0614
 5568SOL    HW122666   5.152   4.454   0.994 -0.0823  1.3838  0.8454
 5568SOL    HW222667   5.013   4.398   1.010 -1.0760  3.5938  0.2547
 5569SOL     OW22668   3.279   1.338   5.494 -0.5944  0.2194  0.3636
 5569SOL    HW122669   3.269   1.430   5.470 -4.1677 -0.7529 -3.0631
 5569SOL    HW222670   3.317   1.297   5.416 -1.2908 -1.5020  0.8848
 5570SOL     OW22671   2.718   5.706   8.843 -0.2749 -0.3154 -0.5128
 5570SOL    HW122672   2.655   5.667   8.781  0.7198 -0.0492 -1.7460
 5570SOL    HW222673   2.690   5.797   8.851 -0.7065 -0.4750 -0.1628
 5571SOL     OW22674   3.466   8.559   6.227 -0.2493  0.4337 -0.0781
 5571SOL    HW122675   3.381   8.599   6.240 -0.6649  0.2722 -2.0190
 5571SOL    HW222676   3.520   8.628   6.189 -0.0421  0.0545 -0.4906
 5572SOL     OW22677   2.441   5.550   0.985 -0.4544  0.1411  0.8013
 5572SOL    HW122678   2.349   5.565   0.966 -0.0559  1.3130 -0.2875
 5572SOL    HW222679   2.462   5.469   0.938 -0.9479 -0.2425  1.2150
 5573SOL     OW22680   0.550   2.690   4.010 -0.5919  0.4808 -0.3349
 5573SOL    HW122681   0.619   2.719   4.069  1.6167 -0.8598 -2.0747
 5573SOL    HW222682   0.475   2.744   4.032  0.6401  1.2172  2.4521
 5574SOL     OW22683   3.262   1.185   8.123 -0.0302 -0.5310  0.4126
 5574SOL    HW122684   3.327   1.145   8.066  0.5167  0.8028  0.0655
 5574SOL    HW222685   3.218   1.111   8.165  0.9583 -1.4794 -0.1735
 5575SOL     OW22686   7.155   0.819   9.274  0.1366 -0.6744 -0.1504
 5575SOL    HW122687   7.185   0.736   9.311 -0.4570 -0.2486  1.3824
 5575SOL    HW222688   7.078   0.843   9.327  0.1037  0.6819 -0.7545
 5576SOL     OW22689   5.143   4.093   1.565 -0.3859 -0.3458  0.1169
 5576SOL    HW122690   5.224   4.068   1.520 -0.5342  1.2828 -1.1572
 5576SOL    HW222691   5.080   4.026   1.539 -0.8076  1.1560 -3.2837
 5577SOL     OW22692   3.783   3.562   2.758  0.1244  0.2835  0.3418
 5577SOL    HW122693   3.791   3.573   2.663  1.1310  0.5453  0.4498
 5577SOL    HW222694   3.706   3.614   2.782  0.3863  0.9246 -0.2018
 5578SOL     OW22695   1.639   3.188   7.263 -0.7098 -0.5491  0.1594
 5578SOL    HW122696   1.666   3.106   7.221  0.2194  1.1540 -2.8633
 5578SOL    HW222697   1.545   3.195   7.242 -0.6515 -0.5594 -0.1113
 5579SOL     OW22698   4.249   6.245   1.585 -0.0779 -0.2167 -0.2636
 5579SOL    HW122699   4.189   6.265   1.513 -0.0964  1.9788  0.2692
 5579SOL    HW222700   4.336   6.267   1.550  0.0400 -0.2212  0.0233
 5580SOL     OW22701   0.675   7.809   0.787 -0.5052  0.2390  0.3321
 5580SOL    HW122702   0.662   7.740   0.722 -2.1060  1.3638 -0.5923
 5580SOL    HW222703   0.594   7.810   0.838 -0.8530  1.9657 -0.2022
 5581SOL     OW22704   0.232   4.609   1.796 -0.0869 -0.0240  0.4218
 5581SOL    HW122705   0.240   4.586   1.703 -0.0373  1.6424 -0.0221
 5581SOL    HW222706   0.138   4.623   1.809  0.1828  4.0980 -0.6076
 5582SOL     OW22707   3.842   7.245   7.841 -0.1152 -0.2015  0.6971
 5582SOL    HW122708   3.912   7.219   7.901 -2.4838 -2.0712  2.9114
 5582SOL    HW222709   3.818   7.163   7.797 -0.2606  0.6175 -0.7866
 5583SOL     OW22710   7.274   5.430   7.251 -0.0550  0.6342  0.1123
 5583SOL    HW122711   7.346   5.471   7.203  0.2788  1.1674  1.0468
 5583SOL    HW222712   7.308   5.344   7.276 -0.9219 -0.5010 -2.2627
 5584SOL     OW22713   7.498   3.231   8.715  0.0762  0.2965 -0.1287
 5584SOL    HW122714   7.450   3.164   8.667 -0.2413  0.6911 -0.3689
 5584SOL    HW222715   7.449   3.312   8.699 -0.2514  0.3725  1.1564
 5585SOL     OW22716   0.572   7.119   2.450  0.0838 -0.5716  0.2253
 5585SOL    HW122717   0.545   7.035   2.412  2.9777 -1.7402  0.5148
 5585SOL    HW222718   0.596   7.172   2.374 -0.2501 -0.5440  0.1332
 5586SOL     OW22719   2.476   8.910   6.478 -0.2870  0.5766  0.6895
 5586SOL    HW122720   2.570   8.903   6.494 -0.4241 -2.1025  0.7323
 5586SOL    HW222721   2.454   8.830   6.431 -2.3262  1.8395 -0.6819
 5587SOL     OW22722   0.603   7.114   5.463 -0.6192  0.4887 -0.3357
 5587SOL    HW122723   0.643   7.160   5.537 -0.4470 -0.0974 -0.0547
 5587SOL    HW222724   0.669   7.116   5.394 -1.8492  3.6670 -1.6030
 5588SOL     OW22725   7.692   5.525   8.853 -0.4742 -0.3191  0.1712
 5588SOL    HW122726   7.616   5.539   8.910 -1.5352 -1.1067 -0.9656
 5588SOL    HW222727   7.723   5.613   8.831 -3.4901  0.3099 -2.3811
 5589SOL     OW22728   8.222   8.658   5.548 -0.2430 -0.0998 -0.6235
 5589SOL    HW122729   8.200   8.748   5.572 -0.8327 -0.4314  0.1375
 5589SOL    HW222730   8.215   8.655   5.453 -1.2211  0.4071 -0.5749
 5590SOL     OW22731   4.045   4.716   1.170  0.2520  0.4390 -0.6487
 5590SOL    HW122732   4.116   4.741   1.229 -0.5045 -0.5345  0.7501
 5590SOL    HW222733   3.974   4.691   1.229 -0.6356 -0.3052 -1.9939
 5591SOL     OW22734   1.798   7.560   4.457  0.2530 -0.6185  0.3381
 5591SOL    HW122735   1.801   7.520   4.544  1.8494  0.7364  0.9458
 5591SOL    HW222736   1.712   7.601   4.453  0.9001  1.0660  2.1446
 5592SOL     OW22737   8.526   5.939   5.241 -0.5908 -0.8593 -0.0156
 5592SOL    HW122738   8.555   5.859   5.197  1.7292  0.5821 -1.2988
 5592SOL    HW222739   8.451   5.968   5.189  1.2561  0.0584 -2.3708
 5593SOL     OW22740   3.206   4.798   0.819 -0.2357  0.3416  0.7020
 5593SOL    HW122741   3.252   4.783   0.736 -0.1834  0.1563  0.7622
 5593SOL    HW222742   3.118   4.762   0.804  0.4446 -1.7816  1.4466
 5594SOL     OW22743   8.589   8.759   2.174  0.3837 -0.1214  0.3707
 5594SOL    HW122744   8.618   8.730   2.088 -0.2551 -0.3815  0.2327
 5594SOL    HW222745   8.525   8.828   2.155  0.1097 -0.3021  0.6272
 5595SOL     OW22746   8.568   7.404   6.402 -0.1168  0.1140 -0.4667
 5595SOL    HW122747   8.580   7.316   6.439  0.1158 -0.1516 -1.1538
 5595SOL    HW222748   8.596   7.395   6.311 -3.4757  0.0028 -1.6256
 5596SOL     OW22749   0.405   7.481   3.533 -0.0286  0.0416 -0.0113
 5596SOL    HW122750   0.323   7.481   3.583  1.2126  1.5320  2.2068
 5596SOL    HW222751   0.382   7.522   3.450 -1.8818 -1.2095 -0.1878
 5597SOL     OW22752   8.004   4.937   2.203 -0.1594  0.3392 -0.2821
 5597SOL    HW122753   7.981   4.948   2.111  1.0211 -0.1595 -0.6481
 5597SOL    HW222754   8.085   4.986   2.215  0.5958 -0.9218  0.0719
 5598SOL     OW22755   4.059   3.932   2.484  0.2867  0.1471 -0.0682
 5598SOL    HW122756   4.010   3.852   2.465 -0.4746  0.1239  1.8514
 5598SOL    HW222757   4.140   3.902   2.525  1.0217  0.2886 -1.3618
 5599SOL     OW22758   1.123   1.513   2.567  0.0982 -0.3739 -0.2614
 5599SOL    HW122759   1.064   1.441   2.588  1.4578 -1.2325  0.8566
 5599SOL    HW222760   1.211   1.475   2.575  0.8621  1.3737  0.2281
 5600SOL     OW22761   6.902   5.217   5.563  0.4309  0.1103  0.4819
 5600SOL    HW122762   6.861   5.201   5.647  0.3229  1.9513  0.8227
 5600SOL    HW222763   6.831   5.210   5.499  0.5185 -1.3060  0.5098
 5601SOL     OW22764   9.283   2.963   9.341 -0.0603  0.1502 -0.2598
 5601SOL    HW122765   9.350   2.922   9.396 -0.5616  0.1982  0.3959
 5601SOL    HW222766   9.202   2.915   9.363 -0.1285 -0.3246 -1.4929
 5602SOL     OW22767   8.826   2.329   4.357  0.5471  0.1576 -0.4749
 5602SOL    HW122768   8.909   2.280   4.357  1.6812  1.7831 -3.5732
 5602SOL    HW222769   8.844   2.406   4.411  0.7691  0.0456 -0.3853
 5603SOL     OW22770   9.040   3.930   0.436 -0.3241  0.4036  0.1924
 5603SOL    HW122771   9.014   3.938   0.344 -1.2260 -1.6700  0.2216
 5603SOL    HW222772   9.013   4.013   0.475 -1.4886  0.6508 -1.0648
 5604SOL     OW22773   0.368   7.100   4.714  0.1377  0.2230 -0.1757
 5604SOL    HW122774   0.402   7.162   4.650 -1.8844 -0.5092 -2.0931
 5604SOL    HW222775   0.292   7.145   4.752  0.0077 -0.2275  0.0986
 5605SOL     OW22776   7.822   6.680   7.387  0.1661 -0.1038  0.2185
 5605SOL    HW122777   7.914   6.672   7.362 -0.0966 -0.4598 -0.6776
 5605SOL    HW222778   7.825   6.714   7.477  1.1763 -0.5848  0.3888
 5606SOL     OW22779   1.572   4.874   3.947  0.3941 -0.4769 -0.2797
 5606SOL    HW122780   1.528   4.807   3.894 -0.6027  0.1229 -0.2356
 5606SOL    HW222781   1.552   4.957   3.903 -1.3875  0.1513  1.5900
 5607SOL     OW22782   4.338   5.119   4.666  0.2976 -0.5218 -0.2570
 5607SOL    HW122783   4.323   5.025   4.662  1.4608 -0.8892  2.1870
 5607SOL    HW222784   4.432   5.128   4.681 -0.0694  0.9255  1.4646
 5608SOL     OW22785   8.606   1.234   1.573  0.2822  0.5038 -0.0351
 5608SOL    HW122786   8.564   1.147   1.570 -1.0921  1.1400 -0.3406
 5608SOL    HW222787   8.677   1.228   1.509 -0.0349 -0.2924 -0.3352
 5609SOL     OW22788   3.377   3.918   1.450  0.5426 -0.2943  0.0016
 5609SOL    HW122789   3.467   3.898   1.425  0.4201 -0.8881  0.0200
 5609SOL    HW222790   3.363   4.008   1.419  0.7689 -0.6040 -1.0512
 5610SOL     OW22791   1.822   5.939   2.007  0.1470 -0.1876 -0.4274
 5610SOL    HW122792   1.908   5.947   2.048  0.7573 -0.6945 -1.5551
 5610SOL    HW222793   1.808   6.023   1.963  1.0183 -0.8055 -1.9631
 5611SOL     OW22794   1.801   1.138   9.242 -0.0490  0.8317  0.1612
 5611SOL    HW122795   1.857   1.136   9.320  0.3334  0.8133 -0.1098
 5611SOL    HW222796   1.813   1.226   9.206 -3.1882  2.2666  2.2372
 5612SOL     OW22797   4.370   7.091   4.592 -0.4166 -0.2015  0.0502
 5612SOL    HW122798   4.461   7.116   4.612 -0.2425 -0.8544  0.1007
 5612SOL    HW222799   4.338   7.161   4.536 -0.4550  0.9652  1.4577
 5613SOL     OW22800   2.383   6.136   3.103  0.0023  0.2612 -0.5275
 5613SOL    HW122801   2.365   6.154   3.011  1.7129 -2.1623 -1.4521
 5613SOL    HW222802   2.478   6.129   3.107 -0.0017  0.9193  1.5822
 5614SOL     OW22803   2.055   0.741   6.988  0.3447 -0.2851  0.3765
 5614SOL    HW122804   1.966   0.737   6.951  0.3911 -0.5183  0.2830
 5614SOL    HW222805   2.042   0.744   7.082  0.1682  1.9904  0.3432
 5615SOL     OW22806   6.613   8.342   3.026  0.1267 -0.1461 -0.1559
 5615SOL    HW122807   6.656   8.389   2.954 -0.7534  0.8191 -0.0685
 5615SOL    HW222808   6.656   8.376   3.105  0.8628 -0.9651 -0.1819
 5616SOL     OW22809   2.922   2.798   1.629  0.3647  0.3333  0.6004
 5616SOL    HW122810   2.870   2.751   1.695 -0.6167  0.9534  0.2922
 5616SOL    HW222811   2.864   2.803   1.553  0.9607  0.8764  0.1778
 5617SOL     OW22812   2.637   3.842   0.791 -0.0985 -0.1160 -0.0719
 5617SOL    HW122813   2.554   3.860   0.836  0.7947  1.7354  0.9699
 5617SOL    HW222814   2.633   3.749   0.769 -2.0568 -0.2803  0.7717
 5618SOL     OW22815   3.448   6.567   1.014  0.3716 -0.6965  0.2077
 5618SOL    HW122816   3.458   6.662   1.006  3.7444 -0.9972 -0.5186
 5618SOL    HW222817   3.504   6.543   1.087  1.1987 -2.3054 -0.9031
 5619SOL     OW22818   1.306   6.005   1.207 -0.1057 -0.6990 -0.1004
 5619SOL    HW122819   1.227   6.018   1.155 -0.2278 -0.9769  0.0082
 5619SOL    HW222820   1.313   5.910   1.215 -1.2945 -0.6782  2.1647
 5620SOL     OW22821   8.360   2.336   3.859 -0.0180  0.3772  0.0373
 5620SOL    HW122822   8.455   2.320   3.863 -0.1510 -0.6571 -0.7347
 5620SOL    HW222823   8.326   2.267   3.804 -1.4103  0.0313  1.2610
 5621SOL     OW22824   4.977   5.628   6.138  0.4567 -0.7250  0.5869
 5621SOL    HW122825   5.006   5.541   6.164 -1.3742 -1.5882 -0.0744
 5621SOL    HW222826   4.914   5.612   6.068  1.9315  1.2857 -1.3449
 5622SOL     OW22827   8.532   8.175   6.834 -0.0657 -0.3352  0.1474
 5622SOL    HW122828   8.568   8.253   6.878  0.1368 -0.5548  0.3803
 5622SOL    HW222829   8.479   8.209   6.763  0.8192  0.0063 -0.3707
 5623SOL     OW22830   3.420   8.990   6.628  0.5354  0.0208  0.0179
 5623SOL    HW122831   3.470   9.038   6.561 -0.5649  0.8582 -0.2447
 5623SOL    HW222832   3.486   8.951   6.685  1.4876  1.0870 -0.3218
 5624SOL     OW22833   3.595   2.629   3.640 -0.5654 -0.3543  0.3115
 5624SOL    HW122834   3.513   2.677   3.647  0.7940  2.2250 -0.4407
 5624SOL    HW222835   3.630   2.652   3.555  0.8603 -1.5915  0.5087
 5625SOL     OW22836   2.340   8.180   3.126 -0.1066  0.4044 -0.2148
 5625SOL    HW122837   2.403   8.228   3.073  0.9954 -0.1971  0.5139
 5625SOL    HW222838   2.324   8.099   3.078  0.6992 -0.0286  0.2187
 5626SOL     OW22839   9.097   8.949   2.759  0.4423 -0.2016 -0.0974
 5626SOL    HW122840   9.011   8.991   2.757  0.0563 -0.4052  4.0465
 5626SOL    HW222841   9.154   9.014   2.799  1.2695 -1.4044  0.7526
 5627SOL     OW22842   6.575   4.268   2.717 -0.3831  0.5095 -0.6907
 5627SOL    HW122843   6.661   4.235   2.740 -1.1963 -0.7181  0.7498
 5627SOL    HW222844   6.565   4.348   2.768 -0.1669  0.5665 -0.7379
 5628SOL     OW22845   8.969   8.939   0.846 -0.6692 -0.1964  0.4578
 5628SOL    HW122846   8.998   8.871   0.907  1.7294  0.1906 -0.1253
 5628SOL    HW222847   9.037   9.007   0.853 -1.5959  0.9197 -0.9157
 5629SOL     OW22848   4.085   6.985   7.320  0.6260 -0.0807 -0.5447
 5629SOL    HW122849   4.105   6.897   7.353  0.4170 -1.2748 -3.3133
 5629SOL    HW222850   4.023   6.971   7.249 -1.6462  2.6163  0.6785
 5630SOL     OW22851   1.235   2.971   9.132 -0.0237 -0.1143  0.0055
 5630SOL    HW122852   1.281   2.953   9.214  1.2795 -1.1942 -0.9223
 5630SOL    HW222853   1.254   2.896   9.077 -0.6317  0.7284 -1.4050
 5631SOL     OW22854   6.271   4.742   4.372 -0.2614 -0.2124  0.2105
 5631SOL    HW122855   6.319   4.724   4.453 -0.1206 -1.1525 -0.0678
 5631SOL    HW222856   6.302   4.676   4.311 -2.0279 -0.9678  0.0690
 5632SOL     OW22857   3.811   0.020   9.246 -0.1952 -0.5950  0.4010
 5632SOL    HW122858   3.758  -0.052   9.211  0.9110  0.0570 -2.9647
 5632SOL    HW222859   3.749   0.091   9.259 -0.8751 -1.3098  1.1716
 5633SOL     OW22860   3.046   7.118   6.760 -0.1471 -0.7683  0.0056
 5633SOL    HW122861   3.053   7.210   6.735 -1.2365  0.0569  2.4077
 5633SOL    HW222862   3.104   7.109   6.835 -1.1909 -1.6171  0.7548
 5634SOL     OW22863   1.325   2.714   4.288 -0.2617 -0.0665 -0.2154
 5634SOL    HW122864   1.232   2.735   4.288 -0.0777  0.7983 -0.1875
 5634SOL    HW222865   1.359   2.754   4.368  0.1996 -0.0234 -0.4280
 5635SOL     OW22866   9.206   1.225   4.944 -0.2926 -0.0933 -0.0894
 5635SOL    HW122867   9.247   1.156   4.893  1.0644  0.2440  0.4941
 5635SOL    HW222868   9.243   1.306   4.908  0.0338  0.1845  0.8399
 5636SOL     OW22869   0.809   8.151   3.099 -0.2224  0.3573  0.0878
 5636SOL    HW122870   0.743   8.215   3.125  0.2495  0.7878  0.2319
 5636SOL    HW222871   0.763   8.067   3.101 -0.1798  0.3151  2.5286
 5637SOL     OW22872   6.837   6.939   7.642 -0.1496  0.0036  0.2112
 5637SOL    HW122873   6.838   7.009   7.577 -0.6564 -0.4303 -0.2777
 5637SOL    HW222874   6.818   6.860   7.591  0.5477 -0.5145  0.7286
 5638SOL     OW22875   0.762   1.424   6.337 -0.2429  0.5819 -0.0662
 5638SOL    HW122876   0.778   1.515   6.310  0.7503  0.7329  0.9176
 5638SOL    HW222877   0.683   1.429   6.390  0.5928  1.1609  1.1926
 5639SOL     OW22878   8.781   4.481   7.920  0.1258 -0.2171  0.1594
 5639SOL    HW122879   8.841   4.480   7.995  2.3552 -1.1291 -1.5441
 5639SOL    HW222880   8.796   4.566   7.878 -0.0888 -0.2872 -0.0603
 5640SOL     OW22881   9.153   9.333   0.387 -0.1149  0.7025 -0.3377
 5640SOL    HW122882   9.084   9.341   0.321 -0.7673  0.5773  0.3232
 5640SOL    HW222883   9.233   9.319   0.336 -0.7840 -0.6248 -1.0891
 5641SOL     OW22884   0.208   1.087   8.836  0.3501  0.2946 -0.7735
 5641SOL    HW122885   0.181   1.000   8.864 -2.3413  0.6777 -1.8615
 5641SOL    HW222886   0.301   1.078   8.816  0.7693 -1.6263  1.6095
 5642SOL     OW22887   1.271   7.679   9.261  0.0561 -0.3650 -0.3712
 5642SOL    HW122888   1.222   7.639   9.189  0.4851  1.2551 -1.6467
 5642SOL    HW222889   1.267   7.773   9.242  2.0775 -0.0517  0.5069
 5643SOL     OW22890   5.451   3.304   6.638  0.0393 -0.4529  0.8519
 5643SOL    HW122891   5.365   3.278   6.605  1.7960 -3.2240 -2.1798
 5643SOL    HW222892   5.460   3.395   6.612 -2.3305  0.2594  2.2363
 5644SOL     OW22893   6.815   5.603   8.006 -0.0551  0.3147 -0.2486
 5644SOL    HW122894   6.723   5.605   8.032  0.1445 -0.2711  0.5153
 5644SOL    HW222895   6.844   5.514   8.025  1.1603  0.9969  1.2662
 5645SOL     OW22896   3.495   9.261   4.556  0.1304 -0.1741 -0.1125
 5645SOL    HW122897   3.568   9.256   4.617 -1.2147  0.9232  1.7149
 5645SOL    HW222898   3.511   9.192   4.492  2.1722 -0.6523  0.8448
 5646SOL     OW22899   0.005   6.052   3.200 -0.0567  0.2623  0.0276
 5646SOL    HW122900   0.066   6.122   3.176 -0.8277  1.4445  1.3250
 5646SOL    HW222901   0.036   5.976   3.151  0.9437  1.4420 -1.2844
 5647SOL     OW22902   2.533   5.395   0.272 -0.2605  0.3756 -0.2630
 5647SOL    HW122903   2.553   5.313   0.227 -1.5653  0.3413 -0.8294
 5647SOL    HW222904   2.599   5.457   0.241 -0.1668 -0.0754 -0.9716
 5648SOL     OW22905   6.135   3.012   0.718  0.5685  0.1762  0.3675
 5648SOL    HW122906   6.177   2.971   0.793  2.3075  2.7781  0.9711
 5648SOL    HW222907   6.207   3.026   0.655 -0.7491 -1.4974 -1.6390
 5649SOL     OW22908   5.400   3.651   6.933  0.0686 -0.6661  0.0275
 5649SOL    HW122909   5.436   3.669   7.020  0.2644 -0.5379 -0.0779
 5649SOL    HW222910   5.459   3.697   6.873 -0.4391 -0.2092 -0.1355
 5650SOL     OW22911   8.113   8.600   2.725 -0.1033  0.4324  0.7049
 5650SOL    HW122912   8.088   8.508   2.715 -0.4754  0.5554  0.4517
 5650SOL    HW222913   8.032   8.643   2.754 -0.0635  0.7596  0.3391
 5651SOL     OW22914   2.494   1.723   6.141 -0.0114  0.3318 -0.0618
 5651SOL    HW122915   2.544   1.777   6.080 -0.0324  0.4897  0.0605
 5651SOL    HW222916   2.424   1.781   6.172  0.0439  0.2726  0.1690
 5652SOL     OW22917   0.398   4.964   3.021  0.2834  0.2084 -0.2539
 5652SOL    HW122918   0.349   4.915   3.088  0.3177  1.1836  0.4977
 5652SOL    HW222919   0.331   5.004   2.967  0.1819  1.8766  1.0163
 5653SOL     OW22920   1.142   3.874   1.683  0.0999 -0.4040  0.0249
 5653SOL    HW122921   1.160   3.796   1.631  1.0128  1.1235 -2.0998
 5653SOL    HW222922   1.114   3.940   1.619  0.0324  1.2285  1.6472
 5654SOL     OW22923   0.275   2.838   5.527 -0.0667 -0.4635  1.1377
 5654SOL    HW122924   0.246   2.912   5.580 -0.4896 -0.7094  1.2568
 5654SOL    HW222925   0.355   2.868   5.485 -1.0984  0.6627 -0.1154
 5655SOL     OW22926   3.266   0.577   8.775  0.6416  0.0114 -0.3248
 5655SOL    HW122927   3.277   0.605   8.866 -0.4877  0.0344 -0.1781
 5655SOL    HW222928   3.185   0.526   8.776  0.1440  0.7645 -1.4810
 5656SOL     OW22929   2.326   7.724   7.125 -0.2971  0.0194  0.1551
 5656SOL    HW122930   2.299   7.633   7.112 -0.5969 -0.0207  0.9977
 5656SOL    HW222931   2.420   7.719   7.143 -0.2613 -0.1021 -0.0706
 5657SOL     OW22932   2.108   2.871   3.215 -0.3874  0.1048 -0.3296
 5657SOL    HW122933   2.101   2.815   3.138 -0.5200 -0.4999  0.1109
 5657SOL    HW222934   2.203   2.883   3.227 -0.3892  1.0093 -1.1488
 5658SOL     OW22935   6.518   0.091   6.199 -0.2052 -0.5234  0.0141
 5658SOL    HW122936   6.534   0.053   6.113  1.7238 -0.1727  0.1803
 5658SOL    HW222937   6.605   0.109   6.234 -0.9453 -0.6450  2.0431
 5659SOL     OW22938   6.292   9.016   7.734 -0.4214 -0.0083  0.1131
 5659SOL    HW122939   6.336   9.085   7.684  0.4105 -0.4475  0.2163
 5659SOL    HW222940   6.258   8.956   7.667  0.7189 -0.6127  0.0509
 5660SOL     OW22941   5.875   8.220   0.805  0.4988  0.3140 -0.4668
 5660SOL    HW122942   5.949   8.169   0.836 -0.8691 -1.8467 -0.5630
 5660SOL    HW222943   5.837   8.167   0.734 -0.9377  1.5041 -0.6346
 5661SOL     OW22944   7.679   4.403   5.277  0.6256 -0.2338 -0.1254
 5661SOL    HW122945   7.618   4.330   5.269  0.0697  0.2555 -0.4646
 5661SOL    HW222946   7.691   4.434   5.187  4.0605 -2.4413 -0.6057
 5662SOL     OW22947   3.927   5.607   3.424  0.5708  0.0433 -0.0296
 5662SOL    HW122948   3.927   5.535   3.362  0.6722  0.2241 -0.2405
 5662SOL    HW222949   4.001   5.662   3.398  0.7962 -0.0326  0.4309
 5663SOL     OW22950   1.899   7.738   0.675 -0.2876 -0.5304 -0.6432
 5663SOL    HW122951   1.937   7.690   0.748  0.4329 -0.5008 -0.9902
 5663SOL    HW222952   1.974   7.765   0.622 -0.8250 -1.0143 -1.6830
 5664SOL     OW22953   5.866   0.098   4.732 -0.0115  0.2216  0.2319
 5664SOL    HW122954   5.931   0.167   4.717  0.2753  0.0961  0.8769
 5664SOL    HW222955   5.796   0.142   4.781 -0.6310  0.4637 -0.8322
 5665SOL     OW22956   1.324   8.015   7.829 -0.1472  0.6547  0.0335
 5665SOL    HW122957   1.238   8.038   7.794 -0.9802 -0.6207  1.1389
 5665SOL    HW222958   1.362   7.957   7.763 -1.7027 -1.7283  1.0870
 5666SOL     OW22959   7.615   5.169   6.833 -0.4487 -0.4259  0.0862
 5666SOL    HW122960   7.657   5.186   6.749  1.3920 -2.0372  0.6151
 5666SOL    HW222961   7.586   5.255   6.863 -1.4991  0.1582 -2.3139
 5667SOL     OW22962   8.160   7.849   3.791 -0.6274  0.6352  0.3244
 5667SOL    HW122963   8.129   7.937   3.813 -1.0296  0.4359  0.5635
 5667SOL    HW222964   8.234   7.834   3.850  0.8541  1.6625 -1.2034
 5668SOL     OW22965   8.341   7.471   3.970 -0.1893 -0.0037  0.5324
 5668SOL    HW122966   8.421   7.418   3.962  0.2624  0.4165  1.9867
 5668SOL    HW222967   8.316   7.489   3.879  1.1721 -0.4247  0.0347
 5669SOL     OW22968   6.431   7.377   7.191  0.4650 -0.0890  0.1052
 5669SOL    HW122969   6.390   7.374   7.105  0.4230 -0.6178  0.1395
 5669SOL    HW222970   6.481   7.296   7.197  0.1843 -0.2260  0.7137
 5670SOL     OW22971   6.848   7.671   1.305 -0.5772  0.2987  0.3831
 5670SOL    HW122972   6.791   7.596   1.323  0.1626 -0.3998 -0.1202
 5670SOL    HW222973   6.794   7.748   1.326 -2.2983 -0.2673 -1.5963
 5671SOL     OW22974   4.570   7.089   1.049  0.1947  0.1079  0.2603
 5671SOL    HW122975   4.635   7.049   1.107 -1.6369 -1.7950  1.1329
 5671SOL    HW222976   4.498   7.113   1.107 -0.5133  0.7842 -0.8713
 5672SOL     OW22977   2.782   5.691   7.709  0.1052 -0.4045  0.3991
 5672SOL    HW122978   2.857   5.710   7.653 -0.4864  1.4418  0.1746
 5672SOL    HW222979   2.785   5.596   7.721 -0.0618 -0.9865 -3.2170
 5673SOL     OW22980   1.924   3.574   2.686  0.0618  0.5693  0.7654
 5673SOL    HW122981   1.849   3.598   2.632 -0.8480 -0.6119  1.4534
 5673SOL    HW222982   1.971   3.508   2.635 -0.1548  0.2977  0.9113
 5674SOL     OW22983   6.021   1.353   0.542 -0.1058  0.3143 -0.7303
 5674SOL    HW122984   6.032   1.259   0.556  2.4259  0.8259  1.7423
 5674SOL    HW222985   5.935   1.373   0.577 -0.9820 -1.1443 -1.9360
 5675SOL     OW22986   5.417   2.660   4.687  0.0742  0.6580  0.3300
 5675SOL    HW122987   5.506   2.649   4.652 -0.6426 -0.5025 -1.2506
 5675SOL    HW222988   5.416   2.606   4.766  0.4400 -0.3146 -0.3066
 5676SOL     OW22989   3.292   2.740   3.609  0.1005  0.7016 -0.0780
 5676SOL    HW122990   3.319   2.819   3.562 -0.8457  0.4666 -1.0640
 5676SOL    HW222991   3.243   2.689   3.544 -2.0151  0.7545  1.3531
 5677SOL     OW22992   5.950   4.565   5.234 -0.0287  0.2892  0.4262
 5677SOL    HW122993   5.944   4.586   5.141  0.0863 -1.6252 -0.0491
 5677SOL    HW222994   5.948   4.470   5.238  2.2528  0.2177  2.2006
 5678SOL     OW22995   7.405   1.440   7.977  0.2063 -0.3106  0.0970
 5678SOL    HW122996   7.398   1.349   8.007 -0.6977 -0.3040 -0.0613
 5678SOL    HW222997   7.484   1.473   8.019 -0.1729 -0.7783  1.2026
 5679SOL     OW22998   8.256   5.783   5.537  0.5911 -0.4658 -0.6006
 5679SOL    HW122999   8.331   5.727   5.552  0.0717 -1.1662 -0.5676
 5679SOL    HW223000   8.208   5.782   5.620 -1.2877 -2.8361 -1.5980
 5680SOL     OW23001   6.686   1.795   3.037 -0.1541  0.0745  0.1084
 5680SOL    HW123002   6.685   1.719   2.978  2.4951 -0.8736  1.1003
 5680SOL    HW223003   6.642   1.764   3.116 -0.6474  0.1712 -0.1287
 5681SOL     OW23004   5.142   8.978   7.883  0.1964  0.7112 -0.4963
 5681SOL    HW123005   5.236   8.994   7.874  0.3903  0.0946  0.3156
 5681SOL    HW223006   5.127   8.895   7.837  0.4125 -0.1834  0.9742
 5682SOL     OW23007   2.492   6.190   8.699  0.0140 -0.2138  0.2376
 5682SOL    HW123008   2.517   6.282   8.689 -2.0127  0.5170  1.3427
 5682SOL    HW223009   2.400   6.187   8.672 -0.4947 -1.5250  1.9157
 5683SOL     OW23010   8.045   9.314   7.423  0.6995  0.1997  0.1301
 5683SOL    HW123011   8.054   9.276   7.336 -0.5075  1.4898 -0.6043
 5683SOL    HW223012   7.965   9.276   7.459  1.4761 -0.7449  0.9402
 5684SOL     OW23013   3.930   5.125   1.644 -0.0460  0.7662 -0.3970
 5684SOL    HW123014   3.898   5.122   1.554  0.8215 -0.7508 -0.6859
 5684SOL    HW223015   3.854   5.102   1.698 -0.3805  0.9345 -0.7937
 5685SOL     OW23016   2.285   5.930   0.751  0.1696 -0.3104 -0.5072
 5685SOL    HW123017   2.319   5.989   0.684  0.5519 -0.4140 -0.4065
 5685SOL    HW223018   2.359   5.874   0.774 -0.0191 -0.4242 -0.1607
 5686SOL     OW23019   3.514   1.581   5.691  0.6053  0.0542  0.1835
 5686SOL    HW123020   3.573   1.652   5.716  0.5463  0.7118 -1.4154
 5686SOL    HW223021   3.434   1.597   5.740  0.2941  1.6092 -0.7759
 5687SOL     OW23022   2.613   1.931   0.051 -0.0895 -0.5696 -0.0252
 5687SOL    HW123023   2.584   1.988   0.122 -0.1020 -0.6062 -0.0003
 5687SOL    HW223024   2.708   1.927   0.061 -0.1705 -1.3241  0.5636
 5688SOL     OW23025   7.328   2.070   2.514 -0.1505  0.1030  0.2474
 5688SOL    HW123026   7.402   2.052   2.572  0.3015  0.1326 -0.3108
 5688SOL    HW223027   7.336   2.163   2.493  0.5552 -0.2005 -1.0086
 5689SOL     OW23028   2.589   2.584   7.354 -0.9599  0.2913 -0.5315
 5689SOL    HW123029   2.660   2.570   7.417 -2.2187  1.8057  1.3011
 5689SOL    HW223030   2.578   2.679   7.351 -1.2458  0.2521 -2.7667
 5690SOL     OW23031   1.140   8.831   2.240  0.4164 -0.4553 -0.7120
 5690SOL    HW123032   1.193   8.910   2.253 -0.0689 -0.2629  0.1599
 5690SOL    HW223033   1.050   8.862   2.246  0.1794 -1.3772  1.9000
 5691SOL     OW23034   0.585   7.049   7.826  0.5789 -0.0053  0.6788
 5691SOL    HW123035   0.490   7.053   7.833  0.5381 -0.7774  0.6982
 5691SOL    HW223036   0.605   6.955   7.823  1.2974  0.1486  0.1514
 5692SOL     OW23037   1.713   2.455   2.022 -0.7874 -0.2675 -0.2395
 5692SOL    HW123038   1.808   2.452   2.021 -0.7778 -0.6359  0.6292
 5692SOL    HW223039   1.689   2.493   1.938  0.0393 -2.1601 -1.3908
 5693SOL     OW23040   5.572   6.773   6.363  0.2576 -0.5600  0.2796
 5693SOL    HW123041   5.651   6.734   6.401  0.1344  0.3986  1.5742
 5693SOL    HW223042   5.512   6.700   6.350  0.8536 -1.1029  0.5526
 5694SOL     OW23043   6.989   9.366   0.101 -0.2747 -0.3376  0.4615
 5694SOL    HW123044   6.985   9.391   0.194  0.1039  1.1259  0.1093
 5694SOL    HW223045   6.901   9.382   0.068  0.1852  1.4878  0.0292
 5695SOL     OW23046   2.725   1.189   7.675 -0.2348 -0.7080  0.2090
 5695SOL    HW123047   2.693   1.270   7.716 -1.9095 -1.3598  0.2475
 5695SOL    HW223048   2.772   1.144   7.746  2.1262  0.8928 -0.2064
 5696SOL     OW23049   0.059   8.784   0.285  0.3258 -0.7697 -0.7383
 5696SOL    HW123050  -0.021   8.761   0.333 -0.3667  0.2677 -1.3373
 5696SOL    HW223051   0.032   8.858   0.230  1.4466 -1.0765 -1.7203
 5697SOL     OW23052   8.334   7.154   7.611  0.0922 -0.3315 -0.0916
 5697SOL    HW123053   8.428   7.151   7.624  0.1456 -1.3953 -0.6346
 5697SOL    HW223054   8.298   7.104   7.684 -0.0858  0.3312  0.2889
 5698SOL     OW23055   5.063   0.951   0.833 -0.1899  0.5444 -0.0200
 5698SOL    HW123056   5.040   0.901   0.911  1.2502  1.8721  1.3320
 5698SOL    HW223057   5.067   0.886   0.763 -0.0487 -0.9426  1.3081
 5699SOL     OW23058   8.727   2.825   6.784 -0.1705 -0.1427 -0.1791
 5699SOL    HW123059   8.725   2.730   6.780 -0.9300 -0.0935 -1.9149
 5699SOL    HW223060   8.725   2.846   6.878  0.0339 -1.8079  0.2241
 5700SOL     OW23061   7.996   2.748   0.315 -0.0623 -0.2441 -0.2489
 5700SOL    HW123062   7.938   2.673   0.302  1.3768 -1.0320 -2.8172
 5700SOL    HW223063   7.995   2.794   0.231  2.1681  0.2868 -0.0547
 5701SOL     OW23064   7.997   6.405   2.563  0.2321 -0.1873 -0.0141
 5701SOL    HW123065   7.959   6.352   2.633  0.0779 -0.9823 -0.6779
 5701SOL    HW223066   8.025   6.341   2.497  2.2505  0.3982  0.2046
 5702SOL     OW23067   7.231   6.095   7.510  0.1214 -0.4391 -0.2876
 5702SOL    HW123068   7.202   6.133   7.593 -1.8571 -0.3900 -0.9616
 5702SOL    HW223069   7.228   6.168   7.448  0.4877 -0.7350 -0.6625
 5703SOL     OW23070   2.949   8.808   6.072 -0.7755  0.9159 -0.2839
 5703SOL    HW123071   2.949   8.849   5.986 -1.3161  1.4678 -0.0218
 5703SOL    HW223072   2.981   8.875   6.131 -0.1494  0.4532 -0.0806
 5704SOL     OW23073   0.764   8.263   7.432 -0.3800  0.3801  0.4032
 5704SOL    HW123074   0.755   8.352   7.465  1.0819  1.1821 -1.2043
 5704SOL    HW223075   0.800   8.273   7.344  2.3478 -1.8453  1.0997
 5705SOL     OW23076   7.364   6.186   5.448 -0.3644  0.0459  0.4685
 5705SOL    HW123077   7.416   6.112   5.417 -0.3451 -0.3503  1.4178
 5705SOL    HW223078   7.427   6.256   5.462  0.0199 -0.5892  2.1071
 5706SOL     OW23079   2.113   1.072   1.803 -0.2277 -0.0269 -0.1013
 5706SOL    HW123080   2.203   1.062   1.834  0.0060 -2.0441 -1.2366
 5706SOL    HW223081   2.059   1.066   1.882  0.5436 -0.9260  0.3766
 5707SOL     OW23082   3.304   6.845   7.325 -0.4354  0.3546  0.3053
 5707SOL    HW123083   3.366   6.917   7.312 -0.8478  0.8950  1.1828
 5707SOL    HW223084   3.355   6.775   7.365 -0.3051  0.6571  0.6742
 5708SOL     OW23085   0.068   8.556   0.668 -0.5985 -0.9408  0.1782
 5708SOL    HW123086   0.076   8.485   0.731  1.3030 -0.5845  0.3795
 5708SOL    HW223087   0.120   8.528   0.593  0.2978  0.2722  0.3156
 5709SOL     OW23088   3.748   8.098   2.076  0.1620  0.9410  0.7568
 5709SOL    HW123089   3.693   8.098   1.997 -0.8818  0.8901  1.4550
 5709SOL    HW223090   3.702   8.040   2.137  2.6552 -1.7723  0.2883
 5710SOL     OW23091   6.221   5.054   0.906  0.2133 -0.3305 -0.1768
 5710SOL    HW123092   6.309   5.089   0.891  0.7596 -1.4361  0.3353
 5710SOL    HW223093   6.214   5.046   1.001 -0.7535  0.4981 -0.1621
 5711SOL     OW23094   3.513   1.472   3.646  0.4691  0.4956  0.4222
 5711SOL    HW123095   3.607   1.469   3.663  0.3287 -0.4495  1.1573
 5711SOL    HW223096   3.473   1.458   3.732 -0.3526  1.5479  0.2174
 5712SOL     OW23097   0.695   8.190   1.454 -0.2795 -0.1150  0.6626
 5712SOL    HW123098   0.609   8.149   1.450  0.0890 -1.0896  1.8940
 5712SOL    HW223099   0.731   8.160   1.538  1.7987 -0.8326 -0.4327
 5713SOL     OW23100   7.927   2.528   8.634  0.1559  0.6654 -0.5166
 5713SOL    HW123101   8.016   2.495   8.645  0.5847  2.1019  0.6906
 5713SOL    HW223102   7.905   2.509   8.543  0.4586 -2.5559 -0.0203
 5714SOL     OW23103   2.868   0.485   7.499 -0.4129  0.2782  0.1340
 5714SOL    HW123104   2.918   0.404   7.513 -1.7152 -0.6558 -0.4603
 5714SOL    HW223105   2.777   0.459   7.504 -1.0724  0.6998 -4.7017
 5715SOL     OW23106   2.511   1.397   1.220  0.2783  0.3699  0.1109
 5715SOL    HW123107   2.446   1.336   1.256  2.2396 -1.8870  0.0438
 5715SOL    HW223108   2.491   1.400   1.127 -0.1972  0.3035  0.2054
 5716SOL     OW23109   5.392   5.363   5.685 -0.0193 -0.3166  0.1618
 5716SOL    HW123110   5.324   5.365   5.617  1.1259 -1.8599 -1.1174
 5716SOL    HW223111   5.348   5.325   5.761 -0.7540 -0.7344 -0.4578
 5717SOL     OW23112   4.955   5.749   2.457 -0.0424 -0.1372 -0.3996
 5717SOL    HW123113   4.990   5.750   2.546  1.4255  2.6513 -0.9221
 5717SOL    HW223114   5.021   5.702   2.406  1.2994  1.9792 -0.7202
 5718SOL     OW23115   8.232   2.496   2.007  0.4469  0.4434 -0.3670
 5718SOL    HW123116   8.244   2.482   2.101  2.1608 -0.0227 -0.6136
 5718SOL    HW223117   8.181   2.577   2.001  1.2565  1.0851  0.9550
 5719SOL     OW23118   8.514   4.853   5.373  0.2219  0.2459 -0.1166
 5719SOL    HW123119   8.478   4.922   5.318  2.0368  0.0134 -1.7511
 5719SOL    HW223120   8.609   4.863   5.364  0.5511 -2.0987 -0.0077
 5720SOL     OW23121   2.561   8.916   6.194  0.2558 -0.4706 -0.1301
 5720SOL    HW123122   2.573   8.829   6.156  0.3404  0.8963 -3.6258
 5720SOL    HW223123   2.641   8.932   6.244  0.7073 -1.9946 -0.3171
 5721SOL     OW23124   3.853   6.537   1.741 -0.0614  0.2054 -0.2714
 5721SOL    HW123125   3.839   6.631   1.749  0.1278  0.1982  0.1834
 5721SOL    HW223126   3.916   6.516   1.811  1.3141  0.0378 -1.5162
 5722SOL     OW23127   3.590   0.015   8.311 -0.0436  0.1265  0.1831
 5722SOL    HW123128   3.658  -0.021   8.368  0.7510  1.2247 -0.0237
 5722SOL    HW223129   3.508  -0.014   8.350  0.4863  0.5833  1.7281
 5723SOL     OW23130   6.019   4.186   9.089 -0.3655  0.2636 -0.6761
 5723SOL    HW123131   6.073   4.261   9.061  1.2318 -0.3445  0.6200
 5723SOL    HW223132   5.930   4.209   9.061  0.2130  2.2673 -1.0561
 5724SOL     OW23133   6.294   8.596   1.046  0.1924 -1.0537  0.4251
 5724SOL    HW123134   6.241   8.517   1.045  2.0708 -2.4513 -2.8403
 5724SOL    HW223135   6.380   8.569   1.013  1.1230  2.1859 -0.2148
 5725SOL     OW23136   7.760   5.994   1.067  0.2683  0.3285  0.1440
 5725SOL    HW123137   7.675   5.955   1.083  0.2206  0.5456  0.4165
 5725SOL    HW223138   7.764   6.004   0.972 -0.5394  1.4987  0.2170
 5726SOL     OW23139   6.901   5.182   5.113  0.1260 -0.2345  0.2735
 5726SOL    HW123140   6.943   5.267   5.129 -0.2185 -0.2399  1.2952
 5726SOL    HW223141   6.944   5.122   5.174  0.1682 -0.7384 -0.2457
 5727SOL     OW23142   4.549   7.756   7.837  0.0266  0.3026  0.4460
 5727SOL    HW123143   4.597   7.759   7.919  0.4800 -1.9572  0.3257
 5727SOL    HW223144   4.457   7.757   7.862  0.1456  1.1437  0.8735
 5728SOL     OW23145   2.265   6.548   3.375 -0.8050 -0.0468 -0.4577
 5728SOL    HW123146   2.316   6.467   3.371 -0.2991  0.2992 -1.2241
 5728SOL    HW223147   2.331   6.617   3.384 -1.2029  0.3234 -0.3647
 5729SOL     OW23148   6.151   9.091   0.533 -0.0947  0.3183 -0.0743
 5729SOL    HW123149   6.228   9.088   0.591 -0.2806  0.2987  0.1738
 5729SOL    HW223150   6.112   9.004   0.540  0.2313  0.1187 -0.7123
 5730SOL     OW23151   6.129   8.836   0.739  0.7132 -0.7096 -0.0354
 5730SOL    HW123152   6.173   8.903   0.791  1.5107 -1.0476 -0.2597
 5730SOL    HW223153   6.051   8.814   0.789  1.5298 -1.1198  1.0829
 5731SOL     OW23154   9.109   7.155   5.092  0.0077 -0.6301 -0.3479
 5731SOL    HW123155   9.014   7.165   5.087  0.0811 -0.3361 -1.8638
 5731SOL    HW223156   9.134   7.125   5.004  1.3318 -0.4636 -0.0473
 5732SOL     OW23157   7.101   7.160   1.289 -0.4352 -0.2202  0.3680
 5732SOL    HW123158   7.137   7.162   1.378 -0.8546 -0.5695  0.5527
 5732SOL    HW223159   7.028   7.222   1.293  0.8875  1.4495 -0.3485
 5733SOL     OW23160   7.274   0.254   7.204  0.4462 -0.0019 -0.1794
 5733SOL    HW123161   7.275   0.275   7.298 -0.5207  0.5244 -0.2745
 5733SOL    HW223162   7.276   0.158   7.201 -0.0501 -0.0362  0.4007
 5734SOL     OW23163   5.801   6.486   2.927 -0.1851  0.4850  0.3616
 5734SOL    HW123164   5.766   6.522   3.009 -0.7017 -1.8102  1.2558
 5734SOL    HW223165   5.724   6.466   2.875  0.0971  0.9638 -0.2419
 5735SOL     OW23166   4.671   6.058   8.140  0.5598  0.2142 -0.7370
 5735SOL    HW123167   4.610   5.984   8.142  0.3287  0.4071 -0.5296
 5735SOL    HW223168   4.745   6.029   8.194 -0.0864  0.6025  0.3942
 5736SOL     OW23169   1.184   5.939   6.219 -0.8464 -0.2190 -0.1235
 5736SOL    HW123170   1.216   5.878   6.285 -1.0769  0.9914  1.1681
 5736SOL    HW223171   1.262   5.987   6.190 -0.7880 -0.5516 -0.5169
 5737SOL     OW23172   4.306   2.507   1.466  0.2139  0.1060  0.5955
 5737SOL    HW123173   4.402   2.514   1.469  0.4421 -0.5349 -2.3097
 5737SOL    HW223174   4.287   2.419   1.498  0.7297 -0.2419 -0.0316
 5738SOL     OW23175   7.871   6.280   1.588 -0.0301 -0.6741  0.2126
 5738SOL    HW123176   7.793   6.326   1.621 -0.7206 -0.9331 -1.0135
 5738SOL    HW223177   7.913   6.344   1.530  0.0549 -0.9256 -0.0035
 5739SOL     OW23178   4.889   7.374   5.178 -0.0197  0.2799  0.2778
 5739SOL    HW123179   4.824   7.307   5.155  0.5943  0.0102 -0.6964
 5739SOL    HW223180   4.973   7.331   5.169  0.3044  0.2622  2.7260
 5740SOL     OW23181   3.114   2.880   2.565  0.2376 -0.2026  0.3894
 5740SOL    HW123182   3.093   2.954   2.622  0.6058  0.5122 -0.3843
 5740SOL    HW223183   3.156   2.816   2.623  0.0652  0.2516  1.0294
 5741SOL     OW23184   0.886   2.724   2.259 -0.2159  0.4194  0.3834
 5741SOL    HW123185   0.958   2.746   2.201  0.6729 -0.8553  0.9604
 5741SOL    HW223186   0.838   2.806   2.271 -0.1758  0.8085 -1.7758
 5742SOL     OW23187   4.363   8.333   8.717 -0.0883  0.3698 -0.1805
 5742SOL    HW123188   4.429   8.402   8.711 -1.8748  2.3688  1.3345
 5742SOL    HW223189   4.329   8.324   8.628  1.9703 -0.5315 -0.9330
 5743SOL     OW23190   7.201   5.713   3.359  0.4012  0.0196 -0.2105
 5743SOL    HW123191   7.238   5.742   3.442  0.4803 -1.9072  0.4941
 5743SOL    HW223192   7.225   5.781   3.296  1.1369  1.0708  1.1568
 5744SOL     OW23193   7.068   5.060   6.560 -0.0360  0.3402  0.5194
 5744SOL    HW123194   7.029   5.011   6.633  2.0131  1.7786  2.7130
 5744SOL    HW223195   7.052   5.152   6.582 -1.8189  0.8482 -2.3764
 5745SOL     OW23196   2.871   2.576   2.977  0.0994  0.3471  0.0351
 5745SOL    HW123197   2.857   2.589   2.883  0.9766 -0.8168 -0.2769
 5745SOL    HW223198   2.946   2.631   2.998  0.3409  0.0706 -0.0993
 5746SOL     OW23199   7.660   7.172   6.240 -0.4678  0.0739 -0.8770
 5746SOL    HW123200   7.670   7.222   6.321  2.4585 -1.7500  0.0179
 5746SOL    HW223201   7.634   7.085   6.268 -0.1186 -0.4033 -1.9564
 5747SOL     OW23202   4.717   2.859   0.488 -0.2168  0.2367 -0.1583
 5747SOL    HW123203   4.678   2.810   0.560 -0.4113  0.2292 -0.2702
 5747SOL    HW223204   4.643   2.899   0.442 -0.1331 -0.2145 -0.6911
 5748SOL     OW23205   4.989   7.694   2.531  0.0077  0.1026  0.3555
 5748SOL    HW123206   4.980   7.732   2.618  1.7920 -0.2940  0.7501
 5748SOL    HW223207   4.998   7.600   2.546 -0.1134 -0.0190 -0.2947
 5749SOL     OW23208   0.212   2.265   0.602 -0.2456  0.3329 -0.0260
 5749SOL    HW123209   0.269   2.294   0.673  0.8322  0.3112 -0.8543
 5749SOL    HW223210   0.126   2.254   0.643 -0.1377  2.2925  0.8257
 5750SOL     OW23211   6.440   1.364   9.047  0.0046 -0.0567 -0.5029
 5750SOL    HW123212   6.473   1.306   9.115 -1.5035  0.0101  0.3237
 5750SOL    HW223213   6.519   1.405   9.010  0.8809 -0.4281  0.8932
 5751SOL     OW23214   6.876   0.507   3.087 -0.1521 -0.1126  0.0830
 5751SOL    HW123215   6.891   0.472   2.999  2.3627  1.2648 -0.1313
 5751SOL    HW223216   6.964   0.515   3.125 -1.1192 -0.0204  2.4947
 5752SOL     OW23217   8.658   7.668   6.637  0.4473 -0.3072  0.2806
 5752SOL    HW123218   8.633   7.586   6.679  0.4339 -0.6097 -0.3168
 5752SOL    HW223219   8.721   7.643   6.569  0.9868  0.2503  0.5575
 5753SOL     OW23220   4.699   2.308   4.285  0.0335 -0.4340 -0.2670
 5753SOL    HW123221   4.649   2.343   4.358 -0.7675  0.9345 -1.4365
 5753SOL    HW223222   4.646   2.235   4.253  0.4146 -1.0762  0.5104
 5754SOL     OW23223   3.233   8.679   6.226 -0.5393  0.3268 -0.0433
 5754SOL    HW123224   3.229   8.752   6.289 -0.9724 -1.0281  1.5712
 5754SOL    HW223225   3.238   8.722   6.141  1.4441  2.2687  0.9409
 5755SOL     OW23226   1.927   9.043   7.871 -0.1163  0.3959 -0.3983
 5755SOL    HW123227   1.902   8.976   7.934  0.3428 -0.0619 -0.6950
 5755SOL    HW223228   1.921   9.125   7.920  1.6538 -0.0808  0.7019
 5756SOL     OW23229   6.630   1.514   5.197  0.0827  0.3324  0.0389
 5756SOL    HW123230   6.678   1.574   5.140 -0.3219 -0.3524 -1.0382
 5756SOL    HW223231   6.538   1.540   5.189 -0.1485 -0.6792 -0.7602
 5757SOL     OW23232   0.160   6.996   3.963  0.3735 -0.2395  0.2552
 5757SOL    HW123233   0.065   6.988   3.962  0.3658 -0.1153 -0.3180
 5757SOL    HW223234   0.178   7.076   3.913  0.7949 -0.4417  0.0770
 5758SOL     OW23235   9.088   7.749   8.942 -0.3093  0.3631  0.1096
 5758SOL    HW123236   9.018   7.693   8.909 -0.7694  1.3640 -0.6586
 5758SOL    HW223237   9.152   7.688   8.979 -1.8612 -0.5423  1.4276
 5759SOL     OW23238   6.297   0.358   6.809 -0.2274 -0.4635  0.0560
 5759SOL    HW123239   6.311   0.264   6.802  0.4672 -0.4500  1.1030
 5759SOL    HW223240   6.383   0.397   6.797 -0.5103  0.0432 -0.3777
 5760SOL     OW23241   4.189   2.825   7.444 -0.6218  0.0272  0.1013
 5760SOL    HW123242   4.197   2.897   7.381 -0.9146  0.4005  0.4852
 5760SOL    HW223243   4.256   2.762   7.417  0.7136  1.1436  0.6901
 5761SOL     OW23244   4.145   5.219   4.491 -0.2100 -0.5660 -0.5404
 5761SOL    HW123245   4.207   5.165   4.541  1.9334  1.8232 -0.4321
 5761SOL    HW223246   4.072   5.233   4.551  1.0971  0.0219  0.9988
 5762SOL     OW23247   5.362   7.024   7.422  0.1393 -0.1351  0.0210
 5762SOL    HW123248   5.320   6.939   7.405  0.3283  0.1178 -1.9526
 5762SOL    HW223249   5.291   7.087   7.423  0.1965 -0.0610 -0.5402
 5763SOL     OW23250   5.778   3.012   2.059 -0.7019  0.1832  0.7176
 5763SOL    HW123251   5.816   2.972   1.981 -0.4907  0.9785  0.4137
 5763SOL    HW223252   5.788   2.945   2.127  2.3526  0.7779  0.9867
 5764SOL     OW23253   3.175   0.556   9.364  0.4209 -0.3082 -0.3209
 5764SOL    HW123254   3.230   0.634   9.355  0.1776  0.1386  1.6028
 5764SOL    HW223255   3.234   0.483   9.351  1.2144  0.1856  0.3795
 5765SOL     OW23256   6.206   1.704   7.649 -0.1052 -0.2259  0.6020
 5765SOL    HW123257   6.217   1.615   7.616  1.0391 -0.2022  0.8698
 5765SOL    HW223258   6.139   1.743   7.593  0.6290 -0.6975 -0.6296
 5766SOL     OW23259   1.664   1.195   6.846  0.4757  0.4716 -0.0979
 5766SOL    HW123260   1.739   1.195   6.905 -0.3000 -0.5272  0.9377
 5766SOL    HW223261   1.679   1.122   6.787 -0.1110 -0.3250  0.7142
 5767SOL     OW23262   5.640   9.227   0.887  0.5523  0.4020  0.3138
 5767SOL    HW123263   5.711   9.268   0.838  1.3319  2.1746  2.6852
 5767SOL    HW223264   5.575   9.297   0.898  0.4233  0.0955  1.7406
 5768SOL     OW23265   7.759   3.754   1.638  0.1253  0.4279  0.2471
 5768SOL    HW123266   7.735   3.662   1.634 -1.9071  0.9648 -0.8147
 5768SOL    HW223267   7.850   3.753   1.668 -0.3900 -1.8192  1.9873
 5769SOL     OW23268   7.026   1.374   4.735  0.3384  0.2068  0.4863
 5769SOL    HW123269   7.014   1.280   4.744  0.2200  0.0191 -1.3318
 5769SOL    HW223270   6.938   1.411   4.739  0.1029 -0.0532 -1.4649
 5770SOL     OW23271   5.274   0.888   2.171 -0.3596  0.0889 -0.0666
 5770SOL    HW123272   5.199   0.903   2.113 -0.5956 -0.9604 -0.0508
 5770SOL    HW223273   5.235   0.874   2.258 -0.1766 -0.6814 -0.0975
 5771SOL     OW23274   0.695   7.769   4.747  0.0342  0.3059 -0.2396
 5771SOL    HW123275   0.682   7.780   4.652 -1.0486  1.1253 -0.0069
 5771SOL    HW223276   0.664   7.680   4.764 -1.2227  0.6859 -0.4262
 5772SOL     OW23277   8.280   7.260   3.183 -0.3241 -0.3820  0.1689
 5772SOL    HW123278   8.271   7.266   3.088 -0.3211 -0.6759  0.1477
 5772SOL    HW223279   8.281   7.165   3.200  0.8302 -0.3436  0.3585
 5773SOL     OW23280   0.663   0.063   2.877  0.5784  0.0085 -0.0979
 5773SOL    HW123281   0.613   0.143   2.868  0.0529 -0.0580  1.9115
 5773SOL    HW223282   0.622   0.016   2.949  1.7461 -1.4087 -0.3015
 5774SOL     OW23283   8.759   3.299   4.152 -0.7512  0.3643  0.1746
 5774SOL    HW123284   8.798   3.349   4.080  1.1206 -0.1493  0.7537
 5774SOL    HW223285   8.691   3.246   4.110  0.7188 -0.4033 -1.3723
 5775SOL     OW23286   3.555   8.800   6.145 -0.0212  0.7044 -0.4217
 5775SOL    HW123287   3.471   8.836   6.115 -0.1278  1.1002  0.3127
 5775SOL    HW223288   3.595   8.872   6.194  0.6935  0.4749 -0.6652
 5776SOL     OW23289   2.701   7.877   7.274  0.4709 -0.3919 -0.1390
 5776SOL    HW123290   2.652   7.893   7.355  0.4492  0.2250 -0.2686
 5776SOL    HW223291   2.665   7.795   7.240  0.8266 -0.9182  0.7274
 5777SOL     OW23292   4.145   1.512   1.768  0.2293 -0.6583  0.3262
 5777SOL    HW123293   4.217   1.501   1.830  0.0881  0.4237  0.7158
 5777SOL    HW223294   4.186   1.555   1.692 -0.1642  0.8977  0.9579
 5778SOL     OW23295   7.796   6.812   5.951 -0.0579  0.1862  0.0434
 5778SOL    HW123296   7.791   6.901   5.986 -0.0682  1.0804 -2.1225
 5778SOL    HW223297   7.741   6.813   5.874 -2.2601 -2.4905  1.4071
 5779SOL     OW23298   8.861   3.812   0.634 -0.1168  0.3097 -0.1842
 5779SOL    HW123299   8.905   3.847   0.557  1.3788 -1.0258  0.0126
 5779SOL    HW223300   8.932   3.788   0.693 -1.2024  0.1234  1.0808
 5780SOL     OW23301   1.612   3.964   6.125 -0.0809  0.0932  1.0018
 5780SOL    HW123302   1.621   3.943   6.032  0.2311  1.1293  0.7833
 5780SOL    HW223303   1.597   3.880   6.168 -0.9524 -0.3192 -0.0766
 5781SOL     OW23304   4.442   7.715   2.430  0.4913  0.4052  0.5718
 5781SOL    HW123305   4.449   7.810   2.423  0.6611  0.4918  1.8531
 5781SOL    HW223306   4.530   7.685   2.452  0.5522 -0.1171 -0.2898
 5782SOL     OW23307   3.325   1.309   3.337  0.5247 -0.6814  0.1070
 5782SOL    HW123308   3.284   1.225   3.358  0.6587 -0.2389  2.3073
 5782SOL    HW223309   3.287   1.371   3.399  0.0367  1.0463 -1.7862
 5783SOL     OW23310   2.156   5.229   2.092  0.3432  0.3607  0.2399
 5783SOL    HW123311   2.247   5.256   2.075 -0.3065  2.0623 -0.8212
 5783SOL    HW223312   2.108   5.258   2.014 -0.8938 -1.8273  0.1223
 5784SOL     OW23313   6.095   4.867   8.561 -0.2354  0.0597 -0.2727
 5784SOL    HW123314   6.180   4.894   8.525 -0.2865 -0.1262 -0.5308
 5784SOL    HW223315   6.113   4.849   8.653  0.1589 -0.6921 -0.4948
 5785SOL     OW23316   7.229   0.263   0.678 -0.2832  0.2844  0.4388
 5785SOL    HW123317   7.176   0.289   0.753  0.5845 -1.1441  1.6017
 5785SOL    HW223318   7.260   0.345   0.640 -0.1936  1.0331  2.0419
 5786SOL     OW23319   1.342   5.537   9.018 -0.3994  0.0007 -0.1627
 5786SOL    HW123320   1.319   5.451   9.052  1.4940 -1.0722 -1.4403
 5786SOL    HW223321   1.341   5.527   8.923 -2.5218  2.0847 -0.4673
 5787SOL     OW23322   4.167   7.635   5.877  0.0230  0.2531 -0.3862
 5787SOL    HW123323   4.210   7.550   5.885 -0.3346  0.2255  1.9761
 5787SOL    HW223324   4.110   7.640   5.954  0.2073  2.7060 -0.3368
 5788SOL     OW23325   2.500   2.299   7.759  0.6805 -0.6334  0.2778
 5788SOL    HW123326   2.493   2.285   7.853  1.3234  2.5648  0.8986
 5788SOL    HW223327   2.588   2.270   7.736  1.6030  1.2000  1.2874
 5789SOL     OW23328   5.150   5.515   1.043  0.2399  0.0488  0.1657
 5789SOL    HW123329   5.179   5.455   1.111 -2.7317 -3.3895 -1.2558
 5789SOL    HW223330   5.088   5.573   1.087  0.7944  0.0311  0.9829
 5790SOL     OW23331   8.475   3.130   6.999 -0.0491  0.5494  0.0540
 5790SOL    HW123332   8.500   3.125   6.907 -2.2111 -0.6207 -0.5625
 5790SOL    HW223333   8.523   3.059   7.041 -1.3985 -1.0260 -0.8946
 5791SOL     OW23334   6.767   0.616   0.056 -0.0764  0.0435  0.0130
 5791SOL    HW123335   6.854   0.633   0.094  0.1181  1.5633 -1.0338
 5791SOL    HW223336   6.783   0.555  -0.016  0.1377  0.3778 -0.2235
 5792SOL     OW23337   8.414   2.447   4.879 -0.1113 -0.0571  0.0314
 5792SOL    HW123338   8.467   2.492   4.813  0.4088 -2.5574 -1.3769
 5792SOL    HW223339   8.380   2.517   4.934  1.9789  1.8981 -1.0081
 5793SOL     OW23340   8.816   8.809   8.651  0.3398 -0.2716 -0.2251
 5793SOL    HW123341   8.738   8.816   8.706 -0.0932  0.4583 -0.8974
 5793SOL    HW223342   8.863   8.733   8.684 -0.3364 -0.3375  0.6031
 5794SOL     OW23343   5.393   1.482   4.983  0.1390 -0.1936 -0.1484
 5794SOL    HW123344   5.377   1.507   4.892  1.1402 -0.3072 -0.3672
 5794SOL    HW223345   5.428   1.393   4.977  0.2229 -0.1961  0.3499
 5795SOL     OW23346   0.306   7.323   6.265  0.0051 -0.0300 -0.3157
 5795SOL    HW123347   0.292   7.363   6.179 -0.7857 -0.6463 -0.4803
 5795SOL    HW223348   0.365   7.383   6.310 -0.6214  0.9640 -0.8064
 5796SOL     OW23349   3.336   6.075   7.636 -0.4107 -0.2442  0.2274
 5796SOL    HW123350   3.403   6.077   7.568 -0.4214 -2.2257  0.0912
 5796SOL    HW223351   3.284   6.154   7.621  0.6158  0.2388 -0.9772
 5797SOL     OW23352   3.777   4.469   0.624 -0.5327 -0.2909  0.4568
 5797SOL    HW123353   3.745   4.559   0.617 -1.4524 -0.4705  1.8395
 5797SOL    HW223354   3.857   4.476   0.676  1.7180  0.1232 -2.7550
 5798SOL     OW23355   0.865   8.116   1.251 -0.9194 -0.0543 -0.1535
 5798SOL    HW123356   0.808   8.167   1.309  0.7820 -0.7508  2.2951
 5798SOL    HW223357   0.831   8.026   1.258  0.2743 -0.4340  1.1544
 5799SOL     OW23358   7.190   8.666   1.419  0.8738 -0.6930  0.3356
 5799SOL    HW123359   7.112   8.654   1.474 -0.0041 -1.5043 -1.0406
 5799SOL    HW223360   7.201   8.760   1.413 -0.3614 -0.5528  0.0718
 5800SOL     OW23361   7.983   5.270   4.573  0.1763  0.4608  0.1802
 5800SOL    HW123362   7.958   5.181   4.600  0.3949  0.2310 -0.3801
 5800SOL    HW223363   7.913   5.298   4.514 -0.2472  0.9264  0.8889
 5801SOL     OW23364   8.109   4.915   0.750 -0.0317  0.0595 -0.4538
 5801SOL    HW123365   8.081   4.869   0.829  1.1628 -2.3549 -1.3519
 5801SOL    HW223366   8.189   4.961   0.777 -0.9139  1.2336  0.2926
 5802SOL     OW23367   0.534   6.731   6.364  0.2456  0.1951  0.7097
 5802SOL    HW123368   0.504   6.640   6.358 -0.4427  0.5129 -2.2901
 5802SOL    HW223369   0.620   6.731   6.322  0.3265  0.9140  0.8617
 5803SOL     OW23370   8.302   2.113   1.603  0.0226 -0.7504 -0.3198
 5803SOL    HW123371   8.238   2.141   1.669  0.3467 -0.3741 -0.1653
 5803SOL    HW223372   8.368   2.066   1.653 -0.9786 -2.6435 -0.6767
 5804SOL     OW23373   0.785   6.394   4.159  0.0881  0.6488 -0.0091
 5804SOL    HW123374   0.858   6.335   4.140  0.2192  1.4963 -2.6672
 5804SOL    HW223375   0.707   6.343   4.140  0.1709  0.9556 -1.2780
 5805SOL     OW23376   2.171   7.448   2.469 -0.1322  0.2890 -0.1199
 5805SOL    HW123377   2.260   7.478   2.451 -0.5861  2.1170  0.5027
 5805SOL    HW223378   2.168   7.359   2.433  2.8518 -1.0747  2.5500
 5806SOL     OW23379   5.280   0.613   1.767  0.1275  0.4168  0.0463
 5806SOL    HW123380   5.291   0.520   1.788  0.0416  0.7285  1.6644
 5806SOL    HW223381   5.190   0.633   1.794  0.4250  1.1510  0.5528
 5807SOL     OW23382   8.242   6.376   1.817  0.5004  0.7371  0.7410
 5807SOL    HW123383   8.206   6.329   1.893  2.0943 -1.4295  0.2463
 5807SOL    HW223384   8.283   6.454   1.855 -2.5025  2.1023  1.5459
 5808SOL     OW23385   2.773   0.459   0.575  0.0974 -0.1599 -0.1800
 5808SOL    HW123386   2.759   0.463   0.481  0.4034  1.6055 -0.1883
 5808SOL    HW223387   2.869   0.460   0.585  0.0970  1.7510  0.1426
 5809SOL     OW23388   1.915   3.233   1.403  0.0738  0.7986  0.0616
 5809SOL    HW123389   1.911   3.258   1.310  0.9380  0.5453 -0.0518
 5809SOL    HW223390   1.917   3.137   1.401  0.2842  0.7985  0.3394
 5810SOL     OW23391   8.644   4.532   8.593 -0.2477  0.1185  0.7234
 5810SOL    HW123392   8.578   4.602   8.589  0.0724  0.5319  2.1077
 5810SOL    HW223393   8.673   4.522   8.502 -1.5386  0.5671  0.2276
 5811SOL     OW23394   8.017   6.923   7.838 -0.1801  0.2023 -0.3485
 5811SOL    HW123395   7.976   6.950   7.921 -0.1438  0.3260 -0.3713
 5811SOL    HW223396   7.975   6.840   7.817 -1.2737  0.8714 -0.9627
 5812SOL     OW23397   1.216   1.602   0.994 -0.4111  0.2240 -0.5251
 5812SOL    HW123398   1.216   1.541   1.067 -1.9586 -1.3590 -1.7734
 5812SOL    HW223399   1.288   1.575   0.938  0.1916  0.8588 -0.0735
 5813SOL     OW23400   0.885   3.489   3.471 -0.4043 -0.1966 -0.3201
 5813SOL    HW123401   0.915   3.399   3.456 -1.4948 -0.3924 -1.4776
 5813SOL    HW223402   0.917   3.538   3.395  1.8564  0.8766  1.2089
 5814SOL     OW23403   5.850   2.521   2.834 -0.3676  0.0513  0.0360
 5814SOL    HW123404   5.930   2.477   2.863 -0.1353  0.7001  0.4234
 5814SOL    HW223405   5.876   2.566   2.753 -0.5057 -0.2319 -0.1659
 5815SOL     OW23406   6.576   5.895   4.412  0.1195  0.2276 -0.0377
 5815SOL    HW123407   6.627   5.975   4.422 -2.5875  1.9914  0.5388
 5815SOL    HW223408   6.639   5.825   4.429  2.4509  2.1993  0.0640
 5816SOL     OW23409   2.890   6.413   1.247  0.1967  0.2428  0.2418
 5816SOL    HW123410   2.916   6.383   1.334 -0.9645  0.4555  0.6720
 5816SOL    HW223411   2.808   6.460   1.261 -0.0078  0.2744 -0.9738
 5817SOL     OW23412   6.592   3.429   2.066  0.1599 -0.1613  0.6229
 5817SOL    HW123413   6.529   3.476   2.120  2.1155  0.1700  2.8180
 5817SOL    HW223414   6.608   3.486   1.991 -1.2717  0.2495  0.6047
 5818SOL     OW23415   3.438   4.099   9.252  0.6018 -0.1669  0.3283
 5818SOL    HW123416   3.447   4.179   9.303  0.0679 -0.7504  1.3748
 5818SOL    HW223417   3.522   4.089   9.208  1.1631  0.2483  1.2722
 5819SOL     OW23418   1.567   2.914   2.470 -0.1500 -0.4865  0.2192
 5819SOL    HW123419   1.618   2.885   2.394  0.6162  0.6662  0.2704
 5819SOL    HW223420   1.626   2.973   2.517 -1.2622  0.2521  0.7214
 5820SOL     OW23421   7.889   8.808   4.747  0.0242  0.4835  0.4497
 5820SOL    HW123422   7.866   8.721   4.714 -1.8106  0.7161  0.9892
 5820SOL    HW223423   7.925   8.791   4.834  1.6287  0.1424 -0.2399
 5821SOL     OW23424   8.661   4.496   5.969 -0.6087  0.2045 -0.0816
 5821SOL    HW123425   8.673   4.586   5.938  0.1950 -0.2282 -1.0814
 5821SOL    HW223426   8.714   4.490   6.048  1.8892 -0.2276 -1.6754
 5822SOL     OW23427   8.073   2.311   3.884 -0.0454  0.0603  0.2396
 5822SOL    HW123428   8.085   2.219   3.908  2.2840  0.0895 -0.5050
 5822SOL    HW223429   8.162   2.343   3.871 -0.8369  2.3097  0.0147
 5823SOL     OW23430   6.665   8.222   1.776  0.1145 -0.4445 -0.4768
 5823SOL    HW123431   6.646   8.223   1.870  0.6095 -2.0761 -0.3170
 5823SOL    HW223432   6.760   8.209   1.772  0.0889 -0.4176 -1.2039
 5824SOL     OW23433   7.151   7.392   8.645  0.5013  0.4843  0.5261
 5824SOL    HW123434   7.092   7.324   8.610  0.8639  0.4492 -0.0299
 5824SOL    HW223435   7.211   7.345   8.702  0.3665  0.4283  0.6220
 5825SOL     OW23436   0.944   2.338   7.170  0.3717  0.3491  0.4281
 5825SOL    HW123437   0.978   2.256   7.206  1.1558  0.8506  0.8704
 5825SOL    HW223438   1.018   2.399   7.175  0.0464  0.8599 -0.6668
 5826SOL     OW23439   4.750   2.507   1.166 -0.1572  0.4936  0.4931
 5826SOL    HW123440   4.701   2.426   1.178 -0.7381  0.6948 -0.3986
 5826SOL    HW223441   4.683   2.573   1.147  0.4476  0.6917 -1.1529
 5827SOL     OW23442   6.678   7.155   1.967 -0.3879  0.2842  0.1895
 5827SOL    HW123443   6.606   7.197   2.014  1.7914  1.5213  2.6293
 5827SOL    HW223444   6.714   7.092   2.028  0.7018 -0.2185 -0.9288
 5828SOL     OW23445   4.884   6.448   6.311  0.2432  0.5488  0.0264
 5828SOL    HW123446   4.965   6.473   6.357 -0.0782 -0.3003  1.0994
 5828SOL    HW223447   4.816   6.454   6.379 -0.2955 -0.4889 -0.4039
 5829SOL     OW23448   1.388   0.950   2.419 -0.2206  0.0814 -0.3975
 5829SOL    HW123449   1.408   0.925   2.329 -1.9183  0.9336 -1.0639
 5829SOL    HW223450   1.295   0.976   2.417 -0.2499  0.3104  1.5522
 5830SOL     OW23451   3.314   6.649   8.391  0.5150  0.2608  0.2005
 5830SOL    HW123452   3.272   6.735   8.385  0.1550 -0.0124 -1.8261
 5830SOL    HW223453   3.256   6.597   8.446  0.5469  1.1805  1.1334
 5831SOL     OW23454   1.467   2.215   0.505  0.7623 -0.1910 -0.0513
 5831SOL    HW123455   1.461   2.304   0.470  1.1928 -0.1114  0.0745
 5831SOL    HW223456   1.377   2.182   0.501  0.5944  0.2581 -0.0727
 5832SOL     OW23457   5.422   2.203   8.700  0.0825  0.1474 -0.4385
 5832SOL    HW123458   5.489   2.222   8.766 -0.8188  0.3104  0.4548
 5832SOL    HW223459   5.472   2.177   8.623  1.1447 -0.9691  0.5790
 5833SOL     OW23460   3.017   9.089   5.460 -0.0257  0.1314  0.6692
 5833SOL    HW123461   2.926   9.059   5.457  0.0145  0.1051 -0.9114
 5833SOL    HW223462   3.067   9.020   5.416  0.3524  1.4613 -1.0883
 5834SOL     OW23463   5.326   5.291   0.039 -0.0161 -0.3614 -0.3190
 5834SOL    HW123464   5.339   5.204   0.001  1.9197 -0.8115  1.2147
 5834SOL    HW223465   5.268   5.276   0.114  0.1665 -0.2853 -0.1642
 5835SOL     OW23466   0.226   8.991   2.244  0.0003  0.1545  0.4883
 5835SOL    HW123467   0.184   8.995   2.158  0.7898  2.0318  0.1209
 5835SOL    HW223468   0.157   9.014   2.306 -0.0155  1.3039  0.0753
 5836SOL     OW23469   0.812   1.646   2.559  0.6840  0.1100  0.0713
 5836SOL    HW123470   0.795   1.740   2.562  0.3839  0.1139 -1.1659
 5836SOL    HW223471   0.769   1.616   2.478  1.8456 -0.8631 -0.2177
 5837SOL     OW23472   7.672   4.348   3.679  0.2572 -0.6490  0.2459
 5837SOL    HW123473   7.728   4.424   3.664 -0.5089 -0.2344 -0.6118
 5837SOL    HW223474   7.733   4.275   3.692  0.9939 -0.0300  0.3003
 5838SOL     OW23475   3.003   3.575   0.997 -0.5613  0.4984 -0.6166
 5838SOL    HW123476   2.972   3.665   1.003 -1.0859  0.3303 -0.7785
 5838SOL    HW223477   2.936   3.523   1.041 -0.3769  0.1630 -0.7303
 5839SOL     OW23478   1.518   7.374   3.433  0.3502 -0.4304  0.4087
 5839SOL    HW123479   1.543   7.444   3.373  1.2225 -0.6127  0.5516
 5839SOL    HW223480   1.459   7.415   3.496  1.8610  0.5173  1.2763
 5840SOL     OW23481   0.765   6.875   9.271  0.1906 -0.2592  0.2939
 5840SOL    HW123482   0.717   6.797   9.300  1.1845 -0.8047  0.5248
 5840SOL    HW223483   0.848   6.871   9.319  0.0379  1.2493  0.7210
 5841SOL     OW23484   8.552   6.157   7.614  0.1913  0.1445  0.1622
 5841SOL    HW123485   8.548   6.092   7.684  0.6718 -0.2405 -0.1683
 5841SOL    HW223486   8.614   6.223   7.646  0.1264  0.1608  0.2552
 5842SOL     OW23487   7.191   3.350   3.065 -0.8017  0.1304 -0.3955
 5842SOL    HW123488   7.251   3.327   2.994 -1.3796 -1.9853 -0.2607
 5842SOL    HW223489   7.248   3.362   3.141 -0.2553  1.6117 -1.0020
 5843SOL     OW23490   5.629   0.931   6.478 -0.2930  0.7018  0.0314
 5843SOL    HW123491   5.638   1.025   6.491 -0.2261  0.7498 -0.3452
 5843SOL    HW223492   5.585   0.922   6.394 -1.5112  0.4133  0.6765
 5844SOL     OW23493   2.057   8.315   0.545 -0.1242  0.1724  0.2274
 5844SOL    HW123494   2.127   8.283   0.602 -0.2495 -0.7273 -0.1051
 5844SOL    HW223495   2.089   8.297   0.456 -1.8657 -2.8381  0.0581
 5845SOL     OW23496   2.358   2.847   8.071  0.1108 -0.2511  0.0714
 5845SOL    HW123497   2.383   2.859   7.979 -0.2575 -1.2802 -0.1750
 5845SOL    HW223498   2.398   2.922   8.116  2.3060 -0.9639 -0.5421
 5846SOL     OW23499   2.263   2.270   5.208  0.3361  0.0624  0.4897
 5846SOL    HW123500   2.293   2.265   5.299  3.7797 -0.0199 -0.4978
 5846SOL    HW223501   2.260   2.363   5.189  0.0763  0.0640  0.5318
 5847SOL     OW23502   5.501   6.330   9.168 -0.1032 -0.3025  1.3611
 5847SOL    HW123503   5.466   6.271   9.235  0.2038 -0.1904  1.6161
 5847SOL    HW223504   5.565   6.277   9.120  0.4086 -0.0796  1.7964
 5848SOL     OW23505   3.714   6.806   0.268 -0.1204  0.1669  0.1480
 5848SOL    HW123506   3.689   6.814   0.175  0.4982 -0.0308 -0.0421
 5848SOL    HW223507   3.632   6.788   0.313 -0.3736 -0.1633 -0.4206
 5849SOL     OW23508   8.141   7.491   3.705 -0.0027 -0.7842  0.1224
 5849SOL    HW123509   8.124   7.403   3.737 -2.9620 -0.5352 -0.4085
 5849SOL    HW223510   8.096   7.548   3.768  0.0642  0.1733 -0.6629
 5850SOL     OW23511   4.478   7.073   0.512  0.2168  0.0393 -0.5310
 5850SOL    HW123512   4.450   7.023   0.589 -2.7293  1.1233 -0.7901
 5850SOL    HW223513   4.498   7.006   0.446 -0.2587 -0.8566  0.2032
 5851SOL     OW23514   5.698   7.088   5.451  0.0346  0.4116  0.4578
 5851SOL    HW123515   5.621   7.124   5.408 -1.9995 -2.0894  1.7768
 5851SOL    HW223516   5.704   6.998   5.421  0.8862 -0.2227  2.3569
 5852SOL     OW23517   5.723   8.378   3.298  0.1509 -0.0848 -0.0248
 5852SOL    HW123518   5.694   8.384   3.207  1.3137  0.2499 -0.3872
 5852SOL    HW223519   5.643   8.387   3.349 -0.4453  0.3025 -0.9989
 5853SOL     OW23520   7.249   9.330   6.355 -0.3969 -0.5005 -0.1200
 5853SOL    HW123521   7.193   9.318   6.278 -0.3132 -0.1862 -0.2312
 5853SOL    HW223522   7.229   9.255   6.411  0.5580 -1.5084 -1.0810
 5854SOL     OW23523   8.576   8.839   5.465  0.6405 -0.3701  0.0286
 5854SOL    HW123524   8.557   8.821   5.557  1.0896  0.5172  0.3100
 5854SOL    HW223525   8.542   8.927   5.450 -0.6326 -1.0019 -1.0379
 5855SOL     OW23526   0.110   1.006   6.734 -0.4693 -0.4036  0.8300
 5855SOL    HW123527   0.125   0.914   6.710  2.1541  0.2518 -0.3604
 5855SOL    HW223528   0.080   1.002   6.825 -0.9860 -2.4380  0.6253
 5856SOL     OW23529   7.782   4.506   0.043 -0.0234  0.4951 -0.1525
 5856SOL    HW123530   7.877   4.495   0.051 -0.0326 -1.1499 -1.6624
 5856SOL    HW223531   7.748   4.482   0.130  0.9086  0.7039  0.2827
 5857SOL     OW23532   1.363   7.424   4.780 -0.2787 -0.2906  0.0440
 5857SOL    HW123533   1.409   7.342   4.792  3.1316  1.2928 -0.9943
 5857SOL    HW223534   1.429   7.492   4.797 -2.8359  2.2723  0.6468
 5858SOL     OW23535   3.272   8.869   6.427  0.3982 -0.0576  0.0643
 5858SOL    HW123536   3.213   8.817   6.480 -0.0637  0.9075  0.5222
 5858SOL    HW223537   3.343   8.894   6.487 -0.1598  1.0939  0.2847
 5859SOL     OW23538   5.605   0.018   6.238 -0.9181  0.4753  0.1601
 5859SOL    HW123539   5.618   0.106   6.202  0.8884 -0.2066 -0.9747
 5859SOL    HW223540   5.603  -0.039   6.161 -0.4650 -0.6432  0.9546
 5860SOL     OW23541   4.116   7.855   6.833 -0.3565  0.4199  0.1566
 5860SOL    HW123542   4.092   7.888   6.920 -1.4419  0.1375 -0.0137
 5860SOL    HW223543   4.160   7.928   6.791 -0.5058  0.8179  0.6806
 5861SOL     OW23544   1.037   3.802   5.331  0.2169  0.5195  0.2568
 5861SOL    HW123545   0.981   3.880   5.328 -0.5215 -0.0178 -2.4017
 5861SOL    HW223546   1.011   3.751   5.255  0.7230 -2.3539  1.8590
 5862SOL     OW23547   0.005   5.129   5.597 -0.2626 -0.4706  0.0996
 5862SOL    HW123548   0.095   5.137   5.567  0.0540 -0.8548  0.9288
 5862SOL    HW223549   0.011   5.122   5.692 -1.1655 -0.5365  0.1677
 5863SOL     OW23550   0.903   2.513   8.062  0.0326 -0.7695  0.1785
 5863SOL    HW123551   0.863   2.544   8.144  0.5330 -0.2632  0.2359
 5863SOL    HW223552   0.891   2.586   8.001 -0.0582 -1.0254 -0.1136
 5864SOL     OW23553   8.251   4.254   7.277 -0.1727 -0.2070 -0.4946
 5864SOL    HW123554   8.332   4.295   7.306  0.3450 -0.1594 -1.9020
 5864SOL    HW223555   8.231   4.296   7.193 -0.0509 -2.2172 -1.6091
 5865SOL     OW23556   3.071   1.099   8.525  0.8733 -0.1829 -0.2064
 5865SOL    HW123557   2.978   1.111   8.541  0.7033  0.0812 -1.3380
 5865SOL    HW223558   3.112   1.113   8.611 -0.0694  0.2759  0.1785
 5866SOL     OW23559   0.120   5.630   7.146 -0.3125  0.1858 -0.3218
 5866SOL    HW123560   0.142   5.714   7.185 -0.7124  0.3113 -0.3633
 5866SOL    HW223561   0.096   5.574   7.219 -1.5937  0.5822 -0.4181
 5867SOL     OW23562   5.165   1.437   1.514 -0.7080  0.1217  0.4208
 5867SOL    HW123563   5.102   1.435   1.587 -0.4657 -1.6622  0.6238
 5867SOL    HW223564   5.243   1.395   1.549 -0.9350 -1.7180 -1.1592
 5868SOL     OW23565   3.586   1.957   6.095 -0.1663 -0.2388  0.4083
 5868SOL    HW123566   3.535   1.879   6.118 -0.2807  0.1375  1.5024
 5868SOL    HW223567   3.675   1.925   6.081 -0.2455 -0.5897  0.7015
 5869SOL     OW23568   5.280   9.102   3.543 -0.9515 -0.3833 -0.1297
 5869SOL    HW123569   5.360   9.064   3.509 -1.6693 -0.6481 -1.5848
 5869SOL    HW223570   5.210   9.052   3.501 -1.8925  1.3266 -0.6649
 5870SOL     OW23571   7.509   6.852   8.375  0.0267 -0.4338  0.1169
 5870SOL    HW123572   7.565   6.785   8.336 -0.3707 -1.3003  1.0199
 5870SOL    HW223573   7.566   6.929   8.381  0.1464 -0.2797 -2.0430
 5871SOL     OW23574   3.152   1.908   2.235  0.0965 -0.2958 -0.2298
 5871SOL    HW123575   3.072   1.957   2.255  0.2197  0.2662 -1.0707
 5871SOL    HW223576   3.124   1.817   2.229 -0.1758 -0.3207  1.1379
 5872SOL     OW23577   5.276   7.517   2.738 -0.4158 -0.1820 -0.1316
 5872SOL    HW123578   5.348   7.530   2.676 -0.9181  1.9911 -0.3209
 5872SOL    HW223579   5.318   7.487   2.818  0.6957  0.8638 -0.2949
 5873SOL     OW23580   2.222   5.517   5.043 -0.5191 -0.4060  0.0648
 5873SOL    HW123581   2.233   5.517   4.948  0.8064  1.9047  0.1450
 5873SOL    HW223582   2.292   5.461   5.076  0.8577  1.0347 -0.2566
 5874SOL     OW23583   3.052   6.466   6.898 -0.3532 -0.6617  0.1138
 5874SOL    HW123584   3.037   6.508   6.983 -0.9021 -1.1919  0.2870
 5874SOL    HW223585   2.966   6.465   6.856 -0.0567 -0.2923 -0.5012
 5875SOL     OW23586   2.818   7.807   4.702  0.1525  0.2290  0.0722
 5875SOL    HW123587   2.891   7.751   4.726 -0.8797 -0.3418  2.0795
 5875SOL    HW223588   2.847   7.896   4.724  0.5220  0.0977  0.1083
 5876SOL     OW23589   5.053   5.425   8.271 -0.2800 -0.0797  0.6272
 5876SOL    HW123590   4.976   5.443   8.217 -0.2887  0.1153  0.7062
 5876SOL    HW223591   5.127   5.437   8.211 -0.2456  0.8729  0.8407
 5877SOL     OW23592   0.483   4.325   1.107  0.3821 -0.3978 -0.2064
 5877SOL    HW123593   0.534   4.328   1.188 -0.6899  0.1555  0.4717
 5877SOL    HW223594   0.544   4.354   1.039  0.7289  1.1830  0.7244
 5878SOL     OW23595   3.379   1.232   4.710 -0.6742 -0.2273 -0.1467
 5878SOL    HW123596   3.393   1.321   4.739  0.6761 -0.5167  0.1502
 5878SOL    HW223597   3.349   1.185   4.788  1.2013 -0.6032  0.3886
 5879SOL     OW23598   0.034   1.619   3.227  0.4148 -0.6518  0.1794
 5879SOL    HW123599   0.048   1.567   3.306 -0.3043 -1.6983 -0.3530
 5879SOL    HW223600  -0.037   1.574   3.181 -0.0944  0.7068 -0.4118
 5880SOL     OW23601   3.576   3.741   6.516  0.1331 -0.2390 -0.6125
 5880SOL    HW123602   3.516   3.720   6.587  0.2981  0.8150 -0.1413
 5880SOL    HW223603   3.641   3.799   6.556  1.3028 -1.1374 -1.1875
 5881SOL     OW23604   3.346   4.891   1.427  0.1891  0.0660 -0.2600
 5881SOL    HW123605   3.286   4.819   1.404 -1.8378  0.0143  4.0618
 5881SOL    HW223606   3.298   4.970   1.404  0.7709  0.0766 -1.5090
 5882SOL     OW23607   7.691   5.374   4.417 -0.3187  0.2918 -0.0932
 5882SOL    HW123608   7.617   5.317   4.438  0.3689 -0.4648  0.3517
 5882SOL    HW223609   7.699   5.369   4.322  0.3325 -1.1631  0.0124
 5883SOL     OW23610   4.580   7.526   4.341 -0.7584  0.2031 -0.1046
 5883SOL    HW123611   4.658   7.476   4.367 -0.4831  0.9382  0.4970
 5883SOL    HW223612   4.571   7.508   4.247 -1.1566 -1.6472  0.2474
 5884SOL     OW23613   2.839   8.550   2.676 -0.6155  0.0942 -0.0101
 5884SOL    HW123614   2.772   8.532   2.742  0.0206  0.8986  0.8968
 5884SOL    HW223615   2.889   8.468   2.671  0.1967  0.4401  1.5894
 5885SOL     OW23616   0.695   5.902   1.633  0.0574  0.3372  0.5273
 5885SOL    HW123617   0.653   5.981   1.665 -1.7407 -0.2584 -0.2411
 5885SOL    HW223618   0.697   5.912   1.537  1.0520  0.0354  0.5012
 5886SOL     OW23619   1.056   2.118   6.223 -0.1541  0.1377  0.8563
 5886SOL    HW123620   0.983   2.110   6.162  0.5075 -2.1261  0.2561
 5886SOL    HW223621   1.119   2.051   6.194  0.6626 -0.3012  3.3757
 5887SOL     OW23622   0.188   2.514   2.764 -0.7266  0.2381 -0.7886
 5887SOL    HW123623   0.168   2.421   2.768 -0.8832  0.2651 -0.9266
 5887SOL    HW223624   0.148   2.544   2.682  0.4451  0.1663 -1.3953
 5888SOL     OW23625   2.488   5.272   3.097  0.3480 -0.0097  0.3635
 5888SOL    HW123626   2.431   5.253   3.022  0.0133  1.7985  0.1211
 5888SOL    HW223627   2.438   5.334   3.151  1.1339 -0.2364  1.3800
 5889SOL     OW23628   4.037   7.577   1.362 -0.2934 -0.0991  0.2547
 5889SOL    HW123629   3.993   7.610   1.284 -0.2495 -0.2174  0.1803
 5889SOL    HW223630   4.116   7.631   1.371 -0.1461 -0.2810  0.0502
 5890SOL     OW23631   7.235   4.081   3.178 -0.0795  0.3859 -0.6554
 5890SOL    HW123632   7.245   4.125   3.263  0.5320 -0.7547 -0.1071
 5890SOL    HW223633   7.224   4.152   3.115  0.3194  1.2956  0.2700
 5891SOL     OW23634   1.514   0.786   2.172 -0.2417 -0.6180  1.0401
 5891SOL    HW123635   1.478   0.717   2.228  0.2415 -2.3191 -0.6214
 5891SOL    HW223636   1.454   0.788   2.097 -0.1098  0.6385  0.9564
 5892SOL     OW23637   7.671   3.559   3.284  0.5664  0.1043  0.4643
 5892SOL    HW123638   7.629   3.645   3.283  0.4656  0.0596  0.6799
 5892SOL    HW223639   7.722   3.558   3.365  1.6544  0.4656 -0.1983
 5893SOL     OW23640   7.897   3.906   7.734  0.0067  0.3503  0.1066
 5893SOL    HW123641   7.913   3.814   7.753  0.9432  0.4531 -0.0921
 5893SOL    HW223642   7.961   3.953   7.788 -0.3383  0.8705  0.0709
 5894SOL     OW23643   9.327   4.264   2.249  0.6694  0.5259 -0.3210
 5894SOL    HW123644   9.401   4.214   2.215  1.4112  1.2783  0.1536
 5894SOL    HW223645   9.279   4.293   2.171  0.5138 -0.4937 -0.6092
 5895SOL     OW23646   0.361   8.632   9.229 -0.2629 -0.3797  0.2076
 5895SOL    HW123647   0.289   8.673   9.278 -0.9447  0.0118 -1.0929
 5895SOL    HW223648   0.346   8.657   9.138  0.1916 -2.2281 -0.4279
 5896SOL     OW23649   8.073   1.565   9.095 -0.2547 -0.2675  0.4909
 5896SOL    HW123650   8.063   1.486   9.041  0.6891 -0.5589  0.7389
 5896SOL    HW223651   7.985   1.581   9.130 -0.6464 -0.6926 -0.2647
 5897SOL     OW23652   6.440   9.278   7.622 -0.3557  0.3537  0.1542
 5897SOL    HW123653   6.533   9.298   7.607 -0.1783 -0.6732 -0.1408
 5897SOL    HW223654   6.399   9.298   7.538 -0.0066 -1.4869 -0.4856
 5898SOL     OW23655   2.245   7.921   3.773 -0.6600  0.2258 -0.4072
 5898SOL    HW123656   2.261   7.982   3.846 -0.5474  0.1017 -0.3286
 5898SOL    HW223657   2.204   7.845   3.814  0.6448 -0.4287 -0.2573
 5899SOL     OW23658   6.442   0.745   0.329  0.0883 -0.3044  0.0642
 5899SOL    HW123659   6.477   0.834   0.326  0.9938 -0.6351  0.4954
 5899SOL    HW223660   6.516   0.689   0.304 -0.5225 -0.9294 -0.4031
 5900SOL     OW23661   7.917   1.792   8.759 -0.2702  0.1146 -0.0682
 5900SOL    HW123662   7.824   1.769   8.758 -0.1527 -0.4014  0.5866
 5900SOL    HW223663   7.958   1.726   8.815  0.0186  2.0938  2.2138
 5901SOL     OW23664   3.478   8.252   8.024  0.7856 -0.3918 -0.4313
 5901SOL    HW123665   3.481   8.211   7.937 -0.6224 -0.1007 -0.6448
 5901SOL    HW223666   3.530   8.332   8.015 -0.2740  0.2158 -1.3490
 5902SOL     OW23667   8.479   1.203   8.860  0.0094  0.4638  0.3532
 5902SOL    HW123668   8.455   1.115   8.888  1.0900  0.1687  0.4110
 5902SOL    HW223669   8.535   1.236   8.931  0.2120  0.9135 -0.0131
 5903SOL     OW23670   8.752   2.221   0.185  0.3473  0.6870 -0.3096
 5903SOL    HW123671   8.814   2.151   0.166 -0.2199  0.3608 -0.9985
 5903SOL    HW223672   8.726   2.254   0.099  0.8220  1.9439  0.0069
 5904SOL     OW23673   3.151   0.916   1.809  0.4228  0.3686 -0.1321
 5904SOL    HW123674   3.146   1.001   1.765  0.0108 -0.1011 -1.0405
 5904SOL    HW223675   3.095   0.925   1.885  0.6471  1.0152 -0.0378
 5905SOL     OW23676   9.159   6.137   1.862  0.3351 -0.1936 -0.3365
 5905SOL    HW123677   9.121   6.139   1.949  0.7161 -1.0799 -0.1415
 5905SOL    HW223678   9.189   6.227   1.846  0.0521  0.0213  0.3455
 5906SOL     OW23679   6.010   1.720   5.356 -0.2558  0.1804 -0.1352
 5906SOL    HW123680   5.960   1.763   5.424 -0.4318 -0.2790  0.0328
 5906SOL    HW223681   5.944   1.691   5.292 -0.4150 -1.7590  0.8149
 5907SOL     OW23682   4.310   4.239   1.381 -0.1894 -0.4724  0.5237
 5907SOL    HW123683   4.338   4.276   1.465 -0.8636  1.3463  0.0027
 5907SOL    HW223684   4.287   4.315   1.328 -0.5543 -1.6244 -1.0421
 5908SOL     OW23685   2.023   2.640   7.059  0.6650 -0.5141 -0.2256
 5908SOL    HW123686   2.099   2.629   7.001  0.3023  1.3112 -1.1084
 5908SOL    HW223687   2.002   2.733   7.054 -1.3797 -0.9037  0.3418
 5909SOL     OW23688   0.703   6.554   5.478 -0.1091  0.1527  0.3126
 5909SOL    HW123689   0.706   6.473   5.529 -0.1158  0.5886  1.0170
 5909SOL    HW223690   0.756   6.535   5.400  0.7828 -0.1937  0.9774
 5910SOL     OW23691   1.322   2.978   6.253 -0.1914 -0.8277  0.4898
 5910SOL    HW123692   1.229   2.958   6.249 -1.1529  2.7180  1.5864
 5910SOL    HW223693   1.333   3.032   6.331  2.9334 -1.6064  0.7478
 5911SOL     OW23694   3.216   0.848   4.920  0.1330 -0.8848  0.4362
 5911SOL    HW123695   3.206   0.810   4.832 -1.6768 -0.6443  0.4943
 5911SOL    HW223696   3.286   0.797   4.960  1.2313 -0.7955 -1.2448
 5912SOL     OW23697   8.243   8.434   8.753  0.0456 -0.3043  0.3873
 5912SOL    HW123698   8.286   8.388   8.825  0.8750  0.0824  0.1499
 5912SOL    HW223699   8.286   8.519   8.749  0.0613 -0.3476 -0.6121
 5913SOL     OW23700   6.973   9.167   8.736 -0.0257  0.4027 -0.7942
 5913SOL    HW123701   7.029   9.131   8.804 -0.0792  0.0395 -0.9434
 5913SOL    HW223702   7.012   9.252   8.715 -0.0763  0.5706 -0.2264
 5914SOL     OW23703   0.768   5.288   8.446  0.0976 -0.0333 -0.6357
 5914SOL    HW123704   0.791   5.197   8.427  1.8002  0.4206 -0.8395
 5914SOL    HW223705   0.790   5.336   8.367 -0.2330  0.6550 -0.3185
 5915SOL     OW23706   4.564   4.013   2.950 -0.3866 -0.2313  0.4294
 5915SOL    HW123707   4.546   3.999   3.043 -3.0137 -0.0987  0.0034
 5915SOL    HW223708   4.530   4.100   2.931 -2.2251 -1.2099 -1.1419
 5916SOL     OW23709   4.000   6.695   2.382  0.0134 -0.0273 -0.0786
 5916SOL    HW123710   4.079   6.642   2.393  1.2082  1.6626 -0.1569
 5916SOL    HW223711   4.024   6.760   2.315 -2.0621 -0.6027 -1.4995
 5917SOL     OW23712   6.891   1.735   0.909 -0.3451  0.1613 -0.1849
 5917SOL    HW123713   6.883   1.667   0.842 -0.1597  2.0485 -2.2448
 5917SOL    HW223714   6.803   1.742   0.946 -0.9283  0.2989 -1.5244
 5918SOL     OW23715   7.629   6.691   9.171 -0.3702 -0.6736 -0.0712
 5918SOL    HW123716   7.581   6.697   9.088  0.7486 -1.6154 -0.8052
 5918SOL    HW223717   7.680   6.772   9.175 -0.9274 -0.3211  0.0309
 5919SOL     OW23718   5.587   5.039   4.904  0.3697 -0.1318 -0.5642
 5919SOL    HW123719   5.629   4.993   4.832  1.0776 -0.9871  0.3596
 5919SOL    HW223720   5.571   4.971   4.970 -1.0477  0.4639 -0.2553
 5920SOL     OW23721   5.963   4.142   5.971 -0.4204 -0.0047 -0.0855
 5920SOL    HW123722   6.033   4.098   5.924 -0.6270 -0.1339 -0.2741
 5920SOL    HW223723   5.947   4.223   5.922 -0.8937 -0.3195 -0.4584
 5921SOL     OW23724   7.915   3.488   4.471  0.3502  1.2891  0.5189
 5921SOL    HW123725   7.956   3.430   4.407  0.0294 -2.4402  3.3775
 5921SOL    HW223726   7.829   3.507   4.434  0.1380 -0.8185 -0.2121
 5922SOL     OW23727   5.031   7.703   5.031 -0.1883 -0.1453  0.3213
 5922SOL    HW123728   5.031   7.655   5.114  0.7783 -0.4242  0.1771
 5922SOL    HW223729   5.054   7.638   4.965 -1.6241 -0.0763 -0.2878
 5923SOL     OW23730   1.527   2.957   7.699  0.0485 -0.4546 -0.4414
 5923SOL    HW123731   1.507   2.909   7.620  0.2416  1.0350 -1.4425
 5923SOL    HW223732   1.527   2.891   7.769 -0.5037 -1.7251 -1.6058
 5924SOL     OW23733   8.208   0.068   5.516 -0.4470 -0.8018 -0.0565
 5924SOL    HW123734   8.196   0.146   5.569  1.0097 -0.6034  0.0077
 5924SOL    HW223735   8.287   0.027   5.550  0.5405 -0.6574 -2.0518
 5925SOL     OW23736   0.393   2.951   3.696  0.2572  0.4190 -0.1432
 5925SOL    HW123737   0.314   2.954   3.749  0.3091 -0.9777  0.0469
 5925SOL    HW223738   0.429   2.863   3.710  2.7226  1.4948  1.0095
 5926SOL     OW23739   5.609   3.368   5.576 -0.1497 -0.4234 -1.0649
 5926SOL    HW123740   5.684   3.424   5.556 -0.0214  0.2888  1.0870
 5926SOL    HW223741   5.642   3.279   5.564  1.1709 -0.1353  0.1282
 5927SOL     OW23742   4.990   6.767   7.618 -0.1598 -0.3165 -0.0882
 5927SOL    HW123743   4.935   6.758   7.696 -0.9955 -0.2274 -0.6618
 5927SOL    HW223744   5.000   6.861   7.605 -0.8826 -0.3165 -0.6823
 5928SOL     OW23745   9.168   5.013   6.926  0.3245 -0.1431 -0.5726
 5928SOL    HW123746   9.097   4.952   6.905 -1.9446  2.7477 -2.1457
 5928SOL    HW223747   9.205   5.037   6.842  0.6329  1.1709 -0.0887
 5929SOL     OW23748   5.809   0.859   1.878 -0.1969  0.1462  0.0751
 5929SOL    HW123749   5.877   0.806   1.837  0.3181 -0.5652  1.7808
 5929SOL    HW223750   5.856   0.921   1.933 -0.8496  1.6563 -0.9783
 5930SOL     OW23751   3.597   4.901   3.220  0.4296  0.2437 -0.5052
 5930SOL    HW123752   3.515   4.941   3.249  0.8894  0.3605  0.6931
 5930SOL    HW223753   3.662   4.970   3.232  0.6861  0.2109 -1.6157
 5931SOL     OW23754   7.125   7.118   8.416 -0.1671 -0.1519  0.1848
 5931SOL    HW123755   7.070   7.090   8.343 -2.9183  0.6836  1.7760
 5931SOL    HW223756   7.104   7.057   8.487  1.9100 -0.5228  0.5629
 5932SOL     OW23757   8.572   7.149   6.495 -0.1116  0.7882 -0.6866
 5932SOL    HW123758   8.496   7.114   6.541 -0.6062 -0.7677 -2.5412
 5932SOL    HW223759   8.643   7.088   6.515  0.0012  0.8423 -0.9120
 5933SOL     OW23760   4.160   7.174   7.504 -0.2373  0.5032  0.0431
 5933SOL    HW123761   4.114   7.141   7.427 -1.0708 -0.3998  0.9009
 5933SOL    HW223762   4.191   7.096   7.549  0.5311  1.0348  0.4655
 5934SOL     OW23763   0.658   5.412   3.653 -0.5859 -0.2615  0.3778
 5934SOL    HW123764   0.571   5.413   3.614 -0.6916  0.1169  0.6152
 5934SOL    HW223765   0.702   5.338   3.612 -0.2661  0.8513 -1.3616
 5935SOL     OW23766   3.441   9.054   1.569  0.8075  0.0816  0.7745
 5935SOL    HW123767   3.409   8.970   1.534  0.2810  0.4041  0.4691
 5935SOL    HW223768   3.363   9.109   1.574  1.2438  0.7552  0.3971
 5936SOL     OW23769   8.017   5.062   4.233  0.1403  0.1872 -0.0619
 5936SOL    HW123770   8.050   5.147   4.203 -1.6210  0.0800 -2.6650
 5936SOL    HW223771   7.933   5.052   4.188 -1.3253 -1.4907  2.7819
 5937SOL     OW23772   0.854   7.599   9.183  0.2998  0.0464  0.3868
 5937SOL    HW123773   0.837   7.650   9.104 -0.5478  0.7622  1.0260
 5937SOL    HW223774   0.946   7.572   9.174  0.9473  2.0873  0.2539
 5938SOL     OW23775   2.000   5.668   5.060 -0.4646  0.4109 -0.6647
 5938SOL    HW123776   2.084   5.627   5.039  0.3138  1.9639 -0.7091
 5938SOL    HW223777   2.009   5.758   5.031 -0.4215  1.9363  3.4624
 5939SOL     OW23778   3.510   0.586   2.262 -0.6439 -0.2912  0.6630
 5939SOL    HW123779   3.531   0.493   2.274 -0.9712 -0.3558  0.7326
 5939SOL    HW223780   3.491   0.595   2.169  0.7001 -0.0282  0.3983
 5940SOL     OW23781   1.652   5.385   2.699  0.0964 -1.1540 -0.4598
 5940SOL    HW123782   1.596   5.441   2.646  1.3029 -0.0900 -0.6337
 5940SOL    HW223783   1.730   5.371   2.646  1.0261 -0.6544  0.7237
 5941SOL     OW23784   7.241   2.124   8.416  0.0416  0.3873 -0.1586
 5941SOL    HW123785   7.148   2.146   8.411 -0.4492 -1.6388 -1.0248
 5941SOL    HW223786   7.272   2.169   8.494 -2.4488 -1.4072  2.0662
 5942SOL     OW23787   7.085   2.739   5.005  0.7376 -0.0741  0.3103
 5942SOL    HW123788   7.117   2.818   4.961  0.9926 -0.1407  0.3720
 5942SOL    HW223789   7.106   2.668   4.944 -2.4075  0.1782 -1.3036
 5943SOL     OW23790   0.648   3.814   8.868 -0.2298 -0.4449 -0.2256
 5943SOL    HW123791   0.602   3.894   8.841 -0.7949 -0.4503  0.6923
 5943SOL    HW223792   0.741   3.839   8.868 -0.5284  1.6574  4.3286
 5944SOL     OW23793   5.457   6.408   1.063  0.0797 -0.2224 -0.1521
 5944SOL    HW123794   5.432   6.321   1.032  1.8726 -1.3008  1.1895
 5944SOL    HW223795   5.474   6.458   0.983 -0.2328 -1.3365 -0.9384
 5945SOL     OW23796   5.792   3.597   0.819 -0.0455  0.1314  0.3087
 5945SOL    HW123797   5.858   3.663   0.795 -0.1044 -0.4626 -1.6604
 5945SOL    HW223798   5.713   3.624   0.774 -0.7044 -0.1024  1.2865
 5946SOL     OW23799   5.196   3.433   2.062 -0.2613 -0.6295  0.1597
 5946SOL    HW123800   5.282   3.403   2.092 -0.3873 -0.8824  0.2675
 5946SOL    HW223801   5.143   3.437   2.141  0.0974  1.0700  0.3374
 5947SOL     OW23802   3.711   9.050   1.646  0.4866 -0.2252  0.6408
 5947SOL    HW123803   3.632   9.030   1.596  0.3294 -0.4316  0.9697
 5947SOL    HW223804   3.710   8.988   1.719  1.0948 -0.4171  0.4953
 5948SOL     OW23805   3.215   8.163   5.860  0.8904 -0.2415 -0.1368
 5948SOL    HW123806   3.249   8.241   5.904  0.3725 -0.1524  0.1105
 5948SOL    HW223807   3.243   8.090   5.914 -0.1474 -0.1058  0.6325
 5949SOL     OW23808   7.173   2.314   0.389  0.1295  0.0701 -0.3704
 5949SOL    HW123809   7.195   2.277   0.304  0.1082  0.1636 -0.4173
 5949SOL    HW223810   7.226   2.394   0.395  2.6811 -1.6090  1.1101
 5950SOL     OW23811   2.028   6.576   5.098  0.1724  0.0873 -0.6846
 5950SOL    HW123812   2.050   6.503   5.040 -0.9594 -1.7203  1.0354
 5950SOL    HW223813   1.940   6.603   5.071 -0.4845 -0.9623  0.3214
 5951SOL     OW23814   6.307   4.051   3.149  0.2496 -0.1724  0.1445
 5951SOL    HW123815   6.218   4.024   3.129  0.6119 -2.7194  1.5521
 5951SOL    HW223816   6.362   3.999   3.089  0.8504  0.9208 -0.2896
 5952SOL     OW23817   4.859   4.409   9.259 -0.3904  0.0849  0.2093
 5952SOL    HW123818   4.915   4.440   9.188  0.0634  1.1123  0.9832
 5952SOL    HW223819   4.780   4.377   9.216  0.0056  0.4055 -0.7707
 5953SOL     OW23820   3.408   7.945   6.464  1.0614 -0.2009  0.0153
 5953SOL    HW123821   3.321   7.983   6.451  1.8978  1.1576 -1.8816
 5953SOL    HW223822   3.411   7.925   6.558 -0.6421  1.3910  0.4677
 5954SOL     OW23823   1.698   4.004   7.174  0.4352 -0.3604  0.3711
 5954SOL    HW123824   1.676   4.073   7.237  1.6759  0.4273 -0.0221
 5954SOL    HW223825   1.787   3.978   7.197 -0.2373 -2.3844  0.9683
 5955SOL     OW23826   6.229   8.349   0.406 -0.3226  0.0254 -0.3130
 5955SOL    HW123827   6.280   8.403   0.346 -0.7862 -1.9827 -2.6525
 5955SOL    HW223828   6.293   8.315   0.469  0.8903 -0.7094 -1.8768
 5956SOL     OW23829   0.286   8.638   8.182  0.6804 -0.2048  0.2132
 5956SOL    HW123830   0.214   8.685   8.140  0.2516 -1.3039 -0.3057
 5956SOL    HW223831   0.340   8.707   8.221  0.1865  0.7377 -0.7273
 5957SOL     OW23832   2.437   8.133   2.480  0.4790 -0.2507  0.1202
 5957SOL    HW123833   2.382   8.133   2.401 -0.8363  0.3744  0.9870
 5957SOL    HW223834   2.444   8.041   2.505 -2.5392 -0.2223  1.4969
 5958SOL     OW23835   1.958   8.543   2.902 -0.2130 -0.2565  0.2430
 5958SOL    HW123836   1.930   8.576   2.987 -1.0331  1.9925 -0.8094
 5958SOL    HW223837   2.040   8.589   2.884 -0.1056 -0.6217 -0.2349
 5959SOL     OW23838   8.083   1.530   8.105  0.6785  0.0435 -0.2506
 5959SOL    HW123839   8.060   1.450   8.152 -1.2886  1.3197  1.1106
 5959SOL    HW223840   8.168   1.510   8.064  0.8572 -2.2803  1.0590
 5960SOL     OW23841   0.874   6.501   5.257 -0.6470  0.3069 -0.0785
 5960SOL    HW123842   0.960   6.468   5.285 -0.8321 -1.2090 -1.1294
 5960SOL    HW223843   0.888   6.528   5.166 -0.9102  1.6565  0.2624
 5961SOL     OW23844   3.429   4.777   5.722 -0.3162  0.3304 -0.4126
 5961SOL    HW123845   3.446   4.703   5.663  0.7314  1.5465 -1.6904
 5961SOL    HW223846   3.346   4.812   5.693 -0.8317 -0.3308  0.2167
 5962SOL     OW23847   0.226   5.171   9.146 -0.4098  1.0787 -0.2373
 5962SOL    HW123848   0.170   5.232   9.099 -1.5586  1.2351  1.2638
 5962SOL    HW223849   0.315   5.204   9.131 -0.7519  1.3433 -1.9117
 5963SOL     OW23850   5.390   2.520   1.778  0.3338 -0.0955 -0.7816
 5963SOL    HW123851   5.306   2.559   1.800 -0.2773 -0.9130 -1.5634
 5963SOL    HW223852   5.437   2.515   1.861 -1.8267 -2.9929  0.4644
 5964SOL     OW23853   8.596   7.624   3.944 -0.5544 -0.5130 -0.9662
 5964SOL    HW123854   8.633   7.541   3.973 -0.5904  0.4493  2.1618
 5964SOL    HW223855   8.567   7.606   3.854  0.6230 -3.4564 -0.8937
 5965SOL     OW23856   8.949   3.576   8.065 -0.7139 -0.1519 -0.1385
 5965SOL    HW123857   8.995   3.494   8.050 -0.2802  0.1563 -0.5030
 5965SOL    HW223858   8.870   3.570   8.012 -0.0282  0.2171 -1.2247
 5966SOL     OW23859   7.258   8.142   1.303  0.5036  0.1531 -0.0911
 5966SOL    HW123860   7.186   8.189   1.261  1.0981  1.9274  0.7806
 5966SOL    HW223861   7.335   8.196   1.285  1.5879 -1.5186 -0.6851
 5967SOL     OW23862   3.953   1.928   0.917 -0.2719 -0.0808  0.1246
 5967SOL    HW123863   4.011   1.991   0.960 -1.4520  2.3437 -1.6129
 5967SOL    HW223864   3.867   1.945   0.954 -0.6600 -0.4880 -0.5783
 5968SOL     OW23865   6.607   4.814   6.649 -0.0235  0.0568  0.7957
 5968SOL    HW123866   6.574   4.834   6.561  0.5090 -0.6433  0.4206
 5968SOL    HW223867   6.688   4.764   6.633 -0.2991 -0.7017  1.6738
 5969SOL     OW23868   5.497   2.897   2.871 -0.0860  0.9571  0.4340
 5969SOL    HW123869   5.414   2.928   2.836  0.2094  0.3811 -0.8104
 5969SOL    HW223870   5.479   2.809   2.904  0.2617  0.3526 -0.9090
 5970SOL     OW23871   9.201   2.425   2.552  0.0532  0.4786 -0.2116
 5970SOL    HW123872   9.280   2.473   2.575 -0.0261 -0.2471  1.7362
 5970SOL    HW223873   9.138   2.493   2.527  1.1662  1.0765 -1.5344
 5971SOL     OW23874   3.341   5.811   2.024  0.0755  0.1573  0.2487
 5971SOL    HW123875   3.369   5.852   2.106 -0.5722 -0.1326  0.6260
 5971SOL    HW223876   3.250   5.787   2.040  0.4024 -1.3679  0.0249
 5972SOL     OW23877   3.034   0.997   0.560  0.1394  0.5180 -0.6165
 5972SOL    HW123878   3.049   0.978   0.467  1.1203 -0.2927 -0.3058
 5972SOL    HW223879   3.107   1.052   0.586 -0.8280  1.8574 -0.6227
 5973SOL     OW23880   7.570   7.335   8.279  0.5136  0.5308  0.2943
 5973SOL    HW123881   7.555   7.427   8.301 -0.4662  0.6708 -0.8363
 5973SOL    HW223882   7.517   7.286   8.342 -0.4959  0.8400 -0.2762
 5974SOL     OW23883   1.912   4.915   1.586 -0.4316 -0.5907  0.2497
 5974SOL    HW123884   1.899   4.849   1.519 -0.3135  0.6099 -0.9930
 5974SOL    HW223885   1.887   4.998   1.544  3.5722  0.8189  0.2316
 5975SOL     OW23886   3.509   6.349   7.433  0.0626  0.7482  0.2181
 5975SOL    HW123887   3.519   6.321   7.524 -0.4240  0.9267  0.3287
 5975SOL    HW223888   3.423   6.391   7.430 -0.6258 -0.6588 -0.6742
 5976SOL     OW23889   3.065   3.275   0.591 -0.5032 -0.1595  0.3972
 5976SOL    HW123890   3.055   3.351   0.648 -1.0742 -0.4963  0.7653
 5976SOL    HW223891   3.114   3.307   0.516 -1.2290  0.7074  0.2792
 5977SOL     OW23892   1.868   7.721   3.972  0.1648 -0.0748  0.1208
 5977SOL    HW123893   1.803   7.737   3.903  1.1103  0.2550 -0.7246
 5977SOL    HW223894   1.842   7.780   4.043 -0.8593 -0.4595  0.0759
 5978SOL     OW23895   0.646   4.498   1.622  0.7829 -0.0332  0.2336
 5978SOL    HW123896   0.737   4.489   1.650  0.0360  0.0428  3.0038
 5978SOL    HW223897   0.598   4.435   1.676 -0.9748  0.7946 -0.2825
 5979SOL     OW23898   4.368   0.826   0.737  0.1588  0.2315  0.3521
 5979SOL    HW123899   4.406   0.748   0.697  0.0975  0.5384 -0.3177
 5979SOL    HW223900   4.422   0.898   0.704 -2.0561  0.9160 -2.1322
 5980SOL     OW23901   4.878   8.809   1.435 -0.5816  0.4291 -0.3159
 5980SOL    HW123902   4.868   8.764   1.519  1.6292 -1.3193 -0.8845
 5980SOL    HW223903   4.924   8.890   1.456 -1.1472  0.6017  0.2828
 5981SOL     OW23904   7.310   6.823   3.066 -0.3344  0.8179  0.3619
 5981SOL    HW123905   7.389   6.771   3.083 -2.1894 -1.6069  2.3140
 5981SOL    HW223906   7.343   6.906   3.032  3.0174 -0.2122  0.7355
 5982SOL     OW23907   7.587   6.206   3.006  0.7870 -0.0617  0.0281
 5982SOL    HW123908   7.498   6.169   3.005  0.8530 -0.5632 -4.0365
 5982SOL    HW223909   7.582   6.276   3.070 -2.7879  0.3272 -0.4254
 5983SOL     OW23910   8.357   8.467   2.368  0.5955 -0.5229 -0.1607
 5983SOL    HW123911   8.293   8.398   2.345  0.8927 -0.4077 -1.3999
 5983SOL    HW223912   8.310   8.549   2.352  0.7606 -0.4428 -0.2343
 5984SOL     OW23913   4.770   4.953   8.559  0.5832  0.1435 -0.8282
 5984SOL    HW123914   4.804   4.865   8.539  0.2463 -0.1696 -0.0662
 5984SOL    HW223915   4.696   4.963   8.499 -1.4621 -1.4637  1.2414
 5985SOL     OW23916   8.439   3.829   7.223  0.1821 -0.1423  0.0040
 5985SOL    HW123917   8.367   3.793   7.171 -1.5283  0.3355  1.9223
 5985SOL    HW223918   8.487   3.885   7.161 -0.2080 -1.5502 -1.6696
 5986SOL     OW23919   9.145   6.793   7.305  0.0014 -0.3941  0.5106
 5986SOL    HW123920   9.097   6.868   7.340  1.4592  1.4969 -1.2761
 5986SOL    HW223921   9.093   6.763   7.231  0.4452  0.2779 -0.0942
 5987SOL     OW23922   6.148   8.664   7.732 -0.3507  0.0170 -0.4851
 5987SOL    HW123923   6.054   8.675   7.744 -0.0675  1.9215  0.2343
 5987SOL    HW223924   6.187   8.700   7.811  1.0268  0.0201 -1.1371
 5988SOL     OW23925   2.407   8.264   3.768 -0.0894  0.2457 -0.2434
 5988SOL    HW123926   2.337   8.321   3.736 -0.3497  0.5308  0.8001
 5988SOL    HW223927   2.481   8.282   3.710 -0.4408  0.9929 -0.4724
 5989SOL     OW23928   4.947   1.011   4.255 -0.1533 -0.4157 -0.0818
 5989SOL    HW123929   4.938   1.078   4.323 -0.5213 -0.5994  0.0539
 5989SOL    HW223930   4.907   0.933   4.293  1.5521 -1.1276  0.3227
 5990SOL     OW23931   4.642   8.647   0.837  0.8797  0.1015 -0.0029
 5990SOL    HW123932   4.718   8.690   0.875  2.3618 -1.9835 -0.4528
 5990SOL    HW223933   4.609   8.590   0.906 -0.5832  1.3031  0.3350
 5991SOL     OW23934   4.371   2.743   4.574 -0.3676  0.7014  0.0489
 5991SOL    HW123935   4.374   2.723   4.480 -1.0830  2.0431 -0.2835
 5991SOL    HW223936   4.400   2.662   4.617  2.2180  0.7567 -1.3747
 5992SOL     OW23937   7.076   6.343   1.268  0.8284  0.5219  0.1283
 5992SOL    HW123938   7.081   6.388   1.184 -0.3290  0.8618  0.2276
 5992SOL    HW223939   7.002   6.383   1.312  0.8185 -0.3343  0.9183
 5993SOL     OW23940   0.860   1.027   8.926  0.1226  0.2574 -0.0461
 5993SOL    HW123941   0.879   1.018   9.020  0.4528  2.1943  0.1174
 5993SOL    HW223942   0.843   1.121   8.914 -0.1714  0.0049 -1.8915
 5994SOL     OW23943   8.135   5.752   5.784  0.6214  0.3955 -0.3453
 5994SOL    HW123944   8.118   5.807   5.860  1.4958  1.0516 -0.6064
 5994SOL    HW223945   8.191   5.682   5.817  0.0495  0.0212 -0.1520
 5995SOL     OW23946   5.316   1.750   5.895 -0.1125  0.9027  0.5447
 5995SOL    HW123947   5.298   1.778   5.985  0.0937 -1.8506  1.5485
 5995SOL    HW223948   5.402   1.709   5.900  0.3275  1.5649 -1.1586
 5996SOL     OW23949   7.488   4.865   1.339  0.0047  0.0946  1.0379
 5996SOL    HW123950   7.537   4.850   1.420 -0.7670  0.9661  1.6895
 5996SOL    HW223951   7.542   4.926   1.289  1.6777 -2.3076 -0.2575
 5997SOL     OW23952   6.191   7.451   8.763 -0.1931  0.0611  0.2713
 5997SOL    HW123953   6.200   7.406   8.680  0.3096  0.5037  0.0810
 5997SOL    HW223954   6.218   7.387   8.829  1.3242  0.3307 -0.0545
 5998SOL     OW23955   2.257   2.718   2.641  0.4645  0.7038  0.3806
 5998SOL    HW123956   2.274   2.630   2.676  1.6825  0.9335  0.4279
 5998SOL    HW223957   2.162   2.723   2.631  0.4604 -1.3001 -1.3650
 5999SOL     OW23958   2.681   4.841   6.011  0.5828  0.3177 -0.3507
 5999SOL    HW123959   2.617   4.894   5.964  1.6062  0.4277 -1.6557
 5999SOL    HW223960   2.678   4.756   5.967  1.9770  0.5991 -1.0594
 6000SOL     OW23961   3.197   3.504   3.409  0.0548 -0.4984 -0.3754
 6000SOL    HW123962   3.144   3.480   3.333 -1.0285 -1.3105  0.6060
 6000SOL    HW223963   3.255   3.429   3.422  0.4730 -0.2149 -0.6006
 6001SOL     OW23964   2.353   6.565   2.623 -0.0483  0.0518  0.1209
 6001SOL    HW123965   2.397   6.597   2.702 -2.1946  0.2579  1.2934
 6001SOL    HW223966   2.411   6.496   2.590  1.0995  0.2431  1.6210
 6002SOL     OW23967   0.051   0.079   4.946  0.3363 -0.2805  0.2961
 6002SOL    HW123968   0.025   0.109   4.859 -1.1237 -0.6025  0.5827
 6002SOL    HW223969  -0.001   0.132   5.006  1.0172 -0.3521  0.9678
 6003SOL     OW23970   6.315   9.231   6.839  0.1685  0.0714  0.4514
 6003SOL    HW123971   6.287   9.159   6.894 -0.5784  0.7078  0.9315
 6003SOL    HW223972   6.400   9.204   6.805  0.5477 -0.4268  1.7432
 6004SOL     OW23973   3.174   3.196   2.356  0.0466 -0.1452 -0.1667
 6004SOL    HW123974   3.127   3.247   2.289 -0.3150  0.6878  0.7051
 6004SOL    HW223975   3.113   3.192   2.430 -0.2383 -2.4533 -0.4279
 6005SOL     OW23976   2.423   6.553   5.565  0.1366 -0.1794 -0.5315
 6005SOL    HW123977   2.339   6.533   5.604 -0.0441  0.7991 -0.3878
 6005SOL    HW223978   2.423   6.507   5.481 -0.3527 -0.5415 -0.3310
 6006SOL     OW23979   2.591   6.826   6.185 -0.2303  0.7527  0.6891
 6006SOL    HW123980   2.666   6.880   6.159 -0.5535  1.5543  1.3947
 6006SOL    HW223981   2.531   6.831   6.111 -0.1177  1.0906  0.6192
 6007SOL     OW23982   1.574   7.718   1.708 -0.1045 -0.3393  0.1440
 6007SOL    HW123983   1.616   7.797   1.673 -1.6701  0.5606  0.1836
 6007SOL    HW223984   1.645   7.669   1.749  0.7859  1.4731  0.8876
 6008SOL     OW23985   1.753   6.367   3.423 -0.4490  0.5646  0.2450
 6008SOL    HW123986   1.786   6.417   3.497  0.1595 -0.5818  0.7607
 6008SOL    HW223987   1.731   6.434   3.357  2.7406  1.4385 -0.0860
 6009SOL     OW23988   4.595   5.951   1.204 -0.1816 -0.0617  0.0750
 6009SOL    HW123989   4.599   6.038   1.165 -1.9927 -0.4884 -1.1723
 6009SOL    HW223990   4.619   5.965   1.296  0.9837  1.4848 -0.4172
 6010SOL     OW23991   8.564   9.101   8.625 -0.8530  0.5100  0.1640
 6010SOL    HW123992   8.474   9.133   8.631 -1.5797 -0.2235 -3.9312
 6010SOL    HW223993   8.614   9.176   8.592 -0.1829  0.5452  1.2104
 6011SOL     OW23994   2.064   6.473   8.702  0.3018  0.4014  0.4186
 6011SOL    HW123995   1.988   6.480   8.760  1.0204  1.0640  1.3112
 6011SOL    HW223996   2.027   6.445   8.618 -1.2150  2.6486  0.2398
 6012SOL     OW23997   0.787   2.460   4.620  0.6656  0.0375 -0.3421
 6012SOL    HW123998   0.701   2.478   4.656  0.4003  0.0237 -0.9619
 6012SOL    HW223999   0.837   2.425   4.694 -0.4301 -1.7612 -0.3872
 6013SOL     OW24000   6.980   4.473   6.564 -0.0425 -0.4663 -0.3834
 6013SOL    HW124001   6.963   4.550   6.510  1.1449 -0.1958 -0.4077
 6013SOL    HW224002   7.070   4.486   6.597 -0.5393 -0.8508  1.2486
 6014SOL     OW24003   7.765   5.512   3.176 -0.2207  0.3448 -0.1123
 6014SOL    HW124004   7.760   5.438   3.237  1.6034 -0.3531 -0.7506
 6014SOL    HW224005   7.701   5.575   3.210 -0.4606 -0.7265  1.5468
 6015SOL     OW24006   0.454   8.063   5.230 -0.3069 -0.2023  0.0150
 6015SOL    HW124007   0.503   8.021   5.160  0.7767  0.0233  0.6110
 6015SOL    HW224008   0.402   8.130   5.186  0.4318 -0.0018 -0.5760
 6016SOL     OW24009   4.395   7.358   4.480  0.2036 -0.2968 -0.4449
 6016SOL    HW124010   4.459   7.418   4.442  0.8384  0.0927  1.1355
 6016SOL    HW224011   4.316   7.372   4.429  1.1220 -0.1674 -1.9096
 6017SOL     OW24012   0.099   1.125   1.402 -0.3932 -0.2149 -0.3489
 6017SOL    HW124013   0.036   1.118   1.331 -1.2147  2.3619  0.0174
 6017SOL    HW224014   0.092   1.041   1.448 -0.3853 -1.6447 -2.7845
 6018SOL     OW24015   1.262   6.548   2.275  0.4716 -0.2351 -0.4625
 6018SOL    HW124016   1.312   6.544   2.193  3.6772  0.7966  1.2774
 6018SOL    HW224017   1.222   6.635   2.274 -0.6164 -0.7320 -1.4953
 6019SOL     OW24018   9.354   4.574   1.640 -0.2960  0.1080  0.3102
 6019SOL    HW124019   9.399   4.502   1.594 -1.3451 -0.9901  0.9403
 6019SOL    HW224020   9.371   4.651   1.586  0.7858 -0.6296 -0.4432
 6020SOL     OW24021   7.656   1.074   0.421  0.2708 -0.3708  0.0811
 6020SOL    HW124022   7.666   1.100   0.329 -0.7194 -2.4391 -0.6674
 6020SOL    HW224023   7.698   0.988   0.426  1.0335  0.0683  1.7976
 6021SOL     OW24024   3.925   1.081   0.538 -0.7118  0.4724  0.0074
 6021SOL    HW124025   3.989   1.102   0.470 -1.2511  0.6483 -0.4519
 6021SOL    HW224026   3.874   1.161   0.549 -1.8351 -0.1104 -0.7150
 6022SOL     OW24027   7.423   9.241   7.979 -0.2951  0.0540 -0.2337
 6022SOL    HW124028   7.499   9.187   7.955  0.4138  1.2211 -0.7127
 6022SOL    HW224029   7.353   9.177   7.996  0.7217 -1.0388  0.0109
 6023SOL     OW24030   7.802   6.152   7.522 -0.6278 -0.7164  0.4407
 6023SOL    HW124031   7.866   6.124   7.458 -0.8479 -0.0264 -0.0990
 6023SOL    HW224032   7.718   6.118   7.490 -0.8230  0.1090  0.0405
 6024SOL     OW24033   3.009   4.303   9.329 -0.0581 -0.1014  0.2161
 6024SOL    HW124034   3.028   4.213   9.355  0.3588  0.2780  1.2909
 6024SOL    HW224035   2.917   4.301   9.302  0.1823 -1.0107 -0.5998
 6025SOL     OW24036   8.890   0.161   1.181  0.1170 -0.1004  0.6078
 6025SOL    HW124037   8.946   0.137   1.255 -0.7110  0.1546  1.3258
 6025SOL    HW224038   8.813   0.202   1.220  0.1304  1.0009 -0.4406
 6026SOL     OW24039   4.073   5.441   1.812  0.1473  0.0528 -0.2099
 6026SOL    HW124040   4.159   5.443   1.854 -0.2378  1.3882  0.6135
 6026SOL    HW224041   4.030   5.364   1.849  0.6140 -0.0205  0.1914
 6027SOL     OW24042   5.697   5.904   8.982 -0.3220  0.0161  0.4059
 6027SOL    HW124043   5.605   5.920   8.961 -0.2402  1.1102  0.7901
 6027SOL    HW224044   5.736   5.876   8.899 -0.7659  0.6751 -0.0358
 6028SOL     OW24045   3.305   4.822   4.750 -1.0762  0.1559 -0.2835
 6028SOL    HW124046   3.290   4.748   4.809  1.8184  0.4468  1.0120
 6028SOL    HW224047   3.283   4.899   4.803  0.2879  0.3681  0.0029
 6029SOL     OW24048   6.564   4.407   3.891 -0.1278 -0.2268 -0.3718
 6029SOL    HW124049   6.644   4.357   3.875  0.5371  0.3387  1.0191
 6029SOL    HW224050   6.503   4.343   3.927 -0.0806 -0.5212 -0.8093
 6030SOL     OW24051   2.440   6.994   6.967  0.0280 -0.6315  0.7689
 6030SOL    HW124052   2.453   6.931   6.897  0.2703  0.4952 -0.2252
 6030SOL    HW224053   2.345   6.994   6.982 -0.0141 -0.9465  0.5083
 6031SOL     OW24054   4.978   9.264   6.062 -0.4981 -0.1421  0.0138
 6031SOL    HW124055   4.899   9.317   6.079 -0.4886 -0.6513  1.9787
 6031SOL    HW224056   5.019   9.305   5.986 -1.3956  1.6342  0.4281
 6032SOL     OW24057   0.604   6.013   3.398 -0.2217  0.1653 -0.1002
 6032SOL    HW124058   0.686   5.967   3.379 -0.3359 -0.5750  1.0762
 6032SOL    HW224059   0.631   6.098   3.430  0.0556  0.2197 -0.4660
 6033SOL     OW24060   6.988   2.701   3.490 -0.2844 -0.4416  0.2329
 6033SOL    HW124061   6.940   2.784   3.491  0.4854  0.0191  0.0600
 6033SOL    HW224062   6.929   2.640   3.447 -0.8712  0.0155  0.3748
 6034SOL     OW24063   0.651   4.374   8.644 -0.6099 -0.1022  0.3804
 6034SOL    HW124064   0.687   4.433   8.578 -2.2712 -0.9518 -1.3722
 6034SOL    HW224065   0.690   4.289   8.625  0.0790 -0.0498  1.4944
 6035SOL     OW24066   6.873   7.641   0.271 -0.5075 -0.8173 -0.2201
 6035SOL    HW124067   6.939   7.573   0.265 -0.5731 -0.8453 -0.6164
 6035SOL    HW224068   6.869   7.662   0.365  0.4380 -0.4367 -0.2569
 6036SOL     OW24069   4.848   4.702   8.448  0.2747  0.0981 -0.2614
 6036SOL    HW124070   4.942   4.682   8.456  0.1413 -1.6059 -2.1267
 6036SOL    HW224071   4.839   4.737   8.359 -0.8018  0.6265  0.0478
 6037SOL     OW24072   8.983   5.084   2.538 -0.6342 -0.3963  0.0191
 6037SOL    HW124073   8.999   5.022   2.610 -0.7161 -0.4342  0.0046
 6037SOL    HW224074   9.057   5.070   2.479  0.2787  0.7278  0.8433
 6038SOL     OW24075   0.825   7.399   2.547 -0.4271  0.6816  0.1952
 6038SOL    HW124076   0.729   7.404   2.553 -0.4957 -0.7285  0.8172
 6038SOL    HW224077   0.845   7.423   2.457 -1.3951  0.8030  0.0023
 6039SOL     OW24078   1.563   8.040   6.770  0.4674  0.9640 -0.2404
 6039SOL    HW124079   1.583   7.948   6.789  0.7775  1.2067  0.6810
 6039SOL    HW224080   1.585   8.051   6.678 -0.1768 -0.0447 -0.5230
 6040SOL     OW24081   0.401   1.340   4.274  0.0900 -0.2530 -0.3383
 6040SOL    HW124082   0.446   1.420   4.301  0.4457 -0.1400 -1.2009
 6040SOL    HW224083   0.321   1.371   4.232  0.6318 -0.2796 -1.4397
 6041SOL     OW24084   7.710   5.383   5.221 -0.0894  0.0995  0.5722
 6041SOL    HW124085   7.659   5.337   5.154  0.3014 -1.1017  1.0790
 6041SOL    HW224086   7.646   5.406   5.288 -0.1869 -0.2661  0.6065
 6042SOL     OW24087   5.214   6.994   4.208 -0.2771  0.5268 -0.5959
 6042SOL    HW124088   5.190   7.064   4.147  0.1604  0.9650 -0.2700
 6042SOL    HW224089   5.137   6.936   4.209 -0.7162  1.0999 -0.7193
 6043SOL     OW24090   2.915   7.701   1.984  0.0425  0.8430 -0.2358
 6043SOL    HW124091   2.879   7.648   1.913 -1.0099  0.5750  0.4851
 6043SOL    HW224092   2.863   7.782   1.981 -0.8034  0.3641  0.9514
 6044SOL     OW24093   7.311   0.994   6.914 -0.7687 -0.3700 -0.0136
 6044SOL    HW124094   7.265   0.958   6.838  1.3077 -0.6438 -1.2276
 6044SOL    HW224095   7.400   0.960   6.906  0.2684  1.9230  0.9683
 6045SOL     OW24096   8.624   3.453   6.246 -0.1076 -0.3440  0.2711
 6045SOL    HW124097   8.615   3.547   6.227 -2.0264 -0.3302  1.0646
 6045SOL    HW224098   8.663   3.417   6.166  1.6389  1.2459  0.3109
 6046SOL     OW24099   7.341   6.463   1.234  0.0936 -0.0565 -0.1531
 6046SOL    HW124100   7.400   6.427   1.301 -2.2108 -3.0862  0.4306
 6046SOL    HW224101   7.367   6.420   1.153 -0.1050  0.0695 -0.2855
 6047SOL     OW24102   5.655   6.512   7.737  0.1155  0.2555  0.4736
 6047SOL    HW124103   5.584   6.554   7.786 -1.3142 -1.1904 -0.2791
 6047SOL    HW224104   5.639   6.418   7.747  1.4129 -0.0933 -0.4730
 6048SOL     OW24105   7.601   2.796   4.441 -0.1565  0.0892  0.1913
 6048SOL    HW124106   7.611   2.770   4.350  0.5156  0.3015  0.2006
 6048SOL    HW224107   7.648   2.728   4.490  2.2127  1.5960  0.1813
 6049SOL     OW24108   0.554   1.037   8.405  0.4687 -0.1545  1.1369
 6049SOL    HW124109   0.473   1.074   8.441 -0.2762 -3.0359  2.8142
 6049SOL    HW224110   0.550   1.056   8.312 -1.8265  0.3743  1.2739
 6050SOL     OW24111   3.848   4.458   4.868 -0.1799 -0.0298 -0.2938
 6050SOL    HW124112   3.898   4.496   4.941 -0.2790  0.0832 -0.2847
 6050SOL    HW224113   3.791   4.529   4.838 -0.0600 -0.0429 -0.5546
 6051SOL     OW24114   0.936   4.944   4.643 -0.3824 -0.0923  0.1485
 6051SOL    HW124115   0.954   5.030   4.681  1.4700 -0.5756  0.4340
 6051SOL    HW224116   0.843   4.949   4.617 -0.7920  1.3869  1.6939
 6052SOL     OW24117   1.026   5.162   1.459  0.3136 -0.0183  0.2655
 6052SOL    HW124118   0.976   5.232   1.501  0.3638 -1.0651  2.2140
 6052SOL    HW224119   0.969   5.131   1.388 -0.1612  1.2518  0.0689
 6053SOL     OW24120   4.539   7.840   5.286 -0.1707  0.7507 -0.0469
 6053SOL    HW124121   4.450   7.853   5.320  0.2904  2.2338  0.7167
 6053SOL    HW224122   4.594   7.835   5.365  0.5090  0.6639 -0.5187
 6054SOL     OW24123   0.636   2.679   0.916  0.0339  0.3471  0.0827
 6054SOL    HW124124   0.652   2.765   0.876 -0.2164  1.2845  1.8613
 6054SOL    HW224125   0.548   2.688   0.954  1.1387  0.3547  2.7904
 6055SOL     OW24126   3.652   3.157   3.893 -0.8327  0.0679  0.1881
 6055SOL    HW124127   3.691   3.243   3.907 -1.8795  0.2857  2.0080
 6055SOL    HW224128   3.615   3.162   3.804  1.4734  0.5056 -0.8311
 6056SOL     OW24129   0.543   4.034   8.747  0.5831  0.1885 -0.5767
 6056SOL    HW124130   0.633   4.066   8.738  0.7009  0.6784  1.7745
 6056SOL    HW224131   0.489   4.113   8.751  0.0112 -0.1043 -1.9883
 6057SOL     OW24132   7.164   1.170   1.308 -0.1461  0.6101  0.1443
 6057SOL    HW124133   7.133   1.080   1.311 -0.2788  0.6473 -0.1023
 6057SOL    HW224134   7.102   1.215   1.251 -0.3628  0.9640  0.6458
 6058SOL     OW24135   2.213   5.004   5.947 -0.3637 -0.8290 -0.3349
 6058SOL    HW124136   2.135   4.991   5.893 -0.3577  0.4195 -0.6694
 6058SOL    HW224137   2.209   4.933   6.012 -2.2258 -0.3214  0.1768
 6059SOL     OW24138   4.923   3.045   1.047 -0.0325 -0.1618 -0.1035
 6059SOL    HW124139   4.834   3.078   1.045 -0.0878 -0.3332 -0.5999
 6059SOL    HW224140   4.914   2.955   1.079  0.1225  0.2892  1.2877
 6060SOL     OW24141   1.965   0.856   2.199 -0.2714  0.5762  0.5186
 6060SOL    HW124142   2.018   0.932   2.223 -0.2465  0.5817  0.4441
 6060SOL    HW224143   1.958   0.860   2.104 -0.4466  0.6031  0.5317
 6061SOL     OW24144   9.038   2.908   5.206 -0.0938 -0.0929 -0.1152
 6061SOL    HW124145   9.072   2.945   5.288  0.1579 -0.4898 -0.0390
 6061SOL    HW224146   8.991   2.981   5.166  0.6852  0.4252 -0.1315
 6062SOL     OW24147   9.011   1.240   0.324  0.6045 -0.1647 -0.1386
 6062SOL    HW124148   9.005   1.287   0.407 -0.9586 -2.4867  1.1597
 6062SOL    HW224149   8.925   1.252   0.283  1.6273  1.6677 -1.9089
 6063SOL     OW24150   5.041   4.849   4.546  0.1624  0.3730 -0.3994
 6063SOL    HW124151   4.970   4.912   4.556 -0.1625 -0.0057 -0.2703
 6063SOL    HW224152   5.111   4.898   4.503 -0.1128  0.7973 -0.3719
 6064SOL     OW24153   8.999   7.793   6.526  0.2091 -0.5390  0.1287
 6064SOL    HW124154   9.089   7.762   6.540  0.7635 -0.1686 -2.2007
 6064SOL    HW224155   8.953   7.717   6.492 -0.6145 -0.9220  1.9521
 6065SOL     OW24156   9.190   1.530   3.544  0.3043 -0.0120 -0.1903
 6065SOL    HW124157   9.277   1.570   3.538  0.6012  0.3471  3.7050
 6065SOL    HW224158   9.134   1.587   3.491  2.1170  0.8553 -1.2507
 6066SOL     OW24159   3.591   2.729   6.901 -0.2884 -0.0459 -0.0061
 6066SOL    HW124160   3.614   2.817   6.872  0.0942 -1.1298 -3.4645
 6066SOL    HW224161   3.502   2.715   6.868 -0.0205 -1.2233 -0.2920
 6067SOL     OW24162   8.065   1.692   3.237  0.4083  0.2642 -0.1486
 6067SOL    HW124163   8.042   1.599   3.247  0.8712 -0.1332 -2.3085
 6067SOL    HW224164   7.980   1.736   3.229  0.1913  0.0231  0.6720
 6068SOL     OW24165   3.641   2.417   1.075  0.7168 -0.2401  0.0822
 6068SOL    HW124166   3.610   2.345   1.130 -0.4804  0.0976 -0.1322
 6068SOL    HW224167   3.689   2.474   1.135  0.6004 -0.5798  0.4994
 6069SOL     OW24168   5.524   4.712   8.322 -0.5101 -0.0474 -0.7761
 6069SOL    HW124169   5.503   4.691   8.231  2.3784  2.5617 -2.2494
 6069SOL    HW224170   5.595   4.653   8.345 -1.0755 -0.5400 -0.2434
 6070SOL     OW24171   6.275   0.775   9.161 -0.3154  0.1401  0.3115
 6070SOL    HW124172   6.247   0.737   9.244  0.0131 -0.4575  0.1568
 6070SOL    HW224173   6.367   0.748   9.152 -0.2674  0.4275 -0.1191
 6071SOL     OW24174   7.996   3.287   4.021  0.1047 -0.2595 -0.2278
 6071SOL    HW124175   8.050   3.244   3.954 -0.2431 -0.5291 -0.3388
 6071SOL    HW224176   7.915   3.309   3.975  0.5142  1.1030 -0.3476
 6072SOL     OW24177   5.524   1.334   7.707  0.1226  0.1466  0.0738
 6072SOL    HW124178   5.505   1.270   7.775  0.6150  0.0310  0.1018
 6072SOL    HW224179   5.495   1.418   7.744  0.1596  0.0486  0.3262
 6073SOL     OW24180   5.164   5.459   2.763  0.4113  0.2621  0.4440
 6073SOL    HW124181   5.231   5.525   2.745  0.2332  0.2750 -0.1917
 6073SOL    HW224182   5.118   5.493   2.839 -0.5815  1.6003 -0.6883
 6074SOL     OW24183   6.816   5.845   1.278  0.2733  0.8543  0.1625
 6074SOL    HW124184   6.828   5.845   1.183  0.0311  0.3336  0.1284
 6074SOL    HW224185   6.874   5.915   1.310  1.3225  0.2057 -0.2533
 6075SOL     OW24186   1.563   6.194   8.175  0.0126 -0.0300 -0.1764
 6075SOL    HW124187   1.508   6.261   8.216  1.2397  0.4105  0.8201
 6075SOL    HW224188   1.566   6.123   8.239  1.9303  0.6544  0.5863
 6076SOL     OW24189   0.839   6.542   3.697 -0.3036 -0.0836 -0.0292
 6076SOL    HW124190   0.922   6.564   3.740 -0.5885  0.8112  0.1003
 6076SOL    HW224191   0.824   6.450   3.718  0.9006 -0.4021 -0.4759
 6077SOL     OW24192   5.462   5.547   0.708  0.1700 -0.2546  0.3645
 6077SOL    HW124193   5.509   5.631   0.704  0.0537 -0.1827  0.5159
 6077SOL    HW224194   5.508   5.492   0.645  2.0741 -0.9870  2.2639
 6078SOL     OW24195   6.112   6.442   2.167 -0.3144 -0.1195 -0.4238
 6078SOL    HW124196   6.080   6.429   2.077  0.0387  1.3711 -0.7994
 6078SOL    HW224197   6.103   6.536   2.182 -0.6108 -0.3799  1.2157
 6079SOL     OW24198   6.447   6.610   8.807 -0.1668  0.2587  0.1457
 6079SOL    HW124199   6.507   6.632   8.736  0.2378 -1.8643 -0.2153
 6079SOL    HW224200   6.448   6.515   8.811 -1.4553  0.2786  1.9276
 6080SOL     OW24201   7.627   1.421   5.134  0.3144 -0.5041  0.0443
 6080SOL    HW124202   7.715   1.389   5.151  0.4146 -0.3953 -0.2622
 6080SOL    HW224203   7.601   1.378   5.052  0.4887  0.2721 -0.4241
 6081SOL     OW24204   8.696   6.361   3.378  0.0636  0.1947 -0.4617
 6081SOL    HW124205   8.758   6.306   3.427 -0.4851  1.4924  1.8181
 6081SOL    HW224206   8.722   6.451   3.400 -2.1617  0.7774 -0.0134
 6082SOL     OW24207   8.178   6.442   3.434  0.3719  0.8162  0.4394
 6082SOL    HW124208   8.251   6.385   3.458 -0.4115 -1.0007 -1.2175
 6082SOL    HW224209   8.205   6.483   3.352 -1.5640 -2.4034 -2.0489
 6083SOL     OW24210   5.553   6.389   2.808  0.4922  0.0880 -1.0227
 6083SOL    HW124211   5.519   6.366   2.721  0.2023 -0.3901 -0.7894
 6083SOL    HW224212   5.527   6.480   2.820  0.3084  0.0799 -1.3304
 6084SOL     OW24213   2.039   1.736   6.437 -0.1171 -0.2969 -0.3393
 6084SOL    HW124214   2.089   1.664   6.475  0.9776  0.1464 -0.9148
 6084SOL    HW224215   2.104   1.803   6.417 -0.8003 -0.0958 -1.9944
 6085SOL     OW24216   2.807   2.481   3.414 -0.1807  0.2294 -0.3990
 6085SOL    HW124217   2.774   2.444   3.332  0.1129  0.4519 -0.6183
 6085SOL    HW224218   2.736   2.538   3.445 -0.2373  0.2510 -0.5674
 6086SOL     OW24219   0.353   6.013   7.639 -0.8223 -0.9398  0.0587
 6086SOL    HW124220   0.418   6.049   7.700 -1.3540  0.3891 -0.1181
 6086SOL    HW224221   0.336   5.925   7.671 -0.8893 -0.3670  1.7007
 6087SOL     OW24222   2.939   3.607   1.338  0.2193  0.0332 -0.1177
 6087SOL    HW124223   2.940   3.529   1.283  1.0417  0.2874 -0.4872
 6087SOL    HW224224   2.984   3.673   1.285  1.2720  0.2129  0.9614
 6088SOL     OW24225   8.595   3.837   8.802 -0.1678 -0.0847  0.1872
 6088SOL    HW124226   8.671   3.892   8.819 -1.1415  1.1006  0.9395
 6088SOL    HW224227   8.540   3.889   8.743 -1.2694 -0.0562  1.1880
 6089SOL     OW24228   6.311   1.382   0.001  0.4966 -0.3764  0.7189
 6089SOL    HW124229   6.336   1.321   0.070  2.3473 -0.1348  0.3123
 6089SOL    HW224230   6.269   1.327  -0.066  0.9744 -1.0067  0.9302
 6090SOL     OW24231   2.548   7.926   4.702  0.2219  0.3089  0.4145
 6090SOL    HW124232   2.536   7.858   4.769  1.2303 -0.4003 -0.0968
 6090SOL    HW224233   2.642   7.930   4.688 -0.0016 -0.4888 -1.8677
 6091SOL     OW24234   0.458   3.860   4.375  0.2013  0.1443  0.2420
 6091SOL    HW124235   0.416   3.856   4.289  0.0584 -2.4166  0.3633
 6091SOL    HW224236   0.485   3.952   4.383  2.2015  0.1070 -3.4917
 6092SOL     OW24237   0.919   5.615   9.153  0.1124 -0.7844  0.0162
 6092SOL    HW124238   0.934   5.708   9.136  0.3592 -0.3327  2.2997
 6092SOL    HW224239   0.824   5.609   9.164  0.0066 -0.9776 -0.9663
 6093SOL     OW24240   3.667   7.654   7.455 -0.0060  0.1131  0.1887
 6093SOL    HW124241   3.722   7.728   7.481  0.0830  0.3212 -0.5574
 6093SOL    HW224242   3.718   7.610   7.387  0.4985 -1.3652  1.4764
 6094SOL     OW24243   6.789   5.885   8.037  0.0962  0.7246  0.2781
 6094SOL    HW124244   6.764   5.858   8.125  0.8360  1.4395  0.7259
 6094SOL    HW224245   6.811   5.803   7.992 -2.1881  0.1486  0.1040
 6095SOL     OW24246   0.613   3.984   7.543  0.6572  0.3132  0.0270
 6095SOL    HW124247   0.551   4.004   7.472  0.3426 -0.6947  0.0121
 6095SOL    HW224248   0.689   4.039   7.524 -0.0231  1.1915 -0.2352
 6096SOL     OW24249   7.852   8.730   2.769  0.0060  0.1593  0.0947
 6096SOL    HW124250   7.778   8.770   2.723  0.1958 -0.2809 -0.6178
 6096SOL    HW224251   7.826   8.729   2.861 -0.0809  1.7251  0.1059
 6097SOL     OW24252   1.869   7.364   5.998 -0.2240 -0.2395 -0.0225
 6097SOL    HW124253   1.918   7.445   5.989 -0.6765 -0.1420 -2.1931
 6097SOL    HW224254   1.897   7.311   5.923 -1.0823 -1.4654  0.4939
 6098SOL     OW24255   8.698   4.902   3.779 -0.7481  0.2930 -0.5823
 6098SOL    HW124256   8.675   4.994   3.764 -1.8520  0.1986  0.4008
 6098SOL    HW224257   8.663   4.882   3.866 -0.6273 -1.0918 -0.8252
 6099SOL     OW24258   4.240   6.309   8.775 -0.4445 -0.5601  0.3456
 6099SOL    HW124259   4.162   6.317   8.719 -0.4405 -1.7007  0.1530
 6099SOL    HW224260   4.283   6.394   8.768 -0.7725 -0.4766 -0.8967
 6100SOL     OW24261   0.684   6.251   6.458  0.2048 -0.2278  0.6036
 6100SOL    HW124262   0.641   6.169   6.481  0.8214 -0.1533  2.1172
 6100SOL    HW224263   0.762   6.253   6.513  0.9120  0.7460 -0.3927
 6101SOL     OW24264   0.337   9.122   0.398  0.1505 -0.0543  0.1700
 6101SOL    HW124265   0.261   9.172   0.428  0.5993  0.9613 -0.3550
 6101SOL    HW224266   0.314   9.096   0.309  0.3856  0.1926  0.0365
 6102SOL     OW24267   1.575   4.423   3.358 -0.0604  0.9080 -0.0048
 6102SOL    HW124268   1.504   4.386   3.306  1.3987 -0.0725 -1.3825
 6102SOL    HW224269   1.558   4.392   3.447 -1.0474  0.2535 -0.4006
 6103SOL     OW24270   9.089   7.629   7.921  0.3629  0.0335 -0.1313
 6103SOL    HW124271   9.109   7.655   7.831 -1.0627 -0.1905 -0.5434
 6103SOL    HW224272   9.010   7.678   7.943  0.7550  0.1562  1.0441
 6104SOL     OW24273   0.798   8.589   1.426 -0.1421  0.1936 -0.3314
 6104SOL    HW124274   0.733   8.531   1.385 -0.9463  0.7581  0.1239
 6104SOL    HW224275   0.870   8.590   1.363 -1.5608  1.4574 -2.0539
 6105SOL     OW24276   9.222   6.043   8.944  0.9386 -0.1267 -0.3552
 6105SOL    HW124277   9.278   5.973   8.910 -0.0240 -1.9769  1.5930
 6105SOL    HW224278   9.141   5.998   8.967  0.3495  1.6201  1.1486
 6106SOL     OW24279   5.632   9.336   3.312 -0.1438  0.0847  0.0316
 6106SOL    HW124280   5.616   9.412   3.256 -2.4019 -0.8794 -0.7222
 6106SOL    HW224281   5.545   9.302   3.333  0.6857 -0.6125  2.7650
 6107SOL     OW24282   0.672   6.815   5.128  0.2799 -0.2134 -0.3050
 6107SOL    HW124283   0.712   6.736   5.092  2.7093 -1.4514  4.2586
 6107SOL    HW224284   0.715   6.887   5.081  2.5284 -1.6239 -0.5689
 6108SOL     OW24285   0.991   6.065   9.358  0.1020 -0.7040 -0.2811
 6108SOL    HW124286   1.008   6.158   9.344  0.4843 -0.5381  1.0982
 6108SOL    HW224287   0.908   6.063   9.407 -0.9287 -1.2126 -1.9524
 6109SOL     OW24288   9.141   0.564   1.186  0.1338  0.8822  0.2250
 6109SOL    HW124289   9.169   0.494   1.245 -2.2011  0.7202  1.2264
 6109SOL    HW224290   9.215   0.625   1.186  0.7260  0.2547  2.3251
 6110SOL     OW24291   0.205   1.987   7.072 -0.2612  0.4011 -0.0048
 6110SOL    HW124292   0.118   2.006   7.108 -1.1687  0.1083 -1.8695
 6110SOL    HW224293   0.207   2.037   6.990  1.3075  0.3087 -0.0437
 6111SOL     OW24294   5.703   5.969   0.784 -0.4412  0.0826  0.1073
 6111SOL    HW124295   5.795   5.980   0.762 -0.7944  0.1079 -1.4980
 6111SOL    HW224296   5.702   5.901   0.851  0.7344  0.0697  0.1314
 6112SOL     OW24297   4.679   5.388   0.836 -0.0216 -0.1775 -0.4322
 6112SOL    HW124298   4.774   5.389   0.848  0.0842 -1.3409 -0.9644
 6112SOL    HW224299   4.665   5.426   0.749 -0.0626  0.1999 -0.2609
 6113SOL     OW24300   6.618   6.529   5.059 -0.1741  0.6172 -0.1277
 6113SOL    HW124301   6.580   6.441   5.064 -2.2877  1.2513 -2.7841
 6113SOL    HW224302   6.634   6.543   4.966 -0.6434  3.3094  0.1205
 6114SOL     OW24303   8.848   5.368   3.601 -0.3863  0.3645 -0.0987
 6114SOL    HW124304   8.887   5.375   3.688 -2.0842 -2.6459  1.0727
 6114SOL    HW224305   8.764   5.324   3.616 -0.7143 -0.3551 -3.2956
 6115SOL     OW24306   5.381   3.905   6.644 -0.0392  0.6492  0.5036
 6115SOL    HW124307   5.449   3.839   6.663 -0.0083  0.4014 -0.4352
 6115SOL    HW224308   5.316   3.857   6.593 -0.4684  1.1272  0.6043
 6116SOL     OW24309   1.253   3.796   9.094  0.1974 -0.7647 -0.1394
 6116SOL    HW124310   1.207   3.718   9.061 -0.1577 -2.1458  3.2380
 6116SOL    HW224311   1.185   3.864   9.096 -0.3831 -1.3336 -0.0039
 6117SOL     OW24312   6.980   1.957   7.331  0.4244 -0.2984 -0.1105
 6117SOL    HW124313   7.014   1.887   7.387  1.0386 -0.6065 -0.8381
 6117SOL    HW224314   6.986   1.921   7.242  2.2010  1.1949 -0.6666
 6118SOL     OW24315   8.591   1.894   6.356  0.0985  0.1789  0.4960
 6118SOL    HW124316   8.656   1.889   6.286 -0.2252 -3.6281  0.2551
 6118SOL    HW224317   8.530   1.963   6.327  0.6509 -0.4011 -2.3668
 6119SOL     OW24318   0.492   1.918   1.207  0.0005 -0.5056  0.4048
 6119SOL    HW124319   0.448   1.863   1.272 -1.4972  0.7743  0.5334
 6119SOL    HW224320   0.573   1.871   1.186 -0.0879 -1.5594  2.2559
 6120SOL     OW24321   1.166   7.113   9.323 -0.2063 -0.1106  0.3200
 6120SOL    HW124322   1.229   7.178   9.354 -0.2428 -0.0799  0.3291
 6120SOL    HW224323   1.129   7.151   9.243  0.2701 -0.4164 -0.0525
 6121SOL     OW24324   7.215   0.102   1.300  0.1171 -0.5088 -1.2002
 6121SOL    HW124325   7.238   0.027   1.245 -0.6298  0.2784 -2.6235
 6121SOL    HW224326   7.297   0.124   1.345  0.8854 -0.8647 -2.3809
 6122SOL     OW24327   7.649   8.226   3.777 -0.0864 -0.0997  0.0169
 6122SOL    HW124328   7.613   8.217   3.865  0.3467 -0.5039  0.1572
 6122SOL    HW224329   7.672   8.136   3.751 -0.7270 -0.0610 -0.7268
 6123SOL     OW24330   5.577   5.038   3.562 -0.1077  0.3794  0.0746
 6123SOL    HW124331   5.583   5.038   3.657 -1.0372 -0.2643  0.1503
 6123SOL    HW224332   5.524   4.961   3.541  0.8358 -0.0010 -1.0237
 6124SOL     OW24333   4.788   2.202   6.015 -0.7676 -0.0318  0.4566
 6124SOL    HW124334   4.860   2.252   6.054  0.6832 -1.9529  0.3989
 6124SOL    HW224335   4.817   2.185   5.925 -1.5873 -0.3188  0.2380
 6125SOL     OW24336   6.032   7.242   0.632  0.0389  0.1415  0.3061
 6125SOL    HW124337   5.964   7.291   0.586  0.9617  0.4634 -0.7585
 6125SOL    HW224338   6.107   7.244   0.573  1.4187  0.9378  2.0083
 6126SOL     OW24339   3.933   2.643   0.334 -0.5149 -0.1076 -0.1247
 6126SOL    HW124340   3.943   2.620   0.427 -1.5908  0.3663  0.1189
 6126SOL    HW224341   3.925   2.738   0.334 -2.2517 -0.2181 -0.5149
 6127SOL     OW24342   4.834   6.399   4.708 -0.4083 -0.7950  0.1562
 6127SOL    HW124343   4.868   6.311   4.691 -1.5482 -1.2516  0.1625
 6127SOL    HW224344   4.742   6.394   4.684  0.0975  1.2169 -2.7141
 6128SOL     OW24345   0.106   2.455   4.235 -0.2679  0.2464 -0.4968
 6128SOL    HW124346   0.183   2.475   4.182 -0.1310  0.1663 -0.3310
 6128SOL    HW224347   0.034   2.452   4.173 -0.1260  0.2579 -0.6631
 6129SOL     OW24348   1.105   8.386   7.963  0.6209  0.5290 -0.2382
 6129SOL    HW124349   1.158   8.348   8.033 -1.3579  0.7010  1.4737
 6129SOL    HW224350   1.164   8.392   7.888  2.8838  0.4357  1.4343
 6130SOL     OW24351   7.510   4.792   7.698  0.0792  0.0874  0.0158
 6130SOL    HW124352   7.427   4.834   7.722  0.0107  0.2170 -0.4288
 6130SOL    HW224353   7.568   4.808   7.773 -0.5642 -0.7836  0.7189
 6131SOL     OW24354   8.965   6.365   4.618 -0.7299 -0.5500  0.1173
 6131SOL    HW124355   9.001   6.447   4.583 -0.0897 -0.5098  0.8678
 6131SOL    HW224356   8.871   6.383   4.627 -0.1833  1.4172  3.6952
 6132SOL     OW24357   8.923   0.485   7.605  0.4834 -0.0333  0.3414
 6132SOL    HW124358   8.892   0.447   7.523 -0.4840  0.5082  0.4378
 6132SOL    HW224359   9.013   0.511   7.587 -0.2636  1.7530 -1.1526
 6133SOL     OW24360   0.046   5.444   7.771  0.1252 -0.3537 -0.1680
 6133SOL    HW124361   0.124   5.442   7.717  0.2883 -1.1409  0.0860
 6133SOL    HW224362  -0.021   5.486   7.716  0.9670  1.2251 -0.0347
 6134SOL     OW24363   2.077   4.895   0.364 -0.1864  0.1768 -0.5373
 6134SOL    HW124364   2.105   4.985   0.380 -1.1634  0.6389 -1.3220
 6134SOL    HW224365   2.018   4.874   0.437 -1.0477  0.6710 -1.0796
 6135SOL     OW24366   7.568   5.829   4.378 -0.4307  1.0370  0.0473
 6135SOL    HW124367   7.512   5.900   4.409 -2.4188 -0.4467  0.0595
 6135SOL    HW224368   7.615   5.801   4.457  0.8118  2.6426 -0.0705
 6136SOL     OW24369   6.589   0.334   6.555 -0.5964  0.7785  0.3481
 6136SOL    HW124370   6.525   0.357   6.488 -0.9289  0.7075  0.6402
 6136SOL    HW224371   6.549   0.261   6.603  0.8298 -1.1205 -1.1737
 6137SOL     OW24372   7.898   2.258   4.503  0.0502 -0.4608  0.2707
 6137SOL    HW124373   7.867   2.309   4.578 -1.1325 -2.2201  1.0537
 6137SOL    HW224374   7.993   2.264   4.507 -0.0190  0.1358  1.4308
 6138SOL     OW24375   3.826   5.895   5.233 -0.0743  0.3989 -0.3494
 6138SOL    HW124376   3.774   5.924   5.308 -2.4970 -1.8099 -1.0291
 6138SOL    HW224377   3.816   5.965   5.168 -0.4551  0.9492  0.2897
 6139SOL     OW24378   8.754   3.786   8.013 -0.3989  0.4530 -0.9033
 6139SOL    HW124379   8.714   3.750   8.092  0.6447 -0.2201 -0.6553
 6139SOL    HW224380   8.846   3.800   8.037 -0.4535  1.9164 -1.4593
 6140SOL     OW24381   0.718   0.106   7.601 -0.4467 -0.1974 -0.3419
 6140SOL    HW124382   0.803   0.082   7.639  1.3822  1.1457 -3.2037
 6140SOL    HW224383   0.694   0.032   7.546 -0.4508 -0.0293 -0.5673
 6141SOL     OW24384   6.135   1.470   5.393  0.0162 -0.1201 -0.0641
 6141SOL    HW124385   6.068   1.438   5.332  0.8569  0.6518 -1.4429
 6141SOL    HW224386   6.147   1.562   5.369  0.1310  0.2929  1.5110
 6142SOL     OW24387   0.604   6.464   7.318  0.1372  1.3652  0.3230
 6142SOL    HW124388   0.596   6.432   7.408  0.1976 -0.3342 -0.2431
 6142SOL    HW224389   0.534   6.418   7.270  0.5727  1.6899 -0.6484
 6143SOL     OW24390   7.836   4.637   2.545 -0.0333 -0.8345  0.1414
 6143SOL    HW124391   7.758   4.693   2.543 -1.0581 -2.2092 -0.1182
 6143SOL    HW224392   7.884   4.666   2.623 -0.2303  0.7512 -0.2814
 6144SOL     OW24393   4.426   7.517   0.544  0.6351  0.6098 -0.0138
 6144SOL    HW124394   4.483   7.461   0.491  2.8621  3.0684 -0.4680
 6144SOL    HW224395   4.375   7.567   0.480  0.0404  0.4353  0.3169
 6145SOL     OW24396   6.982   9.145   3.159 -0.1534 -0.4287 -0.5737
 6145SOL    HW124397   7.018   9.233   3.157  0.8357 -0.8187 -0.8795
 6145SOL    HW224398   7.025   9.103   3.234 -0.8065 -0.5801 -0.2755
 6146SOL     OW24399   2.212   4.772   6.768  0.1000  0.1027 -0.6228
 6146SOL    HW124400   2.231   4.837   6.836 -0.4644 -1.5278  1.2051
 6146SOL    HW224401   2.118   4.758   6.775  0.4644 -2.3337  0.4905
 6147SOL     OW24402   5.618   8.333   2.467 -0.2454  0.4371  0.1149
 6147SOL    HW124403   5.638   8.416   2.425  0.1024  1.4419  2.1417
 6147SOL    HW224404   5.620   8.269   2.396  1.8347  1.7879 -1.1457
 6148SOL     OW24405   9.072   5.691   8.362 -0.1242 -0.0878  0.5514
 6148SOL    HW124406   9.036   5.668   8.447 -1.1458 -0.5038  0.0245
 6148SOL    HW224407   9.049   5.618   8.305 -1.7311  1.2725 -0.6811
 6149SOL     OW24408   8.057   3.532   9.314 -0.1145 -0.3448  0.2246
 6149SOL    HW124409   7.999   3.461   9.341 -0.1805  0.1644  1.4702
 6149SOL    HW224410   8.009   3.574   9.242 -0.3038 -1.2356 -0.1852
 6150SOL     OW24411   5.196   2.157   4.722  0.6891 -0.1013  0.0765
 6150SOL    HW124412   5.237   2.097   4.660 -0.1183  0.4038 -0.9699
 6150SOL    HW224413   5.237   2.242   4.705 -0.4159  0.3049 -0.6547
 6151SOL     OW24414   7.547   1.466   2.519 -0.9767 -0.1461  0.4179
 6151SOL    HW124415   7.453   1.477   2.505 -1.0089 -3.1415 -3.8124
 6151SOL    HW224416   7.586   1.497   2.437  1.0786 -3.8005 -0.1829
 6152SOL     OW24417   7.914   8.276   6.408 -0.1267  0.0276 -0.0394
 6152SOL    HW124418   7.928   8.247   6.498  1.3695 -0.4948 -0.4078
 6152SOL    HW224419   7.928   8.371   6.411  0.4609 -0.0612  0.1888
 6153SOL     OW24420   1.296   1.457   4.115 -0.3591  0.0096 -0.1752
 6153SOL    HW124421   1.383   1.492   4.095  0.8963 -1.7015  1.9100
 6153SOL    HW224422   1.302   1.364   4.093 -1.4633 -0.2498  0.5703
 6154SOL     OW24423   2.061   6.012   2.127  0.1747 -0.2510  0.0447
 6154SOL    HW124424   2.093   6.098   2.101 -3.4115  1.3732  0.3839
 6154SOL    HW224425   2.110   5.991   2.206  2.6695  0.3573 -1.2386
 6155SOL     OW24426   8.667   1.258   3.334 -0.2033 -0.3698  0.0864
 6155SOL    HW124427   8.587   1.287   3.290 -1.1369 -2.2699  0.4347
 6155SOL    HW224428   8.652   1.279   3.426  0.1496  0.2045  0.0162
 6156SOL     OW24429   8.620   0.134   5.561  0.3694 -0.0947 -0.0109
 6156SOL    HW124430   8.618   0.171   5.650  1.2440  0.8863 -0.3748
 6156SOL    HW224431   8.707   0.095   5.554 -0.4864 -2.2007  0.3151
 6157SOL     OW24432   7.597   8.493   4.031  0.2880 -0.3511 -0.4380
 6157SOL    HW124433   7.545   8.539   3.965  1.2034  0.6879 -0.4608
 6157SOL    HW224434   7.572   8.401   4.021 -0.5371 -0.0416 -1.3588
 6158SOL     OW24435   3.704   4.221   8.200  0.5146  0.6881 -0.3205
 6158SOL    HW124436   3.632   4.236   8.261  0.1671  0.2904 -0.6279
 6158SOL    HW224437   3.765   4.166   8.247  1.9287  3.1567  0.9261
 6159SOL     OW24438   7.012   8.934   8.150  0.0741 -0.2208 -0.4986
 6159SOL    HW124439   6.941   8.871   8.158  0.5997 -0.5626  4.0305
 6159SOL    HW224440   6.971   9.019   8.161  0.1836 -0.3698  1.3248
 6160SOL     OW24441   3.104   1.156   3.553  0.1554  0.0201 -0.2483
 6160SOL    HW124442   3.019   1.197   3.538 -0.1440 -0.6467 -0.4204
 6160SOL    HW224443   3.132   1.190   3.638 -1.2218 -1.2650  0.7999
 6161SOL     OW24444   1.012   6.295   8.715  0.4067 -0.5970 -0.1028
 6161SOL    HW124445   0.998   6.332   8.803  0.5868 -1.8902  0.4895
 6161SOL    HW224446   0.944   6.229   8.707  0.6525 -0.7662 -0.7847
 6162SOL     OW24447   6.362   0.100   8.808  0.1774 -0.1041  0.1018
 6162SOL    HW124448   6.361   0.125   8.716 -0.8251 -1.8202 -0.3866
 6162SOL    HW224449   6.275   0.123   8.841 -0.0305 -0.9549  0.1793
 6163SOL     OW24450   7.712   1.520   5.710  0.8316  0.0579  0.4066
 6163SOL    HW124451   7.620   1.504   5.690  1.1106  0.4682 -1.3918
 6163SOL    HW224452   7.721   1.501   5.803 -1.5996  2.2989  1.2188
 6164SOL     OW24453   8.263   5.468   0.806  0.5391  0.4850 -0.2346
 6164SOL    HW124454   8.271   5.432   0.718 -0.9563 -2.5287  0.7241
 6164SOL    HW224455   8.298   5.400   0.863 -2.5362  0.3512  1.7286
 6165SOL     OW24456   5.495   0.576   6.985  0.5760  0.3484 -0.5129
 6165SOL    HW124457   5.518   0.543   7.072  0.5693  0.4422 -0.4751
 6165SOL    HW224458   5.574   0.561   6.932  1.1998  1.8143 -0.0640
 6166SOL     OW24459   1.781   7.591   1.836  0.5459  0.1462 -0.3774
 6166SOL    HW124460   1.833   7.520   1.875  2.5083  1.0270 -1.2146
 6166SOL    HW224461   1.815   7.671   1.877 -0.0207  0.7702 -1.0827
 6167SOL     OW24462   0.525   5.624   5.839  0.0872 -0.3264 -0.3862
 6167SOL    HW124463   0.620   5.632   5.842 -0.0191  1.2860 -0.4351
 6167SOL    HW224464   0.493   5.714   5.847 -1.3648 -0.5667 -2.6041
 6168SOL     OW24465   8.337   6.307   1.209  0.1982  0.4770 -0.4109
 6168SOL    HW124466   8.356   6.393   1.247 -0.5528  0.5727 -0.2542
 6168SOL    HW224467   8.246   6.289   1.232 -0.0027  0.1363 -1.4056
 6169SOL     OW24468   1.677   6.899   2.427 -0.6591  0.4340  0.2459
 6169SOL    HW124469   1.766   6.890   2.462 -0.4548 -0.8343 -0.5266
 6169SOL    HW224470   1.626   6.831   2.472 -0.6446 -0.4854 -1.0708
 6170SOL     OW24471   6.972   1.513   3.941  0.2931 -0.7478 -0.3960
 6170SOL    HW124472   6.956   1.594   3.893 -0.3030 -0.7046 -0.1277
 6170SOL    HW224473   7.017   1.457   3.878  3.1003  0.6781  0.1883
 6171SOL     OW24474   5.932   6.729   0.916 -0.2803  1.0285 -0.3629
 6171SOL    HW124475   5.910   6.694   1.002 -1.3699 -0.0316 -1.0388
 6171SOL    HW224476   5.917   6.656   0.856  3.2349  0.8133 -1.1803
 6172SOL     OW24477   1.383   0.060   6.888 -0.1436  0.0936 -0.2685
 6172SOL    HW124478   1.293   0.084   6.867  0.0046  0.6334 -0.3239
 6172SOL    HW224479   1.412   0.006   6.815 -0.3259  0.1753 -0.4003
 6173SOL     OW24480   8.586   2.130   1.042 -0.1405 -0.0089  0.3290
 6173SOL    HW124481   8.540   2.119   1.126 -1.5472 -0.9459 -0.5236
 6173SOL    HW224482   8.519   2.162   0.982  0.7033  0.0748 -0.5926
 6174SOL     OW24483   7.588   7.359   1.693  0.2433 -0.1313  0.2065
 6174SOL    HW124484   7.631   7.319   1.769  1.5463  1.2284  0.2338
 6174SOL    HW224485   7.511   7.402   1.730  0.8197  0.4503  0.7517
 6175SOL     OW24486   4.279   4.279   4.372  0.3482 -0.3239 -0.0398
 6175SOL    HW124487   4.270   4.363   4.419 -0.9163 -0.4896  0.0488
 6175SOL    HW224488   4.239   4.215   4.431 -0.1285 -0.7298 -0.7923
 6176SOL     OW24489   7.217   6.778   5.533 -0.4300  0.6180 -0.0450
 6176SOL    HW124490   7.212   6.716   5.460  2.0775  1.0798 -0.6999
 6176SOL    HW224491   7.180   6.859   5.499  0.5948  0.7906 -0.7734
 6177SOL     OW24492   2.482   8.054   9.019 -0.3849 -0.4842 -0.3719
 6177SOL    HW124493   2.471   8.146   8.995 -0.9270 -0.9120 -1.8387
 6177SOL    HW224494   2.393   8.018   9.016 -0.4507 -0.6965  1.9336
 6178SOL     OW24495   6.982   1.673   4.180  0.2447 -0.0103  0.5778
 6178SOL    HW124496   7.074   1.687   4.158  0.4643 -0.3091  1.2787
 6178SOL    HW224497   6.943   1.640   4.099  0.6683  0.4666  0.1719
 6179SOL     OW24498   3.603   3.384   6.643 -0.4716 -0.3625  0.0340
 6179SOL    HW124499   3.521   3.350   6.680 -0.5109  1.0686  1.3445
 6179SOL    HW224500   3.581   3.406   6.552 -1.7808  0.7236  0.5816
 6180SOL     OW24501   7.389   8.905   9.229  0.5818  0.0845 -0.7487
 6180SOL    HW124502   7.478   8.883   9.202  0.7728  0.2339 -0.2590
 6180SOL    HW224503   7.361   8.974   9.169  0.9946  0.4076 -0.5746
 6181SOL     OW24504   8.387   4.156   3.775 -0.6415 -0.1022 -0.1752
 6181SOL    HW124505   8.386   4.078   3.720 -0.6831 -0.8543  0.8495
 6181SOL    HW224506   8.352   4.126   3.859  0.5064  0.7143  0.6285
 6182SOL     OW24507   6.257   0.690   4.671  0.4867  0.0743  0.3563
 6182SOL    HW124508   6.331   0.717   4.725  0.3688  0.6552  0.2348
 6182SOL    HW224509   6.190   0.662   4.734  1.1800 -1.5102  0.4459
 6183SOL     OW24510   3.945   6.692   8.620  0.5820 -0.4622  0.0535
 6183SOL    HW124511   3.950   6.598   8.601 -1.8177 -0.8348  0.9561
 6183SOL    HW224512   3.900   6.697   8.704 -1.8650  1.5256 -1.2373
 6184SOL     OW24513   5.499   4.329   8.446 -0.3982 -0.6435  0.4258
 6184SOL    HW124514   5.449   4.280   8.511  0.5164 -2.3496 -0.0936
 6184SOL    HW224515   5.590   4.323   8.476 -0.1428 -0.1536 -0.2135
 6185SOL     OW24516   8.632   0.915   8.095  0.1468  0.5785  0.2624
 6185SOL    HW124517   8.714   0.937   8.052  0.2927 -1.3976 -0.5638
 6185SOL    HW224518   8.572   0.893   8.023 -0.6319  0.4611  0.9269
 6186SOL     OW24519   6.627   4.776   3.284 -0.1032  0.0010  0.3293
 6186SOL    HW124520   6.663   4.699   3.328  1.5308  0.8943  0.6560
 6186SOL    HW224521   6.679   4.849   3.317 -1.4082  1.2256 -0.1941
 6187SOL     OW24522   4.718   7.453   3.135  0.0086 -0.6255  0.0491
 6187SOL    HW124523   4.759   7.438   3.050 -0.1413  0.3441 -0.2049
 6187SOL    HW224524   4.630   7.483   3.114 -0.6772 -2.1802  0.5873
 6188SOL     OW24525   8.823   3.769   5.167  0.0144 -0.4366  0.2817
 6188SOL    HW124526   8.747   3.792   5.113  0.5071  0.2313 -0.1280
 6188SOL    HW224527   8.879   3.846   5.164 -0.9403  0.5283  3.5542
 6189SOL     OW24528   7.099   8.390   1.904  0.4869  0.0062  0.4871
 6189SOL    HW124529   7.117   8.357   1.992  0.1795  1.2354  1.0349
 6189SOL    HW224530   7.133   8.480   1.905 -0.3851  0.3615 -0.3337
 6190SOL     OW24531   3.161   6.415   1.430  0.5502  0.0418 -0.4257
 6190SOL    HW124532   3.140   6.346   1.366 -4.0654  1.1505 -0.4726
 6190SOL    HW224533   3.168   6.368   1.513  0.0695 -0.7744 -0.8269
 6191SOL     OW24534   2.425   8.722   4.236 -0.5716  0.7180  0.1874
 6191SOL    HW124535   2.409   8.816   4.227 -0.5736  0.9013  1.8300
 6191SOL    HW224536   2.408   8.703   4.328 -1.5236 -1.1029 -0.3115
 6192SOL     OW24537   8.305   6.034   0.847 -0.3525 -0.1554 -0.0616
 6192SOL    HW124538   8.212   6.019   0.833 -0.6520  0.5594  1.0154
 6192SOL    HW224539   8.335   5.957   0.896 -0.8721  0.5657  1.4568
 6193SOL     OW24540   8.453   1.077   5.558 -0.3648 -1.0110 -0.2243
 6193SOL    HW124541   8.487   1.022   5.487 -1.7709 -1.5532 -0.5200
 6193SOL    HW224542   8.364   1.045   5.571 -0.2986 -0.5903  1.4686
 6194SOL     OW24543   5.531   0.965   3.702  0.0256 -0.3976 -0.4958
 6194SOL    HW124544   5.544   1.054   3.669 -0.1818 -0.6821 -1.3827
 6194SOL    HW224545   5.612   0.944   3.749 -0.3975  0.6934  0.7804
 6195SOL     OW24546   0.379   8.743   4.908  0.0225 -0.5740 -0.1005
 6195SOL    HW124547   0.462   8.696   4.909  0.0456 -0.5273  0.2704
 6195SOL    HW224548   0.312   8.675   4.911  0.0552 -0.5907  0.3815
 6196SOL     OW24549   3.412   1.303   0.805 -0.3452 -0.0326  0.2040
 6196SOL    HW124550   3.425   1.220   0.760  0.6498  0.3142 -0.1794
 6196SOL    HW224551   3.417   1.369   0.736  0.4987  0.4589  0.7219
 6197SOL     OW24552   6.480   2.924   3.695  0.4989 -1.0993 -0.3637
 6197SOL    HW124553   6.556   2.953   3.645 -0.4432 -0.2072 -1.3386
 6197SOL    HW224554   6.408   2.976   3.660 -0.4231 -1.3621  1.0748
 6198SOL     OW24555   7.460   5.857   7.756 -0.3560 -0.3789  0.2173
 6198SOL    HW124556   7.451   5.906   7.838 -0.6960  0.0510 -0.0744
 6198SOL    HW224557   7.472   5.924   7.689  0.8280 -0.7629  0.0253
 6199SOL     OW24558   7.112   5.870   5.324  0.4913 -0.2898  0.0657
 6199SOL    HW124559   7.129   5.919   5.405 -0.6010 -0.6539  0.5377
 6199SOL    HW224560   7.199   5.851   5.289  0.9846 -0.0467  1.1053
 6200SOL     OW24561   4.678   7.060   8.166  0.3615  0.5257  0.1452
 6200SOL    HW124562   4.732   7.115   8.223  1.0181 -0.4809  0.5084
 6200SOL    HW224563   4.699   6.971   8.191 -1.6645  0.0830  0.4694
 6201SOL     OW24564   7.833   0.721   1.733  0.4322 -0.1429  0.7696
 6201SOL    HW124565   7.881   0.641   1.713  0.7254  0.4924 -1.2826
 6201SOL    HW224566   7.745   0.690   1.757  0.0279 -1.0484 -1.6362
 6202SOL     OW24567   9.127   6.120   4.026  0.1297 -0.4206  0.0147
 6202SOL    HW124568   9.198   6.057   4.013  1.0304  0.9681 -2.7562
 6202SOL    HW224569   9.169   6.195   4.069  0.4244  0.3811 -1.5798
 6203SOL     OW24570   3.264   2.454   4.641  0.4862 -0.1882 -0.2084
 6203SOL    HW124571   3.280   2.510   4.565  0.0922  0.6833  0.3345
 6203SOL    HW224572   3.314   2.374   4.623  1.7563  0.6611 -0.6220
 6204SOL     OW24573   0.943   9.006   1.415  0.4322  0.2288  0.1442
 6204SOL    HW124574   1.002   9.069   1.456 -1.9863  1.6994  1.5889
 6204SOL    HW224575   0.896   9.058   1.349 -1.4542 -0.0135  1.2192
 6205SOL     OW24576   8.664   7.363   6.166 -0.0140 -0.3960  0.3214
 6205SOL    HW124577   8.728   7.435   6.166 -0.0481 -0.3363  1.4559
 6205SOL    HW224578   8.688   7.309   6.092  1.2769 -0.2956  0.6433
 6206SOL     OW24579   5.977   3.236   9.334  0.2596 -0.0780  0.2701
 6206SOL    HW124580   6.053   3.196   9.376  0.4680  0.0353  0.0061
 6206SOL    HW224581   6.012   3.312   9.288  0.1262 -0.4926 -0.5320
 6207SOL     OW24582   3.866   2.104   4.570  0.5228  0.5367 -0.2211
 6207SOL    HW124583   3.915   2.035   4.525 -0.4777  0.3044 -0.9775
 6207SOL    HW224584   3.861   2.074   4.661  2.2655  0.8464  0.0210
 6208SOL     OW24585   8.857   6.566   6.019 -0.9927 -0.2361 -0.2104
 6208SOL    HW124586   8.854   6.651   5.976  3.0066 -0.4021 -1.1776
 6208SOL    HW224587   8.828   6.504   5.952 -2.1887  0.1337 -0.0670
 6209SOL     OW24588   7.141   7.604   3.125 -0.2195  0.6460  0.1643
 6209SOL    HW124589   7.220   7.584   3.175  1.4500  1.0214 -2.1231
 6209SOL    HW224590   7.145   7.543   3.051 -1.2364  1.7072 -0.8014
 6210SOL     OW24591   8.792   4.636   0.924  0.0366 -0.0185  0.2509
 6210SOL    HW124592   8.772   4.623   1.016 -1.1412  2.4025  0.4197
 6210SOL    HW224593   8.888   4.637   0.920  0.0954 -0.1013  1.4427
 6211SOL     OW24594   5.136   2.632   0.549 -0.0957  0.4035 -0.4050
 6211SOL    HW124595   5.082   2.588   0.483  0.7984 -0.6764 -0.4541
 6211SOL    HW224596   5.074   2.680   0.603 -1.0274 -0.1517 -0.9469
 6212SOL     OW24597   0.267   6.845   6.187 -0.0560 -0.2234 -0.5914
 6212SOL    HW124598   0.273   6.750   6.199  0.4191 -0.2898 -1.2912
 6212SOL    HW224599   0.357   6.874   6.175 -0.0913  0.4972  0.7820
 6213SOL     OW24600   4.602   5.850   5.848 -0.5882 -0.2660 -0.2416
 6213SOL    HW124601   4.530   5.856   5.785  0.6728  2.7484 -1.6381
 6213SOL    HW224602   4.655   5.928   5.830  1.9339 -1.2947  2.0623
 6214SOL     OW24603   3.959   2.467   3.833 -0.9510  0.0614  0.5609
 6214SOL    HW124604   3.993   2.459   3.922 -0.5267  2.6509  0.7314
 6214SOL    HW224605   3.886   2.528   3.840 -1.5580 -0.4751 -0.7257
 6215SOL     OW24606   2.616   4.577   2.912  0.0514  0.2923  0.6090
 6215SOL    HW124607   2.627   4.650   2.851 -0.8728  0.5730  0.7532
 6215SOL    HW224608   2.693   4.580   2.967  1.3854 -0.5447 -1.1138
 6216SOL     OW24609   6.769   4.850   5.132 -0.3123  0.0696  0.2466
 6216SOL    HW124610   6.742   4.923   5.187  0.8347 -0.0228  0.9672
 6216SOL    HW224611   6.864   4.858   5.126 -0.2196 -1.0632 -0.0809
 6217SOL     OW24612   9.268   2.667   3.385 -0.0904 -0.7025 -0.3287
 6217SOL    HW124613   9.197   2.665   3.450  0.6039 -1.9275  0.4334
 6217SOL    HW224614   9.277   2.759   3.363 -1.5324 -0.4581 -0.0098
 6218SOL     OW24615   5.873   1.961   4.106  0.6976 -1.3823  0.0423
 6218SOL    HW124616   5.809   2.031   4.089  0.2836 -1.9349 -0.6853
 6218SOL    HW224617   5.828   1.881   4.081  1.8144 -1.7504 -0.8515
 6219SOL     OW24618   2.303   0.018   5.925 -0.1905  0.2927 -0.2080
 6219SOL    HW124619   2.314   0.016   6.020 -0.3590  0.6021 -0.1820
 6219SOL    HW224620   2.316  -0.073   5.898  0.9637  0.3809 -0.0155
 6220SOL     OW24621   2.176   7.924   0.058  0.4128 -0.4208  0.1853
 6220SOL    HW124622   2.139   7.920  -0.030  0.4869 -1.4103  0.1986
 6220SOL    HW224623   2.127   7.994   0.101  0.3530  0.0490 -0.6195
 6221SOL     OW24624   9.265   1.365   0.339  0.4809 -0.1494  0.1203
 6221SOL    HW124625   9.194   1.309   0.307  0.0671 -0.3085  1.2651
 6221SOL    HW224626   9.345   1.322   0.310  0.1259  0.0264 -1.1821
 6222SOL     OW24627   5.787   3.489   2.054 -0.0616  0.1861 -0.4898
 6222SOL    HW124628   5.811   3.575   2.020 -0.2767  0.7838  0.8177
 6222SOL    HW224629   5.751   3.443   1.979 -0.1535  1.3199 -1.1614
 6223SOL     OW24630   8.581   0.881   2.216  0.7961  0.0506 -0.5470
 6223SOL    HW124631   8.633   0.808   2.250 -1.0466 -0.6552  0.9456
 6223SOL    HW224632   8.589   0.874   2.121  0.7349 -2.0770 -0.4468
 6224SOL     OW24633   6.484   8.293   7.539  0.1698 -0.5310  0.3852
 6224SOL    HW124634   6.396   8.331   7.542  0.6122  0.5442 -0.0177
 6224SOL    HW224635   6.475   8.211   7.587 -1.1815 -0.7008 -0.1023
 6225SOL     OW24636   9.319   2.744   8.090  0.6452  0.7303  0.1278
 6225SOL    HW124637   9.236   2.774   8.054  0.7926 -1.2198 -1.9925
 6225SOL    HW224638   9.365   2.705   8.016  2.0913 -1.1385  1.9190
 6226SOL     OW24639   8.923   6.619   4.340 -0.5814  0.0299  0.1716
 6226SOL    HW124640   8.935   6.535   4.296  0.6407  1.6733 -3.0390
 6226SOL    HW224641   8.864   6.668   4.282 -1.8422  1.1898  2.3044
 6227SOL     OW24642   2.784   7.865   6.158  0.0518 -0.4952 -0.0094
 6227SOL    HW124643   2.879   7.874   6.153  0.2425 -1.9912  0.3578
 6227SOL    HW224644   2.750   7.930   6.097  1.3982 -1.7631 -2.2467
 6228SOL     OW24645   3.662   0.258   5.091 -0.2032 -0.2056  0.1151
 6228SOL    HW124646   3.632   0.254   5.000 -2.7874 -1.5693  0.9186
 6228SOL    HW224647   3.661   0.167   5.120  0.9246  0.1693  1.4229
 6229SOL     OW24648   0.562   6.243   4.154 -0.3188  1.3486  0.3176
 6229SOL    HW124649   0.569   6.147   4.154  0.8395  1.4262  0.4330
 6229SOL    HW224650   0.483   6.260   4.103  0.1511  0.3723 -0.8048
 6230SOL     OW24651   9.079   4.948   6.268 -0.2309 -0.2205  0.1463
 6230SOL    HW124652   9.154   4.892   6.253 -0.2908  0.1372 -1.8814
 6230SOL    HW224653   9.018   4.925   6.197 -0.7936  1.4550  0.0434
 6231SOL     OW24654   5.720   2.720   6.361  0.1589  0.3631  0.1477
 6231SOL    HW124655   5.694   2.770   6.283 -0.4606 -0.3668 -0.1393
 6231SOL    HW224656   5.646   2.728   6.420 -0.3253 -0.8782 -0.2455
 6232SOL     OW24657   1.957   2.586   1.347  0.2318 -0.4194 -0.2226
 6232SOL    HW124658   2.023   2.521   1.372  0.0795 -0.7310 -0.6079
 6232SOL    HW224659   1.977   2.605   1.255  0.2034 -0.0066 -0.1419
 6233SOL     OW24660   1.534   3.698   5.204  0.5970 -0.5632  0.0530
 6233SOL    HW124661   1.529   3.790   5.229 -0.3025 -0.4777 -0.3869
 6233SOL    HW224662   1.608   3.663   5.254  0.8319  0.3506  0.3607
 6234SOL     OW24663   4.506   6.237   7.526 -0.2525 -1.3413 -0.0511
 6234SOL    HW124664   4.419   6.234   7.486  0.1910  0.5953 -1.2691
 6234SOL    HW224665   4.548   6.156   7.497 -1.0690 -1.5156 -0.7982
 6235SOL     OW24666   5.272   7.208   2.634  0.0404 -0.4044 -0.0690
 6235SOL    HW124667   5.246   7.286   2.681 -1.7251 -0.7065 -0.4856
 6235SOL    HW224668   5.207   7.142   2.658 -0.1425 -0.9346 -1.8740
 6236SOL     OW24669   0.750   7.941   3.441  0.2319 -0.0192 -0.4170
 6236SOL    HW124670   0.694   7.921   3.366  1.2865  1.6662 -1.7190
 6236SOL    HW224671   0.827   7.983   3.403  0.8410  0.8099  1.6102
 6237SOL     OW24672   6.096   1.543   4.204  0.3819 -0.3009  0.0704
 6237SOL    HW124673   6.087   1.474   4.270  1.6513  0.2956  0.8980
 6237SOL    HW224674   6.159   1.508   4.141 -3.3480 -2.3848 -2.9579
 6238SOL     OW24675   3.082   3.613   4.662 -0.3330 -0.4266 -0.2376
 6238SOL    HW124676   3.059   3.690   4.610 -1.4178 -0.7951 -0.3361
 6238SOL    HW224677   3.060   3.637   4.752  1.3804  0.1487  0.0503
 6239SOL     OW24678   2.802   2.327   3.701  0.3349  0.0247 -0.1628
 6239SOL    HW124679   2.875   2.278   3.739  0.4567  0.0364 -0.3833
 6239SOL    HW224680   2.819   2.328   3.607 -2.1120 -3.6783 -0.8742
 6240SOL     OW24681   6.181   7.830   4.623  0.0787  0.3138  0.0286
 6240SOL    HW124682   6.207   7.867   4.538 -1.3838  0.3999 -0.4195
 6240SOL    HW224683   6.133   7.901   4.666 -0.9888 -0.3745  0.0194
 6241SOL     OW24684   9.073   8.312   5.365  0.3734 -0.2111  0.3726
 6241SOL    HW124685   9.017   8.334   5.290  0.2782  1.4603  0.8935
 6241SOL    HW224686   9.118   8.232   5.338  0.8039  0.6680 -1.7610
 6242SOL     OW24687   7.260   3.532   4.782  0.8997 -0.1230  0.3486
 6242SOL    HW124688   7.333   3.592   4.797  2.1201 -1.8036  1.4716
 6242SOL    HW224689   7.297   3.445   4.796 -1.0713 -1.0971 -0.1431
 6243SOL     OW24690   0.021   4.709   2.608  0.0938  0.7875  0.0341
 6243SOL    HW124691  -0.074   4.703   2.608  0.0998  0.6106 -0.7580
 6243SOL    HW224692   0.042   4.763   2.531  0.6269  0.8860  0.2414
 6244SOL     OW24693   4.208   3.368   1.526 -0.2108 -0.1322  0.3085
 6244SOL    HW124694   4.145   3.307   1.565 -1.0608  1.5913  1.7885
 6244SOL    HW224695   4.278   3.312   1.493 -3.3238 -2.3276 -3.2838
 6245SOL     OW24696   2.717   2.136   5.731 -0.0997  0.0393 -0.5202
 6245SOL    HW124697   2.672   2.220   5.722 -1.8252 -0.8242 -0.3435
 6245SOL    HW224698   2.776   2.149   5.805 -1.4488  0.6672  0.4982
 6246SOL     OW24699   6.998   5.235   7.774 -0.2379 -0.7276 -0.3298
 6246SOL    HW124700   6.961   5.178   7.842 -0.7093  0.1377  0.1527
 6246SOL    HW224701   6.937   5.228   7.701 -0.9068  0.0368  0.1505
 6247SOL     OW24702   4.934   2.971   7.489  0.2505 -0.0444 -0.3103
 6247SOL    HW124703   4.872   3.042   7.502 -0.0165 -0.2945 -0.2191
 6247SOL    HW224704   4.921   2.913   7.564 -0.0146 -0.5481 -0.7419
 6248SOL     OW24705   2.142   7.294   2.722 -0.3949  0.1901  0.3718
 6248SOL    HW124706   2.127   7.258   2.634 -1.2373  1.2856  0.0393
 6248SOL    HW224707   2.236   7.310   2.725 -0.5124  1.3171 -0.8409
 6249SOL     OW24708   1.569   1.379   1.978 -0.2528 -0.1430 -0.2434
 6249SOL    HW124709   1.529   1.458   1.941 -0.1652 -0.5962 -1.3589
 6249SOL    HW224710   1.631   1.412   2.043  0.5830  0.8029 -1.4527
 6250SOL     OW24711   8.826   8.164   5.708 -0.3218  0.1773 -0.5609
 6250SOL    HW124712   8.822   8.195   5.617  0.8086 -0.6069 -0.9022
 6250SOL    HW224713   8.919   8.147   5.723 -0.5752 -0.2934  0.5535
 6251SOL     OW24714   7.256   0.787   6.184 -0.3163 -0.3615  0.2401
 6251SOL    HW124715   7.204   0.867   6.191  0.0480 -0.1184  0.2098
 6251SOL    HW224716   7.336   0.814   6.139 -1.2938 -1.2689 -2.1896
 6252SOL     OW24717   7.920   8.625   5.610 -0.3110 -0.4257  0.3762
 6252SOL    HW124718   7.996   8.678   5.586 -0.8295 -0.8694 -2.5680
 6252SOL    HW224719   7.855   8.643   5.542 -2.4461 -0.9650  2.1445
 6253SOL     OW24720   2.091   8.909   4.658  0.0324  0.2809  0.5007
 6253SOL    HW124721   2.129   8.881   4.741 -1.2704 -0.4900  0.8706
 6253SOL    HW224722   1.998   8.886   4.665  0.0313 -0.5568 -1.4910
 6254SOL     OW24723   2.455   6.978   5.705 -0.3478  0.2547  0.0943
 6254SOL    HW124724   2.442   6.914   5.635 -1.6097 -2.3742  2.5275
 6254SOL    HW224725   2.540   7.017   5.687  0.2560 -1.7522 -1.8005
 6255SOL     OW24726   6.637   5.765   0.498 -0.3181 -0.0565  0.0758
 6255SOL    HW124727   6.565   5.749   0.437  1.6032  2.5552 -3.1878
 6255SOL    HW224728   6.696   5.691   0.486 -1.7609 -1.6136  1.9177
 6256SOL     OW24729   1.195   8.215   4.102  0.0040 -0.2309  0.6184
 6256SOL    HW124730   1.199   8.283   4.169 -1.1756 -0.4412  0.9272
 6256SOL    HW224731   1.245   8.250   4.028 -1.3407  1.3775  0.4263
 6257SOL     OW24732   1.010   6.759   5.073  0.0290 -0.0533  0.3902
 6257SOL    HW124733   1.028   6.665   5.066  1.4017  0.2348 -0.3076
 6257SOL    HW224734   0.987   6.786   4.983 -0.4840  0.2583  0.6094
 6258SOL     OW24735   7.108   3.656   4.395 -0.0889 -0.5207  0.2760
 6258SOL    HW124736   7.015   3.642   4.377  0.1907 -0.6376 -1.2152
 6258SOL    HW224737   7.111   3.682   4.487 -1.6193 -0.2857  0.2877
 6259SOL     OW24738   0.289   2.700   5.043  0.1658  0.4797 -0.2171
 6259SOL    HW124739   0.312   2.611   5.067  2.8439  1.3859  1.0039
 6259SOL    HW224740   0.308   2.706   4.950  1.0072  0.0632 -0.0759
 6260SOL     OW24741   7.997   8.467   0.470 -0.3088 -0.1269 -0.0281
 6260SOL    HW124742   7.932   8.405   0.502  0.5053 -0.5190  0.8905
 6260SOL    HW224743   8.071   8.413   0.442  0.8930  0.4305  1.8791
 6261SOL     OW24744   5.088   9.241   6.663 -0.4775  0.4790 -0.1724
 6261SOL    HW124745   5.030   9.315   6.681 -1.7027 -0.1188 -1.4915
 6261SOL    HW224746   5.033   9.164   6.677  0.1776 -0.1275 -0.8826
 6262SOL     OW24747   9.151   5.658   5.019  0.5786 -0.8130  0.6703
 6262SOL    HW124748   9.066   5.686   5.051 -0.4864 -2.8344 -0.2218
 6262SOL    HW224749   9.212   5.725   5.050 -1.3980  1.0161  0.7894
 6263SOL     OW24750   0.923   4.414   2.611 -0.0603  0.1040  0.3939
 6263SOL    HW124751   0.882   4.462   2.683  0.2763  0.0597  0.6163
 6263SOL    HW224752   1.015   4.439   2.614 -0.2689  1.1494 -0.8624
 6264SOL     OW24753   9.080   7.538   1.837  0.0918  0.4670  0.3021
 6264SOL    HW124754   9.137   7.553   1.762  1.8163  1.8373  1.7761
 6264SOL    HW224755   9.015   7.475   1.806  1.9429 -0.5860 -1.7268
 6265SOL     OW24756   2.649   4.074   7.852  0.5275 -0.7166  0.1712
 6265SOL    HW124757   2.684   4.163   7.847 -0.9662 -0.1092  0.0183
 6265SOL    HW224758   2.684   4.030   7.775  0.6251 -0.0076 -0.1980
 6266SOL     OW24759   6.686   5.214   5.418 -0.5509  0.0924  0.0498
 6266SOL    HW124760   6.635   5.294   5.406 -0.5752  0.3477  1.6047
 6266SOL    HW224761   6.656   5.156   5.348  0.3614  1.8458 -1.9097
 6267SOL     OW24762   3.409   2.037   3.248  0.1679 -0.7168  0.4761
 6267SOL    HW124763   3.457   2.047   3.330 -1.4809 -0.1071  1.4273
 6267SOL    HW224764   3.322   2.072   3.267 -0.3550 -0.8414 -1.4577
 6268SOL     OW24765   3.428   4.507   1.841 -0.4249  0.4771 -0.1259
 6268SOL    HW124766   3.406   4.517   1.748 -1.8000 -0.9324  0.0161
 6268SOL    HW224767   3.406   4.416   1.861  1.0546  0.3919  1.2840
 6269SOL     OW24768   1.409   8.390   8.858  0.0722  0.4384 -0.2259
 6269SOL    HW124769   1.407   8.349   8.945  1.8403  2.9379  1.1243
 6269SOL    HW224770   1.383   8.481   8.874  1.3972  1.2125 -2.1346
 6270SOL     OW24771   6.815   8.194   9.131 -0.2206  0.0602 -0.3648
 6270SOL    HW124772   6.770   8.138   9.067 -1.0819 -0.1493  0.3930
 6270SOL    HW224773   6.833   8.135   9.205  0.0433  0.4822 -0.0925
 6271SOL     OW24774   0.864   7.132   6.836 -0.2823 -0.4699 -0.3588
 6271SOL    HW124775   0.795   7.178   6.788 -0.8379 -1.6267 -0.7088
 6271SOL    HW224776   0.929   7.109   6.769  1.6991  2.6488  0.2841
 6272SOL     OW24777   8.891   7.606   8.829  0.0934  0.3815  0.9791
 6272SOL    HW124778   8.811   7.629   8.877 -0.4757  0.8108 -0.1280
 6272SOL    HW224779   8.859   7.574   8.744  1.0955  0.7107  0.4675
 6273SOL     OW24780   5.822   0.471   3.672 -0.0732  0.0300  0.1041
 6273SOL    HW124781   5.869   0.431   3.599  1.4329  0.9122  0.5393
 6273SOL    HW224782   5.865   0.436   3.750  0.1670  1.1705  0.5038
 6274SOL     OW24783   2.281   5.206   3.454  0.4862 -0.4819  0.2329
 6274SOL    HW124784   2.323   5.268   3.393 -0.9346  0.3125  0.0253
 6274SOL    HW224785   2.320   5.121   3.431  0.2048 -0.1653 -1.6146
 6275SOL     OW24786   6.131   5.847   3.777 -0.6188  0.4327 -0.3713
 6275SOL    HW124787   6.224   5.827   3.792 -0.8369  0.0296  0.5247
 6275SOL    HW224788   6.106   5.790   3.704 -0.4687 -0.3895  0.2024
 6276SOL     OW24789   5.445   5.550   6.190 -0.1515  0.2626  0.2941
 6276SOL    HW124790   5.473   5.466   6.227  0.5667  0.6564  0.6738
 6276SOL    HW224791   5.432   5.607   6.266  0.2172  0.7454  0.0014
 6277SOL     OW24792   9.242   1.967   5.197 -0.8542 -0.3434 -0.0825
 6277SOL    HW124793   9.182   2.028   5.240 -0.6337 -0.7155  0.7675
 6277SOL    HW224794   9.302   1.939   5.266 -0.2478 -0.6574 -0.7243
 6278SOL     OW24795   4.584   1.964   0.921 -0.3515  0.1134  0.1571
 6278SOL    HW124796   4.667   1.935   0.959 -0.4931  1.6838  1.7972
 6278SOL    HW224797   4.598   1.957   0.826  0.7578 -1.9514  0.4016
 6279SOL     OW24798   5.957   3.533   2.608  0.5421  0.1936  0.9548
 6279SOL    HW124799   5.945   3.454   2.661  1.5947 -0.8849 -0.3593
 6279SOL    HW224800   5.939   3.505   2.519  1.1057  1.3916  0.4454
 6280SOL     OW24801   0.936   5.253   8.028  0.0224 -0.4479 -0.2565
 6280SOL    HW124802   0.950   5.160   8.043 -1.1477 -0.6085 -0.1309
 6280SOL    HW224803   1.009   5.279   7.972  0.8595 -1.2379  0.4328
 6281SOL     OW24804   4.263   2.955   0.595  0.0453 -0.1213 -0.5491
 6281SOL    HW124805   4.233   2.871   0.561 -0.0777  0.4762 -1.9648
 6281SOL    HW224806   4.215   3.021   0.545  2.0021  0.8292 -1.3020
 6282SOL     OW24807   2.391   5.152   6.538 -0.6646 -0.6488 -0.4674
 6282SOL    HW124808   2.450   5.218   6.574  0.0157 -1.7407  0.5176
 6282SOL    HW224809   2.362   5.187   6.454  2.1808 -0.4779 -1.4732
 6283SOL     OW24810   2.089   5.778   5.958 -0.6248  0.1001  0.3453
 6283SOL    HW124811   2.025   5.731   6.011 -0.9257 -2.5465 -2.1238
 6283SOL    HW224812   2.172   5.735   5.978 -0.3285  0.7166  0.4482
 6284SOL     OW24813   6.376   4.632   6.297 -0.0722 -0.1506 -0.1951
 6284SOL    HW124814   6.366   4.675   6.212 -1.6191  0.1238  0.0959
 6284SOL    HW224815   6.312   4.675   6.353  0.4004 -0.8526  0.9045
 6285SOL     OW24816   2.385   4.175   8.306 -0.3776  0.1806 -0.0944
 6285SOL    HW124817   2.419   4.155   8.219 -1.6111  0.7890 -0.7478
 6285SOL    HW224818   2.369   4.089   8.346 -0.3367 -0.1135 -0.6944
 6286SOL     OW24819   1.727   2.239   0.545  0.1830 -0.0099  0.1877
 6286SOL    HW124820   1.749   2.287   0.466 -0.9195 -0.5334 -0.4577
 6286SOL    HW224821   1.632   2.241   0.549  0.2052 -0.3885  1.2532
 6287SOL     OW24822   8.283   4.363   3.481 -0.1596 -0.3670  0.4133
 6287SOL    HW124823   8.282   4.423   3.406  1.4521 -0.9458 -0.1263
 6287SOL    HW224824   8.332   4.410   3.548  1.4208 -1.1684 -0.1353
 6288SOL     OW24825   1.099   6.353   2.936 -0.3439 -0.2809  0.6195
 6288SOL    HW124826   1.153   6.432   2.932  0.4557 -0.8014  0.9476
 6288SOL    HW224827   1.149   6.287   2.888 -2.2627  0.1027 -2.1689
 6289SOL     OW24828   5.942   1.588   5.629  0.0238  0.7720 -0.2594
 6289SOL    HW124829   5.914   1.679   5.643 -1.6042  0.1177  1.0848
 6289SOL    HW224830   6.033   1.586   5.658 -0.5049  1.5806  1.6402
 6290SOL     OW24831   5.484   0.277   1.500 -0.1976 -0.0413 -0.3597
 6290SOL    HW124832   5.452   0.256   1.413  0.7211  4.1232 -1.9122
 6290SOL    HW224833   5.446   0.363   1.520  1.7624  0.3550  2.1554
 6291SOL     OW24834   8.253   5.116   8.685  0.4141  0.0253  0.0743
 6291SOL    HW124835   8.283   5.113   8.776  2.5210 -0.4590 -0.5787
 6291SOL    HW224836   8.213   5.030   8.671  0.8164 -0.2064  0.3196
 6292SOL     OW24837   5.737   9.269   3.553 -0.2731 -0.5234  0.0999
 6292SOL    HW124838   5.714   9.298   3.465 -0.0074  1.4691  0.6405
 6292SOL    HW224839   5.665   9.298   3.608 -0.1482 -1.2204  0.6506
 6293SOL     OW24840   2.760   2.627   1.986  0.2507  0.1437  0.1030
 6293SOL    HW124841   2.692   2.628   2.053  0.8917  1.1818  0.7552
 6293SOL    HW224842   2.712   2.615   1.904 -0.7462  0.9499  0.5447
 6294SOL     OW24843   1.994   5.837   2.994  0.1292 -0.4214  0.5558
 6294SOL    HW124844   2.039   5.805   2.916  0.3340 -0.7111  0.7889
 6294SOL    HW224845   2.064   5.850   3.058  0.0361  0.3922  0.5032
 6295SOL     OW24846   1.152   2.875   5.811 -0.6518  0.1081  0.1983
 6295SOL    HW124847   1.090   2.806   5.833 -0.9715  0.8304  1.7559
 6295SOL    HW224848   1.133   2.945   5.874  0.2992  1.2222 -0.7050
 6296SOL     OW24849   8.976   6.990   7.432 -0.1846  0.3806 -0.1118
 6296SOL    HW124850   8.992   7.074   7.475  0.3794 -0.1707  0.8009
 6296SOL    HW224851   8.920   6.942   7.493 -0.6570  0.1581 -0.7093
 6297SOL     OW24852   1.656   6.236   4.873 -0.3035  0.2802 -0.4218
 6297SOL    HW124853   1.679   6.157   4.923 -0.6211  0.9032  0.7482
 6297SOL    HW224854   1.723   6.240   4.804  1.8577  0.8565  1.5798
 6298SOL     OW24855   4.367   5.045   1.333  0.2549  0.0379 -0.5194
 6298SOL    HW124856   4.379   5.118   1.272  3.7201  1.3205  1.4385
 6298SOL    HW224857   4.419   4.974   1.296  0.8387  0.2030 -0.0286
 6299SOL     OW24858   0.401   1.686   7.256  0.3671 -1.0131  0.4217
 6299SOL    HW124859   0.394   1.724   7.168 -1.3076 -0.3913  0.7943
 6299SOL    HW224860   0.399   1.761   7.315  1.0189 -1.4582  1.0281
 6300SOL     OW24861   5.537   3.895   2.872  0.3318  0.0044 -0.2747
 6300SOL    HW124862   5.624   3.857   2.878  0.5764  0.5084 -0.5374
 6300SOL    HW224863   5.478   3.821   2.861  0.6355 -0.4083  0.7796
 6301SOL     OW24864   5.051   5.097   6.771 -0.0536  0.3954 -0.3826
 6301SOL    HW124865   5.082   5.130   6.686  0.8381  0.3651 -0.0792
 6301SOL    HW224866   5.123   5.114   6.831 -0.3089 -0.4308  0.1765
 6302SOL     OW24867   7.063   7.904   8.875 -0.0930  0.2491  0.3313
 6302SOL    HW124868   6.970   7.884   8.862 -0.4152  1.3147  0.8952
 6302SOL    HW224869   7.096   7.830   8.926 -0.2689 -0.8589 -1.0824
 6303SOL     OW24870   6.372   0.209   3.860  0.5635 -0.3904  0.9079
 6303SOL    HW124871   6.435   0.280   3.875 -0.9154  0.7979  1.7617
 6303SOL    HW224872   6.295   0.234   3.912 -0.4090 -2.0772  0.3445
 6304SOL     OW24873   3.462   0.898   1.561  0.3340 -0.2782 -0.4413
 6304SOL    HW124874   3.371   0.869   1.564 -0.0398  0.9110  2.0848
 6304SOL    HW224875   3.461   0.979   1.510 -0.1422  0.0590  0.0960
 6305SOL     OW24876   4.407   7.826   8.346 -0.3618 -0.2027  0.5050
 6305SOL    HW124877   4.439   7.906   8.304  1.6113 -0.7947  0.7794
 6305SOL    HW224878   4.454   7.822   8.429  0.8647 -2.4518 -0.2092
 6306SOL     OW24879   5.210   8.722   0.179 -0.4153  0.1683  0.0377
 6306SOL    HW124880   5.131   8.773   0.162 -0.5510  0.3170  1.0609
 6306SOL    HW224881   5.226   8.732   0.273  1.2130  0.7051 -0.2529
 6307SOL     OW24882   7.676   9.095   2.638 -0.5654  0.0394 -0.3024
 6307SOL    HW124883   7.764   9.098   2.600 -1.5901 -0.1517 -2.8822
 6307SOL    HW224884   7.681   9.154   2.713  1.5306  0.7150 -0.8975
 6308SOL     OW24885   2.147   4.255   9.128  0.4021 -0.0194 -0.4014
 6308SOL    HW124886   2.181   4.260   9.038 -0.8644  2.3380 -0.8124
 6308SOL    HW224887   2.191   4.326   9.174 -0.7003  0.2924  0.2036
 6309SOL     OW24888   6.686   4.162   3.589 -0.1545  0.1116 -0.4916
 6309SOL    HW124889   6.635   4.120   3.658  0.0878 -2.0083 -1.5011
 6309SOL    HW224890   6.632   4.153   3.510  0.3104  0.9105 -0.9126
 6310SOL     OW24891   5.233   2.491   2.140 -0.1777  0.8095  0.6640
 6310SOL    HW124892   5.281   2.526   2.215  1.3923  0.8530 -0.3292
 6310SOL    HW224893   5.146   2.472   2.174  0.4888  0.8660  2.4812
 6311SOL     OW24894   4.788   7.224   2.616 -0.4311 -0.0436 -0.0447
 6311SOL    HW124895   4.747   7.224   2.529 -0.4541 -0.1507 -0.0340
 6311SOL    HW224896   4.744   7.295   2.663  0.9128  1.2843 -0.7360
 6312SOL     OW24897   7.061   3.050   7.664  0.5450 -0.2265  0.5960
 6312SOL    HW124898   7.048   3.075   7.572  0.4584 -1.0480  0.3832
 6312SOL    HW224899   7.001   3.107   7.712  0.7981  0.4094  0.1726
 6313SOL     OW24900   4.279   9.298   7.164 -0.1295  0.0442 -0.1312
 6313SOL    HW124901   4.219   9.228   7.190 -0.1200 -0.3939 -1.2725
 6313SOL    HW224902   4.339   9.307   7.239 -1.5962  0.4993  1.0421
 6314SOL     OW24903   6.015   4.711   4.700  0.0332 -0.5423 -0.2316
 6314SOL    HW124904   6.006   4.679   4.610  1.5232 -1.1819 -0.1743
 6314SOL    HW224905   6.050   4.800   4.690 -1.2749  0.0062 -0.2903
 6315SOL     OW24906   1.459   8.738   8.186 -0.3752  0.3719 -0.0879
 6315SOL    HW124907   1.433   8.757   8.096 -0.6432  0.7861  0.0727
 6315SOL    HW224908   1.410   8.659   8.208  0.0835 -0.0247 -0.4727
 6316SOL     OW24909   6.905   5.952   0.967 -0.3763  0.6156 -0.3087
 6316SOL    HW124910   6.903   5.859   0.946  0.7503  0.5279 -0.0460
 6316SOL    HW224911   6.898   5.996   0.882  0.6273  0.2744 -0.5802
 6317SOL     OW24912   9.338   0.178   8.216 -0.3877 -0.0787  0.5053
 6317SOL    HW124913   9.386   0.199   8.136 -0.4061  2.0002  0.9750
 6317SOL    HW224914   9.393   0.114   8.261  0.4553  0.0060 -0.3691
 6318SOL     OW24915   0.870   2.620   6.363  0.1880  0.3976 -0.0870
 6318SOL    HW124916   0.877   2.713   6.388  0.5715  0.2678  0.2993
 6318SOL    HW224917   0.908   2.573   6.437 -0.9186 -0.1282  0.1710
 6319SOL     OW24918   3.416   4.900   5.942  0.2919 -0.3552 -0.3237
 6319SOL    HW124919   3.422   4.859   5.856  3.4833  0.7218 -0.7847
 6319SOL    HW224920   3.409   4.994   5.923 -0.8618 -0.2250  0.6364
 6320SOL     OW24921   6.431   4.664   1.824 -0.6192  0.7212  0.3088
 6320SOL    HW124922   6.503   4.633   1.769 -0.2593  2.2868 -0.1642
 6320SOL    HW224923   6.401   4.745   1.781 -1.9279  0.6842  1.1083
 6321SOL     OW24924   0.069   2.638   0.917 -0.4960 -0.6060 -0.0355
 6321SOL    HW124925   0.008   2.709   0.900 -0.1065  0.2975  2.1345
 6321SOL    HW224926   0.019   2.574   0.968  0.0629 -0.3164  0.9005
 6322SOL     OW24927   2.294   8.941   6.224 -0.2855 -0.0188 -0.4861
 6322SOL    HW124928   2.307   8.849   6.248 -1.1262  0.2231  1.1028
 6322SOL    HW224929   2.382   8.979   6.227 -0.2503 -0.1357  1.9310
 6323SOL     OW24930   0.975   4.640   8.207  0.3059  0.3265  0.1878
 6323SOL    HW124931   0.933   4.726   8.211  0.1880  0.3420 -0.9424
 6323SOL    HW224932   0.986   4.614   8.298 -0.8721  0.9458  0.5209
 6324SOL     OW24933   4.832   7.742   6.923  0.1241 -0.0167  0.1080
 6324SOL    HW124934   4.769   7.680   6.887 -0.2107  0.6971 -0.5638
 6324SOL    HW224935   4.818   7.823   6.873 -0.0080  0.8655  1.4990
 6325SOL     OW24936   2.436   0.884   0.332  0.4663 -0.0109 -0.0067
 6325SOL    HW124937   2.504   0.820   0.310 -0.1001 -0.1096 -1.5702
 6325SOL    HW224938   2.455   0.959   0.276 -0.5904  0.0266 -0.3434
 6326SOL     OW24939   5.238   8.959   4.845  0.1473  0.2030 -0.7208
 6326SOL    HW124940   5.148   8.925   4.847 -0.0191  0.4587 -2.1528
 6326SOL    HW224941   5.228   9.054   4.856  0.1497  0.3153 -1.5559
 6327SOL     OW24942   5.152   4.124   7.757 -0.6112  0.1026  0.1945
 6327SOL    HW124943   5.083   4.156   7.699  0.5809  0.1276 -1.2758
 6327SOL    HW224944   5.222   4.188   7.749 -0.5790  0.3863  2.1028
 6328SOL     OW24945   8.973   0.923   0.383  0.0012  0.1709 -0.2061
 6328SOL    HW124946   9.045   0.980   0.411  0.9764 -1.6394  1.2153
 6328SOL    HW224947   8.902   0.942   0.444  0.8915 -1.2096  1.3421
 6329SOL     OW24948   6.958   4.756   8.374  0.0518 -0.0231 -0.0854
 6329SOL    HW124949   6.910   4.839   8.383 -1.3844 -0.9475  1.3195
 6329SOL    HW224950   7.025   4.760   8.442 -1.3766 -0.8211  1.4736
 6330SOL     OW24951   4.099   0.819   1.564  0.6573 -1.0022 -0.1727
 6330SOL    HW124952   4.121   0.911   1.580 -1.2055 -0.4307 -0.5675
 6330SOL    HW224953   4.171   0.770   1.601  0.4920  0.5223  2.4189
 6331SOL     OW24954   3.274   8.238   3.987 -0.3680 -0.6088  0.0208
 6331SOL    HW124955   3.280   8.331   3.964  2.7031 -0.5334  0.7970
 6331SOL    HW224956   3.252   8.194   3.904 -0.8154  0.6780 -0.5685
 6332SOL     OW24957   0.298   3.501   6.864 -0.2910  0.1538 -0.6178
 6332SOL    HW124958   0.344   3.471   6.786 -1.5965  2.1884 -2.3028
 6332SOL    HW224959   0.216   3.452   6.864 -0.4211  0.3708 -0.6949
 6333SOL     OW24960   8.585   7.882   6.790 -0.5110 -0.2733  0.1631
 6333SOL    HW124961   8.490   7.882   6.782 -0.5057 -0.2986  0.1019
 6333SOL    HW224962   8.613   7.802   6.745 -0.3926  0.1906 -0.6150
 6334SOL     OW24963   7.469   7.575   7.975 -0.3628 -0.0249  0.0951
 6334SOL    HW124964   7.493   7.558   7.884 -0.1237 -0.7298  0.2874
 6334SOL    HW224965   7.373   7.570   7.976 -0.4741  1.4200 -0.3906
 6335SOL     OW24966   8.025   3.469   2.529  0.1167 -0.0849  0.1783
 6335SOL    HW124967   7.949   3.466   2.587 -1.1034  0.2219 -1.3350
 6335SOL    HW224968   7.998   3.421   2.451  1.2459  0.5600 -0.6502
 6336SOL     OW24969   0.194   1.687   0.809 -0.2251  0.0032 -0.2975
 6336SOL    HW124970   0.150   1.621   0.862 -2.1702  1.0780 -0.4564
 6336SOL    HW224971   0.243   1.740   0.873  0.8057 -1.1339 -0.1003
 6337SOL     OW24972   1.939   3.288   5.899 -0.0048 -0.5110  0.1594
 6337SOL    HW124973   1.924   3.373   5.941 -2.1531 -1.1059  0.6916
 6337SOL    HW224974   2.006   3.306   5.832 -0.5491  1.6401  0.1217
 6338SOL     OW24975   2.769   3.838   5.633 -0.0604 -0.1558 -0.3770
 6338SOL    HW124976   2.749   3.818   5.542  0.0959  1.4028 -0.7702
 6338SOL    HW224977   2.773   3.933   5.637 -1.3874 -0.1319  1.5503
 6339SOL     OW24978   3.181   1.520   7.671 -0.3035  0.5540  0.3052
 6339SOL    HW124979   3.225   1.597   7.708  1.7690 -0.5610  0.2685
 6339SOL    HW224980   3.208   1.447   7.727 -0.3403 -0.5196 -1.0226
 6340SOL     OW24981   0.740   2.148   0.225  0.1354 -0.0858 -0.2558
 6340SOL    HW124982   0.690   2.086   0.279  1.7280 -0.6512  0.6292
 6340SOL    HW224983   0.826   2.151   0.266  1.3641 -0.3457 -2.6311
 6341SOL     OW24984   8.367   2.091   6.274 -0.5841  0.5633  0.8150
 6341SOL    HW124985   8.309   2.138   6.335 -1.3711  1.6408 -0.6910
 6341SOL    HW224986   8.403   2.160   6.218  0.5058 -0.3456  0.3726
 6342SOL     OW24987   5.210   7.201   2.935 -0.3782  0.3898  0.7378
 6342SOL    HW124988   5.240   7.111   2.919 -1.9940  0.1725 -1.5177
 6342SOL    HW224989   5.119   7.202   2.905 -0.3953  2.8096  0.6862
 6343SOL     OW24990   8.176   0.015   4.499  0.1562  0.2684  0.2672
 6343SOL    HW124991   8.235   0.090   4.492  1.3014 -0.3456  2.3611
 6343SOL    HW224992   8.102   0.046   4.551  0.0541  0.2572  0.1289
 6344SOL     OW24993   2.871   6.549   7.116 -0.1950  0.3499 -0.3745
 6344SOL    HW124994   2.891   6.630   7.070 -0.8165  0.2016 -0.9222
 6344SOL    HW224995   2.777   6.539   7.107 -0.2416 -0.0027  0.4170
 6345SOL     OW24996   8.602   9.080   2.946  0.2853 -1.1978  0.3300
 6345SOL    HW124997   8.508   9.070   2.960  0.5507 -1.1352  2.4432
 6345SOL    HW224998   8.617   9.175   2.947  0.1791 -1.1142 -1.7593
 6346SOL     OW24999   4.951   2.309   2.034 -0.0170  0.5692  0.1674
 6346SOL    HW125000   4.880   2.294   2.096 -1.1920  0.7673 -1.0851
 6346SOL    HW225001   4.926   2.257   1.957  0.4974  1.7089 -0.7939
 6347SOL     OW25002   5.863   7.049   4.044  0.3531  0.4345 -0.1750
 6347SOL    HW125003   5.887   7.100   4.121 -0.1820 -0.7780  0.8375
 6347SOL    HW225004   5.769   7.033   4.055 -0.1923  1.9709 -2.1445
 6348SOL     OW25005   9.030   8.933   6.630  0.2753 -0.4290 -0.0999
 6348SOL    HW125006   9.115   8.930   6.585  1.1241 -0.9653  1.4553
 6348SOL    HW225007   8.971   8.885   6.572  1.1449 -0.4900 -0.9712
 6349SOL     OW25008   2.491   2.980   6.656 -0.0624  0.0031 -0.3041
 6349SOL    HW125009   2.581   2.952   6.673  1.2981  4.9215  2.6563
 6349SOL    HW225010   2.497   3.036   6.579 -0.8079 -0.3317 -0.6207
 6350SOL     OW25011   2.758   2.529   4.124 -0.3501 -0.2251 -0.1063
 6350SOL    HW125012   2.706   2.577   4.188  0.5310 -0.6148  0.9321
 6350SOL    HW225013   2.825   2.485   4.176  0.9731  0.2063 -1.3898
 6351SOL     OW25014   0.435   6.157   8.570 -0.0345 -0.6639 -0.4495
 6351SOL    HW125015   0.472   6.165   8.658 -0.1128 -0.8059 -0.4030
 6351SOL    HW225016   0.360   6.217   8.571  0.9635  0.6527 -0.9663
 6352SOL     OW25017   5.009   2.333   8.220 -0.0460 -0.5447 -0.7089
 6352SOL    HW125018   5.019   2.241   8.193 -0.7908 -1.2134  1.1418
 6352SOL    HW225019   4.916   2.351   8.211 -0.0817 -0.3391  0.0416
 6353SOL     OW25020   5.817   3.815   8.524  0.4241  0.1645  0.1629
 6353SOL    HW125021   5.726   3.830   8.501  0.8726  1.0126 -1.1448
 6353SOL    HW225022   5.859   3.788   8.443  1.5669  0.9010  0.4870
 6354SOL     OW25023   1.198   7.994   8.324 -0.1848 -0.0603 -0.3681
 6354SOL    HW125024   1.215   7.919   8.268  1.6266  0.4150 -0.5363
 6354SOL    HW225025   1.263   7.987   8.394 -1.2914  0.2853  0.7291
 6355SOL     OW25026   3.229   8.147   8.839  0.1200 -0.6091 -0.0949
 6355SOL    HW125027   3.218   8.242   8.839  1.1382 -0.4752  1.0000
 6355SOL    HW225028   3.256   8.126   8.928  1.2229 -1.7663 -0.6797
 6356SOL     OW25029   2.041   8.611   4.890  0.1080 -0.1043  0.1793
 6356SOL    HW125030   2.002   8.602   4.977 -0.0609  1.2877  0.2774
 6356SOL    HW225031   2.034   8.524   4.851 -1.0941 -0.4152  1.0287
 6357SOL     OW25032   8.407   0.005   2.497  0.1444  0.0889 -0.0486
 6357SOL    HW125033   8.321  -0.030   2.519 -0.1922  1.2927  0.6017
 6357SOL    HW225034   8.466  -0.036   2.560 -0.4167  1.4831  1.4564
 6358SOL     OW25035   5.147   3.288   4.841  0.0500  0.1036 -0.2202
 6358SOL    HW125036   5.080   3.271   4.908  0.5070 -0.0652  0.1986
 6358SOL    HW225037   5.143   3.211   4.784 -0.6283  0.4373 -0.6411
 6359SOL     OW25038   6.003   2.292   0.609 -0.1461  0.8404 -0.9614
 6359SOL    HW125039   5.918   2.324   0.637  1.1503  1.1886  3.3145
 6359SOL    HW225040   5.999   2.197   0.624  0.3055  0.9212 -0.2493
 6360SOL     OW25041   0.265   8.632   8.530  0.1304  0.0940 -0.4600
 6360SOL    HW125042   0.345   8.683   8.544  0.5817 -0.5702 -0.5665
 6360SOL    HW225043   0.292   8.561   8.472 -0.3823 -0.5356  0.0597
 6361SOL     OW25044   3.748   4.914   6.835 -0.2601 -0.0154 -0.1602
 6361SOL    HW125045   3.661   4.884   6.861 -0.5532  0.6706 -0.3214
 6361SOL    HW225046   3.734   4.959   6.752  0.2887 -0.0991 -0.3034
 6362SOL     OW25047   3.616   4.495   3.917  0.7634 -0.5120  0.5388
 6362SOL    HW125048   3.582   4.411   3.950  0.5710 -0.0554  1.5439
 6362SOL    HW225049   3.538   4.541   3.885  0.6445 -0.1379  1.3292
 6363SOL     OW25050   3.573   8.757   1.648  0.3537 -0.0270 -0.4425
 6363SOL    HW125051   3.606   8.669   1.664 -0.4909 -0.4094 -0.7268
 6363SOL    HW225052   3.514   8.774   1.722 -1.1474 -0.5709 -1.4655
 6364SOL     OW25053   5.542   6.459   1.509 -0.5760  0.0707 -0.6470
 6364SOL    HW125054   5.464   6.404   1.503 -1.2890  0.8357  0.8175
 6364SOL    HW225055   5.542   6.490   1.600  1.9010 -0.5553 -0.3620
 6365SOL     OW25056   5.424   2.678   3.015  0.1684  0.2624 -0.3907
 6365SOL    HW125057   5.478   2.601   3.000  0.6496  0.8456 -1.7936
 6365SOL    HW225058   5.442   2.702   3.106  0.4481 -0.9243 -0.1121
 6366SOL     OW25059   5.593   0.713   1.964 -0.0488  0.0281 -0.9677
 6366SOL    HW125060   5.541   0.759   1.898  0.9153  1.9371 -0.4780
 6366SOL    HW225061   5.684   0.737   1.945  0.4434 -1.1215 -0.2230
 6367SOL     OW25062   7.753   6.857   3.434 -0.1398  0.3913  0.1388
 6367SOL    HW125063   7.741   6.777   3.485 -0.6210 -0.0718 -0.6867
 6367SOL    HW225064   7.838   6.846   3.392 -0.7261 -0.2361 -0.9194
 6368SOL     OW25065   8.759   7.039   2.436 -0.0179 -0.5654  0.0953
 6368SOL    HW125066   8.826   7.063   2.500  0.4862 -3.1540  0.6438
 6368SOL    HW225067   8.805   6.984   2.372 -1.0719 -0.1445 -1.0800
 6369SOL     OW25068   6.809   8.252   6.244 -0.4412  0.0121  0.0876
 6369SOL    HW125069   6.888   8.203   6.267  1.0371  1.9110 -0.7015
 6369SOL    HW225070   6.834   8.344   6.252 -2.5633  0.6790 -0.2664
 6370SOL     OW25071   6.612   4.528   4.960  0.1606  0.4038 -0.4990
 6370SOL    HW125072   6.651   4.466   4.899 -0.4978 -1.4323  0.8219
 6370SOL    HW225073   6.528   4.551   4.921  0.1768  0.0230 -0.7624
 6371SOL     OW25074   4.756   0.709   8.027  0.1815 -0.1739 -0.1905
 6371SOL    HW125075   4.695   0.653   8.074 -0.3604 -0.3048 -1.0350
 6371SOL    HW225076   4.839   0.661   8.029 -0.2693 -1.0102 -0.8841
 6372SOL     OW25077   4.976   1.295   5.493 -0.1764  0.0018 -0.1791
 6372SOL    HW125078   5.034   1.223   5.518 -0.7357  0.0755  1.4134
 6372SOL    HW225079   5.035   1.369   5.477  0.2231 -0.0860  0.8383
 6373SOL     OW25080   6.553   8.537   7.737 -0.2355  0.1060 -0.1335
 6373SOL    HW125081   6.516   8.459   7.697  1.2339  0.6212 -2.7069
 6373SOL    HW225082   6.631   8.507   7.783 -1.3494 -0.3324  1.5483
 6374SOL     OW25083   4.812   4.122   0.190  0.3827  0.3668  0.4953
 6374SOL    HW125084   4.832   4.082   0.106 -1.0332  3.1135 -1.3024
 6374SOL    HW225085   4.828   4.053   0.254  0.2053 -2.3005 -2.1137
 6375SOL     OW25086   5.862   6.358   4.133 -0.0440 -0.8972 -0.3992
 6375SOL    HW125087   5.958   6.355   4.140  0.0413  0.0298 -1.0655
 6375SOL    HW225088   5.845   6.418   4.061 -1.1677  0.0323  0.6152
 6376SOL     OW25089   7.442   4.301   5.814  0.5584 -0.2347 -0.2435
 6376SOL    HW125090   7.438   4.225   5.871 -0.9574 -0.4165 -0.5389
 6376SOL    HW225091   7.389   4.368   5.858  0.8418  0.2234 -0.5810
 6377SOL     OW25092   2.040   3.468   8.770 -0.0253  0.4679  0.2016
 6377SOL    HW125093   1.989   3.387   8.777  0.3892  0.2992  1.8336
 6377SOL    HW225094   2.131   3.438   8.771  0.1204  0.9019 -0.1804
 6378SOL     OW25095   8.504   7.843   5.030  0.6058  0.9385  0.6658
 6378SOL    HW125096   8.430   7.798   5.071  1.7745  0.8810  2.8928
 6378SOL    HW225097   8.521   7.794   4.950 -0.3670 -0.4169  1.2470
 6379SOL     OW25098   8.758   0.208   9.172 -0.0681 -0.0754 -0.2469
 6379SOL    HW125099   8.761   0.304   9.181 -0.1101 -0.0341 -0.6740
 6379SOL    HW225100   8.669   0.190   9.142 -1.1368 -0.5081  2.8668
 6380SOL     OW25101   0.859   7.771   1.485 -0.3073 -0.1133 -0.1974
 6380SOL    HW125102   0.802   7.702   1.519 -0.2546 -0.0832 -0.0469
 6380SOL    HW225103   0.902   7.807   1.562 -0.1104 -0.1104 -0.3076
 6381SOL     OW25104   1.368   6.502   8.833 -0.5331  0.4373  0.2059
 6381SOL    HW125105   1.398   6.590   8.807 -2.4616  0.7728 -1.1001
 6381SOL    HW225106   1.301   6.518   8.900 -1.5485  0.0596 -0.6874
 6382SOL     OW25107   2.074   2.242   8.004 -0.0698 -0.5548  0.1649
 6382SOL    HW125108   1.987   2.216   7.974  0.3466 -3.4925  1.2238
 6382SOL    HW225109   2.057   2.306   8.073 -1.2942  0.1767 -0.7723
 6383SOL     OW25110   2.048   7.194   1.796 -0.1587  0.6463  0.3528
 6383SOL    HW125111   2.118   7.185   1.731 -0.0900  0.7037  0.4181
 6383SOL    HW225112   2.084   7.153   1.875 -1.2394 -1.8474 -0.3692
 6384SOL     OW25113   5.713   9.294   7.780 -0.1498  0.0973  0.0528
 6384SOL    HW125114   5.651   9.308   7.708  0.2203 -1.3297 -0.5701
 6384SOL    HW225115   5.798   9.311   7.741 -0.0776  1.8544  0.8583
 6385SOL     OW25116   8.602   6.140   8.061 -0.4978  0.2378  0.2397
 6385SOL    HW125117   8.623   6.100   7.976 -3.0941 -0.2205 -0.2844
 6385SOL    HW225118   8.507   6.155   8.057 -0.3802  1.9622  2.3568
 6386SOL     OW25119   4.722   8.420   9.333 -0.1603  0.4379 -0.4040
 6386SOL    HW125120   4.676   8.445   9.414 -0.2204 -2.1643  0.4645
 6386SOL    HW225121   4.658   8.435   9.264 -0.6855  1.2010  0.2306
 6387SOL     OW25122   8.863   1.777   7.329  0.1544 -0.0439  0.1352
 6387SOL    HW125123   8.851   1.698   7.276 -1.8024 -0.2248  0.7769
 6387SOL    HW225124   8.776   1.815   7.335  0.4503  0.3771  2.6123
 6388SOL     OW25125   7.689   0.009   3.079 -0.3825  0.3217  0.2948
 6388SOL    HW125126   7.672   0.089   3.030  1.0791  0.2778 -0.3251
 6388SOL    HW225127   7.655  -0.061   3.023 -0.2729  0.3981  0.1317
 6389SOL     OW25128   4.809   0.820   6.730  0.4218  0.2925 -0.0534
 6389SOL    HW125129   4.728   0.842   6.777 -0.4161 -0.3931 -1.1111
 6389SOL    HW225130   4.875   0.811   6.798 -0.3517  1.0517  0.8241
 6390SOL     OW25131   5.988   2.648   7.369  0.2680 -0.4843 -0.3333
 6390SOL    HW125132   6.012   2.658   7.277 -0.4803 -1.6451 -0.6745
 6390SOL    HW225133   6.039   2.572   7.399  3.1255  1.8339  1.1985
 6391SOL     OW25134   8.215   2.278   4.822  0.0983 -0.5251 -0.2300
 6391SOL    HW125135   8.296   2.326   4.842 -0.4159  0.1216  0.3162
 6391SOL    HW225136   8.172   2.267   4.906  1.0439 -3.5701 -0.0050
 6392SOL     OW25137   4.419   3.052   8.470  0.4544  0.2648 -0.4494
 6392SOL    HW125138   4.392   2.973   8.422  0.3226 -0.8069  1.3031
 6392SOL    HW225139   4.414   3.122   8.405 -1.4911 -0.7950 -1.5431
 6393SOL     OW25140   5.327   0.152   1.111  0.2878 -0.5223 -0.0673
 6393SOL    HW125141   5.316   0.234   1.159  0.1656  0.4185 -1.6339
 6393SOL    HW225142   5.345   0.086   1.178 -0.9476  0.5336  1.3382
 6394SOL     OW25143   3.212   7.995   1.255 -0.5510  0.5048  0.4497
 6394SOL    HW125144   3.196   8.013   1.162  1.4809  0.2044 -0.0050
 6394SOL    HW225145   3.143   7.933   1.279 -1.8410  1.4904 -0.4980
 6395SOL     OW25146   7.656   4.706   7.945 -0.7974 -0.5163 -0.4792
 6395SOL    HW125147   7.576   4.676   7.988 -1.4604  0.4360 -1.0294
 6395SOL    HW225148   7.701   4.625   7.920 -1.3604 -1.0632  0.2215
 6396SOL     OW25149   8.503   8.883   6.325  0.1571 -0.4242  0.7299
 6396SOL    HW125150   8.572   8.935   6.367 -0.5293  0.2589  1.0481
 6396SOL    HW225151   8.462   8.835   6.397 -2.7337  2.6893  1.4702
 6397SOL     OW25152   7.764   1.165   7.422  0.0999 -0.3893 -0.6658
 6397SOL    HW125153   7.762   1.077   7.384  0.6085  0.0831 -1.8670
 6397SOL    HW225154   7.690   1.210   7.382  0.1831 -0.1051 -0.5074
 6398SOL     OW25155   3.295   8.436   8.475  0.2315  0.5550 -0.2142
 6398SOL    HW125156   3.288   8.391   8.559 -0.4818 -1.2673 -1.1792
 6398SOL    HW225157   3.323   8.368   8.414 -2.1574  1.0565 -2.0147
 6399SOL     OW25158   7.150   5.358   2.439 -0.2173  0.4272  0.2353
 6399SOL    HW125159   7.056   5.377   2.435  0.0806  1.9803  0.0844
 6399SOL    HW225160   7.192   5.444   2.439  1.2452 -0.2549 -0.4079
 6400SOL     OW25161   3.578   5.751   8.458  0.5935 -0.2845 -0.3367
 6400SOL    HW125162   3.669   5.730   8.482  0.6700  0.0773 -0.3010
 6400SOL    HW225163   3.527   5.677   8.490  0.3795  1.1500  3.0418
 6401SOL     OW25164   7.098   6.199   5.999 -0.3023 -0.1247  0.2685
 6401SOL    HW125165   7.065   6.289   6.008  1.2332  0.3532  1.3950
 6401SOL    HW225166   7.024   6.145   6.027 -0.3977  0.8900  2.1100
 6402SOL     OW25167   5.619   2.391   5.718 -0.3455  0.3401 -0.7194
 6402SOL    HW125168   5.702   2.439   5.724 -0.1421  0.0572 -1.2158
 6402SOL    HW225169   5.638   2.317   5.660 -0.1360 -1.4871  1.5465
 6403SOL     OW25170   7.173   3.546   5.328  0.6621 -0.1543 -0.2649
 6403SOL    HW125171   7.098   3.605   5.320  0.8564 -0.1043 -2.6711
 6403SOL    HW225172   7.146   3.481   5.393 -0.9478  0.5998 -0.1236
 6404SOL     OW25173   6.761   5.444   1.474 -0.6581 -0.6849  0.1051
 6404SOL    HW125174   6.720   5.524   1.441  0.1818 -0.2755  0.0154
 6404SOL    HW225175   6.707   5.373   1.441 -0.7546 -0.2025 -0.7962
 6405SOL     OW25176   1.823   5.533   6.566 -0.2191  0.2241  0.0466
 6405SOL    HW125177   1.826   5.619   6.607 -0.1263  0.2829 -0.0835
 6405SOL    HW225178   1.912   5.520   6.532 -0.7894  0.9744 -1.8131
 6406SOL     OW25179   9.069   3.438   0.526 -0.4250 -0.5212 -0.0907
 6406SOL    HW125180   9.053   3.389   0.445 -1.3116  0.2817 -0.4156
 6406SOL    HW225181   9.134   3.385   0.573  0.1702 -0.9595 -1.3586
 6407SOL     OW25182   5.868   2.540   0.359  0.3105  0.1705 -0.1076
 6407SOL    HW125183   5.824   2.467   0.402 -0.3951  0.1720 -0.8063
 6407SOL    HW225184   5.805   2.572   0.295  0.3246  1.8638  0.6839
 6408SOL     OW25185   0.465   6.167   2.137  0.2268 -0.0590  0.1038
 6408SOL    HW125186   0.506   6.145   2.220  1.7015  0.6159 -0.4133
 6408SOL    HW225187   0.535   6.207   2.085 -0.6076 -0.6124 -1.5236
 6409SOL     OW25188   5.455   4.492   6.999 -0.0926  0.0105 -0.2263
 6409SOL    HW125189   5.488   4.520   6.913  0.3434 -0.5218 -0.2362
 6409SOL    HW225190   5.374   4.444   6.978  0.4005 -0.7583 -0.4103
 6410SOL     OW25191   5.547   0.182   5.885 -0.1662 -0.2029  0.0380
 6410SOL    HW125192   5.592   0.229   5.814 -0.1439 -0.2987 -0.0104
 6410SOL    HW225193   5.474   0.138   5.842 -0.8751  0.7124  0.2569
 6411SOL     OW25194   2.486   6.655   2.864  0.1975  0.1654  0.1990
 6411SOL    HW125195   2.562   6.698   2.901 -0.8129  1.0241  1.3778
 6411SOL    HW225196   2.413   6.684   2.919 -0.8796 -1.1722 -0.4578
 6412SOL     OW25197   1.278   2.762   8.970 -0.1396 -0.2439 -0.7040
 6412SOL    HW125198   1.235   2.677   8.981 -1.2442  0.2300 -1.1174
 6412SOL    HW225199   1.355   2.743   8.917 -0.4065 -0.9817 -0.8464
 6413SOL     OW25200   2.850   8.426   3.536  0.1776  0.1895  0.3616
 6413SOL    HW125201   2.936   8.386   3.528  0.3579  0.3310  1.4396
 6413SOL    HW225202   2.813   8.423   3.448  1.2073 -0.0387 -0.0667
 6414SOL     OW25203   3.041   8.310   2.741 -0.2459 -0.3172  0.8308
 6414SOL    HW125204   3.052   8.334   2.833 -3.4103 -2.2358  1.8580
 6414SOL    HW225205   3.113   8.249   2.723  1.7388  1.7779  1.2477
 6415SOL     OW25206   5.326   4.029   3.636 -0.3468  0.3413  0.2727
 6415SOL    HW125207   5.306   4.035   3.729  0.9980 -0.2066  0.6153
 6415SOL    HW225208   5.254   3.978   3.599 -1.5438  1.5981  0.7630
 6416SOL     OW25209   5.562   8.184   1.520  0.3491  0.0184 -0.2803
 6416SOL    HW125210   5.611   8.263   1.540  0.3751 -0.0585 -0.0371
 6416SOL    HW225211   5.615   8.113   1.555 -0.4260  0.0049  0.9534
 6417SOL     OW25212   5.510   1.207   7.418  0.2143  0.3305 -0.0975
 6417SOL    HW125213   5.516   1.218   7.513 -0.3697 -0.8225  0.0833
 6417SOL    HW225214   5.567   1.133   7.398  1.8263  1.7271 -0.9215
 6418SOL     OW25215   0.003   8.697   4.982  0.4635  0.0408  0.1315
 6418SOL    HW125216  -0.068   8.661   4.929  1.2285  0.3593 -1.1526
 6418SOL    HW225217  -0.031   8.780   5.016 -0.4743 -0.7557  1.1910
 6419SOL     OW25218   7.549   6.091   7.077  0.0321  0.0792 -0.5578
 6419SOL    HW125219   7.536   6.079   6.983  0.5822 -1.3036 -0.4747
 6419SOL    HW225220   7.537   6.003   7.114 -1.9100  0.8729  0.8894
 6420SOL     OW25221   6.671   1.049   4.906 -0.4186 -0.2213 -0.1745
 6420SOL    HW125222   6.675   1.089   4.819 -0.0672 -0.8516 -0.4568
 6420SOL    HW225223   6.757   1.008   4.917 -0.2681  0.2926  0.6909
 6421SOL     OW25224   4.012   6.043   6.966 -0.5234  0.4756  0.0278
 6421SOL    HW125225   3.994   5.953   6.938  0.0981  0.6783 -1.0778
 6421SOL    HW225226   3.927   6.076   6.996 -0.7905 -0.4177  0.2955
 6422SOL     OW25227   1.832   4.743   1.899 -0.4744  0.4707  0.5284
 6422SOL    HW125228   1.798   4.658   1.927 -0.6562  0.2504 -0.3140
 6422SOL    HW225229   1.871   4.726   1.813  1.4676  0.8056  1.2955
 6423SOL     OW25230   4.166   0.800   8.331  0.3297  0.2444 -0.0690
 6423SOL    HW125231   4.088   0.842   8.366  0.9362  1.7921 -0.5024
 6423SOL    HW225232   4.233   0.813   8.399  0.3166 -0.8080  0.1702
 6424SOL     OW25233   1.685   5.607   0.713 -0.1261  0.4090 -0.0020
 6424SOL    HW125234   1.741   5.537   0.680  0.3316  0.7531  0.0445
 6424SOL    HW225235   1.745   5.673   0.746 -0.5483  0.1568  1.3811
 6425SOL     OW25236   6.213   1.917   1.467  0.3279  0.1155  0.0540
 6425SOL    HW125237   6.247   2.000   1.435  2.0204 -0.7183 -0.4876
 6425SOL    HW225238   6.131   1.939   1.512  1.0453  2.1389  0.4868
 6426SOL     OW25239   1.743   2.351   7.775 -0.5673  0.3427 -0.3609
 6426SOL    HW125240   1.684   2.386   7.708  0.7990  0.2140 -1.6924
 6426SOL    HW225241   1.818   2.411   7.774 -0.0988 -0.2188  0.3666
 6427SOL     OW25242   8.044   7.735   6.668  0.4711 -0.4332  0.0099
 6427SOL    HW125243   7.979   7.686   6.718 -1.3927  1.0934 -0.7735
 6427SOL    HW225244   8.093   7.785   6.734  1.2973 -2.0471  0.6616
 6428SOL     OW25245   0.296   4.991   5.038 -0.0166  0.3546  0.0643
 6428SOL    HW125246   0.380   5.034   5.021  0.5089 -0.7629 -0.3145
 6428SOL    HW225247   0.319   4.916   5.093 -0.1846 -1.9635 -2.7722
 6429SOL     OW25248   0.602   3.277   3.709  0.4015 -0.0383 -0.3047
 6429SOL    HW125249   0.543   3.338   3.753 -0.1964 -0.5488 -0.3987
 6429SOL    HW225250   0.677   3.270   3.769 -0.4675 -0.8408  0.7233
 6430SOL     OW25251   7.010   4.977   2.208 -0.2206  0.3149  0.4640
 6430SOL    HW125252   7.053   4.994   2.124 -1.0799  1.6946  0.2656
 6430SOL    HW225253   6.945   5.047   2.216 -0.6360 -0.2041  1.9604
 6431SOL     OW25254   7.739   9.173   6.385  0.2021 -0.0885  0.4408
 6431SOL    HW125255   7.666   9.221   6.346  0.4622  0.6815  0.8846
 6431SOL    HW225256   7.700   9.123   6.456 -0.0491 -0.4509  0.0559
 6432SOL     OW25257   4.876   6.911   5.681  0.2497  0.3428  0.1147
 6432SOL    HW125258   4.907   6.827   5.649  1.3249  1.2429 -1.3271
 6432SOL    HW225259   4.943   6.939   5.744  1.0364  1.0458 -0.9860
 6433SOL     OW25260   7.722   3.346   8.276  0.5179  0.6008 -0.4218
 6433SOL    HW125261   7.781   3.344   8.351 -0.3088 -2.7219  0.3003
 6433SOL    HW225262   7.640   3.310   8.308 -0.9829  2.2493 -2.1536
 6434SOL     OW25263   8.753   9.303   1.076 -0.3895  0.1399  0.3465
 6434SOL    HW125264   8.677   9.314   1.133 -0.9968  0.7988 -0.5694
 6434SOL    HW225265   8.817   9.365   1.111 -1.0378  1.1087 -0.1322
 6435SOL     OW25266   0.947   4.210   3.652  0.2665 -0.0162 -0.2231
 6435SOL    HW125267   0.863   4.173   3.623 -0.1387 -0.0015  0.8720
 6435SOL    HW225268   0.923   4.283   3.709  0.9964 -0.3319  0.5280
 6436SOL     OW25269   5.256   5.263   5.915  0.4234  0.7220  0.4656
 6436SOL    HW125270   5.167   5.256   5.882  0.4974 -0.6197  0.4900
 6436SOL    HW225271   5.248   5.318   5.993 -0.0380  2.3106 -0.6490
 6437SOL     OW25272   4.830   6.353   7.769  0.5252  0.0540 -0.0193
 6437SOL    HW125273   4.864   6.371   7.856  0.0759  1.2111 -0.0697
 6437SOL    HW225274   4.814   6.440   7.731 -2.0003 -0.4275 -0.1870
 6438SOL     OW25275   3.751   5.091   0.070 -0.3023 -0.2339 -0.1856
 6438SOL    HW125276   3.788   5.011   0.107  0.3980  0.5453  0.8725
 6438SOL    HW225277   3.780   5.092  -0.021 -2.5552 -2.5021 -1.0585
 6439SOL     OW25278   9.204   2.071   3.060  0.0517 -0.2131 -0.0098
 6439SOL    HW125279   9.112   2.046   3.070  0.2817 -0.2783  2.5876
 6439SOL    HW225280   9.253   1.989   3.069  0.4703  0.1916  1.9238
 6440SOL     OW25281   8.004   6.696   0.663 -0.1200  0.2333 -0.0915
 6440SOL    HW125282   8.080   6.662   0.711 -1.0707  0.0334  1.3590
 6440SOL    HW225283   8.041   6.756   0.599  1.4094 -1.3621 -0.7999
 6441SOL     OW25284   6.924   4.199   3.037 -0.5207 -0.1534  0.0863
 6441SOL    HW125285   6.967   4.270   2.990  0.0440 -0.2415  0.4698
 6441SOL    HW225286   6.944   4.120   2.985 -1.1985 -0.0396 -0.3735
 6442SOL     OW25287   8.225   0.194   4.082 -0.4358 -0.9192  0.4990
 6442SOL    HW125288   8.234   0.138   4.004  1.2253 -0.0014 -0.0225
 6442SOL    HW225289   8.203   0.133   4.152  1.2477 -2.2837 -0.0729
 6443SOL     OW25290   6.349   7.404   1.337  0.0156 -0.0420 -0.3893
 6443SOL    HW125291   6.348   7.322   1.289  0.6684  0.6711 -1.6554
 6443SOL    HW225292   6.406   7.387   1.413 -0.2579 -0.8879 -0.3636
 6444SOL     OW25293   4.480   5.512   2.406 -0.3387 -0.2567  0.2899
 6444SOL    HW125294   4.430   5.591   2.387  0.6516  0.1874 -0.6004
 6444SOL    HW225295   4.474   5.501   2.501 -2.5648 -0.5513  0.1687
 6445SOL     OW25296   1.618   7.037   8.903  0.4162  0.0957  0.5465
 6445SOL    HW125297   1.702   7.002   8.873 -0.3081 -1.3177  0.0811
 6445SOL    HW225298   1.586   7.089   8.829  0.7312  0.4004  0.6185
 6446SOL     OW25299   9.244   5.081   4.315 -0.1837  0.1394 -0.7296
 6446SOL    HW125300   9.238   5.177   4.320 -0.8316  0.0848 -0.3178
 6446SOL    HW225301   9.167   5.050   4.363  0.8763 -0.6279  0.5327
 6447SOL     OW25302   5.658   6.482   5.259  0.1420 -0.9330  0.0048
 6447SOL    HW125303   5.687   6.562   5.216  1.0781 -0.4996  1.3803
 6447SOL    HW225304   5.690   6.489   5.349  0.0052 -2.7254  0.2428
 6448SOL     OW25305   0.847   2.306   0.720  0.0360  0.2546  0.0113
 6448SOL    HW125306   0.934   2.272   0.697  0.9420  2.0689  0.6267
 6448SOL    HW225307   0.820   2.254   0.796  0.4279 -0.5312 -0.3794
 6449SOL     OW25308   3.493   4.026   3.259  0.2892 -0.8931 -0.1754
 6449SOL    HW125309   3.580   4.024   3.220  0.5945 -0.5681  0.4760
 6449SOL    HW225310   3.456   3.940   3.239  0.9958 -1.2652  0.0754
 6450SOL     OW25311   1.075   1.954   8.570  0.3059  0.6910 -0.2604
 6450SOL    HW125312   1.063   2.049   8.575 -3.0243  0.4555 -1.6075
 6450SOL    HW225313   1.038   1.921   8.651  3.0041  0.4984  1.0299
 6451SOL     OW25314   6.452   0.614   2.948 -0.5375  0.2123  0.5414
 6451SOL    HW125315   6.504   0.572   2.879 -0.9739 -0.9847  0.9169
 6451SOL    HW225316   6.362   0.605   2.919 -0.7638 -0.7439  1.4869
 6452SOL     OW25317   5.635   8.383   2.740  0.0823 -0.6336  0.4222
 6452SOL    HW125318   5.623   8.374   2.646  1.0392 -0.6030  0.2902
 6452SOL    HW225319   5.644   8.294   2.772 -1.5385 -0.7326  0.6848
 6453SOL     OW25320   1.005   8.144   0.957 -0.7939 -0.3460  0.4131
 6453SOL    HW125321   0.975   8.128   1.047  0.9697 -0.5802  0.9933
 6453SOL    HW225322   0.934   8.111   0.902 -2.0656  0.1207  1.7148
 6454SOL     OW25323   5.669   5.255   1.718 -0.3825 -0.3337 -1.0509
 6454SOL    HW125324   5.688   5.161   1.709  0.9772 -0.4317  1.7153
 6454SOL    HW225325   5.601   5.259   1.785  0.6111  0.6821 -0.0702
 6455SOL     OW25326   6.812   8.733   2.369  0.0495 -0.2664  0.3405
 6455SOL    HW125327   6.887   8.699   2.320 -0.3320  0.6637 -0.9451
 6455SOL    HW225328   6.804   8.824   2.341  0.3078  0.5774  2.7824
 6456SOL     OW25329   0.235   5.193   3.317  0.2976  0.7594 -0.2923
 6456SOL    HW125330   0.322   5.231   3.323  0.5078  0.6502 -2.0305
 6456SOL    HW225331   0.249   5.105   3.284 -0.3800  0.1419  1.0065
 6457SOL     OW25332   8.876   4.604   8.736  0.1023 -0.2096 -0.1736
 6457SOL    HW125333   8.785   4.604   8.706  0.3536  1.8514 -1.1434
 6457SOL    HW225334   8.914   4.525   8.698  0.2908  1.9576 -5.4296
 6458SOL     OW25335   2.991   0.499   5.588  0.0428  0.0391 -0.1511
 6458SOL    HW125336   3.070   0.446   5.600  0.0292  0.2664  1.0817
 6458SOL    HW225337   2.976   0.538   5.674 -0.3069  1.5511 -0.8746
 6459SOL     OW25338   6.713   4.707   2.584 -0.0220  0.0255 -0.2523
 6459SOL    HW125339   6.721   4.794   2.623 -1.9057  0.4337 -0.6759
 6459SOL    HW225340   6.751   4.648   2.649 -0.5176  0.9738  0.9350
 6460SOL     OW25341   6.679   8.344   0.596  0.8302 -0.0961 -0.2973
 6460SOL    HW125342   6.733   8.389   0.661  2.1179 -0.7490 -0.8661
 6460SOL    HW225343   6.718   8.257   0.589 -1.1000 -1.0396  0.1786
 6461SOL     OW25344   4.962   3.974   0.395 -0.2918 -0.4789 -0.4877
 6461SOL    HW125345   5.006   3.894   0.367 -0.5809 -2.1635  3.2565
 6461SOL    HW225346   5.027   4.021   0.447 -1.5783 -0.8892  1.5894
 6462SOL     OW25347   8.400   8.061   0.426 -0.3071 -0.2445  0.8233
 6462SOL    HW125348   8.455   8.012   0.487  0.1935  1.8981  2.1849
 6462SOL    HW225349   8.460   8.096   0.362 -0.3910  0.1923  0.9803
 6463SOL     OW25350   6.063   7.379   2.794 -0.1996 -0.1391  0.5949
 6463SOL    HW125351   6.069   7.340   2.881  3.5316 -1.1574  0.0678
 6463SOL    HW225352   6.093   7.469   2.806  0.8147 -0.4301  0.3332
 6464SOL     OW25353   0.829   3.877   2.526 -0.0637  0.1374  0.0065
 6464SOL    HW125354   0.843   3.818   2.600 -1.9147  0.7056  0.8751
 6464SOL    HW225355   0.850   3.964   2.561 -0.8211  0.3934 -0.1632
 6465SOL     OW25356   2.580   0.983   3.833  0.1309 -0.2643  0.3272
 6465SOL    HW125357   2.539   1.040   3.899  1.3523  1.0497 -0.0052
 6465SOL    HW225358   2.516   0.977   3.763 -0.0273  0.6981  0.3815
 6466SOL     OW25359   6.046   5.655   7.892 -0.1759 -0.2976 -0.0640
 6466SOL    HW125360   5.998   5.737   7.897 -0.7360 -0.5095 -1.4071
 6466SOL    HW225361   6.120   5.674   7.834 -1.8827 -1.3780 -2.8185
 6467SOL     OW25362   5.173   5.706   3.693 -0.7046  0.1074  0.4224
 6467SOL    HW125363   5.179   5.673   3.783 -1.1875  3.3000  1.7689
 6467SOL    HW225364   5.249   5.764   3.684  0.1178 -1.1963 -1.7974
 6468SOL     OW25365   1.521   8.933   2.314 -0.2041  0.1203  0.5135
 6468SOL    HW125366   1.539   8.885   2.395 -0.9479  0.4391  0.8883
 6468SOL    HW225367   1.455   8.998   2.340  0.7849  1.3612  0.0348
 6469SOL     OW25368   7.082   6.870   5.180 -0.0843 -0.0521  0.1748
 6469SOL    HW125369   7.042   6.949   5.142 -0.2311 -1.1137 -2.0656
 6469SOL    HW225370   7.008   6.817   5.207 -0.0594 -0.2628 -0.1659
 6470SOL     OW25371   0.950   7.086   7.930 -0.8873  0.7326 -0.0112
 6470SOL    HW125372   1.009   7.022   7.970 -0.5211  0.8769 -0.3124
 6470SOL    HW225373   0.949   7.063   7.837  0.2894  1.9496 -0.3588
 6471SOL     OW25374   1.917   0.684   1.040  0.1974 -0.2187 -0.0378
 6471SOL    HW125375   1.878   0.671   0.953  1.2424  0.0141 -0.5616
 6471SOL    HW225376   2.011   0.684   1.024  0.4180 -0.6592  1.1772
 6472SOL     OW25377   4.849   9.336   3.320 -0.8041 -0.7916  0.2776
 6472SOL    HW125378   4.857   9.259   3.265  1.2028 -1.8964  1.9498
 6472SOL    HW225379   4.834   9.301   3.408 -0.8931  0.7676  0.9148
 6473SOL     OW25380   6.685   6.747   1.060 -0.4300  0.0574  0.3946
 6473SOL    HW125381   6.773   6.764   1.093  0.0549 -0.6051 -0.5193
 6473SOL    HW225382   6.693   6.665   1.011 -1.3737  0.4046 -0.3702
 6474SOL     OW25383   6.745   0.583   1.544 -0.2774 -0.5478  0.1069
 6474SOL    HW125384   6.784   0.495   1.542  1.9264  0.3197  1.2844
 6474SOL    HW225385   6.765   0.616   1.631 -4.0280 -0.0514  0.9220
 6475SOL     OW25386   2.120   8.584   9.360 -0.2907  0.2935 -0.4760
 6475SOL    HW125387   2.096   8.558   9.449  1.1917  0.8480  0.1058
 6475SOL    HW225388   2.169   8.665   9.370 -0.0097  0.3174 -1.7965
 6476SOL     OW25389   0.044   5.116   1.118  0.3376  0.2033  0.0477
 6476SOL    HW125390   0.122   5.154   1.078 -0.2915  0.5041 -0.9278
 6476SOL    HW225391   0.074   5.032   1.153  1.6752  1.3734  1.9541
 6477SOL     OW25392   8.356   8.725   6.574 -0.0351  0.0344  0.3587
 6477SOL    HW125393   8.401   8.764   6.649  0.6835 -0.9818  0.4686
 6477SOL    HW225394   8.309   8.798   6.535 -0.1051  0.6643  1.5661
 6478SOL     OW25395   3.691   1.943   9.248  0.2975  0.3198 -0.4605
 6478SOL    HW125396   3.682   1.870   9.309 -3.2206  0.0512 -1.0831
 6478SOL    HW225397   3.700   2.020   9.304 -0.5602 -0.1532  0.3445
 6479SOL     OW25398   1.132   7.523   3.469  0.5854 -0.2635 -0.0369
 6479SOL    HW125399   1.118   7.433   3.441  0.8385 -0.8319  1.5630
 6479SOL    HW225400   1.062   7.572   3.426  0.3910 -1.2174 -0.8637
 6480SOL     OW25401   7.089   1.376   2.813 -0.1542  0.2102 -0.1391
 6480SOL    HW125402   7.172   1.335   2.790  0.2571  1.0405 -0.1708
 6480SOL    HW225403   7.112   1.449   2.870 -0.9308 -0.0221  0.4978
 6481SOL     OW25404   4.382   0.644   7.306 -0.2418  0.2027 -0.5258
 6481SOL    HW125405   4.397   0.584   7.233 -1.1418  0.3037 -0.8102
 6481SOL    HW225406   4.286   0.654   7.310 -0.3878 -1.3839  1.9608
 6482SOL     OW25407   7.800   3.928   9.207 -0.5240 -0.1678 -0.3132
 6482SOL    HW125408   7.825   3.878   9.285 -0.1350 -0.5496 -0.6808
 6482SOL    HW225409   7.872   3.990   9.195 -0.1912 -0.6470 -0.8327
 6483SOL     OW25410   4.814   9.299   3.861  0.0712  0.2712 -0.8074
 6483SOL    HW125411   4.742   9.294   3.923  0.9023 -0.9212  0.1129
 6483SOL    HW225412   4.780   9.261   3.780  0.0060 -1.4242 -0.0176
 6484SOL     OW25413   1.275   8.195   8.096 -0.0314  0.0756 -0.1560
 6484SOL    HW125414   1.250   8.153   8.014  2.6502  0.6006 -1.3281
 6484SOL    HW225415   1.287   8.122   8.158  0.6367 -0.5823 -1.0352
 6485SOL     OW25416   5.101   0.990   6.907  0.2291  0.2771  0.1919
 6485SOL    HW125417   5.010   1.018   6.901  0.3155  0.5361  0.0400
 6485SOL    HW225418   5.113   0.966   6.998 -1.0450 -3.4636 -0.4706
 6486SOL     OW25419   3.253   4.083   6.386 -0.2426 -0.3534  0.1329
 6486SOL    HW125420   3.334   4.114   6.346 -0.1493  0.1996  0.7196
 6486SOL    HW225421   3.245   3.992   6.358 -0.4322  0.1462 -1.5033
 6487SOL     OW25422   3.976   7.412   2.729 -0.2991  0.2203 -0.4370
 6487SOL    HW125423   4.012   7.468   2.797 -2.6791 -0.4503  1.5095
 6487SOL    HW225424   4.009   7.324   2.749 -0.6598  0.0930 -0.3885
 6488SOL     OW25425   2.472   8.304   3.339 -0.4904 -0.4012  0.4172
 6488SOL    HW125426   2.417   8.262   3.406 -0.5132  0.3658  0.8837
 6488SOL    HW225427   2.438   8.269   3.256 -0.6940 -1.0884  0.7777
 6489SOL     OW25428   0.498   6.462   6.450  0.5383  0.4486 -0.0101
 6489SOL    HW125429   0.472   6.494   6.536  0.8732  2.3774 -0.5738
 6489SOL    HW225430   0.555   6.387   6.468 -1.3772 -0.7624  1.3397
 6490SOL     OW25431   0.780   2.283   3.014  0.4012  0.4877 -0.0118
 6490SOL    HW125432   0.868   2.247   3.000  0.1564 -0.9988  1.9140
 6490SOL    HW225433   0.721   2.220   2.973  0.1556  0.8802 -0.2728
 6491SOL     OW25434   6.156   4.465   0.877 -0.4175 -0.1335  0.3813
 6491SOL    HW125435   6.178   4.487   0.786  1.4790  2.7817  1.4108
 6491SOL    HW225436   6.094   4.533   0.903  0.3330  0.0675  1.7207
 6492SOL     OW25437   1.029   5.977   1.853 -0.6146  0.3077 -0.1037
 6492SOL    HW125438   1.118   5.953   1.879 -0.2150  1.0031 -0.7760
 6492SOL    HW225439   0.986   6.001   1.935 -0.5004 -0.9776  0.3518
 6493SOL     OW25440   3.123   5.614   2.285  0.7594 -0.3147  0.5621
 6493SOL    HW125441   3.076   5.678   2.339 -0.7427 -1.1492  0.2974
 6493SOL    HW225442   3.127   5.654   2.198 -1.7329 -1.2097 -0.0611
 6494SOL     OW25443   0.450   3.698   3.158  0.0018 -0.0914  0.1503
 6494SOL    HW125444   0.531   3.648   3.159 -0.0668 -0.2189 -0.4324
 6494SOL    HW225445   0.392   3.649   3.100 -0.1732  0.4942 -0.1816
 6495SOL     OW25446   8.160   8.797   8.659  0.2316 -0.2641  0.2445
 6495SOL    HW125447   8.174   8.755   8.574 -1.2520  0.7500 -0.5457
 6495SOL    HW225448   8.126   8.884   8.638  0.4464  0.2633  1.8850
 6496SOL     OW25449   2.302   3.914   7.024 -1.0845  0.3180  0.0087
 6496SOL    HW125450   2.239   3.967   6.974 -1.0976  0.0143 -0.3008
 6496SOL    HW225451   2.328   3.844   6.964 -1.0361 -0.0080  0.4029
 6497SOL     OW25452   1.224   1.004   6.641  0.2232  0.1845 -0.6396
 6497SOL    HW125453   1.237   0.911   6.620 -1.0155 -0.0521 -0.4362
 6497SOL    HW225454   1.276   1.050   6.575 -1.3788 -0.6030 -2.5594
 6498SOL     OW25455   7.021   7.541   2.426  0.2139  0.1505 -0.8138
 6498SOL    HW125456   7.097   7.594   2.400 -0.2833  1.2967 -0.0055
 6498SOL    HW225457   6.972   7.597   2.485 -1.1597 -0.6588 -1.1437
 6499SOL     OW25458   5.959   4.589   7.634 -0.4321 -0.5250  0.2338
 6499SOL    HW125459   5.926   4.561   7.549 -0.0531 -0.5658  0.0991
 6499SOL    HW225460   6.035   4.533   7.650 -0.2514 -0.2342  0.4062
 6500SOL     OW25461   8.113   6.150   1.283 -0.2792 -0.0845  0.7640
 6500SOL    HW125462   8.084   6.158   1.193  2.0190  0.1444 -0.0260
 6500SOL    HW225463   8.034   6.129   1.333 -1.7976  0.9723 -1.0982
 6501SOL     OW25464   7.682   5.873   2.904  0.3932 -0.5965 -0.1883
 6501SOL    HW125465   7.672   5.908   2.815 -0.8564  0.5877  0.3790
 6501SOL    HW225466   7.764   5.823   2.901 -0.0009 -1.2089 -2.1907
 6502SOL     OW25467   2.713   7.896   2.659  0.3043  0.0761  0.2942
 6502SOL    HW125468   2.774   7.845   2.605 -0.6225 -0.4572 -0.2803
 6502SOL    HW225469   2.738   7.877   2.749 -1.3913 -3.2827  0.2216
 6503SOL     OW25470   2.056   5.759   7.359  0.1693 -0.4182 -0.0574
 6503SOL    HW125471   2.094   5.777   7.445  0.6996 -1.9578  0.0601
 6503SOL    HW225472   2.128   5.772   7.298  0.4357 -1.5502 -0.0146
 6504SOL     OW25473   6.977   6.957   8.263  0.2001 -0.2073  0.1214
 6504SOL    HW125474   6.978   6.936   8.170 -1.4725  0.4260 -0.0803
 6504SOL    HW225475   6.988   6.872   8.307  1.2455 -0.4793 -0.6389
 6505SOL     OW25476   7.498   6.808   1.142 -0.4232  0.1737 -0.1329
 6505SOL    HW125477   7.504   6.730   1.087 -0.8017 -0.2019  0.3544
 6505SOL    HW225478   7.559   6.870   1.102  0.2239 -0.5294 -0.2590
 6506SOL     OW25479   1.173   3.103   1.561 -0.0165 -0.4152 -0.1475
 6506SOL    HW125480   1.198   3.085   1.471  1.5174  0.7519  0.0017
 6506SOL    HW225481   1.183   3.197   1.571  0.9042 -0.6437  1.5141
 6507SOL     OW25482   3.437   2.883   7.497 -0.9071 -0.5355 -0.1146
 6507SOL    HW125483   3.477   2.856   7.579 -0.1746 -1.2074 -0.6813
 6507SOL    HW225484   3.508   2.920   7.446 -1.5351  0.7514 -0.1068
 6508SOL     OW25485   2.080   3.188   4.868 -0.5536 -0.2937 -0.4877
 6508SOL    HW125486   2.004   3.245   4.852  0.7708  1.3079 -1.4730
 6508SOL    HW225487   2.155   3.242   4.843  0.7982 -2.4807 -1.4320
 6509SOL     OW25488   5.962   5.760   2.032  0.2345  0.3136  0.1577
 6509SOL    HW125489   5.872   5.745   2.060  0.7967 -1.5969  1.1475
 6509SOL    HW225490   5.976   5.699   1.959  1.5294 -1.6401  1.9143
 6510SOL     OW25491   7.423   6.589   7.918  0.0859  0.4682 -0.4629
 6510SOL    HW125492   7.330   6.600   7.902 -0.4200 -0.9541  1.1247
 6510SOL    HW225493   7.464   6.594   7.832 -1.4858  0.7812 -1.2146
 6511SOL     OW25494   7.734   0.074   1.244  0.1056 -0.2976 -0.7841
 6511SOL    HW125495   7.729   0.154   1.297 -1.6252 -0.8094 -0.1085
 6511SOL    HW225496   7.750   0.104   1.155  0.9048  0.6975 -0.3265
 6512SOL     OW25497   8.321   9.089   1.704  0.0640 -0.0198  0.1865
 6512SOL    HW125498   8.359   9.148   1.638 -0.5573 -2.3071 -2.4198
 6512SOL    HW225499   8.234   9.124   1.719 -0.6054 -0.6122 -1.9511
 6513SOL     OW25500   4.969   6.972   6.483  0.3310 -0.1549 -0.1255
 6513SOL    HW125501   4.954   6.978   6.388  1.4689 -0.5984 -0.3485
 6513SOL    HW225502   5.064   6.979   6.493  0.2178 -0.0841  0.9918
 6514SOL     OW25503   3.046   2.072   1.800  0.4104  0.3887  0.5333
 6514SOL    HW125504   3.036   2.023   1.719  0.2356  0.8974  0.2371
 6514SOL    HW225505   3.101   2.017   1.856  1.7982  0.6712 -0.4855
 6515SOL     OW25506   7.762   3.326   3.923 -0.3121 -0.7207  0.2358
 6515SOL    HW125507   7.731   3.314   4.012 -0.7105  0.5431  0.2809
 6515SOL    HW225508   7.685   3.315   3.868 -0.2591 -0.5380  0.1223
 6516SOL     OW25509   8.103   3.970   6.065  0.1281 -0.3806 -0.2007
 6516SOL    HW125510   8.084   3.893   6.010 -1.6203 -0.0186 -0.1772
 6516SOL    HW225511   8.031   4.030   6.046 -0.1928  0.0120  2.0287
 6517SOL     OW25512   6.435   3.154   5.916 -0.2459 -0.7305  0.1805
 6517SOL    HW125513   6.451   3.062   5.892  1.4223 -0.3947 -0.1656
 6517SOL    HW225514   6.522   3.188   5.936 -0.9508  0.5357  1.2429
 6518SOL     OW25515   3.098   7.044   0.355 -0.1643  0.3493 -0.1992
 6518SOL    HW125516   3.059   6.977   0.412 -1.6796  1.2972 -0.0746
 6518SOL    HW225517   3.113   7.119   0.413 -1.5901  1.2739 -0.9842
 6519SOL     OW25518   7.652   3.344   1.105 -0.3840  0.4979  0.2401
 6519SOL    HW125519   7.610   3.400   1.040  0.5112  0.2301 -0.5997
 6519SOL    HW225520   7.746   3.363   1.096  0.0738 -1.8695 -0.8232
 6520SOL     OW25521   5.878   6.327   3.402  0.1559 -0.0733 -0.2975
 6520SOL    HW125522   5.791   6.297   3.427 -0.5641  1.6502 -0.6238
 6520SOL    HW225523   5.863   6.403   3.346  1.8061  2.6437  2.5965
 6521SOL     OW25524   0.464   2.579   4.527  0.2720  0.1155 -0.3868
 6521SOL    HW125525   0.449   2.484   4.523 -0.5061  0.1286  1.2525
 6521SOL    HW225526   0.422   2.613   4.448 -0.9865 -0.7475 -0.1343
 6522SOL     OW25527   3.460   4.838   6.827 -0.3179  0.4784 -0.2279
 6522SOL    HW125528   3.383   4.829   6.883 -0.8669 -0.0142 -1.0394
 6522SOL    HW225529   3.477   4.932   6.824 -0.0188  0.4862  1.0929
 6523SOL     OW25530   7.891   0.661   6.783 -0.0788 -0.1965  0.3382
 6523SOL    HW125531   7.887   0.733   6.845  1.4459  0.7870 -0.6504
 6523SOL    HW225532   7.970   0.613   6.806  1.0171  0.7045 -1.3385
 6524SOL     OW25533   2.488   7.530   8.867 -0.0919 -0.9429 -0.2471
 6524SOL    HW125534   2.395   7.508   8.867  0.0015 -1.3392  0.0045
 6524SOL    HW225535   2.491   7.622   8.892 -0.4021 -0.9912 -0.0348
 6525SOL     OW25536   8.160   2.957   0.403  0.5849  0.6306  0.3178
 6525SOL    HW125537   8.080   2.908   0.383  0.1630  1.0689  0.9104
 6525SOL    HW225538   8.191   2.921   0.486 -0.0536  1.7399  1.0633
 6526SOL     OW25539   0.264   5.068   4.128 -0.3057 -0.1530 -0.8368
 6526SOL    HW125540   0.176   5.030   4.122 -0.7144  0.2301  1.5642
 6526SOL    HW225541   0.254   5.140   4.190  1.8026 -0.3992 -0.1516
 6527SOL     OW25542   8.825   2.765   1.901 -0.1301  0.1898  0.0641
 6527SOL    HW125543   8.915   2.748   1.929 -0.2061  1.0687  0.8902
 6527SOL    HW225544   8.821   2.860   1.888 -0.2137 -0.1053 -2.6469
 6528SOL     OW25545   2.876   2.913   2.444 -0.2288  0.8581 -0.5603
 6528SOL    HW125546   2.872   2.980   2.376  1.0855  0.7618 -0.7536
 6528SOL    HW225547   2.965   2.918   2.478 -0.8951  0.9607  1.2355
 6529SOL     OW25548   5.640   7.363   1.384 -1.0083 -0.7327  0.6432
 6529SOL    HW125549   5.730   7.338   1.365 -0.3516  1.1907  1.0705
 6529SOL    HW225550   5.640   7.383   1.478 -1.1417  2.0348  0.1203
 6530SOL     OW25551   3.264   4.086   0.835  0.5098 -0.2494 -0.4884
 6530SOL    HW125552   3.253   4.061   0.927 -0.4306 -3.7413 -1.3929
 6530SOL    HW225553   3.331   4.153   0.836  0.6552 -0.3059  2.7390
 6531SOL     OW25554   0.303   1.996   7.917  0.2562 -0.3176 -0.0564
 6531SOL    HW125555   0.283   2.000   7.824  2.4211 -1.0799 -0.6199
 6531SOL    HW225556   0.312   2.088   7.944  1.8471 -0.0950 -1.1826
 6532SOL     OW25557   7.839   3.962   5.319  0.3200  0.2018 -0.3239
 6532SOL    HW125558   7.844   4.029   5.387 -0.1022  0.5431 -0.6252
 6532SOL    HW225559   7.839   4.011   5.237 -1.4859 -0.0775 -0.5264
 6533SOL     OW25560   7.636   2.778   9.366 -0.5914  0.1310  0.3608
 6533SOL    HW125561   7.648   2.766   9.272  3.0492  2.1223  0.3816
 6533SOL    HW225562   7.604   2.867   9.375  0.8422  0.6110  0.9996
 6534SOL     OW25563   5.738   7.294   3.308  0.0192  0.0174  0.1936
 6534SOL    HW125564   5.792   7.230   3.261  0.8750  1.4007 -0.7624
 6534SOL    HW225565   5.712   7.248   3.388  2.1502 -0.9041  0.4264
 6535SOL     OW25566   2.371   7.141   6.214  0.4442 -0.1961 -0.3317
 6535SOL    HW125567   2.313   7.069   6.239 -1.0534  1.4648  1.2281
 6535SOL    HW225568   2.312   7.214   6.197  1.9985  2.0623  2.9455
 6536SOL     OW25569   2.344   1.736   4.596  0.2813  0.4578  0.0555
 6536SOL    HW125570   2.269   1.689   4.632  1.0025 -1.0254 -0.2726
 6536SOL    HW225571   2.309   1.788   4.524 -0.0168 -3.0207 -2.5684
 6537SOL     OW25572   5.299   7.876   1.180  0.8292 -0.4035  0.0940
 6537SOL    HW125573   5.252   7.915   1.107  1.0955 -0.8976 -0.3482
 6537SOL    HW225574   5.328   7.950   1.233  1.1747 -0.0122 -0.6348
 6538SOL     OW25575   6.373   2.579   6.830 -0.3928  0.0792 -0.2668
 6538SOL    HW125576   6.315   2.650   6.855  0.1698  0.0725  1.1077
 6538SOL    HW225577   6.347   2.558   6.740 -3.1248 -0.5487  0.5737
 6539SOL     OW25578   1.140   1.369   7.674 -0.0282  0.8909  0.2779
 6539SOL    HW125579   1.212   1.373   7.612 -0.1615  0.9046  0.1250
 6539SOL    HW225580   1.175   1.408   7.754  0.8039 -0.8801  0.8431
 6540SOL     OW25581   0.886   3.814   4.592  0.0292 -0.7627 -0.1202
 6540SOL    HW125582   0.818   3.857   4.644  0.0242  0.9743 -1.4953
 6540SOL    HW225583   0.843   3.791   4.510  0.9742 -0.0224 -0.8428
 6541SOL     OW25584   0.463   1.440   5.265 -0.4139  0.2658 -0.3411
 6541SOL    HW125585   0.468   1.456   5.171 -2.7431  0.0806 -0.5558
 6541SOL    HW225586   0.404   1.507   5.298 -2.0123 -1.4475  0.4588
 6542SOL     OW25587   5.329   0.335   2.097 -0.3855 -0.2232  0.3087
 6542SOL    HW125588   5.264   0.266   2.084  0.4138 -0.8565 -0.4011
 6542SOL    HW225589   5.300   0.407   2.041 -1.0684 -0.0724  0.8422
 6543SOL     OW25590   0.535   6.192   8.829  0.4195 -0.7466  0.0128
 6543SOL    HW125591   0.559   6.134   8.901 -1.7398 -1.1170  0.5085
 6543SOL    HW225592   0.517   6.276   8.871 -1.3700 -1.1019  0.0415
 6544SOL     OW25593   6.651   3.457   8.351 -0.0808 -0.1293  0.4135
 6544SOL    HW125594   6.651   3.511   8.272 -1.3648  1.7113  1.5852
 6544SOL    HW225595   6.732   3.482   8.397 -0.1849  0.0916  0.4808
 6545SOL     OW25596   4.807   8.937   8.815  0.4903  0.4448  0.2575
 6545SOL    HW125597   4.861   8.900   8.745  0.4672  0.9362 -0.0256
 6545SOL    HW225598   4.731   8.974   8.770  1.1173  1.9685  0.3750
 6546SOL     OW25599   1.487   4.226   0.946  0.2717 -0.2651 -0.4815
 6546SOL    HW125600   1.508   4.133   0.961  0.6276  0.0890  1.5255
 6546SOL    HW225601   1.542   4.251   0.872 -0.8952 -1.9979 -2.0054
 6547SOL     OW25602   0.395   8.679   6.302  0.1441  0.0447 -0.3739
 6547SOL    HW125603   0.457   8.607   6.289 -0.4867 -0.8027  0.9860
 6547SOL    HW225604   0.315   8.650   6.259  0.4325  0.7678 -1.4151
 6548SOL     OW25605   5.021   1.900   5.081 -0.7024 -0.5713 -0.2897
 6548SOL    HW125606   5.040   1.835   5.014 -1.3237 -1.2061  0.1303
 6548SOL    HW225607   4.970   1.967   5.037  0.3801 -0.0875 -0.8490
 6549SOL     OW25608   1.281   7.796   1.657 -0.1164 -0.1447  0.2387
 6549SOL    HW125609   1.374   7.779   1.646 -0.3839 -2.7705  1.2488
 6549SOL    HW225610   1.238   7.723   1.612 -1.7460  1.4012 -0.8471
 6550SOL     OW25611   7.110   5.489   3.052  0.2842  0.2659 -0.3263
 6550SOL    HW125612   7.086   5.561   3.110 -0.9089  0.6978 -1.3068
 6550SOL    HW225613   7.201   5.507   3.028 -0.1826  1.8323 -1.0671
 6551SOL     OW25614   7.736   7.242   1.932  0.8513  0.5684  0.5470
 6551SOL    HW125615   7.809   7.272   1.985  2.0505 -0.4174 -0.4828
 6551SOL    HW225616   7.695   7.172   1.983  0.6180  1.1187  1.1211
 6552SOL     OW25617   2.841   4.969   7.358  0.3549  0.1748  0.3571
 6552SOL    HW125618   2.783   4.938   7.428  1.1244 -2.6483 -0.1265
 6552SOL    HW225619   2.924   4.988   7.402 -0.0330  1.4364  0.6069
 6553SOL     OW25620   0.404   7.855   6.055 -0.2877  0.2873 -0.0969
 6553SOL    HW125621   0.355   7.775   6.069  0.1674  0.0406  0.0864
 6553SOL    HW225622   0.466   7.860   6.128 -0.9172  1.2647  0.3882
 6554SOL     OW25623   0.723   0.163   3.298  0.0918 -0.0748 -0.3893
 6554SOL    HW125624   0.787   0.235   3.299  0.1056 -0.0902  0.3207
 6554SOL    HW225625   0.684   0.167   3.211  0.2115  0.6961 -0.4155
 6555SOL     OW25626   9.038   6.620   2.099 -0.5452  0.2334 -0.2856
 6555SOL    HW125627   8.983   6.550   2.062 -0.7238  0.8214 -1.1584
 6555SOL    HW225628   8.976   6.678   2.144 -0.3936 -0.1671  0.4638
 6556SOL     OW25629   3.760   3.379   7.039  0.1565 -0.5899 -0.1413
 6556SOL    HW125630   3.714   3.415   7.114  3.2311  0.2114  1.5542
 6556SOL    HW225631   3.797   3.297   7.071 -0.0918 -1.2305 -1.4333
 6557SOL     OW25632   0.043   2.158   6.154  0.3399  0.1382 -0.3547
 6557SOL    HW125633   0.135   2.131   6.152  0.5867  0.9876 -0.8216
 6557SOL    HW225634   0.039   2.227   6.221 -0.2565 -0.9063  0.7293
 6558SOL     OW25635   4.938   0.188   0.933  0.4365 -0.0663 -0.0375
 6558SOL    HW125636   5.020   0.151   0.965  1.0260  0.5301 -0.8245
 6558SOL    HW225637   4.949   0.193   0.838 -0.3278  0.4450 -0.1075
 6559SOL     OW25638   8.774   2.683   1.207  0.1448  0.2345  0.0884
 6559SOL    HW125639   8.717   2.639   1.270  0.5728 -1.2097 -0.4776
 6559SOL    HW225640   8.715   2.719   1.142 -0.1721 -1.3002 -0.5261
 6560SOL     OW25641   7.856   7.666   7.118  0.1942  0.4329 -0.2346
 6560SOL    HW125642   7.811   7.633   7.196 -0.3408  0.4647 -0.5246
 6560SOL    HW225643   7.928   7.719   7.152  0.3279 -0.0423  0.2382
 6561SOL     OW25644   9.022   1.600   2.285  0.0009 -0.1002  0.4704
 6561SOL    HW125645   8.970   1.661   2.338 -1.7729 -0.7606 -0.4183
 6561SOL    HW225646   9.062   1.654   2.217  0.7621  0.4664  1.3480
 6562SOL     OW25647   0.328   1.654   8.613 -0.6634 -0.1769  0.2133
 6562SOL    HW125648   0.297   1.677   8.526 -1.2658 -0.1015  0.4390
 6562SOL    HW225649   0.387   1.725   8.638 -0.3540 -0.2902 -0.2039
 6563SOL     OW25650   3.835   7.827   3.937 -0.5228  0.7589  0.3449
 6563SOL    HW125651   3.925   7.798   3.950 -1.1184 -0.8191  1.2727
 6563SOL    HW225652   3.830   7.851   3.845  0.5450 -0.2891 -0.0144
 6564SOL     OW25653   4.471   3.591   0.909 -0.7422 -0.4335  0.0378
 6564SOL    HW125654   4.381   3.619   0.891 -0.9988  0.7193  2.5908
 6564SOL    HW225655   4.461   3.519   0.971  0.0516  0.4312  1.2245
 6565SOL     OW25656   7.643   6.021   8.905  0.2746 -0.4287 -0.1547
 6565SOL    HW125657   7.628   6.113   8.926 -0.9032 -0.8472  0.9369
 6565SOL    HW225658   7.665   6.021   8.811 -2.6219  0.7124 -0.9264
 6566SOL     OW25659   7.330   7.463   3.626 -0.4298 -0.0291 -0.1246
 6566SOL    HW125660   7.391   7.511   3.682  1.4167 -2.8905  0.5786
 6566SOL    HW225661   7.383   7.436   3.551 -1.0113 -1.7833  0.0360
 6567SOL     OW25662   1.683   3.994   0.219 -0.0566 -0.1069  0.3534
 6567SOL    HW125663   1.696   4.005   0.125  1.1463  1.3459  0.6501
 6567SOL    HW225664   1.593   4.024   0.234 -0.0223  0.3075 -0.2426
 6568SOL     OW25665   8.922   1.039   2.807 -0.1396  0.2637 -0.0874
 6568SOL    HW125666   8.914   1.123   2.763 -2.7681 -0.8168 -1.8947
 6568SOL    HW225667   8.854   1.041   2.875  0.2233 -0.1827  0.2982
 6569SOL     OW25668   8.074   8.035   6.943 -0.2842  0.0508  0.5948
 6569SOL    HW125669   8.133   7.960   6.952  0.8532  0.8423  0.0048
 6569SOL    HW225670   8.107   8.083   6.867 -1.5404  0.6752  0.4072
 6570SOL     OW25671   0.401   1.301   3.908  0.0230  0.3976  0.1006
 6570SOL    HW125672   0.387   1.363   3.980  1.5717  0.3248  0.4996
 6570SOL    HW225673   0.460   1.346   3.848 -0.6717  0.1718 -0.7706
 6571SOL     OW25674   5.754   6.741   5.367  0.3574 -0.1372  0.3995
 6571SOL    HW125675   5.793   6.798   5.300  0.8322 -1.2626 -0.3122
 6571SOL    HW225676   5.814   6.748   5.441 -0.2113  1.1831  0.7699
 6572SOL     OW25677   2.060   5.722   2.410 -0.1837 -0.1827 -0.2772
 6572SOL    HW125678   2.021   5.680   2.333 -0.8000 -2.4453  1.1623
 6572SOL    HW225679   2.154   5.708   2.400 -0.0892  1.0256 -1.3852
 6573SOL     OW25680   8.771   8.561   2.345  0.1007 -0.5284 -0.0682
 6573SOL    HW125681   8.719   8.599   2.274 -0.2910 -2.8603 -1.1360
 6573SOL    HW225682   8.719   8.576   2.424  0.1032  1.2967 -0.3706
 6574SOL     OW25683   8.766   4.179   0.770  0.1101  0.3579 -0.3776
 6574SOL    HW125684   8.753   4.091   0.804  0.1733  0.7153  0.6050
 6574SOL    HW225685   8.711   4.183   0.692 -0.7298 -0.2021  0.1670
 6575SOL     OW25686   3.872   8.153   7.227  0.4855  0.5233  0.2145
 6575SOL    HW125687   3.840   8.223   7.283 -0.4725  0.3298 -0.0568
 6575SOL    HW225688   3.946   8.116   7.274  0.3560  1.0458  0.8452
 6576SOL     OW25689   7.072   4.149   6.916 -0.3047  0.2011 -0.1775
 6576SOL    HW125690   7.036   4.208   6.982 -1.1606  0.1055 -0.5523
 6576SOL    HW225691   7.167   4.157   6.926 -0.4190  1.0825  0.2655
 6577SOL     OW25692   5.954   3.993   6.883 -0.2463  0.2501  0.1891
 6577SOL    HW125693   5.885   3.983   6.818 -0.0212 -1.8563  0.2218
 6577SOL    HW225694   6.033   3.961   6.839 -0.3379 -2.5515  1.8700
 6578SOL     OW25695   9.129   1.803   6.766 -0.0612  0.8286 -0.0718
 6578SOL    HW125696   9.158   1.714   6.784  0.3678  1.1637  0.9707
 6578SOL    HW225697   9.067   1.794   6.694 -0.6239 -0.3984  0.5456
 6579SOL     OW25698   4.217   2.889   6.269 -0.2445 -0.0212  0.3604
 6579SOL    HW125699   4.147   2.909   6.206  0.4142  2.7049  0.3794
 6579SOL    HW225700   4.173   2.838   6.338 -1.4930 -0.9945 -1.0744
 6580SOL     OW25701   1.979   6.557   0.835 -0.1142 -0.1500 -0.6426
 6580SOL    HW125702   1.907   6.582   0.778  0.2638 -0.7064 -1.3722
 6580SOL    HW225703   2.057   6.599   0.798 -0.2536  1.7231  1.0034
 6581SOL     OW25704   7.914   8.832   0.835 -0.1621 -0.2816  0.0790
 6581SOL    HW125705   7.831   8.867   0.804 -0.5510 -1.1233  0.1471
 6581SOL    HW225706   7.937   8.765   0.771 -0.4021 -1.2361  0.9668
 6582SOL     OW25707   5.386   9.064   0.821  0.5929  0.4094 -0.1891
 6582SOL    HW125708   5.465   9.077   0.875  1.9635  1.1257 -2.2597
 6582SOL    HW225709   5.369   9.150   0.782 -1.0735  0.1921 -0.0094
 6583SOL     OW25710   2.111   7.350   7.268 -0.3024 -0.2744  0.2256
 6583SOL    HW125711   2.060   7.410   7.214  0.6567  0.4844  0.1299
 6583SOL    HW225712   2.096   7.264   7.229 -2.1009 -0.2066  0.6700
 6584SOL     OW25713   2.905   4.742   5.686 -0.5736 -0.8338  0.3413
 6584SOL    HW125714   2.908   4.658   5.733  0.5806 -0.1307  1.6106
 6584SOL    HW225715   2.940   4.805   5.749 -1.1754  0.5673 -0.6819
 6585SOL     OW25716   0.236   2.251   2.906  0.2672 -0.8460 -0.1657
 6585SOL    HW125717   0.253   2.159   2.886  1.5303 -0.6277 -0.2028
 6585SOL    HW225718   0.267   2.263   2.996  0.4633 -0.3871 -0.2853
 6586SOL     OW25719   5.753   7.344   4.440  0.6704 -0.0847  0.1832
 6586SOL    HW125720   5.807   7.397   4.499  1.2609  1.3936 -1.5771
 6586SOL    HW225721   5.667   7.386   4.443 -0.3478 -2.0699  2.5095
 6587SOL     OW25722   0.001   7.317   5.434 -0.1767  0.0314 -0.0169
 6587SOL    HW125723   0.061   7.268   5.490  0.6559  0.4761 -0.5053
 6587SOL    HW225724   0.008   7.274   5.349 -0.9750 -0.2604  0.0574
 6588SOL     OW25725   7.595   1.094   6.719  0.0283  0.5314 -0.1196
 6588SOL    HW125726   7.532   1.084   6.647  0.7521 -0.9246 -0.5983
 6588SOL    HW225727   7.579   1.182   6.753 -1.7212  0.4879 -0.7316
 6589SOL     OW25728   6.189   6.619   0.721 -0.0041 -0.1031 -0.1557
 6589SOL    HW125729   6.274   6.578   0.710 -0.1646 -0.3005 -0.6933
 6589SOL    HW225730   6.209   6.711   0.740  0.3615 -0.5117  1.5278
 6590SOL     OW25731   8.332   1.324   3.966 -0.1413  0.6105 -0.2104
 6590SOL    HW125732   8.297   1.239   3.992 -1.1560  1.0986  0.0443
 6590SOL    HW225733   8.376   1.307   3.882  0.9456 -0.4496  0.5498
 6591SOL     OW25734   3.934   2.166   2.740 -0.3893 -0.4470 -0.0056
 6591SOL    HW125735   3.932   2.261   2.724 -1.2029  0.0387  2.5398
 6591SOL    HW225736   4.013   2.152   2.792 -1.4217 -0.7715  1.5303
 6592SOL     OW25737   7.334   0.914   9.069  0.1762 -0.0085 -0.7079
 6592SOL    HW125738   7.256   0.883   9.114  1.1414 -0.7550  0.5507
 6592SOL    HW225739   7.402   0.915   9.137  1.5315 -0.4603 -1.9853
 6593SOL     OW25740   6.358   5.307   9.215 -0.4665 -0.0583 -0.2279
 6593SOL    HW125741   6.276   5.287   9.260  0.1535 -0.3840  0.7812
 6593SOL    HW225742   6.423   5.318   9.285  0.6660 -1.2452 -1.0349
 6594SOL     OW25743   1.501   5.044   3.753 -0.0895  0.3829 -0.6263
 6594SOL    HW125744   1.561   5.093   3.697 -0.0700 -0.6519 -1.5420
 6594SOL    HW225745   1.450   4.990   3.693  0.5578 -1.4472  0.3705
 6595SOL     OW25746   5.213   2.934   1.745 -0.6976 -0.0623 -0.1569
 6595SOL    HW125747   5.216   2.971   1.656  0.2171  1.3457  0.4140
 6595SOL    HW225748   5.163   2.998   1.796 -0.6613 -0.5303  0.4757
 6596SOL     OW25749   8.218   2.825   3.380 -0.2188  0.0608  0.3819
 6596SOL    HW125750   8.250   2.836   3.469  0.7356  1.6682 -0.1315
 6596SOL    HW225751   8.226   2.731   3.364 -0.8955 -0.3483  2.1391
 6597SOL     OW25752   2.652   7.416   6.779  0.6684 -0.3080  0.0280
 6597SOL    HW125753   2.581   7.354   6.796 -0.0932  0.6696  0.5491
 6597SOL    HW225754   2.649   7.431   6.684  0.2672 -0.3664  0.0318
 6598SOL     OW25755   4.985   8.173   0.980 -0.1628 -0.6819 -0.2357
 6598SOL    HW125756   4.987   8.220   1.064  1.5145 -0.6806 -0.2438
 6598SOL    HW225757   4.948   8.236   0.919 -1.6854 -0.7779  0.5283
 6599SOL     OW25758   8.772   7.004   1.649  0.9001 -0.2477  0.7395
 6599SOL    HW125759   8.755   7.096   1.634 -0.0560 -0.3680  1.0524
 6599SOL    HW225760   8.799   6.970   1.563 -0.1459  0.0111  0.3016
 6600SOL     OW25761   8.892   2.441   0.340  0.0579  0.1387 -0.0935
 6600SOL    HW125762   8.875   2.439   0.434 -0.7522 -0.1971 -0.2363
 6600SOL    HW225763   8.840   2.369   0.305  0.8879 -0.1600 -0.7204
 6601SOL     OW25764   8.918   0.564   2.800 -0.0095 -0.0929  0.3638
 6601SOL    HW125765   8.936   0.534   2.711  1.4933  0.9597  0.2622
 6601SOL    HW225766   8.833   0.607   2.795  0.9534  1.7950 -1.0935
 6602SOL     OW25767   6.020   4.775   8.145  0.1324 -0.9523  0.1410
 6602SOL    HW125768   6.079   4.775   8.220 -0.3804 -1.6729  0.5479
 6602SOL    HW225769   6.019   4.866   8.116  2.9407 -1.2089 -1.0654
 6603SOL     OW25770   1.130   0.384   6.833  0.3528  0.5374  0.5948
 6603SOL    HW125771   1.089   0.351   6.913 -2.2268  0.6745 -0.5806
 6603SOL    HW225772   1.155   0.306   6.784  1.6583  0.4555  1.3246
 6604SOL     OW25773   1.409   6.538   7.266 -0.3949 -0.3149  0.3936
 6604SOL    HW125774   1.332   6.581   7.304  0.4084 -1.1418  3.2355
 6604SOL    HW225775   1.397   6.445   7.286  0.4258 -0.7311 -0.9215
 6605SOL     OW25776   6.586   9.043   8.644  0.1888  0.0291  0.1505
 6605SOL    HW125777   6.585   8.975   8.576  1.2760 -0.2873  0.4253
 6605SOL    HW225778   6.495   9.048   8.673 -0.8357  1.7849 -2.8617
 6606SOL     OW25779   1.976   5.060   4.344  0.1714  0.2496  0.0050
 6606SOL    HW125780   1.936   5.146   4.352  1.5453  1.0944 -1.5151
 6606SOL    HW225781   2.070   5.076   4.358  0.5377 -0.8579 -1.0377
 6607SOL     OW25782   6.420   7.256   2.011  0.2501  0.0927 -0.0925
 6607SOL    HW125783   6.355   7.326   2.017  0.1848  0.0629 -0.4499
 6607SOL    HW225784   6.394   7.194   2.080  0.0850  0.2331 -0.0260
 6608SOL     OW25785   6.576   9.025   7.499  0.0386  0.2965 -0.1991
 6608SOL    HW125786   6.574   8.939   7.542 -1.6225  0.9252  1.0389
 6608SOL    HW225787   6.486   9.039   7.469  0.4108  1.3905 -0.8611
 6609SOL     OW25788   8.860   1.406   4.459 -0.6506 -0.1528  0.0403
 6609SOL    HW125789   8.954   1.403   4.477 -0.2529  1.9638 -1.3380
 6609SOL    HW225790   8.844   1.328   4.406  0.8805  0.7043 -1.8056
 6610SOL     OW25791   8.574   0.960   8.434 -0.4081  0.4999  0.3897
 6610SOL    HW125792   8.550   1.053   8.426  1.0906  0.8225 -1.0400
 6610SOL    HW225793   8.568   0.927   8.345  0.4348 -0.4223  0.6677
 6611SOL     OW25794   2.691   7.216   0.271 -0.0014 -0.1200 -0.0493
 6611SOL    HW125795   2.677   7.160   0.348 -1.0242  0.8677  0.5111
 6611SOL    HW225796   2.764   7.175   0.225  0.9363 -0.5100  1.6803
 6612SOL     OW25797   3.527   0.617   1.910 -0.2991  0.4348  0.0206
 6612SOL    HW125798   3.565   0.693   1.866 -1.7636  0.4343 -1.3317
 6612SOL    HW225799   3.432   0.629   1.901 -0.5905 -0.7589  1.1841
 6613SOL     OW25800   4.960   4.583   1.266 -0.0215  0.1375  0.0174
 6613SOL    HW125801   5.053   4.593   1.242  0.1418 -0.4346  0.3750
 6613SOL    HW225802   4.951   4.489   1.282 -0.2414  0.4220  1.6953
 6614SOL     OW25803   6.524   7.346   4.864  0.6835 -0.0237  0.4255
 6614SOL    HW125804   6.432   7.321   4.866  0.2761  1.4205  0.3009
 6614SOL    HW225805   6.569   7.267   4.833 -0.6408 -0.3679 -0.7042
 6615SOL     OW25806   0.355   6.360   2.352 -0.7875 -0.0735 -0.0178
 6615SOL    HW125807   0.395   6.299   2.414  0.7032 -1.2370 -2.0274
 6615SOL    HW225808   0.345   6.310   2.272 -2.4117  1.4645 -0.8439
 6616SOL     OW25809   1.990   1.463   0.494 -0.1960  0.0728 -0.2484
 6616SOL    HW125810   1.984   1.368   0.487  0.6641 -0.2097  1.9355
 6616SOL    HW225811   1.903   1.491   0.523 -0.8843  0.1762 -2.2500
 6617SOL     OW25812   3.128   2.000   5.519  0.8491 -0.6714 -0.3298
 6617SOL    HW125813   3.065   1.979   5.588  2.0390 -0.3597  0.8893
 6617SOL    HW225814   3.074   2.009   5.440 -0.6531 -0.2706  0.6859
 6618SOL     OW25815   2.509   0.883   2.550  0.2802 -0.1021  0.6068
 6618SOL    HW125816   2.581   0.880   2.487 -0.0141 -0.5076  0.2869
 6618SOL    HW225817   2.431   0.870   2.497 -0.0116  0.0946  0.9882
 6619SOL     OW25818   1.565   9.030   6.916  0.1254 -0.2742 -0.4774
 6619SOL    HW125819   1.529   9.065   6.835  0.7168  0.1422 -0.5705
 6619SOL    HW225820   1.488   9.011   6.970 -0.2452  0.4526 -0.7278
 6620SOL     OW25821   5.118   0.112   0.011 -0.3568 -0.4613  0.5133
 6620SOL    HW125822   5.105   0.193  -0.039  0.3719 -0.5433  0.1713
 6620SOL    HW225823   5.213   0.099   0.011 -0.4004 -0.8366  1.3374
 6621SOL     OW25824   4.218   6.050   0.480  0.0209 -0.3719 -0.0400
 6621SOL    HW125825   4.204   6.090   0.566 -1.4961  0.1282 -0.4882
 6621SOL    HW225826   4.295   6.094   0.445  1.0384 -1.0201  1.2995
 6622SOL     OW25827   6.428   9.327   9.273 -0.0049  0.4964 -0.6784
 6622SOL    HW125828   6.354   9.387   9.260  0.1027  0.8531  0.2769
 6622SOL    HW225829   6.457   9.305   9.185 -0.9388  0.7445 -1.0614
 6623SOL     OW25830   5.291   7.871   2.525  0.0351 -1.0586 -0.3746
 6623SOL    HW125831   5.380   7.899   2.506 -0.0803 -0.9124 -0.7055
 6623SOL    HW225832   5.290   7.856   2.620  0.0840  0.1309 -0.1706
 6624SOL     OW25833   4.341   8.142   7.527  0.3207 -0.5488  0.2557
 6624SOL    HW125834   4.318   8.131   7.619 -2.4687 -1.1744 -0.4159
 6624SOL    HW225835   4.381   8.059   7.502  0.6901 -0.5357  0.7892
 6625SOL     OW25836   3.885   0.853   4.199 -0.1402  0.0160  0.3092
 6625SOL    HW125837   3.836   0.887   4.274 -1.7911  0.1573 -0.7803
 6625SOL    HW225838   3.965   0.905   4.198  1.2364 -1.7292  3.4809
 6626SOL     OW25839   5.147   8.884   9.201  0.1785 -0.1524 -0.2353
 6626SOL    HW125840   5.116   8.921   9.119 -1.2326  0.1432  0.4082
 6626SOL    HW225841   5.114   8.794   9.201 -1.6283  0.4646  0.9003
 6627SOL     OW25842   4.887   4.024   8.517 -0.3542  0.1459  0.3225
 6627SOL    HW125843   4.898   4.060   8.429  1.5715 -1.3815 -0.1216
 6627SOL    HW225844   4.840   4.093   8.565  0.9705  2.1961 -1.1248
 6628SOL     OW25845   6.687   5.723   6.479 -0.1688  0.4298  0.1720
 6628SOL    HW125846   6.595   5.746   6.486 -0.1982  1.7996 -2.9722
 6628SOL    HW225847   6.688   5.645   6.424  0.5402 -0.4585  1.3827
 6629SOL     OW25848   7.060   1.735   3.625  0.0086  0.1911  0.2543
 6629SOL    HW125849   7.121   1.751   3.697 -0.1275  0.5535  0.2924
 6629SOL    HW225850   6.984   1.791   3.644 -0.1493  0.0762 -0.0196
 6630SOL     OW25851   5.577   4.199   7.728 -0.3752  0.0691  0.4531
 6630SOL    HW125852   5.625   4.143   7.667 -0.7575  0.0818  0.1342
 6630SOL    HW225853   5.602   4.288   7.702  0.2411  0.0505  0.9671
 6631SOL     OW25854   8.195   2.679   4.254 -0.2603 -0.0880  0.2687
 6631SOL    HW125855   8.122   2.697   4.194  0.8271  0.9400 -0.7836
 6631SOL    HW225856   8.268   2.729   4.219  1.4358 -2.3067  0.3846
 6632SOL     OW25857   7.325   2.677   5.969 -0.4981  0.2035 -0.1485
 6632SOL    HW125858   7.299   2.641   5.885  1.6952 -0.0475 -0.7687
 6632SOL    HW225859   7.378   2.609   6.010  0.5823  1.2670  0.3093
 6633SOL     OW25860   0.236   6.636   3.079 -0.0395  0.4076 -0.4699
 6633SOL    HW125861   0.279   6.550   3.077  0.2090  0.5431 -0.9670
 6633SOL    HW225862   0.308   6.699   3.083 -0.2351  0.5771  0.5533
 6634SOL     OW25863   9.361   9.011   0.174  0.0224 -0.4485  0.0122
 6634SOL    HW125864   9.322   9.069   0.108  1.0173  1.6711  1.1821
 6634SOL    HW225865   9.304   9.020   0.250  0.7714 -0.1139  0.5531
 6635SOL     OW25866   0.360   5.947   5.602 -0.1823  0.1113  0.5961
 6635SOL    HW125867   0.379   6.040   5.613  0.2759  0.0054  0.7253
 6635SOL    HW225868   0.436   5.913   5.555 -0.3654 -0.1888  0.5198
 6636SOL     OW25869   4.488   4.941   4.134 -0.4939 -0.0138 -0.5153
 6636SOL    HW125870   4.517   4.882   4.065 -2.0972 -1.5447  0.0610
 6636SOL    HW225871   4.438   4.886   4.194  0.5805  1.3263  1.7431
 6637SOL     OW25872   0.178   7.366   8.451 -0.2951  0.7856  0.5620
 6637SOL    HW125873   0.186   7.391   8.359  1.5967  0.5487  0.6334
 6637SOL    HW225874   0.218   7.437   8.499 -0.8127  0.6631  1.1887
 6638SOL     OW25875   7.101   5.452   8.241 -0.4897 -0.2326 -0.6445
 6638SOL    HW125876   7.187   5.462   8.282 -1.8445  0.8895  2.1283
 6638SOL    HW225877   7.066   5.540   8.237 -2.5960 -0.9332  0.8541
 6639SOL     OW25878   2.442   4.080   1.107 -0.3727 -0.1530  0.2597
 6639SOL    HW125879   2.398   4.012   1.159  3.0250 -1.5963  1.5373
 6639SOL    HW225880   2.445   4.156   1.165 -0.1613 -0.4283  0.6137
 6640SOL     OW25881   2.746   8.776   7.677  0.0525  0.4094  0.2018
 6640SOL    HW125882   2.764   8.683   7.663 -0.6365  0.2422  0.3910
 6640SOL    HW225883   2.804   8.802   7.749  1.1687  0.4471 -0.6750
 6641SOL     OW25884   8.579   9.237   2.651 -0.2621  0.3269  0.0032
 6641SOL    HW125885   8.605   9.259   2.741  1.0539 -1.3602  0.0987
 6641SOL    HW225886   8.586   9.142   2.647 -0.7758  0.3253 -1.7600
 6642SOL     OW25887   3.992   8.987   7.702  0.3037 -0.1260 -0.5246
 6642SOL    HW125888   4.016   9.067   7.655  0.5274  0.1703  0.0866
 6642SOL    HW225889   3.933   8.941   7.643 -0.5292  0.9130 -0.5239
 6643SOL     OW25890   1.885   8.802   2.768  0.8049  0.1284  0.0346
 6643SOL    HW125891   1.849   8.726   2.814  3.2870 -0.9310  0.3319
 6643SOL    HW225892   1.951   8.837   2.826  1.8571  0.6353 -1.4026
 6644SOL     OW25893   9.047   3.357   1.762  0.4052 -0.2787  0.0796
 6644SOL    HW125894   9.131   3.313   1.778  2.4762  2.6754 -1.6413
 6644SOL    HW225895   9.011   3.314   1.685  2.1448  0.5879 -1.2850
 6645SOL     OW25896   7.103   3.732   4.648 -0.9506  0.6773  0.6247
 6645SOL    HW125897   7.157   3.662   4.683 -1.9796 -0.6784 -0.3786
 6645SOL    HW225898   7.018   3.720   4.690 -1.6810  0.1227 -0.9170
 6646SOL     OW25899   7.263   3.630   0.089 -0.3278  0.3881  0.5361
 6646SOL    HW125900   7.212   3.710   0.099 -1.7403 -0.3080 -0.6661
 6646SOL    HW225901   7.206   3.572   0.039  0.9707 -1.0908  0.7080
 6647SOL     OW25902   6.994   2.374   4.964 -0.7964 -0.0928  0.0692
 6647SOL    HW125903   7.065   2.389   4.901  0.0911  0.6618  1.2030
 6647SOL    HW225904   6.995   2.279   4.978  0.2931 -0.0604  0.3593
 6648SOL     OW25905   1.731   3.308   0.351 -0.1760 -0.5349  0.1114
 6648SOL    HW125906   1.659   3.366   0.378  0.2865  0.4659 -0.7424
 6648SOL    HW225907   1.722   3.231   0.407 -0.3562  0.6723  1.8234
 6649SOL     OW25908   9.256   8.012   7.659 -0.1696  0.4543  0.1276
 6649SOL    HW125909   9.172   8.010   7.705  1.1414 -0.1007  2.6982
 6649SOL    HW225910   9.248   7.945   7.592 -2.3244  1.5547 -0.8022
 6650SOL     OW25911   6.280   1.415   7.159  0.1394 -0.4573  0.1418
 6650SOL    HW125912   6.261   1.506   7.184 -0.5898 -0.2464 -1.0760
 6650SOL    HW225913   6.375   1.413   7.146  0.3026 -0.1544  1.2172
 6651SOL     OW25914   3.099   2.977   9.071 -0.0021  0.1782 -0.3697
 6651SOL    HW125915   3.164   2.961   9.002  1.8335 -0.9369  1.5100
 6651SOL    HW225916   3.133   3.053   9.118 -0.2951 -0.1697  0.4059
 6652SOL     OW25917   3.198   5.086   3.866  0.7758  0.4362 -0.5898
 6652SOL    HW125918   3.182   4.996   3.839 -1.7250  0.8997 -0.8950
 6652SOL    HW225919   3.250   5.123   3.794  1.3884 -0.6207 -0.7024
 6653SOL     OW25920   7.145   0.298   3.902  0.2525 -0.0040  0.9590
 6653SOL    HW125921   7.052   0.298   3.878  0.0912  0.4721  1.5521
 6653SOL    HW225922   7.170   0.390   3.902  1.2626 -0.2167 -1.1503
 6654SOL     OW25923   3.223   4.805   6.936 -0.3417  0.6212  0.0484
 6654SOL    HW125924   3.178   4.817   6.852 -1.0649 -0.2328  0.2957
 6654SOL    HW225925   3.218   4.711   6.953  0.7272  0.6403  0.5484
 6655SOL     OW25926   8.683   3.323   1.800  0.5438 -0.3185  0.0112
 6655SOL    HW125927   8.616   3.263   1.769  1.2217 -0.7664 -0.6138
 6655SOL    HW225928   8.672   3.402   1.748 -0.7523  0.3749  1.2566
 6656SOL     OW25929   0.513   4.347   0.388 -0.0149  0.3833 -0.2439
 6656SOL    HW125930   0.608   4.358   0.395  0.2537 -1.7668  0.3711
 6656SOL    HW225931   0.485   4.329   0.478 -1.1064  1.5679 -0.3308
 6657SOL     OW25932   3.731   3.201   1.310 -0.0945 -0.2481 -0.2801
 6657SOL    HW125933   3.667   3.132   1.293  0.5778 -1.6715  2.4065
 6657SOL    HW225934   3.740   3.202   1.405  1.9737  1.6816 -0.4229
 6658SOL     OW25935   7.995   8.591   3.520  0.4144 -0.5554 -0.0569
 6658SOL    HW125936   8.041   8.514   3.487 -0.3414 -1.1919  0.3459
 6658SOL    HW225937   7.911   8.557   3.551 -0.1545  0.5209 -0.3934
 6659SOL     OW25938   6.728   7.482   4.111  0.0767  0.1661 -0.0261
 6659SOL    HW125939   6.803   7.526   4.073 -0.3126  0.9976  0.1445
 6659SOL    HW225940   6.707   7.412   4.049  1.4911 -0.6132  0.3481
 6660SOL     OW25941   0.818   6.114   8.635 -0.3132 -0.0351 -0.0757
 6660SOL    HW125942   0.867   6.057   8.694  2.0099 -0.1294 -1.9415
 6660SOL    HW225943   0.830   6.076   8.548 -1.2614  1.6139 -0.9992
 6661SOL     OW25944   2.659   7.696   8.710 -0.0194 -0.1529  0.4574
 6661SOL    HW125945   2.692   7.606   8.717 -0.1282 -0.3135 -0.8315
 6661SOL    HW225946   2.732   7.751   8.736  0.2483 -0.5997  0.6529
 6662SOL     OW25947   6.227   2.241   7.306 -0.0461  0.4172 -0.0698
 6662SOL    HW125948   6.288   2.186   7.356 -1.9006  1.3115  3.5237
 6662SOL    HW225949   6.277   2.321   7.289  0.5946  0.1769  0.5900
 6663SOL     OW25950   5.090   2.414   3.169 -0.2417 -0.0623 -0.1602
 6663SOL    HW125951   5.052   2.328   3.187 -3.5890  0.8585 -2.0806
 6663SOL    HW225952   5.114   2.410   3.076 -0.2559  1.0143 -0.2196
 6664SOL     OW25953   2.986   5.607   5.921  0.2608 -0.1207  0.0312
 6664SOL    HW125954   2.914   5.587   5.861  1.2956 -0.0821 -1.2757
 6664SOL    HW225955   3.028   5.522   5.937  0.4359 -0.0203  0.1014
 6665SOL     OW25956   6.560   1.149   6.375  0.1283  0.3710 -0.5020
 6665SOL    HW125957   6.554   1.156   6.279 -2.2781  1.8408 -0.3475
 6665SOL    HW225958   6.581   1.238   6.404 -1.0120  0.3876  0.3722
 6666SOL     OW25959   8.444   3.737   6.795  0.4427  0.3527 -0.0226
 6666SOL    HW125960   8.415   3.710   6.882  0.6704 -0.9945 -0.3300
 6666SOL    HW225961   8.420   3.829   6.788 -0.3122  0.2607  1.1493
 6667SOL     OW25962   7.417   0.648   6.926  0.6934  0.2986  0.1812
 6667SOL    HW125963   7.458   0.582   6.981  1.3020  0.6339  0.1381
 6667SOL    HW225964   7.480   0.720   6.923 -0.1485  1.0792  0.5930
 6668SOL     OW25965   1.602   5.864   5.190  0.3016 -0.3943 -0.0529
 6668SOL    HW125966   1.639   5.782   5.223 -2.7167 -1.9709 -0.2327
 6668SOL    HW225967   1.629   5.930   5.254  0.8004 -1.9730  1.4369
 6669SOL     OW25968   7.917   7.572   2.879 -0.0172 -0.1747 -0.2392
 6669SOL    HW125969   7.868   7.539   2.955 -0.6127 -0.1258 -0.5927
 6669SOL    HW225970   7.870   7.652   2.854  1.4697  1.0210  0.6755
 6670SOL     OW25971   4.853   0.999   2.902  0.3064  0.2040 -0.4274
 6670SOL    HW125972   4.845   0.981   2.808  0.4511 -0.8834 -0.2416
 6670SOL    HW225973   4.829   0.916   2.944 -0.0592  0.7745  0.5092
 6671SOL     OW25974   7.977   4.721   3.099  0.0371  0.3349  0.1397
 6671SOL    HW125975   8.067   4.752   3.094  0.8662 -1.6571  1.4969
 6671SOL    HW225976   7.961   4.707   3.193 -1.9634  1.3358  0.0084
 6672SOL     OW25977   7.053   3.083   1.376  0.3078  0.2282 -1.1780
 6672SOL    HW125978   7.004   3.118   1.450  2.7149  0.5102  0.3846
 6672SOL    HW225979   6.989   3.031   1.327 -1.4315  0.2335  0.9528
 6673SOL     OW25980   8.256   0.379   2.875  0.2002  0.7046 -0.9609
 6673SOL    HW125981   8.337   0.380   2.925 -0.8453  1.6601  0.8395
 6673SOL    HW225982   8.210   0.300   2.905  0.1047  0.5982 -1.3709
 6674SOL     OW25983   5.944   5.768   6.207  0.0464  0.1642  0.0010
 6674SOL    HW125984   5.859   5.728   6.224 -0.2273  1.5725  2.5069
 6674SOL    HW225985   6.007   5.700   6.231 -0.4224  0.5833  2.8045
 6675SOL     OW25986   7.644   5.640   7.767  0.1647 -0.0184  0.4512
 6675SOL    HW125987   7.579   5.709   7.757  0.8288  0.5792  0.2575
 6675SOL    HW225988   7.638   5.614   7.859 -1.3010 -0.9315  0.1412
 6676SOL     OW25989   8.637   1.169   0.680 -0.1463  0.9595 -0.1594
 6676SOL    HW125990   8.659   1.214   0.762 -1.1696 -0.3791  0.8888
 6676SOL    HW225991   8.541   1.168   0.678 -0.1358  0.4282 -1.0724
 6677SOL     OW25992   4.051   1.067   8.894  0.3665  0.1176 -0.5799
 6677SOL    HW125993   4.144   1.071   8.914 -0.2630  0.2373  3.1323
 6677SOL    HW225994   4.037   0.979   8.860  1.6552 -0.3895  0.1352
 6678SOL     OW25995   4.112   1.121   6.823  0.3549  0.1003  0.0805
 6678SOL    HW125996   4.111   1.110   6.918  0.5748  1.3023  0.2310
 6678SOL    HW225997   4.023   1.150   6.801  0.8891  1.8789  0.1901
 6679SOL     OW25998   5.518   3.076   1.487 -0.1330 -0.1440 -0.2287
 6679SOL    HW125999   5.609   3.058   1.463 -0.1363 -0.0944 -0.2785
 6679SOL    HW226000   5.470   3.071   1.404 -0.6826 -3.1692  0.1319
 6680SOL     OW26001   8.923   1.507   9.254 -0.3629 -0.0596 -0.5498
 6680SOL    HW126002   9.007   1.504   9.299 -0.4276 -0.9376 -0.4803
 6680SOL    HW226003   8.903   1.416   9.232 -1.2271  0.1507 -0.6961
 6681SOL     OW26004   6.720   8.859   0.464  0.1666  0.0119 -0.2750
 6681SOL    HW126005   6.711   8.767   0.437  1.7315 -0.0625 -0.6407
 6681SOL    HW226006   6.658   8.906   0.408 -0.1634 -0.7362 -0.5590
 6682SOL     OW26007   7.028   4.086   1.670  0.5472  0.3339  0.1963
 6682SOL    HW126008   7.003   4.130   1.751  1.7267 -0.4106  1.0021
 6682SOL    HW226009   7.073   4.152   1.619  1.7414  0.2554  1.1182
 6683SOL     OW26010   8.254   7.385   7.189 -0.1601  0.0584  0.4342
 6683SOL    HW126011   8.167   7.390   7.149 -0.3026 -0.7116  0.6347
 6683SOL    HW226012   8.272   7.291   7.194  1.4692  0.2277 -1.2750
 6684SOL     OW26013   6.332   5.537   7.343  0.0294  0.2555  0.0571
 6684SOL    HW126014   6.242   5.572   7.345  0.0388  0.2577  0.4801
 6684SOL    HW226015   6.387   5.614   7.329  0.0821  0.4929  1.4104
 6685SOL     OW26016   8.511   2.493   3.557  0.1469  0.0942  0.3099
 6685SOL    HW126017   8.542   2.563   3.499 -2.1714  0.9439 -0.0133
 6685SOL    HW226018   8.548   2.413   3.519  0.1923  0.8107 -1.2560
 6686SOL     OW26019   2.033   8.310   1.498  0.1594  0.3011  0.0700
 6686SOL    HW126020   1.965   8.372   1.523  0.7492  0.6477  0.8775
 6686SOL    HW226021   2.109   8.364   1.477  0.5444 -0.1224  0.3310
 6687SOL     OW26022   7.556   8.188   2.815 -0.5118 -0.8241 -0.2380
 6687SOL    HW126023   7.642   8.206   2.777 -0.5434 -0.2773 -0.0595
 6687SOL    HW226024   7.503   8.158   2.742 -0.5395  0.1061 -0.6188
 6688SOL     OW26025   5.044   1.188   4.773 -0.1965  0.4258 -0.3910
 6688SOL    HW126026   5.120   1.148   4.731 -0.7143 -0.5506 -0.4559
 6688SOL    HW226027   4.994   1.226   4.701 -1.3114 -1.6333 -0.8122
 6689SOL     OW26028   1.434   2.954   5.781  0.0911  0.1437  0.6493
 6689SOL    HW126029   1.352   2.907   5.793 -0.9165  1.7258  0.3560
 6689SOL    HW226030   1.436   2.974   5.687  0.9829 -0.1635  0.5977
 6690SOL     OW26031   1.314   5.624   1.862 -0.0532 -0.5799  0.0348
 6690SOL    HW126032   1.310   5.627   1.766  0.9600 -0.3373 -0.0089
 6690SOL    HW226033   1.249   5.558   1.886 -1.0695  0.0920 -0.7582
 6691SOL     OW26034   6.374   0.929   6.364 -0.4115 -0.2644  0.1006
 6691SOL    HW126035   6.441   0.996   6.378  1.4174 -2.3028  2.1274
 6691SOL    HW226036   6.312   0.943   6.435 -0.2333 -0.4601  0.2977
 6692SOL     OW26037   6.309   6.406   7.530 -0.7573 -0.2007 -0.2612
 6692SOL    HW126038   6.372   6.433   7.463 -0.5022 -0.3757 -0.0933
 6692SOL    HW226039   6.262   6.332   7.490  0.8167 -1.6827  0.5149
 6693SOL     OW26040   0.802   4.785   6.219  0.4195  0.0918 -0.2613
 6693SOL    HW126041   0.881   4.832   6.192 -0.7960  2.4157 -0.0435
 6693SOL    HW226042   0.739   4.854   6.240 -0.3633 -1.5373  3.7723
 6694SOL     OW26043   5.918   1.429   8.475 -0.1945  0.0564 -0.5833
 6694SOL    HW126044   5.959   1.351   8.437 -2.3809 -0.8594 -1.2610
 6694SOL    HW226045   5.961   1.502   8.432  0.8827 -0.8263 -1.0515
 6695SOL     OW26046   7.023   9.345   3.377 -0.3253 -0.2645 -0.5306
 6695SOL    HW126047   7.012   9.431   3.337  0.9896  0.1859 -0.0003
 6695SOL    HW226048   7.080   9.361   3.453 -1.3178 -1.3545  0.5040
 6696SOL     OW26049   1.144   2.295   0.410 -0.5361  0.0580 -0.8073
 6696SOL    HW126050   1.051   2.304   0.432 -0.5931  2.8570 -1.7816
 6696SOL    HW226051   1.170   2.382   0.379  2.5803 -0.4649 -0.0207
 6697SOL     OW26052   3.238   3.807   7.156 -0.1091 -0.8377 -0.0075
 6697SOL    HW126053   3.311   3.789   7.214 -0.5236 -0.5759  0.6044
 6697SOL    HW226054   3.195   3.722   7.144  1.0075 -1.2486 -1.3848
 6698SOL     OW26055   6.324   2.043   1.722 -0.4482 -0.0152  0.7809
 6698SOL    HW126056   6.287   2.044   1.634  2.0413  0.1663 -0.3583
 6698SOL    HW226057   6.348   1.951   1.736  0.1920  0.1535  0.7942
 6699SOL     OW26058   0.740   8.768   1.033  0.3225 -0.2454  0.2160
 6699SOL    HW126059   0.816   8.780   1.091 -1.9845  0.8813  3.2834
 6699SOL    HW226060   0.733   8.851   0.986  0.7786 -0.2205  0.1873
 6700SOL     OW26061   8.360   6.782   0.569 -0.3002  0.2156  0.1973
 6700SOL    HW126062   8.340   6.716   0.635  0.4193  1.1897  1.4458
 6700SOL    HW226063   8.444   6.755   0.532 -0.6502 -0.2748 -0.2330
 6701SOL     OW26064   5.461   4.832   1.893 -0.0727 -0.3692  0.4189
 6701SOL    HW126065   5.526   4.769   1.861 -0.3880 -0.6089  0.2539
 6701SOL    HW226066   5.455   4.815   1.986 -1.1391 -1.4843  0.1584
 6702SOL     OW26067   5.470   1.752   3.809 -0.0086 -0.0718  0.4891
 6702SOL    HW126068   5.466   1.796   3.894  0.0351 -0.5601  0.7473
 6702SOL    HW226069   5.412   1.676   3.818 -1.7450  1.0391 -0.6291
 6703SOL     OW26070   6.639   1.204   5.146 -0.2384  0.2981 -0.3099
 6703SOL    HW126071   6.728   1.194   5.182 -0.0682 -1.0058 -1.0305
 6703SOL    HW226072   6.641   1.155   5.064 -1.2041  1.5443 -1.1103
 6704SOL     OW26073   2.382   5.287   4.598  0.7848 -0.5243  0.1282
 6704SOL    HW126074   2.333   5.225   4.652 -2.6509  0.2625 -1.7995
 6704SOL    HW226075   2.399   5.361   4.656  0.7496 -1.3188  1.1741
 6705SOL     OW26076   2.911   8.644   9.325  0.7111  0.0424 -0.0189
 6705SOL    HW126077   2.979   8.699   9.286  0.4058  0.3988 -0.0568
 6705SOL    HW226078   2.870   8.699   9.391 -0.3277  0.2569 -0.8010
 6706SOL     OW26079   9.185   3.034   1.042 -0.6957 -0.2672 -0.2279
 6706SOL    HW126080   9.280   3.049   1.043 -0.9671  1.6888  0.4408
 6706SOL    HW226081   9.156   3.058   1.130 -1.6892 -1.9142 -0.0794
 6707SOL     OW26082   8.047   3.478   3.827 -0.0870  0.5015 -0.0715
 6707SOL    HW126083   8.014   3.496   3.916 -1.3271  0.0175 -0.4117
 6707SOL    HW226084   8.014   3.551   3.775  1.2852  1.1918 -0.0095
 6708SOL     OW26085   1.124   7.952   2.260  0.5849 -0.0057  0.7616
 6708SOL    HW126086   1.062   8.020   2.288 -0.2748 -0.4026 -0.1198
 6708SOL    HW226087   1.120   7.955   2.164  1.0774 -0.8182  0.7114
 6709SOL     OW26088   6.688   7.879   1.364  0.2420 -0.0356  0.5622
 6709SOL    HW126089   6.616   7.881   1.301  0.1923  0.3106  0.6258
 6709SOL    HW226090   6.691   7.968   1.400  1.4506  0.3024 -0.2916
 6710SOL     OW26091   4.270   6.221   7.385 -0.2532  0.6907  0.4361
 6710SOL    HW126092   4.251   6.314   7.383 -1.0135  0.5426  0.4716
 6710SOL    HW226093   4.226   6.186   7.306  0.4813  0.4492  0.1260
 6711SOL     OW26094   0.447   0.644   6.606 -0.7298 -0.4589  0.0311
 6711SOL    HW126095   0.485   0.731   6.612 -2.1550  0.0973  1.8010
 6711SOL    HW226096   0.451   0.623   6.512  2.2451  0.2318 -0.0877
 6712SOL     OW26097   3.429   3.019   6.913 -0.4993 -0.4700  0.3698
 6712SOL    HW126098   3.523   3.021   6.894 -0.9453  0.1151 -2.1800
 6712SOL    HW226099   3.420   3.062   6.998  1.4155  0.7281  0.0182
 6713SOL     OW26100   5.755   8.237   8.528  0.2994 -0.1117 -0.4205
 6713SOL    HW126101   5.682   8.262   8.471 -0.2293  1.1248  0.7249
 6713SOL    HW226102   5.746   8.143   8.538 -1.5300  0.0781  0.1396
 6714SOL     OW26103   4.427   4.913   7.425  0.1700 -0.1843 -0.3675
 6714SOL    HW126104   4.340   4.935   7.392  0.1760 -1.2152 -1.1298
 6714SOL    HW226105   4.469   4.866   7.352  2.0079  1.7902 -0.6751
 6715SOL     OW26106   8.456   0.370   1.364 -0.8287 -0.0482  0.5285
 6715SOL    HW126107   8.506   0.450   1.375 -0.3581 -0.1443 -0.7161
 6715SOL    HW226108   8.396   0.389   1.291  1.1601 -1.6438 -1.6788
 6716SOL     OW26109   1.640   6.799   2.152  0.0284  0.1837  0.0364
 6716SOL    HW126110   1.656   6.849   2.232  1.9796 -0.9888  0.4449
 6716SOL    HW226111   1.548   6.817   2.130  0.1586  2.4842  1.1328
 6717SOL     OW26112   1.327   3.271   4.350  0.5387  0.2153  0.8093
 6717SOL    HW126113   1.388   3.339   4.380  1.0146  0.4042 -0.5272
 6717SOL    HW226114   1.306   3.295   4.260  0.6124 -1.3253  0.3412
 6718SOL     OW26115   3.874   8.000   6.325 -0.3765 -0.1410 -0.7126
 6718SOL    HW126116   3.784   8.028   6.309 -0.4383 -0.7344 -1.4783
 6718SOL    HW226117   3.870   7.904   6.320  0.1547 -0.2097  0.0483
 6719SOL     OW26118   1.951   5.365   1.407 -0.2812  0.6852 -0.1571
 6719SOL    HW126119   1.913   5.278   1.420  2.1635 -0.6376 -1.0667
 6719SOL    HW226120   1.931   5.388   1.317 -0.7657  0.9880  0.0257
 6720SOL     OW26121   1.404   3.990   8.652  0.3577 -0.2396 -0.3603
 6720SOL    HW126122   1.464   3.916   8.656 -0.6541 -1.0742 -0.0663
 6720SOL    HW226123   1.373   4.002   8.742  0.8807  0.8774 -0.3079
 6721SOL     OW26124   5.752   9.219   1.159 -0.3559 -0.7327  0.4178
 6721SOL    HW126125   5.688   9.260   1.100 -1.7609 -0.2533  2.1738
 6721SOL    HW226126   5.701   9.194   1.236  0.8329 -3.9503  0.3359
 6722SOL     OW26127   1.238   7.363   1.319 -0.2880 -0.3228  0.3125
 6722SOL    HW126128   1.220   7.333   1.230  0.0539  1.4807 -0.4039
 6722SOL    HW226129   1.324   7.403   1.315 -0.5493  0.3847  1.3020
 6723SOL     OW26130   1.967   3.001   4.197 -0.5691 -0.0667  0.8377
 6723SOL    HW126131   1.949   3.085   4.155 -0.0447 -1.6887 -3.1563
 6723SOL    HW226132   2.061   2.987   4.184 -1.1468 -2.5706 -1.7356
 6724SOL     OW26133   4.468   7.345   3.812 -0.5121  0.3209  0.0169
 6724SOL    HW126134   4.558   7.366   3.785 -0.5943  2.4816  1.2116
 6724SOL    HW226135   4.428   7.308   3.733  1.5051 -1.1209 -0.4248
 6725SOL     OW26136   2.666   6.105   0.010  0.5457 -0.0615 -0.7008
 6725SOL    HW126137   2.633   6.017   0.024 -2.4810  1.3493  2.5434
 6725SOL    HW226138   2.747   6.109   0.062 -0.5631 -0.3422  1.1333
 6726SOL     OW26139   4.822   3.936   9.286  0.5162  0.2003  0.1518
 6726SOL    HW126140   4.876   4.014   9.298  1.6685 -0.2405 -1.7374
 6726SOL    HW226141   4.882   3.870   9.251 -0.9395 -0.7482 -0.6847
 6727SOL     OW26142   7.036   1.285   8.433 -0.3764  0.1475 -0.6852
 6727SOL    HW126143   7.103   1.255   8.372  1.8475 -0.7733  2.0030
 6727SOL    HW226144   6.995   1.206   8.466 -0.4963  0.5229  0.1004
 6728SOL     OW26145   7.869   4.790   4.389 -0.3752 -0.1324  0.0456
 6728SOL    HW126146   7.819   4.727   4.442  1.1466 -1.5078 -0.1014
 6728SOL    HW226147   7.837   4.777   4.300  0.6440 -1.4415 -0.1431
 6729SOL     OW26148   8.070   0.452   1.514  0.0339  0.1933 -0.3626
 6729SOL    HW126149   8.138   0.512   1.545  0.4928 -0.4317 -0.1485
 6729SOL    HW226150   8.118   0.381   1.471 -0.4929 -0.1661 -0.3682
 6730SOL     OW26151   7.287   6.686   4.061 -0.0335 -0.2933  0.4736
 6730SOL    HW126152   7.285   6.780   4.081  1.3245 -0.1035 -0.1949
 6730SOL    HW226153   7.380   6.663   4.062 -0.2132 -1.2217 -1.1802
 6731SOL     OW26154   1.001   8.420   9.334 -0.0851  0.1121  0.7003
 6731SOL    HW126155   1.068   8.359   9.303 -0.2421  0.6726 -0.8419
 6731SOL    HW226156   1.039   8.507   9.318 -1.6709  0.4809 -1.5542
 6732SOL     OW26157   8.523   0.792   1.169 -0.0438  0.4097  0.2148
 6732SOL    HW126158   8.616   0.772   1.164  0.1215  1.3161 -0.7099
 6732SOL    HW226159   8.501   0.780   1.262  0.8533 -0.3483  0.3437
 6733SOL     OW26160   6.066   7.525   2.170  0.0179  0.5029 -0.2465
 6733SOL    HW126161   6.148   7.481   2.191 -0.3484 -0.3939 -0.6275
 6733SOL    HW226162   6.083   7.617   2.185  0.2740  0.0914  2.3240
 6734SOL     OW26163   6.266   7.718   4.171  0.1316  0.0941 -0.2358
 6734SOL    HW126164   6.326   7.666   4.119  1.7351  0.7119  0.9179
 6734SOL    HW226165   6.191   7.660   4.186  0.8774 -1.0605 -0.8475
 6735SOL     OW26166   5.786   3.014   1.377 -0.0487 -0.2958  0.3495
 6735SOL    HW126167   5.878   3.007   1.354 -0.0114 -0.0165  0.4131
 6735SOL    HW226168   5.748   3.068   1.308 -0.6418 -2.3172 -0.9897
 6736SOL     OW26169   2.512   0.908   8.608  0.2447  0.1859  0.2196
 6736SOL    HW126170   2.516   0.851   8.685 -0.6531  0.3160  0.3744
 6736SOL    HW226171   2.589   0.964   8.616 -0.1739  0.6279  1.3817
 6737SOL     OW26172   8.776   1.610   7.770  0.6428 -0.1046 -0.3790
 6737SOL    HW126173   8.831   1.553   7.823  0.4087  0.9761  1.1092
 6737SOL    HW226174   8.705   1.554   7.739  0.8045 -0.7735  0.4341
 6738SOL     OW26175   8.318   0.441   4.713 -0.1412  0.3532 -0.6615
 6738SOL    HW126176   8.255   0.433   4.785  0.2418 -0.7392 -0.4331
 6738SOL    HW226177   8.269   0.412   4.636 -0.2464  0.5591 -0.6731
 6739SOL     OW26178   5.473   6.181   1.935 -0.3264 -0.5878  0.2949
 6739SOL    HW126179   5.528   6.240   1.883  0.0811 -1.1152  0.1188
 6739SOL    HW226180   5.490   6.206   2.025 -3.0556  2.1820  0.2258
 6740SOL     OW26181   9.016   1.647   6.280 -0.6011  0.2400 -0.4157
 6740SOL    HW126182   9.037   1.665   6.189  1.4606 -0.1910 -0.0819
 6740SOL    HW226183   9.098   1.616   6.318 -1.9817 -2.0367  0.9709
 6741SOL     OW26184   4.732   4.990   7.337  0.5298 -0.3939  0.2709
 6741SOL    HW126185   4.670   5.054   7.374  1.3315 -0.7677  2.3731
 6741SOL    HW226186   4.792   5.043   7.285 -1.0862  0.0614 -1.2218
 6742SOL     OW26187   3.176   4.323   8.300  0.3074  0.1913  0.4486
 6742SOL    HW126188   3.249   4.375   8.267  0.5016  0.2281  0.9271
 6742SOL    HW226189   3.202   4.232   8.284 -0.9383  0.2452 -2.3135
 6743SOL     OW26190   8.454   6.850   2.125  0.3670 -0.5552  0.0028
 6743SOL    HW126191   8.425   6.931   2.083 -0.2933 -1.4903 -1.4149
 6743SOL    HW226192   8.504   6.805   2.057  0.7465 -1.3342  0.7859
 6744SOL     OW26193   2.079   6.629   2.548  0.5807  0.3522 -0.0475
 6744SOL    HW126194   2.042   6.542   2.562  0.9083  0.4587  1.7460
 6744SOL    HW226195   2.173   6.617   2.561  0.7900  0.7519 -1.0792
 6745SOL     OW26196   6.870   1.214   8.667  0.0229  0.4832  0.5566
 6745SOL    HW126197   6.780   1.245   8.672 -0.0741  0.3821 -0.3363
 6745SOL    HW226198   6.920   1.277   8.717 -0.3301  1.4536 -0.2809
 6746SOL     OW26199   4.592   5.830   0.023  0.0153 -0.1161 -0.2468
 6746SOL    HW126200   4.555   5.742   0.022 -1.1989  0.3590 -1.7988
 6746SOL    HW226201   4.656   5.830  -0.049 -0.2906  0.3664 -0.5274
 6747SOL     OW26202   8.511   4.595   6.338 -0.2883  0.1388  0.2401
 6747SOL    HW126203   8.445   4.661   6.357 -0.3881  0.1361 -0.0989
 6747SOL    HW226204   8.466   4.529   6.286  0.6530  1.5805 -2.5988
 6748SOL     OW26205   1.587   5.349   6.519  0.4647  0.1247  0.8400
 6748SOL    HW126206   1.571   5.299   6.439 -0.3189  0.9739  0.4388
 6748SOL    HW226207   1.658   5.409   6.496  1.1563 -0.5410  1.2082
 6749SOL     OW26208   4.413   7.927   4.367 -0.0263  0.2756  0.4101
 6749SOL    HW126209   4.417   7.902   4.459  2.4083 -0.8775  0.0710
 6749SOL    HW226210   4.383   7.849   4.322  0.0945  0.4116  0.0886
 6750SOL     OW26211   9.173   4.465   3.513  0.3170  0.6907 -0.0886
 6750SOL    HW126212   9.145   4.556   3.525  1.0466  1.1313 -1.4778
 6750SOL    HW226213   9.091   4.417   3.498 -0.0368  1.1946  0.1933
 6751SOL     OW26214   2.953   9.065   3.761  0.0038 -0.0934  0.2455
 6751SOL    HW126215   2.926   9.152   3.730 -0.9020 -0.2072  0.6876
 6751SOL    HW226216   2.880   9.007   3.738  0.4877 -0.6895  0.1931
 6752SOL     OW26217   2.951   8.710   6.339 -0.8964 -0.2109 -0.6488
 6752SOL    HW126218   3.033   8.683   6.380 -0.7206 -1.0788 -1.5499
 6752SOL    HW226219   2.973   8.723   6.247 -1.8946 -1.1194 -1.0374
 6753SOL     OW26220   8.455   3.423   3.708 -0.1613  0.4219  0.3208
 6753SOL    HW126221   8.498   3.504   3.735 -0.7524  0.6897  0.4912
 6753SOL    HW226222   8.501   3.396   3.629  0.2599  0.7397  0.4549
 6754SOL     OW26223   9.270   0.476   2.201  0.0448  0.4578 -0.5899
 6754SOL    HW126224   9.265   0.381   2.210 -1.7542  0.4498 -1.2053
 6754SOL    HW226225   9.338   0.490   2.135  0.9898 -0.3401  0.1997
 6755SOL     OW26226   2.643   7.073   0.494  0.1196 -0.2283  0.6385
 6755SOL    HW126227   2.669   7.041   0.580 -0.1512  0.5768  1.0293
 6755SOL    HW226228   2.548   7.062   0.492 -0.1367  1.5502  1.2296
 6756SOL     OW26229   6.076   4.961   0.170 -0.0321 -0.0966  0.0526
 6756SOL    HW126230   6.044   4.996   0.253 -0.1935 -1.5374  0.6393
 6756SOL    HW226231   5.996   4.937   0.122  0.0708 -1.9247  0.7182
 6757SOL     OW26232   4.124   0.002   2.446  0.2802  0.2495  0.1046
 6757SOL    HW126233   4.159   0.042   2.367 -2.5823 -0.2245 -1.5444
 6757SOL    HW226234   4.162  -0.086   2.447  0.8063  0.4668 -0.3915
 6758SOL     OW26235   7.848   6.643   1.300  0.3784 -0.2675  0.2662
 6758SOL    HW126236   7.923   6.623   1.357 -0.4334  0.1852  1.5535
 6758SOL    HW226237   7.816   6.727   1.333 -1.2449 -0.8922  0.3362
 6759SOL     OW26238   2.403   3.996   0.769 -0.3024 -0.5428  0.1987
 6759SOL    HW126239   2.427   3.968   0.681 -1.4256 -1.4912  0.1594
 6759SOL    HW226240   2.307   4.003   0.767 -0.2145  1.5137  0.7641
 6760SOL     OW26241   4.395   6.638   0.086 -0.5605 -0.2032 -0.2057
 6760SOL    HW126242   4.450   6.592   0.150 -0.5309 -2.1403 -1.5590
 6760SOL    HW226243   4.371   6.720   0.130  2.4938  0.2464  0.8731
 6761SOL     OW26244   2.055   6.053   0.419  0.0805  0.6391  0.8173
 6761SOL    HW126245   2.116   6.126   0.425  2.5242 -0.9419 -2.1395
 6761SOL    HW226246   1.983   6.085   0.365  0.3338  1.2972  0.8676
 6762SOL     OW26247   2.163   8.952   7.741  0.0484 -0.5293 -0.0256
 6762SOL    HW126248   2.093   9.007   7.775 -0.2985 -1.1608  0.2916
 6762SOL    HW226249   2.240   9.009   7.741 -0.0070 -0.4136  1.5141
 6763SOL     OW26250   7.400   2.021   0.416  0.0942  0.1554 -0.5635
 6763SOL    HW126251   7.436   2.075   0.488  0.4161 -0.8544  0.0492
 6763SOL    HW226252   7.441   2.057   0.337  0.8497  0.3745 -0.0883
 6764SOL     OW26253   3.355   0.774   9.307  0.1147 -0.3204  0.2598
 6764SOL    HW126254   3.325   0.855   9.348 -0.4367 -0.3083 -0.1443
 6764SOL    HW226255   3.442   0.794   9.274  0.9521 -0.5958  2.1777
 6765SOL     OW26256   6.117   7.284   5.572  0.2284  0.3515  0.6303
 6765SOL    HW126257   6.170   7.343   5.518 -2.3855  0.6617 -1.8494
 6765SOL    HW226258   6.162   7.200   5.567  1.0841  0.8543 -0.4288
 6766SOL     OW26259   4.763   2.040   0.294  0.0141 -0.1762  0.2390
 6766SOL    HW126260   4.817   1.961   0.303  0.6814  0.1002 -1.1144
 6766SOL    HW226261   4.699   2.033   0.365  0.2773 -1.7602  0.3601
 6767SOL     OW26262   2.950   7.096   7.325 -0.0649  0.2111 -0.3874
 6767SOL    HW126263   2.870   7.045   7.326  0.1023 -0.1033 -1.5642
 6767SOL    HW226264   2.973   7.107   7.418  1.0898 -3.7354 -0.0117
 6768SOL     OW26265   3.431   2.102   5.373  0.1421  0.0575 -0.1062
 6768SOL    HW126266   3.400   2.138   5.456 -0.5095  0.9197 -0.7063
 6768SOL    HW226267   3.497   2.037   5.398  0.5190  0.8568  1.0553
 6769SOL     OW26268   1.561   4.335   7.132 -0.3618  0.5279 -0.1184
 6769SOL    HW126269   1.487   4.394   7.124 -2.3795 -1.6879  0.8689
 6769SOL    HW226270   1.560   4.306   7.223  0.4575 -1.0976 -0.5772
 6770SOL     OW26271   2.707   3.191   5.936 -0.6254 -0.3081 -0.7757
 6770SOL    HW126272   2.731   3.277   5.971  1.8847 -0.0280 -2.8504
 6770SOL    HW226273   2.620   3.173   5.972 -1.6808  3.5255 -1.0435
 6771SOL     OW26274   5.078   6.177   1.067  0.3048 -0.1781 -0.1791
 6771SOL    HW126275   5.158   6.188   1.016  1.0537  0.5700  1.1231
 6771SOL    HW226276   5.074   6.083   1.086  0.9523 -0.1875 -0.0978
 6772SOL     OW26277   7.817   6.552   5.677  0.0918  0.3773 -0.3081
 6772SOL    HW126278   7.785   6.641   5.666  0.9613  0.5554 -1.5566
 6772SOL    HW226279   7.768   6.518   5.753 -1.7655  1.1891 -1.0824
 6773SOL     OW26280   6.847   8.807   4.326  0.1478  0.8230 -0.1448
 6773SOL    HW126281   6.905   8.807   4.403  1.2641  0.8718 -0.9595
 6773SOL    HW226282   6.760   8.790   4.362  0.6644  0.6990  1.1154
 6774SOL     OW26283   7.136   6.007   2.415  0.3683  0.2795  0.1354
 6774SOL    HW126284   7.087   6.050   2.485  1.2048 -0.6850  1.3344
 6774SOL    HW226285   7.103   5.917   2.414  0.2652  0.3088 -0.8276
 6775SOL     OW26286   6.132   8.100   0.907  0.3931  0.5837  0.1165
 6775SOL    HW126287   6.148   8.034   0.974  0.3490  0.1805 -0.2658
 6775SOL    HW226288   6.198   8.081   0.839 -0.7572 -0.2017 -0.8204
 6776SOL     OW26289   8.784   5.580   0.241 -0.1194 -0.2889  0.2971
 6776SOL    HW126290   8.869   5.608   0.273 -0.7339  1.5671  0.4788
 6776SOL    HW226291   8.771   5.493   0.278  1.7014 -0.6256  0.2087
 6777SOL     OW26292   5.574   6.256   4.134 -0.1573 -0.0734 -0.2566
 6777SOL    HW126293   5.654   6.304   4.154 -0.1860  0.6741 -1.8145
 6777SOL    HW226294   5.515   6.278   4.206  1.4889 -1.9140  1.8178
 6778SOL     OW26295   3.350   6.775   6.357  0.0119 -0.1120  0.1389
 6778SOL    HW126296   3.363   6.775   6.262 -0.9024 -1.6221 -0.0155
 6778SOL    HW226297   3.334   6.866   6.379  2.4378  0.6200 -0.8221
 6779SOL     OW26298   0.893   1.780   1.633 -0.5760 -0.3083  0.1130
 6779SOL    HW126299   0.964   1.745   1.687  0.1914 -1.3839 -1.5377
 6779SOL    HW226300   0.817   1.726   1.655 -0.5075 -0.1494  0.7604
 6780SOL     OW26301   6.448   6.448   3.015  0.0528  0.2083  0.3714
 6780SOL    HW126302   6.355   6.471   3.014 -0.5916 -2.1364  0.5251
 6780SOL    HW226303   6.449   6.354   2.997  2.3827  0.1175  0.7525
 6781SOL     OW26304   2.650   6.570   4.533 -0.3526  0.5543 -0.7817
 6781SOL    HW126305   2.582   6.503   4.539 -0.1080  0.3635 -0.0558
 6781SOL    HW226306   2.691   6.571   4.620  0.7651  0.4702 -1.2898
 6782SOL     OW26307   4.189   1.937   9.343 -0.0018 -0.8784  0.1353
 6782SOL    HW126308   4.140   1.869   9.298  1.3234 -1.3253 -0.6963
 6782SOL    HW226309   4.278   1.928   9.310  0.3719  0.7574  0.5953
 6783SOL     OW26310   2.812   2.181   1.190 -0.0438 -0.3169  1.0319
 6783SOL    HW126311   2.716   2.192   1.189 -0.2000 -1.5572  1.2901
 6783SOL    HW226312   2.827   2.109   1.251  0.8314 -2.0820 -1.1353
 6784SOL     OW26313   8.399   8.500   3.255 -0.3925  0.1129 -0.0393
 6784SOL    HW126314   8.376   8.588   3.285  0.0353  0.3881 -0.5022
 6784SOL    HW226315   8.389   8.505   3.160 -0.5248 -0.3877 -0.0507
 6785SOL     OW26316   6.638   3.052   8.963 -0.0882 -0.0338  0.1235
 6785SOL    HW126317   6.650   3.137   8.919  0.7691 -0.6706 -0.9114
 6785SOL    HW226318   6.682   2.989   8.906 -1.2034 -1.2759  0.5894
 6786SOL     OW26319   1.895   2.057   4.891 -0.2599 -0.4746  0.0801
 6786SOL    HW126320   1.955   2.121   4.929  2.0748 -1.6209 -1.4492
 6786SOL    HW226321   1.858   2.101   4.814  0.0217 -0.3787 -0.0010
 6787SOL     OW26322   7.319   5.737   2.059  0.0701 -0.0410  0.0056
 6787SOL    HW126323   7.328   5.720   2.153  1.7395 -1.1032 -0.3034
 6787SOL    HW226324   7.396   5.697   2.020  0.9300  2.8090 -1.5284
 6788SOL     OW26325   4.762   5.809   8.466  0.5698  0.0839 -0.6804
 6788SOL    HW126326   4.670   5.780   8.464  0.0752  1.2222  1.6323
 6788SOL    HW226327   4.782   5.817   8.559  2.0610  2.7261 -1.1300
 6789SOL     OW26328   0.094   3.021   8.459 -0.0344 -0.0805 -0.0797
 6789SOL    HW126329   0.017   2.966   8.475 -1.7023  1.7626 -1.2811
 6789SOL    HW226330   0.133   2.984   8.380 -0.5357 -0.1637 -0.2930
 6790SOL     OW26331   8.038   0.826   4.762  0.5393 -0.5050  0.3889
 6790SOL    HW126332   7.946   0.839   4.784  1.2263  2.2151  2.2242
 6790SOL    HW226333   8.065   0.753   4.817 -0.1951 -0.3850  0.9302
 6791SOL     OW26334   7.476   7.803   3.111 -0.1496 -0.2898  0.9590
 6791SOL    HW126335   7.447   7.713   3.098  1.6209 -0.8585  0.7192
 6791SOL    HW226336   7.502   7.807   3.203  0.2731 -0.1921  0.8389
 6792SOL     OW26337   4.698   5.908   4.482 -0.1679 -0.4739  0.4551
 6792SOL    HW126338   4.738   5.921   4.396 -1.5939 -2.9520 -0.7015
 6792SOL    HW226339   4.668   5.995   4.509  1.2946  0.5419 -1.0003
 6793SOL     OW26340   6.394   5.025   4.316 -0.0113 -0.0589 -0.3192
 6793SOL    HW126341   6.339   4.948   4.322 -1.0401  0.6471 -0.4339
 6793SOL    HW226342   6.410   5.051   4.407  2.5699 -1.9043 -0.1480
 6794SOL     OW26343   9.124   9.256   4.862 -0.5166 -0.0409 -0.2377
 6794SOL    HW126344   9.082   9.176   4.894 -0.4411 -0.2452 -0.6489
 6794SOL    HW226345   9.166   9.230   4.780  0.8580  0.0273  0.4141
 6795SOL     OW26346   3.171   7.006   3.211  0.7686 -0.0255 -0.2040
 6795SOL    HW126347   3.172   6.920   3.169  1.5390  1.2081 -2.9310
 6795SOL    HW226348   3.100   7.053   3.168  0.5318  0.8340  1.0587
 6796SOL     OW26349   9.016   1.016   7.536 -0.1716 -0.5474 -0.2186
 6796SOL    HW126350   8.985   1.003   7.446 -0.2207 -2.7741  0.0544
 6796SOL    HW226351   8.966   1.091   7.568  0.0261  0.4513 -2.1168
 6797SOL     OW26352   0.089   4.159   3.547 -0.0560 -0.5969  0.3831
 6797SOL    HW126353   0.087   4.163   3.642 -2.5704  1.2657  0.3399
 6797SOL    HW226354   0.015   4.103   3.524  0.5223 -1.0248 -0.5142
 6798SOL     OW26355   8.386   6.544   1.311 -0.3313 -0.0747 -0.2426
 6798SOL    HW126356   8.467   6.554   1.360 -1.2136  2.0144  0.9494
 6798SOL    HW226357   8.399   6.599   1.233 -0.1533 -0.7203 -0.6692
 6799SOL     OW26358   4.385   0.701   6.756 -0.8957  0.3652 -0.0451
 6799SOL    HW126359   4.292   0.719   6.746 -1.0849 -0.6149 -0.1481
 6799SOL    HW226360   4.397   0.613   6.720  0.0352  0.4032  0.1362
 6800SOL     OW26361   2.494   8.921   3.202  0.2499 -0.0841 -0.5857
 6800SOL    HW126362   2.574   8.870   3.208  1.2253  1.5164  0.8667
 6800SOL    HW226363   2.518   8.999   3.152  0.8934  2.4489  3.2114
 6801SOL     OW26364   7.322   0.172   6.526  0.4913  0.3151 -0.5271
 6801SOL    HW126365   7.301   0.101   6.466  0.7697  0.4040 -0.7344
 6801SOL    HW226366   7.282   0.250   6.486 -0.7752  0.0939  0.2703
 6802SOL     OW26367   1.772   7.095   8.096 -0.0859 -0.0427 -0.4635
 6802SOL    HW126368   1.710   7.104   8.169 -1.1176  0.2995 -1.3517
 6802SOL    HW226369   1.755   7.172   8.041  0.8579 -0.1599 -0.9398
 6803SOL     OW26370   3.852   1.367   2.974 -0.0754 -0.7123 -0.4254
 6803SOL    HW126371   3.871   1.330   2.888  1.7263 -2.0153  0.4766
 6803SOL    HW226372   3.905   1.446   2.979 -2.4381  1.0520 -1.5924
 6804SOL     OW26373   7.109   6.588   6.202  0.3860  0.6795  0.1662
 6804SOL    HW126374   7.161   6.527   6.255  1.7210  1.6892  0.0623
 6804SOL    HW226375   7.080   6.535   6.128  0.5959 -0.1078  0.6294
 6805SOL     OW26376   0.539   5.157   2.276  0.7692  0.0802 -0.6394
 6805SOL    HW126377   0.473   5.090   2.291  0.1923  0.2462 -2.2783
 6805SOL    HW226378   0.496   5.221   2.219  2.0810  0.5955 -1.0908
 6806SOL     OW26379   5.558   2.690   5.692  0.0923  0.2528  0.6174
 6806SOL    HW126380   5.524   2.733   5.613 -2.0725 -0.1845  1.2518
 6806SOL    HW226381   5.562   2.597   5.668  0.9145  0.3042  0.5399
 6807SOL     OW26382   3.996   3.200   3.362 -0.1510 -0.0726 -0.0010
 6807SOL    HW126383   3.935   3.127   3.369  0.8040 -1.0223 -1.3596
 6807SOL    HW226384   4.053   3.191   3.439  1.0857 -1.8531 -1.0509
 6808SOL     OW26385   3.121   5.224   0.741  0.1571 -0.4761  0.3358
 6808SOL    HW126386   3.066   5.289   0.783  0.5113  0.3293 -0.3974
 6808SOL    HW226387   3.183   5.275   0.689  2.9039 -1.2232  2.6278
 6809SOL     OW26388   0.355   2.522   6.832  0.1116  0.3505 -0.4602
 6809SOL    HW126389   0.302   2.476   6.897  0.0386  2.2106  0.8758
 6809SOL    HW226390   0.294   2.542   6.762 -0.8917  1.9283  0.7911
 6810SOL     OW26391   2.361   4.000   7.850  0.1801 -0.5868  0.1797
 6810SOL    HW126392   2.451   4.022   7.876  0.6956 -4.1168  2.0280
 6810SOL    HW226393   2.369   3.962   7.763 -0.0589  1.6965 -0.9278
 6811SOL     OW26394   4.570   2.906   8.166  0.1513  0.2469  0.5764
 6811SOL    HW126395   4.583   2.983   8.111 -3.6009 -0.4657 -1.6947
 6811SOL    HW226396   4.617   2.835   8.122 -0.9701  0.1652 -0.5469
 6812SOL     OW26397   0.838   4.675   5.828  0.1291  0.2856  0.4445
 6812SOL    HW126398   0.879   4.729   5.760 -1.9270  1.3079 -0.0641
 6812SOL    HW226399   0.890   4.594   5.829 -0.1571 -0.0736 -2.8556
 6813SOL     OW26400   7.392   0.259   9.015 -0.6072 -0.5119 -0.3008
 6813SOL    HW126401   7.414   0.339   9.063 -1.4228  0.4658 -1.4746
 6813SOL    HW226402   7.472   0.207   9.017 -0.1882  0.1307  0.8661
 6814SOL     OW26403   0.883   4.815   7.407  0.3033 -0.1073  0.2576
 6814SOL    HW126404   0.827   4.770   7.344 -3.1226 -0.3766  3.1990
 6814SOL    HW226405   0.905   4.898   7.365 -0.4792 -0.9205 -1.8696
 6815SOL     OW26406   4.767   0.315   8.330  0.4742  0.3646  0.1988
 6815SOL    HW126407   4.782   0.262   8.408 -0.3427 -1.9843 -1.1308
 6815SOL    HW226408   4.796   0.261   8.258  2.9582  3.1959 -1.1324
 6816SOL     OW26409   2.176   0.669   0.933 -0.2440 -0.1676 -0.4270
 6816SOL    HW126410   2.226   0.741   0.971 -0.3250 -0.3070 -0.0520
 6816SOL    HW226411   2.199   0.670   0.840  1.0850 -0.7274 -0.1339
 6817SOL     OW26412   8.502   3.693   4.802  0.3337 -1.2082  0.4352
 6817SOL    HW126413   8.531   3.753   4.733  0.1830 -0.6152  0.8718
 6817SOL    HW226414   8.410   3.715   4.816 -0.1979 -2.7012 -0.5551
 6818SOL     OW26415   3.789   4.451   9.121 -0.2444 -0.1088  0.2057
 6818SOL    HW126416   3.877   4.430   9.152 -0.0673  1.1543  0.6142
 6818SOL    HW226417   3.743   4.483   9.199 -0.3187  1.4765 -0.4373
 6819SOL     OW26418   7.392   5.309   6.413 -0.1324 -0.0911 -0.3500
 6819SOL    HW126419   7.466   5.328   6.355  0.8334  0.2185  0.9388
 6819SOL    HW226420   7.342   5.391   6.415  0.7843  0.4646  0.5806
 6820SOL     OW26421   8.092   1.296   5.915 -0.2337  0.3491  0.1011
 6820SOL    HW126422   8.063   1.379   5.955 -0.3533  0.6139 -0.5279
 6820SOL    HW226423   8.063   1.229   5.977 -1.4129  0.6755 -0.0708
 6821SOL     OW26424   8.916   6.050   7.841  0.5767 -0.1882  0.5470
 6821SOL    HW126425   8.977   5.978   7.828  0.5341 -0.2452  0.6642
 6821SOL    HW226426   8.830   6.011   7.830  0.3952 -0.8309  3.6105
 6822SOL     OW26427   8.419   3.229   2.050 -0.2137 -0.0979  0.7801
 6822SOL    HW126428   8.408   3.144   2.092  0.2800 -0.2737  0.5654
 6822SOL    HW226429   8.406   3.213   1.957  0.6582 -0.1011  0.6485
 6823SOL     OW26430   1.614   6.412   5.082 -0.6944  0.0769 -0.3377
 6823SOL    HW126431   1.641   6.351   5.014  0.9917  2.7472 -2.2911
 6823SOL    HW226432   1.684   6.406   5.148 -1.9668 -1.9948  0.9244
 6824SOL     OW26433   4.434   6.011   3.671 -0.0790 -0.6062 -0.2696
 6824SOL    HW126434   4.391   6.090   3.703 -0.9409 -1.6423  1.3047
 6824SOL    HW226435   4.400   5.941   3.728  1.2667 -1.9783 -1.0758
 6825SOL     OW26436   6.140   0.473   2.473 -0.6250 -0.3593  0.2973
 6825SOL    HW126437   6.084   0.396   2.478 -0.5519 -0.3638  1.4254
 6825SOL    HW226438   6.121   0.522   2.553 -0.7711  0.8771 -0.4627
 6826SOL     OW26439   8.026   7.332   6.778  0.0246  0.3924  0.3480
 6826SOL    HW126440   7.977   7.411   6.801 -1.5487 -0.1029 -1.1090
 6826SOL    HW226441   8.090   7.362   6.713  1.0276  0.8532  1.5048
 6827SOL     OW26442   6.652   2.302   8.234 -0.0844  0.0370 -0.4183
 6827SOL    HW126443   6.724   2.325   8.291 -0.2470 -0.9859  0.2193
 6827SOL    HW226444   6.685   2.317   8.145  0.6773  0.1991 -0.1078
 6828SOL     OW26445   6.224   8.707   1.663 -0.3169 -0.4966  0.1400
 6828SOL    HW126446   6.177   8.692   1.581 -0.3698  2.4194 -0.4625
 6828SOL    HW226447   6.194   8.793   1.692  1.6628 -0.3200  1.8579
 6829SOL     OW26448   5.892   0.436   4.704 -0.1200  0.1887  0.0224
 6829SOL    HW126449   5.889   0.494   4.779  0.6551 -0.2704  0.4261
 6829SOL    HW226450   5.980   0.399   4.706  0.8100  1.9889 -2.5048
 6830SOL     OW26451   2.306   5.578   0.673  0.2176  0.2473 -0.1663
 6830SOL    HW126452   2.354   5.614   0.598 -0.5408  2.9692  0.5694
 6830SOL    HW226453   2.315   5.644   0.742 -1.4652 -0.8839  1.2270
 6831SOL     OW26454   3.290   1.921   0.332 -0.7542  0.5489  0.6892
 6831SOL    HW126455   3.371   1.872   0.346 -0.1727  0.9972 -0.9439
 6831SOL    HW226456   3.319   2.011   0.317 -1.4290  0.5271 -0.9712
 6832SOL     OW26457   2.436   1.241   1.700 -0.4979 -0.4601 -0.2215
 6832SOL    HW126458   2.510   1.268   1.754 -0.8343  2.6843 -1.1446
 6832SOL    HW226459   2.474   1.179   1.638  1.2810  0.5834 -0.2502
 6833SOL     OW26460   7.116   3.533   3.649 -0.0572  0.5453  0.2317
 6833SOL    HW126461   7.087   3.446   3.621  0.3472  0.8558 -1.2847
 6833SOL    HW226462   7.111   3.586   3.569  0.8359  1.6121  0.8534
 6834SOL     OW26463   0.017   6.127   0.624  0.0292 -0.3762 -0.2764
 6834SOL    HW126464  -0.055   6.074   0.658  0.1973 -1.0873 -0.9930
 6834SOL    HW226465  -0.024   6.212   0.603 -0.2094 -0.1578  1.0139
 6835SOL     OW26466   8.131   1.204   2.070 -0.3105  0.4933 -0.5783
 6835SOL    HW126467   8.222   1.184   2.088 -0.1840  0.4097 -1.2703
 6835SOL    HW226468   8.115   1.288   2.115 -0.0518  0.2447 -0.0145
 6836SOL     OW26469   2.618   7.405   0.620 -0.3075 -0.3758  0.9044
 6836SOL    HW126470   2.695   7.462   0.620  0.7639 -1.7667  0.0810
 6836SOL    HW226471   2.626   7.352   0.699 -1.2056  0.4384  1.5712
 6837SOL     OW26472   7.802   8.307   7.288 -0.0636  0.3409 -0.1692
 6837SOL    HW126473   7.848   8.229   7.256  2.0610  1.6766 -0.5395
 6837SOL    HW226474   7.750   8.275   7.362  0.9314 -1.3901 -0.1566
 6838SOL     OW26475   0.801   8.467   2.827 -0.2253 -0.1399 -0.5348
 6838SOL    HW126476   0.844   8.483   2.743 -0.3990 -2.9450 -1.2524
 6838SOL    HW226477   0.711   8.445   2.805 -0.2227 -1.1264  0.3330
 6839SOL     OW26478   8.688   3.128   4.387  0.5156  0.2032 -0.8584
 6839SOL    HW126479   8.660   3.216   4.363 -1.4243 -0.1942 -0.1829
 6839SOL    HW226480   8.631   3.070   4.337 -0.6954 -0.6290  1.3493
 6840SOL     OW26481   4.311   6.496   0.842 -1.0062 -0.6209  0.1660
 6840SOL    HW126482   4.385   6.476   0.784 -0.7044 -1.4246  0.8016
 6840SOL    HW226483   4.341   6.571   0.894 -1.3169  0.1650 -0.7667
 6841SOL     OW26484   2.346   8.526   5.799  0.0770  0.4830 -0.4469
 6841SOL    HW126485   2.287   8.589   5.839 -1.1782 -0.7189 -0.3266
 6841SOL    HW226486   2.382   8.572   5.723 -0.7258  1.3803 -0.3056
 6842SOL     OW26487   4.206   5.021   3.900  0.2076  0.3769 -0.1741
 6842SOL    HW126488   4.298   5.045   3.889  0.2939  0.7539  1.2370
 6842SOL    HW226489   4.186   5.039   3.992 -1.4281  0.8325 -0.5719
 6843SOL     OW26490   8.715   3.034   5.116  0.6343 -0.3435  0.9492
 6843SOL    HW126491   8.707   3.129   5.119 -0.8074 -0.4128 -0.2002
 6843SOL    HW226492   8.659   3.002   5.187  0.0440 -0.3859  0.4644
 6844SOL     OW26493   7.321   3.772   3.762 -0.1546  0.0881  0.2340
 6844SOL    HW126494   7.249   3.821   3.801  0.1059 -0.4115  1.3832
 6844SOL    HW226495   7.300   3.770   3.669 -0.6241  1.5952  0.2764
 6845SOL     OW26496   4.102   8.474   3.632  0.3431  0.4976  0.4960
 6845SOL    HW126497   4.027   8.491   3.575 -0.0795 -0.6587  0.6865
 6845SOL    HW226498   4.115   8.557   3.679  1.7429  2.0368 -2.3710
 6846SOL     OW26499   3.238   5.302   1.345 -0.0451  0.1508  0.0588
 6846SOL    HW126500   3.333   5.305   1.336  0.0344  0.8785  1.0043
 6846SOL    HW226501   3.223   5.280   1.437 -0.8087 -3.4541 -0.7676
 6847SOL     OW26502   3.604   6.643   7.124 -0.2605  0.4269  0.3526
 6847SOL    HW126503   3.650   6.590   7.058  0.2342  1.4402 -0.1325
 6847SOL    HW226504   3.531   6.682   7.077 -1.6675 -1.1530  1.1149
 6848SOL     OW26505   0.235   6.507   4.995 -0.4749  0.3869 -0.1089
 6848SOL    HW126506   0.227   6.600   4.976 -1.4774  0.3314 -0.0565
 6848SOL    HW226507   0.158   6.467   4.953 -0.0650 -0.4154 -0.1283
 6849SOL     OW26508   6.574   7.537   5.801 -0.0873  0.4863  0.0094
 6849SOL    HW126509   6.593   7.575   5.887 -1.7611  1.6653 -0.1039
 6849SOL    HW226510   6.532   7.608   5.752 -2.1288 -1.0995 -0.6638
 6850SOL     OW26511   3.143   7.693   8.534  0.8343 -0.1946 -0.1351
 6850SOL    HW126512   3.081   7.627   8.564  1.4394 -0.7340 -0.0554
 6850SOL    HW226513   3.149   7.755   8.607  0.8662 -0.4756  0.1025
 6851SOL     OW26514   8.491   3.971   5.930  0.5519  0.3096  0.1262
 6851SOL    HW126515   8.460   3.881   5.940  0.6557  0.3203  0.5752
 6851SOL    HW226516   8.586   3.963   5.919  0.4160  0.2858 -1.1017
 6852SOL     OW26517   5.652   5.982   1.966  0.8003 -0.4068 -0.2302
 6852SOL    HW126518   5.583   6.048   1.964 -0.1992 -1.3151  1.5591
 6852SOL    HW226519   5.722   6.023   2.017  0.0854 -0.7676  1.0884
 6853SOL     OW26520   0.293   5.009   0.839 -0.2958  0.2165 -0.1281
 6853SOL    HW126521   0.346   4.930   0.829  0.9755  1.0824 -0.5404
 6853SOL    HW226522   0.257   5.025   0.752 -3.9121 -2.0904  0.7595
 6854SOL     OW26523   2.310   7.520   8.589  0.2261 -0.3034 -0.5493
 6854SOL    HW126524   2.332   7.534   8.497  0.9691  0.9424 -0.1937
 6854SOL    HW226525   2.394   7.528   8.635 -0.2311 -0.3616  0.3007
 6855SOL     OW26526   2.233   1.939   1.449 -0.0164  0.6853  0.6865
 6855SOL    HW126527   2.266   1.926   1.537  1.1190 -0.1148  0.1716
 6855SOL    HW226528   2.141   1.910   1.453  0.1651  0.1944  1.4803
 6856SOL     OW26529   0.121   6.499   6.842  0.1943  0.7439  0.6842
 6856SOL    HW126530   0.166   6.518   6.759  0.6810 -0.6924  0.5707
 6856SOL    HW226531   0.164   6.555   6.906 -0.3976  2.1042 -0.0691
 6857SOL     OW26532   2.253   1.085   2.926 -0.3158 -0.0675 -0.0635
 6857SOL    HW126533   2.255   0.990   2.915  1.3184 -0.3266  1.7769
 6857SOL    HW226534   2.214   1.118   2.845 -2.3367 -2.3555 -0.1275
 6858SOL     OW26535   6.237   1.155   3.912  0.0350  0.4526 -0.5499
 6858SOL    HW126536   6.170   1.146   3.844  0.5382  0.4516 -1.0609
 6858SOL    HW226537   6.241   1.249   3.929 -0.7714  0.3622  0.1889
 6859SOL     OW26538   2.807   7.782   2.892 -0.0963 -0.2176  0.1529
 6859SOL    HW126539   2.774   7.784   2.982  1.0154 -1.9047  0.6531
 6859SOL    HW226540   2.807   7.688   2.870 -0.1101  0.1523 -1.5279
 6860SOL     OW26541   6.291   7.633   0.290  0.1563 -0.1342  0.0112
 6860SOL    HW126542   6.257   7.703   0.346  0.0799 -0.5651  0.5178
 6860SOL    HW226543   6.374   7.666   0.257  0.4287 -0.0420  0.7549
 6861SOL     OW26544   9.064   7.002   9.276  0.5174  0.2847 -0.4832
 6861SOL    HW126545   9.032   7.035   9.192  2.5427  0.1746 -1.3597
 6861SOL    HW226546   9.133   7.064   9.300 -0.5057  0.7336  1.5109
 6862SOL     OW26547   1.117   0.805   8.312  0.5396  0.2392 -0.4103
 6862SOL    HW126548   1.079   0.776   8.395 -0.5609  1.4382 -0.4535
 6862SOL    HW226549   1.056   0.872   8.281  1.6663  0.7842 -1.5088
 6863SOL     OW26550   0.321   4.535   5.276  0.0983  0.3429  0.1191
 6863SOL    HW126551   0.239   4.508   5.235 -0.3765  2.6049 -0.5682
 6863SOL    HW226552   0.300   4.544   5.369 -0.0576 -0.3612  0.1567
 6864SOL     OW26553   1.335   6.434   7.926 -0.2839  0.0905  0.5107
 6864SOL    HW126554   1.326   6.443   7.831 -1.1677  0.9096  0.6632
 6864SOL    HW226555   1.366   6.344   7.938 -0.7956 -0.2422 -0.5221
 6865SOL     OW26556   0.877   5.605   1.342  0.0053 -0.5206  0.0894
 6865SOL    HW126557   0.910   5.536   1.285  1.0915 -0.0094  0.0638
 6865SOL    HW226558   0.875   5.683   1.286  2.1941  0.2597  0.9773
 6866SOL     OW26559   5.903   7.895   6.923 -0.5303 -0.1083 -0.1400
 6866SOL    HW126560   5.839   7.887   6.994 -2.0304  1.3690 -1.2287
 6866SOL    HW226561   5.940   7.982   6.934  0.6197 -0.5910 -0.0980
 6867SOL     OW26562   8.258   0.611   0.790 -0.6207 -0.2968  0.3627
 6867SOL    HW126563   8.292   0.579   0.707  2.7975 -4.6969  2.9607
 6867SOL    HW226564   8.323   0.675   0.819 -0.7893 -0.1325  0.3746
 6868SOL     OW26565   3.567   8.059   1.839  0.0455 -0.8851 -0.5827
 6868SOL    HW126566   3.567   8.052   1.743 -0.1702  0.1394 -0.6642
 6868SOL    HW226567   3.515   8.137   1.857 -0.6825 -1.5816  0.4227
 6869SOL     OW26568   8.616   0.301   2.707  0.0110 -0.1253 -0.3186
 6869SOL    HW126569   8.534   0.322   2.663 -0.0754  0.3704  0.0623
 6869SOL    HW226570   8.651   0.226   2.659 -0.7197 -0.4178 -0.4152
 6870SOL     OW26571   4.517   2.852   9.336  0.4651  0.6727  0.0261
 6870SOL    HW126572   4.427   2.842   9.368  0.1838  1.0960 -0.6143
 6870SOL    HW226573   4.541   2.941   9.363  1.0315  0.2395  1.0069
 6871SOL     OW26574   9.166   4.102   0.986  0.5366 -0.3514  0.0444
 6871SOL    HW126575   9.225   4.036   1.023 -0.1521 -1.5497 -0.9044
 6871SOL    HW226576   9.158   4.169   1.055 -0.7364 -2.4990  2.1630
 6872SOL     OW26577   5.729   7.193   6.514  0.1994 -0.0109 -0.1688
 6872SOL    HW126578   5.803   7.217   6.459  0.2270 -0.7524 -0.4604
 6872SOL    HW226579   5.741   7.100   6.532 -0.8434 -0.2276 -0.5026
 6873SOL     OW26580   0.638   6.286   8.295  0.0466  0.1390 -0.3443
 6873SOL    HW126581   0.599   6.227   8.230 -1.3312  1.6610 -0.9817
 6873SOL    HW226582   0.592   6.267   8.376 -0.8282  0.7085 -0.6876
 6874SOL     OW26583   4.191   0.104   8.328  0.3863 -0.4184  0.1278
 6874SOL    HW126584   4.153   0.030   8.281  1.2511 -0.8660  0.1032
 6874SOL    HW226585   4.167   0.090   8.420  0.0147 -0.3880  0.0351
 6875SOL     OW26586   1.804   3.299   5.622 -0.2339  0.2458 -0.4304
 6875SOL    HW126587   1.817   3.281   5.716 -2.7631  0.0858 -0.0394
 6875SOL    HW226588   1.726   3.354   5.619 -0.8012 -0.5745 -2.5057
 6876SOL     OW26589   6.161   6.754   8.770 -0.1471 -0.2956 -0.6498
 6876SOL    HW126590   6.249   6.716   8.761 -0.3951 -0.7539 -1.1799
 6876SOL    HW226591   6.170   6.842   8.735  0.1152 -0.3180 -0.6458
 6877SOL     OW26592   4.509   0.186   1.395 -0.4728 -0.0950  0.1444
 6877SOL    HW126593   4.591   0.137   1.388 -0.7707 -0.7465  1.0971
 6877SOL    HW226594   4.440   0.120   1.384 -0.9045  0.5830 -1.6161
 6878SOL     OW26595   6.692   2.489   0.575 -0.0058  0.1608 -0.8647
 6878SOL    HW126596   6.676   2.525   0.488 -0.3444 -0.1117 -0.9175
 6878SOL    HW226597   6.787   2.481   0.581  0.1090  1.4863 -0.6771
 6879SOL     OW26598   0.989   7.762   3.253 -0.1542 -0.0678 -0.3536
 6879SOL    HW126599   0.920   7.698   3.234  0.0634  0.1545 -2.0519
 6879SOL    HW226600   1.023   7.786   3.167  1.8907  0.0014  0.4249
 6880SOL     OW26601   3.976   7.721   6.095  0.2540 -0.0137 -0.1573
 6880SOL    HW126602   3.898   7.748   6.046  0.5443  3.8868  1.1928
 6880SOL    HW226603   3.943   7.701   6.183  0.6348  1.2357  0.2976
 6881SOL     OW26604   4.217   2.513   0.937  0.2284 -0.1487  0.2099
 6881SOL    HW126605   4.136   2.560   0.956 -0.2897 -0.7222 -0.5166
 6881SOL    HW226606   4.188   2.431   0.896  1.2008  0.5301 -2.0062
 6882SOL     OW26607   3.341   6.728   8.734 -0.3394 -0.0912  0.4141
 6882SOL    HW126608   3.266   6.768   8.779  0.9869  1.2023  1.5445
 6882SOL    HW226609   3.349   6.779   8.653  0.2858  0.8540  1.0501
 6883SOL     OW26610   7.896   5.847   4.579 -0.4455 -0.1948  0.0497
 6883SOL    HW126611   7.972   5.828   4.525  0.9942 -0.2330  1.9831
 6883SOL    HW226612   7.856   5.762   4.595  0.4018 -0.4706  0.8006
 6884SOL     OW26613   5.772   8.655   0.487 -0.4013 -0.0885  0.2385
 6884SOL    HW126614   5.854   8.606   0.479  0.2393  1.1669 -1.6086
 6884SOL    HW226615   5.747   8.645   0.579  1.0273 -1.7310  0.4934
 6885SOL     OW26616   4.593   0.479   6.551  0.3428  0.6870 -0.7337
 6885SOL    HW126617   4.543   0.443   6.624  0.4423 -0.0719 -1.0342
 6885SOL    HW226618   4.546   0.559   6.526  0.6155  1.2686  0.5111
 6886SOL     OW26619   8.088   6.632   4.041 -0.1212  0.3485 -0.2690
 6886SOL    HW126620   8.090   6.727   4.027  1.0959  0.2331 -0.9989
 6886SOL    HW226621   8.165   6.614   4.094 -0.9455 -0.1174  0.8007
 6887SOL     OW26622   5.765   9.166   9.251 -0.1206  0.0304 -0.5161
 6887SOL    HW126623   5.773   9.072   9.231 -1.7483  0.0784 -1.6210
 6887SOL    HW226624   5.708   9.169   9.328 -0.1572  0.0932 -0.5452
 6888SOL     OW26625   1.434   3.434   5.272 -0.3602 -0.1318  0.2800
 6888SOL    HW126626   1.466   3.349   5.241 -2.3980 -0.4708 -1.1004
 6888SOL    HW226627   1.488   3.498   5.226  0.7751 -0.6437  0.8502
 6889SOL     OW26628   4.178   4.321   6.598  0.6685 -0.9261 -0.1140
 6889SOL    HW126629   4.135   4.389   6.546 -0.9320 -2.7484 -1.3097
 6889SOL    HW226630   4.230   4.272   6.534  3.0571  0.0435  0.9965
 6890SOL     OW26631   6.861   8.173   0.784  0.2664  0.0178  0.2240
 6890SOL    HW126632   6.913   8.116   0.727  1.3926  1.7578 -0.5566
 6890SOL    HW226633   6.887   8.262   0.760 -1.1976  0.8807  1.6302
 6891SOL     OW26634   8.720   0.978   8.717 -0.4929 -0.6553 -0.0282
 6891SOL    HW126635   8.698   0.900   8.768 -2.8512  1.2929  2.2469
 6891SOL    HW226636   8.658   0.977   8.644 -0.1225 -1.1750 -0.3424
 6892SOL     OW26637   6.714   7.136   4.787 -0.3407  0.3023  0.1688
 6892SOL    HW126638   6.773   7.075   4.743 -0.7997  0.7240 -1.0757
 6892SOL    HW226639   6.771   7.202   4.826  0.1931 -1.1160  1.9094
 6893SOL     OW26640   6.647   6.542   4.791  0.2188 -0.5111  0.4206
 6893SOL    HW126641   6.660   6.633   4.767 -1.1279  0.1342  1.9660
 6893SOL    HW226642   6.728   6.498   4.765  2.3675  1.7681  2.7270
 6894SOL     OW26643   3.740   1.977   8.069  0.2747 -0.4623 -0.4297
 6894SOL    HW126644   3.655   2.011   8.096  1.4371  1.0604  1.6070
 6894SOL    HW226645   3.778   1.941   8.149  1.6298 -0.9689 -1.2639
 6895SOL     OW26646   8.616   4.750   2.485  0.2205  0.0129  0.5038
 6895SOL    HW126647   8.640   4.716   2.399 -0.2562  0.4768  0.1804
 6895SOL    HW226648   8.665   4.832   2.492  1.3969 -0.7231  1.2944
 6896SOL     OW26649   4.122   5.019   6.517 -0.1917 -0.0733  0.2342
 6896SOL    HW126650   4.184   5.032   6.445  0.0491 -0.0438  0.4461
 6896SOL    HW226651   4.039   5.053   6.483  0.0627  0.5288  0.1997
 6897SOL     OW26652   5.801   7.863   8.162 -0.5184 -0.0431  0.0327
 6897SOL    HW126653   5.865   7.798   8.135 -0.1892 -0.6021  1.9684
 6897SOL    HW226654   5.749   7.880   8.084  0.2889 -1.5846 -0.8896
 6898SOL     OW26655   8.110   1.802   8.202  0.4502  0.5147  0.5135
 6898SOL    HW126656   8.167   1.828   8.129 -1.2320  0.8403 -0.7595
 6898SOL    HW226657   8.069   1.720   8.172 -0.9340  1.1200  0.6720
 6899SOL     OW26658   5.778   4.516   1.201 -0.1313  0.1460 -0.1076
 6899SOL    HW126659   5.769   4.425   1.173 -2.3184  0.9735 -2.5859
 6899SOL    HW226660   5.805   4.563   1.122 -1.5543  1.9560  0.4108
 6900SOL     OW26661   8.298   6.233   8.452 -0.4348  0.0914  0.2548
 6900SOL    HW126662   8.325   6.308   8.399 -0.8862 -0.6833 -1.1206
 6900SOL    HW226663   8.301   6.159   8.392 -4.0697 -0.3146  0.3900
 6901SOL     OW26664   4.130   1.175   5.403  0.5141 -0.0368  0.3086
 6901SOL    HW126665   4.163   1.226   5.329 -0.9885  0.2117 -0.2304
 6901SOL    HW226666   4.064   1.118   5.364 -0.5672  0.3574  1.5121
 6902SOL     OW26667   2.143   1.364   8.605  0.4572 -0.3022 -0.5368
 6902SOL    HW126668   2.225   1.319   8.626 -0.2954 -1.0134  0.9734
 6902SOL    HW226669   2.162   1.456   8.619  1.3354 -0.3219 -1.4091
 6903SOL     OW26670   0.581   4.324   5.048  0.2618  0.5413 -0.5384
 6903SOL    HW126671   0.600   4.410   5.085 -0.6298  0.7059 -0.4503
 6903SOL    HW226672   0.488   4.311   5.064 -0.1950  0.6640 -2.7921
 6904SOL     OW26673   5.842   8.205   2.002  0.5567 -0.2368  0.0399
 6904SOL    HW126674   5.901   8.262   2.051 -0.1003  0.2726  0.2576
 6904SOL    HW226675   5.853   8.230   1.911 -1.8938  2.4252  0.3174
 6905SOL     OW26676   1.918   4.715   6.767 -0.4066  0.0066  0.1476
 6905SOL    HW126677   1.841   4.770   6.751  0.3748  0.9003 -0.6744
 6905SOL    HW226678   1.898   4.633   6.723 -0.3127  0.7414 -1.3293
 6906SOL     OW26679   0.756   2.632   8.261  0.6248 -0.1174  0.3638
 6906SOL    HW126680   0.691   2.592   8.320  0.3776 -0.9338 -0.4280
 6906SOL    HW226681   0.712   2.709   8.226 -0.1619 -0.9838 -0.6120
 6907SOL     OW26682   1.753   8.351   3.209 -0.3211 -0.6139 -0.1164
 6907SOL    HW126683   1.682   8.287   3.210 -0.8068 -0.1043 -1.1092
 6907SOL    HW226684   1.828   8.304   3.247 -1.2171 -1.0908  1.1307
 6908SOL     OW26685   7.606   4.146   1.258 -0.4548  0.0961  0.0427
 6908SOL    HW126686   7.683   4.095   1.282 -0.8530  0.4955  2.3249
 6908SOL    HW226687   7.538   4.117   1.318 -1.4207  1.4522 -0.3535
 6909SOL     OW26688   5.218   7.715   3.923 -0.1633  0.3642  0.3571
 6909SOL    HW126689   5.142   7.771   3.911  0.2863  1.1564  1.1183
 6909SOL    HW226690   5.282   7.770   3.968  0.3038 -0.7448  1.0892
 6910SOL     OW26691   7.456   1.973   4.062  0.2924 -0.7452  0.1208
 6910SOL    HW126692   7.481   2.045   4.004 -0.2032 -0.4439  0.2714
 6910SOL    HW226693   7.462   2.010   4.150 -1.7183 -0.2867  0.1305
 6911SOL     OW26694   2.630   4.057   2.529 -1.1676 -0.1457 -0.0874
 6911SOL    HW126695   2.607   4.094   2.444 -1.9537 -1.0365 -0.2715
 6911SOL    HW226696   2.687   4.123   2.569 -2.0928  1.0150 -0.6289
 6912SOL     OW26697   1.757   4.940   7.564 -0.1406  0.1609  1.0561
 6912SOL    HW126698   1.722   4.913   7.649 -2.2478  0.3410  0.2857
 6912SOL    HW226699   1.730   5.031   7.554  0.3804  0.2434  0.3341
 6913SOL     OW26700   0.643   2.405   5.896  0.2246  0.0135 -0.3450
 6913SOL    HW126701   0.600   2.485   5.927  0.3117 -0.1277  0.1380
 6913SOL    HW226702   0.583   2.371   5.830 -1.1825 -0.9946  1.3854
 6914SOL     OW26703   4.896   9.209   2.783  0.5996 -0.4456  0.6050
 6914SOL    HW126704   4.960   9.154   2.737 -1.2106 -1.3886 -0.9371
 6914SOL    HW226705   4.832   9.232   2.716 -3.1034 -3.1810  2.7793
 6915SOL     OW26706   6.127   9.095   2.447  0.3901  0.3271  0.4091
 6915SOL    HW126707   6.126   9.186   2.477 -0.4065  0.0541  1.2408
 6915SOL    HW226708   6.183   9.049   2.509  2.9343  0.6764 -1.4474
 6916SOL     OW26709   6.719   1.026   7.204  0.2628 -0.4929  0.1219
 6916SOL    HW126710   6.806   1.010   7.168  0.4236  0.9125 -0.1844
 6916SOL    HW226711   6.659   0.982   7.144  0.7707 -2.1361  0.7633
 6917SOL     OW26712   0.543   7.325   1.826 -0.4967  0.4210  0.0839
 6917SOL    HW126713   0.456   7.365   1.819 -0.2670  0.7173 -1.6632
 6917SOL    HW226714   0.526   7.234   1.850 -1.2810  0.5597  0.0816
 6918SOL     OW26715   3.351   1.749   1.827 -0.1084 -0.2980 -0.1159
 6918SOL    HW126716   3.313   1.808   1.892 -2.5654 -1.3131 -0.5359
 6918SOL    HW226717   3.347   1.797   1.745  1.1426  0.2232  0.1050
 6919SOL     OW26718   8.474   1.117   4.984 -0.0309 -0.7941  0.3208
 6919SOL    HW126719   8.547   1.158   5.031 -0.5972  0.6237  0.0101
 6919SOL    HW226720   8.417   1.084   5.054  0.0877 -0.4144  0.6038
 6920SOL     OW26721   0.954   7.548   8.604 -0.1801 -0.7122  0.3462
 6920SOL    HW126722   0.996   7.633   8.592 -0.2600 -0.7989 -0.6123
 6920SOL    HW226723   0.962   7.505   8.519 -0.0498 -1.7090  0.8501
 6921SOL     OW26724   2.430   7.631   5.621 -0.1706  0.9009  0.5128
 6921SOL    HW126725   2.501   7.653   5.681  0.0051  0.3137  0.5290
 6921SOL    HW226726   2.412   7.712   5.574  0.2142  1.1666  0.8130
 6922SOL     OW26727   8.908   4.841   5.699 -0.2942 -0.5679  0.6094
 6922SOL    HW126728   8.853   4.763   5.687  0.1141 -0.7420 -0.2103
 6922SOL    HW226729   8.958   4.848   5.618  0.3619  0.0114  1.0482
 6923SOL     OW26730   0.837   1.939   7.816 -0.2411 -0.0442  0.5639
 6923SOL    HW126731   0.832   1.846   7.835  1.4817 -0.2680  0.0752
 6923SOL    HW226732   0.917   1.969   7.859  0.6926  0.6109 -1.4793
 6924SOL     OW26733   9.313   1.170   5.235 -0.0131  1.2036  0.3866
 6924SOL    HW126734   9.228   1.202   5.202 -1.0244 -2.8306 -1.4606
 6924SOL    HW226735   9.378   1.217   5.183 -1.1789  2.6710  0.1795
 6925SOL     OW26736   4.676   7.373   7.250  0.1140 -0.0171  0.2212
 6925SOL    HW126737   4.614   7.311   7.290  2.3831 -2.1042  0.7697
 6925SOL    HW226738   4.663   7.363   7.156 -0.5287 -0.2460  0.3312
 6926SOL     OW26739   0.541   1.984   0.376 -0.4204  0.3324 -0.5985
 6926SOL    HW126740   0.593   1.991   0.456 -0.1563  0.1701 -0.7547
 6926SOL    HW226741   0.450   1.991   0.406 -0.2845  1.5863 -0.4345
 6927SOL     OW26742   3.139   4.209   5.005  0.0761  0.3029 -0.0899
 6927SOL    HW126743   3.129   4.125   4.959  0.8503 -0.2543  0.7235
 6927SOL    HW226744   3.053   4.226   5.042 -0.0940 -0.1294 -0.2716
 6928SOL     OW26745   2.900   4.270   2.241 -0.4950  0.6621 -0.3012
 6928SOL    HW126746   2.942   4.315   2.314  2.0083  1.0735 -1.8626
 6928SOL    HW226747   2.932   4.315   2.163 -3.5682  0.6555 -1.7149
 6929SOL     OW26748   3.577   8.622   4.014 -0.1726 -0.2120  0.1230
 6929SOL    HW126749   3.501   8.671   3.983  0.3682  0.4658 -0.1615
 6929SOL    HW226750   3.653   8.673   3.984  0.4015 -1.0314  0.1373
 6930SOL     OW26751   3.473   7.259   6.201 -0.1044 -0.7564  0.4190
 6930SOL    HW126752   3.390   7.214   6.216 -1.0938  0.1869 -1.8330
 6930SOL    HW226753   3.483   7.316   6.278 -1.7050 -0.6482  0.5833
 6931SOL     OW26754   7.711   8.152   3.425 -0.0286  0.4936 -0.3516
 6931SOL    HW126755   7.688   8.214   3.494 -1.0723  0.0177 -0.2619
 6931SOL    HW226756   7.774   8.200   3.371 -0.0021  1.2469  0.3256
 6932SOL     OW26757   1.439   7.864   7.597 -0.1570  0.5632  0.1003
 6932SOL    HW126758   1.376   7.907   7.539 -1.1037 -0.2365  0.5023
 6932SOL    HW226759   1.514   7.846   7.542 -1.5170 -1.3104 -1.2547
 6933SOL     OW26760   5.441   2.452   1.515 -0.1921 -0.5379 -0.1789
 6933SOL    HW126761   5.403   2.470   1.601  1.7394 -1.1495  0.8639
 6933SOL    HW226762   5.430   2.357   1.504 -0.5169 -0.4472 -0.6697
 6934SOL     OW26763   3.558   4.819   5.272 -0.6590  0.2286 -0.3325
 6934SOL    HW126764   3.547   4.869   5.192 -0.7968  2.5125  1.0107
 6934SOL    HW226765   3.477   4.835   5.322 -0.4739 -0.9135  0.3721
 6935SOL     OW26766   5.131   5.116   4.981 -0.0454  0.0158  0.1491
 6935SOL    HW126767   5.176   5.031   4.984  2.3403  1.1910 -0.1269
 6935SOL    HW226768   5.119   5.140   5.073  1.7790  0.5463  0.3036
 6936SOL     OW26769   7.957   2.643   7.123 -0.0745 -0.3134  0.0187
 6936SOL    HW126770   8.020   2.632   7.051 -0.2923  0.1655 -0.2525
 6936SOL    HW226771   7.882   2.590   7.098  0.2896 -1.0389  0.4342
 6937SOL     OW26772   0.072   0.011   4.146  0.1462 -0.3446  0.0059
 6937SOL    HW126773   0.011  -0.049   4.103 -0.7090 -0.8066  1.7882
 6937SOL    HW226774   0.110  -0.040   4.217  1.4259  0.4398 -0.0808
 6938SOL     OW26775   6.125   4.627   8.423  0.0001  0.3635  0.1585
 6938SOL    HW126776   6.192   4.646   8.357  1.3211 -0.6163  1.1748
 6938SOL    HW226777   6.120   4.708   8.474 -1.6121  1.4312 -1.5463
 6939SOL     OW26778   5.245   8.667   3.795 -0.0880  0.0944 -0.2311
 6939SOL    HW126779   5.316   8.627   3.847 -0.8615  1.2371  1.7958
 6939SOL    HW226780   5.273   8.758   3.783 -0.6492  0.2292 -0.5144
 6940SOL     OW26781   4.565   4.708   4.710 -0.0730  0.7074 -0.2109
 6940SOL    HW126782   4.599   4.792   4.739  0.5331  1.1734 -2.1007
 6940SOL    HW226783   4.631   4.644   4.738  0.7941  1.2122 -1.0364
 6941SOL     OW26784   4.128   9.285   0.780 -0.4555  0.3544 -0.7843
 6941SOL    HW126785   4.098   9.211   0.832  0.9784  0.1922 -0.1555
 6941SOL    HW226786   4.192   9.330   0.835  1.0959  0.1937 -2.3690
 6942SOL     OW26787   8.428   6.645   5.702 -0.4641 -0.0268  0.6111
 6942SOL    HW126788   8.374   6.566   5.703 -0.4496 -0.0625 -0.5089
 6942SOL    HW226789   8.367   6.716   5.688 -0.5734  0.2687  2.3944
 6943SOL     OW26790   2.687   0.845   0.452 -0.0447  0.5223 -0.0401
 6943SOL    HW126791   2.753   0.868   0.517 -1.0096  2.2568  0.3904
 6943SOL    HW226792   2.628   0.784   0.497 -0.2837  1.1361  0.5006
 6944SOL     OW26793   6.990   0.261   1.198 -0.1809 -0.8714 -0.1789
 6944SOL    HW126794   7.064   0.210   1.231 -0.1356 -1.1901 -0.7555
 6944SOL    HW226795   7.021   0.351   1.200 -0.8003 -0.6395  2.3225
 6945SOL     OW26796   1.232   2.916   2.087  0.1965 -0.1548  0.5969
 6945SOL    HW126797   1.144   2.905   2.051  0.3873 -0.1663  0.1149
 6945SOL    HW226798   1.274   2.831   2.073  0.9472  0.4503 -1.0730
 6946SOL     OW26799   6.361   1.113   6.916 -0.2334 -0.7450  0.1222
 6946SOL    HW126800   6.437   1.145   6.869 -1.1963 -1.1544 -1.8062
 6946SOL    HW226801   6.322   1.048   6.858  1.0378 -4.8625  3.3639
 6947SOL     OW26802   8.723   1.116   2.154 -0.0631  0.3181 -0.5582
 6947SOL    HW126803   8.747   1.090   2.065  0.3194  1.3559 -0.7631
 6947SOL    HW226804   8.656   1.052   2.180  1.7200 -1.6752 -0.5645
 6948SOL     OW26805   9.196   6.652   9.016  0.4367 -0.3924  0.5495
 6948SOL    HW126806   9.262   6.719   8.999  0.0793 -0.2002 -0.1061
 6948SOL    HW226807   9.112   6.696   9.001  0.2086 -1.5887 -2.4271
 6949SOL     OW26808   6.264   1.495   5.876 -0.4008  0.5406  0.0789
 6949SOL    HW126809   6.294   1.428   5.815 -2.0787 -0.0337 -0.1832
 6949SOL    HW226810   6.327   1.493   5.948  0.3462 -0.3466 -0.5879
 6950SOL     OW26811   3.606   4.443   6.990  0.1913 -0.2041 -0.1088
 6950SOL    HW126812   3.569   4.490   6.915  1.1786  1.2024  0.2481
 6950SOL    HW226813   3.659   4.374   6.951 -1.0900 -0.9189 -0.6509
 6951SOL     OW26814   7.968   8.652   0.251  0.6071 -0.2013  0.4344
 6951SOL    HW126815   7.881   8.661   0.212 -0.2723 -1.8346  1.8685
 6951SOL    HW226816   7.954   8.601   0.331  2.9424 -0.8976  0.4919
 6952SOL     OW26817   6.146   6.206   7.468  0.0046 -0.6018  0.3740
 6952SOL    HW126818   6.078   6.212   7.400 -0.4686 -0.5473  0.8451
 6952SOL    HW226819   6.139   6.117   7.501  1.1021 -1.0425 -0.5258
 6953SOL     OW26820   1.230   5.235   2.715 -0.0746 -0.0465  0.4335
 6953SOL    HW126821   1.234   5.283   2.632  1.6183 -0.8880 -0.0156
 6953SOL    HW226822   1.248   5.302   2.782 -2.2486  0.7993  0.2458
 6954SOL     OW26823   2.449   3.076   8.231  0.5021  0.2271 -0.0914
 6954SOL    HW126824   2.531   3.096   8.186 -0.2212  1.6450 -0.8456
 6954SOL    HW226825   2.450   3.132   8.309 -0.2091  1.0474 -0.6582
 6955SOL     OW26826   7.249   6.580   0.587 -0.3252  0.2964  0.1324
 6955SOL    HW126827   7.267   6.654   0.645 -0.1360 -1.0910  1.9535
 6955SOL    HW226828   7.316   6.515   0.611 -0.0560 -0.2308 -1.8909
 6956SOL     OW26829   6.714   1.274   1.839  0.0260 -0.0790  0.4211
 6956SOL    HW126830   6.668   1.220   1.903 -0.7761  1.7084  1.4283
 6956SOL    HW226831   6.736   1.214   1.767 -1.8864 -1.4669  0.9290
 6957SOL     OW26832   8.946   4.985   8.328  0.4001  0.5078  0.2291
 6957SOL    HW126833   8.941   4.916   8.261  2.2508  0.3001  0.2721
 6957SOL    HW226834   8.913   5.063   8.284 -1.8530 -0.3510  0.2053
 6958SOL     OW26835   8.429   6.102   1.838 -0.4312 -0.1092  0.0982
 6958SOL    HW126836   8.376   6.130   1.913  0.6560 -0.1738  0.9131
 6958SOL    HW226837   8.401   6.012   1.822 -0.5348 -0.1636  0.5594
 6959SOL     OW26838   1.442   7.405   7.761 -0.0117 -0.2300  0.0259
 6959SOL    HW126839   1.418   7.495   7.741  1.5804  0.4613  1.0619
 6959SOL    HW226840   1.453   7.363   7.676  1.8197  1.2914 -0.5468
 6960SOL     OW26841   4.936   8.358   0.782 -0.2689 -0.4413 -0.4101
 6960SOL    HW126842   4.924   8.357   0.687 -1.3666 -1.1905 -0.2710
 6960SOL    HW226843   4.976   8.444   0.800 -0.1276 -0.2582 -1.5277
 6961SOL     OW26844   0.832   2.928   2.748 -0.3350 -1.0122 -0.3725
 6961SOL    HW126845   0.859   2.838   2.729 -0.6406 -1.0631 -0.5721
 6961SOL    HW226846   0.737   2.925   2.749 -0.3950 -1.3124  2.6484
 6962SOL     OW26847   3.409   5.872   0.865  0.3748 -0.3342 -0.2106
 6962SOL    HW126848   3.385   5.841   0.953  0.8452 -1.3205 -0.4154
 6962SOL    HW226849   3.503   5.891   0.872  0.2386  0.4252 -0.2800
 6963SOL     OW26850   0.463   1.936   6.613 -0.0938 -0.2437  0.6197
 6963SOL    HW126851   0.381   1.952   6.567  0.7137  0.7545 -0.5416
 6963SOL    HW226852   0.529   1.981   6.561  1.0931 -0.3691  1.9453
 6964SOL     OW26853   1.785   0.779   8.721  0.6439 -0.3873  0.1763
 6964SOL    HW126854   1.807   0.848   8.783  0.4995 -0.2074  0.0256
 6964SOL    HW226855   1.870   0.748   8.689  0.6952  0.2564 -0.3438
 6965SOL     OW26856   7.519   7.093   0.804 -0.6092  0.0161 -0.5722
 6965SOL    HW126857   7.587   7.032   0.776 -0.2130  0.7423 -1.2465
 6965SOL    HW226858   7.437   7.047   0.788 -0.2948 -1.4709  1.6818
 6966SOL     OW26859   5.676   4.512   1.578  0.1078 -0.2989 -0.0892
 6966SOL    HW126860   5.667   4.438   1.517  0.3981  0.2035 -0.7486
 6966SOL    HW226861   5.664   4.590   1.524 -2.2738  0.1410  0.9560
 6967SOL     OW26862   7.558   7.560   6.883 -0.0897  0.0686  0.1741
 6967SOL    HW126863   7.590   7.650   6.894 -0.4169  0.3057 -0.7651
 6967SOL    HW226864   7.466   7.565   6.909 -1.3327  0.9808 -3.7164
 6968SOL     OW26865   6.838   7.192   1.744  0.0371 -0.1528  0.3931
 6968SOL    HW126866   6.772   7.173   1.811 -0.0284  0.4209  0.5003
 6968SOL    HW226867   6.792   7.182   1.661 -0.4614  1.1643  0.4838
 6969SOL     OW26868   0.485   7.939   1.207  0.2068 -0.0523 -0.0689
 6969SOL    HW126869   0.514   7.996   1.135 -0.1390  1.9073  1.2644
 6969SOL    HW226870   0.566   7.902   1.242  0.5239  0.3292 -0.3838
 6970SOL     OW26871   1.179   3.623   3.640  0.4283  0.2225  0.1469
 6970SOL    HW126872   1.124   3.560   3.688 -1.6240  1.8723  0.1445
 6970SOL    HW226873   1.184   3.588   3.551 -0.9555  0.1778  0.0628
 6971SOL     OW26874   8.661   1.605   9.346  0.1586  0.9414 -0.5804
 6971SOL    HW126875   8.676   1.629   9.437  0.4611  2.4613 -1.0068
 6971SOL    HW226876   8.749   1.589   9.311 -0.0510 -1.8880 -0.0819
 6972SOL     OW26877   6.724   6.328   0.656 -0.1015  0.2911  0.0752
 6972SOL    HW126878   6.644   6.346   0.705  0.6652  2.3334  0.6966
 6972SOL    HW226879   6.715   6.378   0.575 -0.5603 -1.6014 -1.1003
 6973SOL     OW26880   7.147   1.133   9.244  0.2142 -0.7507  0.3040
 6973SOL    HW126881   7.074   1.178   9.200  0.8744 -0.5232 -0.5874
 6973SOL    HW226882   7.174   1.065   9.182  0.8905 -0.6951  0.5316
 6974SOL     OW26883   6.852   6.673   5.660  0.0086 -0.1837 -0.0976
 6974SOL    HW126884   6.927   6.725   5.632 -0.9677  0.4890 -1.5873
 6974SOL    HW226885   6.780   6.701   5.603 -0.7486 -2.6403 -0.4867
 6975SOL     OW26886   3.976   7.638   6.777 -0.3260 -0.3151 -0.1483
 6975SOL    HW126887   4.019   7.723   6.789 -0.7042 -0.1394 -0.0034
 6975SOL    HW226888   3.918   7.630   6.853 -2.2556  0.5006 -1.4409
 6976SOL     OW26889   6.937   6.213   8.274 -0.0993 -0.1419 -0.3691
 6976SOL    HW126890   6.877   6.177   8.209  0.0827 -0.0316 -0.6008
 6976SOL    HW226891   6.968   6.295   8.235 -2.4804  1.6425  1.2059
 6977SOL     OW26892   8.805   3.195   9.248 -0.5057 -0.3712  0.8450
 6977SOL    HW126893   8.826   3.198   9.341 -0.4627 -2.0722  0.9203
 6977SOL    HW226894   8.827   3.106   9.221 -2.0059 -0.4142 -0.4220
 6978SOL     OW26895   0.845   8.419   2.227 -0.1952 -0.0220  0.1075
 6978SOL    HW126896   0.781   8.430   2.157 -0.7579 -1.5235  0.3396
 6978SOL    HW226897   0.895   8.500   2.227 -1.8834  1.0609 -0.2958
 6979SOL     OW26898   6.538   2.714   3.474  0.1107 -0.1512 -0.3189
 6979SOL    HW126899   6.618   2.712   3.422  0.4692 -0.0005  0.2184
 6979SOL    HW226900   6.562   2.669   3.555 -0.4744 -0.4907 -0.3282
 6980SOL     OW26901   3.464   9.115   8.495 -0.5476  0.1517 -1.0019
 6980SOL    HW126902   3.377   9.082   8.519 -1.5874  3.1422 -0.1854
 6980SOL    HW226903   3.520   9.038   8.495 -2.2751 -1.3444  2.7335
 6981SOL     OW26904   6.699   6.701   6.653 -0.1993 -0.0229  0.0446
 6981SOL    HW126905   6.722   6.628   6.596 -0.8788 -1.5980  1.7027
 6981SOL    HW226906   6.778   6.719   6.703  0.5483  1.6792 -1.6194
 6982SOL     OW26907   0.697   6.965   2.987 -0.1475 -0.7540  0.0763
 6982SOL    HW126908   0.738   6.885   2.954  1.3973 -1.0201  2.3950
 6982SOL    HW226909   0.745   7.035   2.944 -1.4004 -1.0116 -1.8481
 6983SOL     OW26910   1.990   4.791   4.337 -0.9125  0.0166 -0.6463
 6983SOL    HW126911   1.901   4.762   4.321 -1.2266  0.1928  0.6396
 6983SOL    HW226912   1.986   4.887   4.331 -1.1468  0.1267  0.7830
 6984SOL     OW26913   2.722   5.008   8.808 -0.1619 -0.3188  0.2822
 6984SOL    HW126914   2.809   5.032   8.779 -0.0947 -0.4394  0.3845
 6984SOL    HW226915   2.674   5.091   8.812 -0.3365 -0.3637 -0.7058
 6985SOL     OW26916   8.829   6.321   1.423 -0.3845 -0.0678  0.0402
 6985SOL    HW126917   8.901   6.323   1.485 -1.1109  2.1141  0.9245
 6985SOL    HW226918   8.758   6.277   1.470 -0.0484 -1.0725 -0.3659
 6986SOL     OW26919   3.658   2.174   6.356 -0.0258 -0.2535  0.2924
 6986SOL    HW126920   3.684   2.214   6.273 -2.2845 -0.7368 -0.7152
 6986SOL    HW226921   3.596   2.237   6.394  0.1797 -0.5361  1.1109
 6987SOL     OW26922   8.781   5.894   5.971 -0.1343 -0.5086 -0.1969
 6987SOL    HW126923   8.744   5.853   5.893  0.7426 -2.7818  0.5099
 6987SOL    HW226924   8.793   5.986   5.946 -0.0854 -1.1151 -2.6585
 6988SOL     OW26925   9.166   4.557   0.809  0.0885  0.3408 -0.2508
 6988SOL    HW126926   9.111   4.479   0.800 -1.3216  1.0549  1.5290
 6988SOL    HW226927   9.197   4.554   0.899  0.2971  1.6576 -0.2625
 6989SOL     OW26928   3.754   1.587   5.238  0.4267  0.3195 -0.2724
 6989SOL    HW126929   3.684   1.641   5.201 -1.6223 -1.4980  0.7682
 6989SOL    HW226930   3.725   1.567   5.327  2.4076 -0.3137  0.2864
 6990SOL     OW26931   7.388   5.119   5.356 -0.0047 -0.5017 -0.1789
 6990SOL    HW126932   7.394   5.025   5.340 -0.1721 -0.2140 -2.2445
 6990SOL    HW226933   7.344   5.126   5.440 -0.6351 -2.2607 -0.3135
 6991SOL     OW26934   7.465   6.125   9.193 -0.0160  0.3956  0.0102
 6991SOL    HW126935   7.483   6.209   9.151 -0.1528  0.2050 -0.4371
 6991SOL    HW226936   7.550   6.082   9.201  0.0795  0.6525  0.4131
 6992SOL     OW26937   0.110   8.355   5.999 -0.4118  0.3002  0.3765
 6992SOL    HW126938   0.123   8.292   6.070  1.0873  1.1759  0.9098
 6992SOL    HW226939   0.093   8.300   5.922 -0.2631 -0.7199  1.0475
 6993SOL     OW26940   0.804   5.040   5.139 -0.0668 -0.2588 -0.4278
 6993SOL    HW126941   0.816   4.996   5.055 -1.2599 -1.4382 -0.0293
 6993SOL    HW226942   0.745   4.982   5.188 -0.5134  1.0785  0.7022
 6994SOL     OW26943   4.210   7.488   6.811 -0.2429  0.6201  0.3700
 6994SOL    HW126944   4.136   7.535   6.773 -1.5044 -0.1213  1.8105
 6994SOL    HW226945   4.232   7.420   6.747  0.3932  1.9476 -0.8756
 6995SOL     OW26946   6.335   3.035   1.170 -0.1881 -0.0584 -0.5477
 6995SOL    HW126947   6.342   3.031   1.075 -0.2725 -0.7296 -0.5309
 6995SOL    HW226948   6.261   3.094   1.186 -1.3410 -1.3585 -0.9480
 6996SOL     OW26949   2.878   7.303   2.358  0.2511  0.3184  0.2824
 6996SOL    HW126950   2.951   7.276   2.414  1.5413  1.9543 -0.5265
 6996SOL    HW226951   2.913   7.376   2.307 -1.3309 -0.1972 -1.6368
 6997SOL     OW26952   0.456   8.144   6.010  0.2163 -0.3007 -0.0076
 6997SOL    HW126953   0.473   8.050   6.023  0.8846 -0.4402 -1.6882
 6997SOL    HW226954   0.377   8.161   6.062  1.3241 -1.2708  2.1439
 6998SOL     OW26955   3.374   4.537   9.005  0.5842 -0.1023 -0.0706
 6998SOL    HW126956   3.352   4.624   9.039  0.5704  0.6682 -1.9366
 6998SOL    HW226957   3.300   4.483   9.030  1.2751 -0.0132  2.4578
 6999SOL     OW26958   1.566   1.050   8.951  0.2102  0.2884  0.1878
 6999SOL    HW126959   1.659   1.034   8.934  0.8900  2.6983  1.1823
 6999SOL    HW226960   1.534   0.969   8.991  2.5891  0.2938  2.3280
 7000SOL     OW26961   5.771   4.607   4.533  0.3073 -0.4909 -0.0785
 7000SOL    HW126962   5.861   4.636   4.513 -0.2540  0.0384 -2.0790
 7000SOL    HW226963   5.783   4.524   4.580  1.8479 -0.5307 -0.4572
 7001SOL     OW26964   3.982   3.297   5.961  0.2873 -1.0243  0.1021
 7001SOL    HW126965   4.008   3.250   6.040  0.9968 -0.4158  0.2387
 7001SOL    HW226966   4.059   3.294   5.904  0.3127 -0.1434  0.0673
 7002SOL     OW26967   5.717   0.690   7.590  1.0378 -0.0122  0.4250
 7002SOL    HW126968   5.743   0.724   7.676  0.8533 -0.2705  0.5856
 7002SOL    HW226969   5.693   0.599   7.607  3.1907 -0.7805 -0.2768
 7003SOL     OW26970   8.333   3.634   7.048 -0.2274  0.0621 -0.3698
 7003SOL    HW126971   8.276   3.573   7.002 -1.2729 -0.5602  1.6519
 7003SOL    HW226972   8.397   3.579   7.092  0.3418  0.6081 -0.4910
 7004SOL     OW26973   1.917   1.428   8.460  0.3690  0.0932  0.4650
 7004SOL    HW126974   1.995   1.403   8.509  0.0898 -0.1215  0.8030
 7004SOL    HW226975   1.915   1.523   8.465  1.3675  0.1969 -0.7187
 7005SOL     OW26976   1.888   3.825   5.803 -0.2755  0.3213 -0.0179
 7005SOL    HW126977   1.950   3.891   5.835  0.6407 -0.7703  0.5233
 7005SOL    HW226978   1.818   3.876   5.762 -1.0457  1.7899  2.8373
 7006SOL     OW26979   9.017   6.433   3.250 -0.3926  0.1199 -0.4063
 7006SOL    HW126980   9.070   6.372   3.303  0.5441  0.4286 -0.9604
 7006SOL    HW226981   9.076   6.462   3.181 -1.0924  1.0078 -0.6519
 7007SOL     OW26982   2.835   6.280   8.798  0.1510  0.5606 -0.8059
 7007SOL    HW126983   2.757   6.336   8.800  0.3232  0.7782  0.3554
 7007SOL    HW226984   2.800   6.191   8.797 -0.1150  0.6588 -1.9852
 7008SOL     OW26985   7.398   8.600   4.246 -0.8240 -0.5829 -0.2906
 7008SOL    HW126986   7.424   8.634   4.160  1.0163 -0.9950  0.0593
 7008SOL    HW226987   7.305   8.580   4.237 -0.6349 -0.7596 -2.2569
 7009SOL     OW26988   3.942   5.108   7.240 -0.7997  0.6558 -0.1529
 7009SOL    HW126989   3.924   5.183   7.184 -1.0096  0.5489 -0.2275
 7009SOL    HW226990   3.857   5.084   7.277 -0.8100  0.1826 -0.4707
 7010SOL     OW26991   7.878   9.153   5.879 -0.4558  0.3565  0.1259
 7010SOL    HW126992   7.862   9.124   5.789  0.4246  0.2955 -0.0148
 7010SOL    HW226993   7.900   9.073   5.927  1.1885  0.6516 -0.0857
 7011SOL     OW26994   8.547   4.286   6.940  0.0452 -0.4018  0.5465
 7011SOL    HW126995   8.593   4.265   6.858 -1.0594  0.6627 -0.3802
 7011SOL    HW226996   8.598   4.357   6.978  1.3231 -1.7660  1.5032
 7012SOL     OW26997   4.440   4.510   2.798 -0.2403 -0.2312 -0.3993
 7012SOL    HW126998   4.533   4.521   2.815 -0.2122 -1.4191  0.3381
 7012SOL    HW226999   4.427   4.545   2.710  0.9174 -0.1573 -0.5498
 7013SOL     OW27000   0.218   4.288   7.186 -0.2801  0.6513 -0.2943
 7013SOL    HW127001   0.310   4.262   7.176 -0.0217  2.3001 -3.4277
 7013SOL    HW227002   0.220   4.359   7.250  0.0926 -1.2911  2.0112
 7014SOL     OW27003   1.787   8.674   2.266 -0.3932 -0.5201  0.0084
 7014SOL    HW127004   1.705   8.637   2.235 -0.4371 -0.5546  0.1650
 7014SOL    HW227005   1.790   8.652   2.359  0.4117 -1.6539 -0.2722
 7015SOL     OW27006   3.707   3.876   2.615 -0.4842 -0.4266  0.0377
 7015SOL    HW127007   3.758   3.948   2.652 -0.8411 -1.2607  2.2987
 7015SOL    HW227008   3.643   3.855   2.683 -0.9824 -2.2905 -0.9481
 7016SOL     OW27009   8.870   1.482   5.534 -0.4405  0.6796 -0.0996
 7016SOL    HW127010   8.963   1.475   5.559 -0.7553 -0.1960  0.9181
 7016SOL    HW227011   8.856   1.409   5.475 -0.3983  1.0421 -0.5631
 7017SOL     OW27012   6.891   7.990   8.194 -0.0853 -0.4596 -0.0497
 7017SOL    HW127013   6.842   8.071   8.178  0.3968  0.1434  1.3469
 7017SOL    HW227014   6.828   7.920   8.177 -0.7730  0.2328 -0.4286
 7018SOL     OW27015   1.350   1.118   0.832  0.3169 -0.1256 -0.2133
 7018SOL    HW127016   1.390   1.099   0.917 -2.1635  0.4080  1.1836
 7018SOL    HW227017   1.304   1.037   0.809 -1.0090  0.4817  0.1965
 7019SOL     OW27018   1.312   0.838   8.127 -0.0943  0.1644 -0.4785
 7019SOL    HW127019   1.241   0.829   8.191  0.5036  0.0221  0.1850
 7019SOL    HW227020   1.284   0.910   8.071 -1.4636 -0.8586 -1.1770
 7020SOL     OW27021   2.636   6.302   0.483 -0.3395 -0.1481  0.0760
 7020SOL    HW127022   2.709   6.344   0.435 -1.7030 -0.1935 -2.1754
 7020SOL    HW227023   2.593   6.248   0.417 -0.3805 -2.8978  2.2259
 7021SOL     OW27024   5.458   1.958   4.030 -0.6214  0.1721 -0.7613
 7021SOL    HW127025   5.376   2.003   4.050 -0.1365  0.2600  1.2701
 7021SOL    HW227026   5.526   2.020   4.058  0.0753 -1.3168  0.9785
 7022SOL     OW27027   4.072   7.923   0.618 -0.3513  0.3836 -0.4404
 7022SOL    HW127028   4.089   7.839   0.577  2.6267  0.2718  0.7725
 7022SOL    HW227029   4.143   7.979   0.588 -0.2597  1.3987  1.5264
 7023SOL     OW27030   3.583   6.118   1.044 -0.1732  0.2923 -0.2332
 7023SOL    HW127031   3.617   6.185   1.103 -0.8755 -0.3644  0.9554
 7023SOL    HW227032   3.504   6.087   1.087  0.0191 -1.1382 -0.8777
 7024SOL     OW27033   3.694   0.226   3.546  0.2302  0.6289 -0.2165
 7024SOL    HW127034   3.760   0.157   3.555 -0.9349 -0.3077  2.1014
 7024SOL    HW227035   3.647   0.204   3.466  0.0010 -1.2150  0.3679
 7025SOL     OW27036   7.544   6.421   1.436 -0.1333 -0.0603 -0.6289
 7025SOL    HW127037   7.592   6.358   1.382  2.0687  1.2164 -0.2501
 7025SOL    HW227038   7.538   6.379   1.522  0.0549 -0.3238 -0.7411
 7026SOL     OW27039   4.163   3.477   1.261 -0.1488 -0.3263  0.4576
 7026SOL    HW127040   4.083   3.426   1.251  0.4270 -1.1799  0.0661
 7026SOL    HW227041   4.201   3.445   1.343 -0.1873  0.0535  0.6256
 7027SOL     OW27042   2.680   8.488   5.192 -0.3074  0.0312 -0.3451
 7027SOL    HW127043   2.664   8.559   5.254 -0.3251  0.1044 -0.4335
 7027SOL    HW227044   2.612   8.423   5.212 -0.5131  0.1965 -0.5005
 7028SOL     OW27045   8.055   1.974   2.633 -0.0072  0.1578 -0.5642
 7028SOL    HW127046   8.132   1.920   2.655 -1.3689 -1.5222  0.3242
 7028SOL    HW227047   8.034   1.950   2.543  1.2723  1.6578 -1.3152
 7029SOL     OW27048   1.783   4.480   7.174  0.2833 -0.0368 -0.2990
 7029SOL    HW127049   1.787   4.561   7.122 -0.4876 -0.6770 -1.4079
 7029SOL    HW227050   1.701   4.438   7.147 -1.4403  0.7276  3.2224
 7030SOL     OW27051   2.888   7.433   6.905 -0.3822 -0.0795  0.0161
 7030SOL    HW127052   2.873   7.498   6.837  0.8256 -0.2257 -0.4125
 7030SOL    HW227053   2.822   7.365   6.890  1.6775 -1.6159 -2.9109
 7031SOL     OW27054   4.382   4.507   4.732 -0.1193  0.1267  0.7215
 7031SOL    HW127055   4.434   4.474   4.660 -2.4121  1.2700 -1.6307
 7031SOL    HW227056   4.433   4.580   4.767 -0.0330  1.1737 -1.4495
 7032SOL     OW27057   5.467   3.171   1.722  0.1151 -0.2475 -0.0975
 7032SOL    HW127058   5.477   3.146   1.631  0.3468 -1.2468  0.1849
 7032SOL    HW227059   5.483   3.089   1.771  0.7728  0.4309  0.8611
 7033SOL     OW27060   2.113   0.560   1.505  0.2795 -0.0378  0.5297
 7033SOL    HW127061   2.078   0.487   1.454  1.9835  1.1174 -2.4904
 7033SOL    HW227062   2.112   0.634   1.445  2.0938  1.5328  2.3136
 7034SOL     OW27063   0.804   2.862   6.477 -0.3643 -0.4081 -0.4501
 7034SOL    HW127064   0.820   2.890   6.568 -2.3876 -1.6392  0.3527
 7034SOL    HW227065   0.750   2.931   6.439  2.6813  1.4928 -1.7130
 7035SOL     OW27066   5.951   1.935   1.528 -0.7302  0.0067  0.1734
 7035SOL    HW127067   5.892   1.985   1.471 -0.0736 -1.0182 -1.4865
 7035SOL    HW227068   5.912   1.848   1.532 -0.1577 -0.2452  0.3472
 7036SOL     OW27069   7.952   2.396   2.193 -0.7157  0.2884  0.6357
 7036SOL    HW127070   7.894   2.341   2.247  0.8232 -0.8581  1.2036
 7036SOL    HW227071   8.008   2.334   2.147 -0.1693  1.3540 -0.1871
 7037SOL     OW27072   9.093   3.038   5.795  0.0809 -0.7422 -0.0287
 7037SOL    HW127073   9.168   3.017   5.739  0.4026  0.2821  0.0023
 7037SOL    HW227074   9.104   2.981   5.871  0.0236 -1.6432 -0.6831
 7038SOL     OW27075   3.144   7.949   0.959  0.9946  0.0847  0.0071
 7038SOL    HW127076   3.165   7.863   0.995  0.9885 -0.1294 -0.4992
 7038SOL    HW227077   3.165   7.942   0.866  2.0054  0.9539  0.1552
 7039SOL     OW27078   8.383   2.991   4.412  0.1750  0.2408  0.2247
 7039SOL    HW127079   8.412   3.059   4.473 -0.0870 -0.7751  1.5146
 7039SOL    HW227080   8.296   3.019   4.384 -0.1478  0.1839  1.1541
 7040SOL     OW27081   6.808   6.283   0.351  0.2221 -0.2018 -0.0750
 7040SOL    HW127082   6.816   6.192   0.379 -1.0318 -0.6223 -1.0588
 7040SOL    HW227083   6.725   6.312   0.388  0.3656  0.3972 -0.2154
 7041SOL     OW27084   9.313   4.426   3.749  0.1611  0.9018 -0.5963
 7041SOL    HW127085   9.311   4.506   3.801  2.5969  1.7558 -1.6647
 7041SOL    HW227086   9.253   4.443   3.675 -0.8559  0.9060  0.2038
 7042SOL     OW27087   0.320   8.358   6.398  0.8141  0.5861  0.7109
 7042SOL    HW127088   0.410   8.358   6.429  1.2862  0.3078 -0.5823
 7042SOL    HW227089   0.281   8.436   6.437  1.3614  0.2617  1.9444
 7043SOL     OW27090   6.415   8.136   1.748 -0.4698  0.0791 -0.4636
 7043SOL    HW127091   6.506   8.166   1.739 -0.5151  0.3499 -0.0016
 7043SOL    HW227092   6.421   8.061   1.808 -0.7934  1.3109  1.1555
 7044SOL     OW27093   0.965   0.703   0.584  0.5294 -0.1800  0.6210
 7044SOL    HW127094   0.960   0.611   0.557  0.8372  0.1663 -0.7184
 7044SOL    HW227095   0.898   0.712   0.652 -1.9500 -0.6544 -1.5829
 7045SOL     OW27096   4.168   0.200   3.747  0.2425 -0.5024  0.6569
 7045SOL    HW127097   4.076   0.228   3.754  0.1973 -0.9525  2.2793
 7045SOL    HW227098   4.166   0.106   3.763  0.9629 -0.5745  0.3750
 7046SOL     OW27099   7.390   8.087   3.384 -0.2361 -1.0216  0.0411
 7046SOL    HW127100   7.395   7.994   3.403  0.3554 -0.8633  0.7102
 7046SOL    HW227101   7.392   8.129   3.470 -0.1049 -0.3768 -0.2683
 7047SOL     OW27102   2.386   5.054   6.235  0.6335  0.0867  0.1442
 7047SOL    HW127103   2.351   5.142   6.221 -1.5944 -0.5092  1.4093
 7047SOL    HW227104   2.464   5.068   6.289 -0.4629  1.2648  1.5287
 7048SOL     OW27105   6.936   4.696   7.508 -0.1293 -0.4590 -0.3184
 7048SOL    HW127106   6.906   4.767   7.565  0.7128  0.6344 -1.1932
 7048SOL    HW227107   7.022   4.724   7.477  0.4879 -2.1264 -0.2552
 7049SOL     OW27108   6.057   4.140   2.411  0.0550  1.4611  1.1813
 7049SOL    HW127109   6.070   4.085   2.488 -0.3767  0.6511  0.6830
 7049SOL    HW227110   5.993   4.205   2.438 -0.5994  0.7705  1.3053
 7050SOL     OW27111   1.328   1.378   5.829  0.0041  0.2679  0.5752
 7050SOL    HW127112   1.250   1.417   5.789  0.2320  1.5389  1.3123
 7050SOL    HW227113   1.303   1.287   5.845 -1.1182  0.5012  0.2651
 7051SOL     OW27114   6.946   8.441   4.513 -0.2054 -0.4200 -0.2871
 7051SOL    HW127115   6.870   8.477   4.558 -0.6642 -0.7830 -0.7606
 7051SOL    HW227116   7.009   8.513   4.511 -0.3221 -0.2798  0.5806
 7052SOL     OW27117   8.926   3.551   7.666  0.2363  0.3160  0.5705
 7052SOL    HW127118   8.942   3.474   7.611 -0.6789 -0.1740  0.9738
 7052SOL    HW227119   8.887   3.516   7.746 -1.4206  1.3100  0.2417
 7053SOL     OW27120   8.410   1.246   0.966 -0.8559  0.1440  0.1615
 7053SOL    HW127121   8.360   1.219   0.889 -0.8264  0.3180  0.0817
 7053SOL    HW227122   8.411   1.168   1.022  0.6764 -0.5926 -0.8045
 7054SOL     OW27123   1.114   4.704   0.815  0.4006 -0.2878  0.4440
 7054SOL    HW127124   1.107   4.655   0.896 -0.3912 -0.9255  0.0088
 7054SOL    HW227125   1.058   4.657   0.753 -0.7524  1.3797  0.1316
 7055SOL     OW27126   3.658   2.345   5.775  0.4286  0.2661 -0.2235
 7055SOL    HW127127   3.593   2.397   5.822  0.7966 -0.0861  0.6887
 7055SOL    HW227128   3.626   2.255   5.780  1.0212  0.0783  0.3141
 7056SOL     OW27129   5.774   8.914   9.171 -0.1261  0.0551 -0.6198
 7056SOL    HW127130   5.704   8.863   9.213 -2.3981  1.5743 -2.2745
 7056SOL    HW227131   5.800   8.860   9.096  0.1964 -0.3137 -0.2523
 7057SOL     OW27132   4.400   2.552   8.454 -0.2819  0.1889 -0.2068
 7057SOL    HW127133   4.339   2.492   8.499 -1.6996 -0.0271 -2.2521
 7057SOL    HW227134   4.343   2.617   8.413  1.0522  1.2441 -0.4375
 7058SOL     OW27135   5.364   3.530   5.276  0.0953 -0.0435 -0.7133
 7058SOL    HW127136   5.405   3.581   5.206 -0.8702 -1.7299 -2.5931
 7058SOL    HW227137   5.283   3.497   5.238 -0.8705 -0.3681  1.4898
 7059SOL     OW27138   2.584   6.368   3.774 -0.4991  0.0517 -0.0992
 7059SOL    HW127139   2.630   6.445   3.739 -1.0907  0.8884  0.9101
 7059SOL    HW227140   2.516   6.350   3.708  1.1620 -1.1746 -1.5834
 7060SOL     OW27141   8.776   8.023   3.349  0.6991  0.2996  0.6357
 7060SOL    HW127142   8.740   7.951   3.298 -0.3189  0.1231  1.5670
 7060SOL    HW227143   8.832   8.071   3.288 -0.4357  0.0688 -0.6289
 7061SOL     OW27144   5.667   0.611   0.468 -0.0832 -0.1235 -0.4028
 7061SOL    HW127145   5.729   0.655   0.527 -0.3352  2.9944 -2.2374
 7061SOL    HW227146   5.614   0.556   0.525  0.6885  1.5262  2.0617
 7062SOL     OW27147   8.226   1.563   4.505 -0.6058 -0.1450 -0.3276
 7062SOL    HW127148   8.181   1.492   4.552 -1.7481  1.4620  1.1227
 7062SOL    HW227149   8.164   1.588   4.436 -0.1060 -0.6743 -0.9804
 7063SOL     OW27150   1.432   7.863   3.160 -0.0571  0.0755  0.5173
 7063SOL    HW127151   1.387   7.870   3.075  1.1029  0.8114 -0.0507
 7063SOL    HW227152   1.360   7.856   3.223 -0.9668  0.4267 -0.4333
 7064SOL     OW27153   8.623   7.258   1.583  0.6176  0.2757  0.0084
 7064SOL    HW127154   8.661   7.314   1.515 -0.2559 -0.9514 -1.5388
 7064SOL    HW227155   8.553   7.311   1.621  0.5983  0.6789 -0.5740
 7065SOL     OW27156   3.284   5.198   0.148 -0.6543 -0.7217 -0.3959
 7065SOL    HW127157   3.272   5.167   0.238 -1.4867 -0.6488 -0.4737
 7065SOL    HW227158   3.370   5.238   0.147 -0.2395 -1.5866  0.1276
 7066SOL     OW27159   9.186   7.505   9.088 -0.2116 -0.0268  0.0346
 7066SOL    HW127160   9.260   7.511   9.148 -0.4702  1.5665  0.2494
 7066SOL    HW227161   9.110   7.529   9.140 -0.9369 -1.7567 -0.1553
 7067SOL     OW27162   5.087   1.042   3.016  0.8273  0.9003  0.4648
 7067SOL    HW127163   5.006   1.034   2.967  0.0405  1.3185  1.6509
 7067SOL    HW227164   5.137   1.109   2.969  0.1691  1.1658  0.1375
 7068SOL     OW27165   8.160   1.754   5.335  0.2612 -0.1988 -0.1976
 7068SOL    HW127166   8.117   1.791   5.412 -1.5868 -1.6910 -0.4422
 7068SOL    HW227167   8.141   1.660   5.340  0.6559 -0.4184 -2.1073
 7069SOL     OW27168   1.840   8.493   1.806  0.2790 -0.1942  0.2262
 7069SOL    HW127169   1.804   8.409   1.779 -0.2117  0.5121 -1.4256
 7069SOL    HW227170   1.869   8.535   1.725 -0.9993  1.9161  0.7720
 7070SOL     OW27171   4.691   1.463   0.402  0.2837  0.0825  0.6005
 7070SOL    HW127172   4.720   1.493   0.316 -0.0117  0.5279  0.6508
 7070SOL    HW227173   4.744   1.512   0.464 -0.6455  0.9975  0.6935
 7071SOL     OW27174   8.089   7.916   2.696 -0.5609  0.2033  0.3899
 7071SOL    HW127175   7.998   7.922   2.667 -0.8528 -2.7216  0.4496
 7071SOL    HW227176   8.126   7.845   2.644  1.8942  1.6568 -0.0006
 7072SOL     OW27177   0.850   5.202   3.257 -0.2875  0.6400 -0.0200
 7072SOL    HW127178   0.932   5.189   3.208 -0.4667  0.8390 -0.3795
 7072SOL    HW227179   0.823   5.114   3.282  0.7147  0.6528  1.2399
 7073SOL     OW27180   9.303   1.063   3.950  0.0688 -0.3520 -0.2779
 7073SOL    HW127181   9.242   1.059   3.876 -0.0085  1.1259 -0.3185
 7073SOL    HW227182   9.385   1.094   3.912  0.9601 -2.4856 -0.2555
 7074SOL     OW27183   3.669   4.250   7.691 -0.5157 -0.2264 -0.3231
 7074SOL    HW127184   3.765   4.258   7.695 -0.3276 -2.3226  1.8095
 7074SOL    HW227185   3.639   4.286   7.775 -1.6129  0.2266 -0.8905
 7075SOL     OW27186   3.102   6.769   5.673  0.1608  0.0340  0.0787
 7075SOL    HW127187   3.081   6.770   5.767  1.6776 -0.7731  0.4654
 7075SOL    HW227188   3.035   6.824   5.633 -1.1630 -0.4507  1.4920
 7076SOL     OW27189   0.417   4.177   7.820 -0.1705  0.1279 -0.6083
 7076SOL    HW127190   0.347   4.182   7.885  0.1640  1.2392 -0.3070
 7076SOL    HW227191   0.392   4.104   7.763  0.1923 -1.7890  1.5348
 7077SOL     OW27192   1.332   7.482   5.481 -0.1991  0.6137  0.1639
 7077SOL    HW127193   1.382   7.524   5.550  0.6025 -1.2845  0.8183
 7077SOL    HW227194   1.344   7.539   5.404  0.9126  1.4871  0.9550
 7078SOL     OW27195   6.314   5.000   8.800  0.2192  0.6219 -0.5435
 7078SOL    HW127196   6.304   4.933   8.732 -1.0834  0.7269 -0.4761
 7078SOL    HW227197   6.226   5.014   8.834  0.7776  0.9238  0.8535
 7079SOL     OW27198   0.473   8.794   8.273 -0.0691  0.4196  0.0527
 7079SOL    HW127199   0.482   8.801   8.368 -1.0210 -1.0692  0.2963
 7079SOL    HW227200   0.505   8.877   8.239 -1.0060  1.5378  1.7577
 7080SOL     OW27201   8.035   4.671   2.790  0.3124 -0.4814  0.1036
 7080SOL    HW127202   8.097   4.742   2.807 -0.4286  0.3123 -0.4494
 7080SOL    HW227203   8.089   4.592   2.793  1.4174  0.2015 -0.6292
 7081SOL     OW27204   0.435   2.497   8.784  0.4909  0.4145  0.3487
 7081SOL    HW127205   0.420   2.476   8.692  0.1750  0.9655  0.2672
 7081SOL    HW227206   0.375   2.439   8.832  1.4631 -0.6752  0.2802
 7082SOL     OW27207   1.501   8.413   7.507 -0.2203 -0.1236  0.6373
 7082SOL    HW127208   1.473   8.412   7.415 -0.4402 -1.5876  0.7000
 7082SOL    HW227209   1.563   8.487   7.512  1.1868 -1.0925 -1.1159
 7083SOL     OW27210   8.339   6.538   4.127 -0.0670  0.0150 -0.1512
 7083SOL    HW127211   8.304   6.449   4.128 -0.6980  0.2561 -0.3211
 7083SOL    HW227212   8.425   6.531   4.167 -0.9607 -0.3176  1.8025
 7084SOL     OW27213   2.674   8.245   1.951 -0.1600  0.8844  0.0920
 7084SOL    HW127214   2.732   8.316   1.978  0.7060  0.3279 -0.2721
 7084SOL    HW227215   2.626   8.280   1.877  0.7493  0.8788 -0.5117
 7085SOL     OW27216   8.679   6.491   7.491  0.0329  0.7855  0.1223
 7085SOL    HW127217   8.676   6.576   7.535  0.2556  0.5964  0.5051
 7085SOL    HW227218   8.714   6.431   7.557 -1.5233  0.0917  0.3601
 7086SOL     OW27219   6.045   5.270   5.151  0.1328 -0.1439 -0.3937
 7086SOL    HW127220   5.975   5.262   5.086 -1.0728 -0.2489  0.8697
 7086SOL    HW227221   6.047   5.185   5.195  0.2187  0.2537  0.3859
 7087SOL     OW27222   1.528   6.214   4.446  0.0058  0.2789 -0.0177
 7087SOL    HW127223   1.501   6.131   4.486  0.2587 -1.4546 -3.1405
 7087SOL    HW227224   1.620   6.201   4.423  0.3136  1.7929  0.2697
 7088SOL     OW27225   1.654   3.361   4.162  0.0484 -0.1535 -0.1254
 7088SOL    HW127226   1.641   3.446   4.119  0.0703  0.3866  0.9117
 7088SOL    HW227227   1.618   3.373   4.250 -1.3017 -1.6714 -0.4280
 7089SOL     OW27228   0.220   8.198   3.858 -0.1192  0.2435  0.0775
 7089SOL    HW127229   0.201   8.156   3.942  0.0196  0.3060  0.1393
 7089SOL    HW227230   0.291   8.147   3.820  1.1812  1.3743  0.8862
 7090SOL     OW27231   8.504   8.306   2.173  0.2818 -0.8690  0.1849
 7090SOL    HW127232   8.545   8.367   2.113 -0.0985 -0.7003  0.0902
 7090SOL    HW227233   8.460   8.361   2.238  0.4407 -1.0463  0.4446
 7091SOL     OW27234   1.172   5.590   6.654 -0.2418  0.1187  0.6787
 7091SOL    HW127235   1.158   5.559   6.744 -0.9847  0.9387  0.8653
 7091SOL    HW227236   1.266   5.579   6.639 -0.4773 -2.3011  0.6792
 7092SOL     OW27237   1.305   4.014   0.708 -0.3159 -0.8785  0.6979
 7092SOL    HW127238   1.249   4.080   0.748  0.7815 -0.2431  1.2473
 7092SOL    HW227239   1.294   4.025   0.614  0.2560  0.4681  0.7718
 7093SOL     OW27240   1.702   6.149   2.208 -0.2399  0.0569  0.4716
 7093SOL    HW127241   1.608   6.163   2.206 -0.3762 -0.8510  0.0972
 7093SOL    HW227242   1.714   6.057   2.183  0.7710  0.3216 -0.1126
 7094SOL     OW27243   5.439   3.436   3.796  0.2092 -0.3373 -0.2694
 7094SOL    HW127244   5.384   3.398   3.864  1.3619 -0.9942  0.3203
 7094SOL    HW227245   5.454   3.526   3.824  0.0194 -0.3661 -0.0710
 7095SOL     OW27246   7.624   9.094   6.978  0.1947 -0.0687  0.2903
 7095SOL    HW127247   7.693   9.123   7.037  0.1763 -0.8977  0.7346
 7095SOL    HW227248   7.649   9.130   6.892 -1.0086  3.1957  1.1681
 7096SOL     OW27249   3.256   8.389   0.590  0.2050 -0.0152  0.1814
 7096SOL    HW127250   3.348   8.400   0.616  0.0458 -0.2623  0.8686
 7096SOL    HW227251   3.253   8.305   0.545  0.4024  0.2076 -0.2482
 7097SOL     OW27252   1.983   3.301   7.932  0.1659 -0.0422 -0.4714
 7097SOL    HW127253   1.985   3.247   8.011 -0.5900 -0.8233 -0.9629
 7097SOL    HW227254   2.047   3.260   7.873  0.3514  0.2274 -0.4585
 7098SOL     OW27255   4.680   8.658   1.153  0.1638 -0.5664 -0.0909
 7098SOL    HW127256   4.717   8.653   1.241 -0.4212 -0.3408  0.1740
 7098SOL    HW227257   4.660   8.568   1.131 -1.6429 -0.4564  0.8760
 7099SOL     OW27258   1.840   7.744   4.840 -0.1553  0.3789 -0.4185
 7099SOL    HW127259   1.824   7.738   4.934  2.4230  0.4259  0.0904
 7099SOL    HW227260   1.847   7.652   4.811 -0.5431  0.3742 -0.5119
 7100SOL     OW27261   6.649   8.609   0.414 -0.0779 -0.2257  0.6045
 7100SOL    HW127262   6.649   8.551   0.491  0.5370 -0.6470  0.2973
 7100SOL    HW227263   6.707   8.565   0.352  0.4750  0.7723  0.3995
 7101SOL     OW27264   0.202   9.346   5.689  0.0153 -0.1172  0.5576
 7101SOL    HW127265   0.199   9.327   5.595 -1.6276 -0.5716  0.6821
 7101SOL    HW227266   0.248   9.430   5.695 -0.3239  0.1766 -0.6921
 7102SOL     OW27267   6.612   2.308   2.875  0.6777 -0.1999 -0.2500
 7102SOL    HW127268   6.598   2.223   2.916  0.2210 -0.6643 -1.3378
 7102SOL    HW227269   6.640   2.288   2.786  0.0540  0.7838 -0.6821
 7103SOL     OW27270   8.602   6.739   0.454  0.1170  0.5016 -0.4393
 7103SOL    HW127271   8.650   6.656   0.443  0.4911  0.5712  0.5899
 7103SOL    HW227272   8.647   6.800   0.395  0.9470  0.4127  0.0802
 7104SOL     OW27273   6.855   7.964   4.785  0.3140  0.0045 -0.1823
 7104SOL    HW127274   6.790   8.018   4.829  0.4010  0.3128 -0.4309
 7104SOL    HW227275   6.810   7.929   4.708  0.6856  0.9066 -0.8263
 7105SOL     OW27276   3.243   0.487   4.663  0.0476 -0.0403 -0.2269
 7105SOL    HW127277   3.198   0.571   4.670 -0.3009 -0.3150  1.1870
 7105SOL    HW227278   3.336   0.510   4.658  0.0057  0.4367  0.8427
 7106SOL     OW27279   0.538   5.032   3.843  0.2703  0.1472  0.4810
 7106SOL    HW127280   0.533   5.086   3.921  2.0033  1.1097 -0.0210
 7106SOL    HW227281   0.628   4.999   3.842  0.1684 -0.1591 -0.8910
 7107SOL     OW27282   6.662   2.592   7.942 -0.2416 -0.3242 -0.0100
 7107SOL    HW127283   6.737   2.578   7.883 -0.0375 -0.5626  0.3069
 7107SOL    HW227284   6.624   2.505   7.954 -0.7050 -0.1757 -0.3394
 7108SOL     OW27285   4.920   0.318   3.023  0.0359 -0.0659  0.2254
 7108SOL    HW127286   5.002   0.276   3.049  1.2842  0.6472 -2.1786
 7108SOL    HW227287   4.852   0.256   3.046  1.1002 -0.2421  3.2645
 7109SOL     OW27288   0.155   9.121   2.506 -0.2542  0.0758 -0.1582
 7109SOL    HW127289   0.190   9.210   2.506  0.1134 -0.0653 -0.1871
 7109SOL    HW227290   0.078   9.126   2.562 -0.7583  0.6075 -0.8862
 7110SOL     OW27291   7.966   2.541   7.549  0.1888 -0.3859  0.0891
 7110SOL    HW127292   7.950   2.473   7.483  1.3693 -0.9411  0.3571
 7110SOL    HW227293   8.006   2.613   7.500  2.3827 -1.3393  0.3721
 7111SOL     OW27294   9.026   0.928   3.204 -0.5293  0.0956 -0.6760
 7111SOL    HW127295   8.981   1.011   3.192 -1.4499 -0.3170 -0.1912
 7111SOL    HW227296   9.009   0.879   3.124 -1.5741 -0.3365 -0.2038
 7112SOL     OW27297   3.238   8.775   0.738  0.5741 -0.1107  0.7179
 7112SOL    HW127298   3.204   8.864   0.728 -0.1882 -0.5454 -0.8371
 7112SOL    HW227299   3.165   8.726   0.776  1.0010 -0.0720  1.5936
 7113SOL     OW27300   1.311   2.256   4.404 -0.0149  0.2283 -0.1779
 7113SOL    HW127301   1.233   2.233   4.354 -0.0177  1.0538 -0.5698
 7113SOL    HW227302   1.357   2.173   4.417 -1.1274 -0.3240  0.3551
 7114SOL     OW27303   6.944   9.239   2.576 -0.2464  0.2831 -0.2624
 7114SOL    HW127304   6.899   9.320   2.600 -1.1029 -0.4706  0.7676
 7114SOL    HW227305   6.957   9.194   2.659 -1.7179 -1.6108 -0.9958
 7115SOL     OW27306   4.219   6.712   8.556  0.0808 -1.0271  0.3004
 7115SOL    HW127307   4.126   6.735   8.554 -0.0335 -1.4906  0.1141
 7115SOL    HW227308   4.255   6.763   8.628 -0.0814  0.0211 -0.3337
 7116SOL     OW27309   6.922   0.689   6.553 -0.3469 -0.0830  0.1098
 7116SOL    HW127310   6.844   0.670   6.605 -1.6349 -0.4231 -1.8150
 7116SOL    HW227311   6.996   0.674   6.612 -1.6878 -1.4003  1.5258
 7117SOL     OW27312   8.764   6.157   2.063  0.4705  0.3202  0.1920
 7117SOL    HW127313   8.813   6.087   2.020 -1.3753 -0.7068 -0.3464
 7117SOL    HW227314   8.688   6.113   2.102 -0.6310  1.9778  0.0289
 7118SOL     OW27315   1.679   7.056   0.052 -0.0745  0.0403  0.3140
 7118SOL    HW127316   1.636   7.023  -0.027  0.1511  1.5159 -0.4718
 7118SOL    HW227317   1.772   7.046   0.035  0.0276  1.6721 -0.2599
 7119SOL     OW27318   9.050   8.522   7.008 -0.3608  0.1706  0.1605
 7119SOL    HW127319   9.099   8.509   7.089 -1.5940 -0.7697  0.7990
 7119SOL    HW227320   8.969   8.473   7.021 -0.9785  0.7359 -1.3014
 7120SOL     OW27321   7.304   5.335   4.980 -0.2271 -0.3057 -0.1722
 7120SOL    HW127322   7.256   5.398   5.033  0.4699  1.3385 -1.3849
 7120SOL    HW227323   7.396   5.350   5.002 -0.1364 -2.9598  1.6471
 7121SOL     OW27324   4.571   2.392   7.598 -0.3956  0.5396  0.0363
 7121SOL    HW127325   4.588   2.486   7.602  2.6952  0.0629  0.9487
 7121SOL    HW227326   4.588   2.360   7.687 -1.5025 -0.8864 -0.2170
 7122SOL     OW27327   3.372   7.237   1.746  0.8923  0.6569  0.0371
 7122SOL    HW127328   3.299   7.179   1.769 -1.2397  3.1579  0.0428
 7122SOL    HW227329   3.449   7.192   1.779 -0.6212 -2.0362  0.2381
 7123SOL     OW27330   7.407   5.757   2.618 -0.3527  0.4546  0.3137
 7123SOL    HW127331   7.412   5.769   2.713 -1.8363  2.9742  0.1507
 7123SOL    HW227332   7.432   5.842   2.581 -0.6763 -0.2024 -1.5292
 7124SOL     OW27333   0.524   7.123   9.013 -0.4204 -0.5377 -0.7344
 7124SOL    HW127334   0.530   7.106   9.107 -1.5594 -0.3054 -0.6083
 7124SOL    HW227335   0.615   7.121   8.983  0.1569  1.1239  0.6880
 7125SOL     OW27336   0.331   1.489   1.706 -0.0217 -0.7204  0.0307
 7125SOL    HW127337   0.344   1.420   1.771 -2.0531 -0.9625  0.2466
 7125SOL    HW227338   0.316   1.443   1.624 -0.4171 -0.5302 -0.0100
 7126SOL     OW27339   4.936   6.732   6.661 -0.4389 -0.5380  0.3410
 7126SOL    HW127340   5.021   6.772   6.641 -0.3303 -1.1518 -0.4733
 7126SOL    HW227341   4.881   6.805   6.690 -0.4965  0.3589 -1.8470
 7127SOL     OW27342   4.189   6.522   2.350  0.5077  0.0248  0.5628
 7127SOL    HW127343   4.270   6.542   2.397  0.9096 -1.5814  0.5935
 7127SOL    HW227344   4.212   6.452   2.290 -0.3714  1.0049 -0.9853
 7128SOL     OW27345   7.542   6.696   3.939  0.3220  0.3592  0.0622
 7128SOL    HW127346   7.572   6.787   3.940 -0.1578  0.5162  0.5326
 7128SOL    HW227347   7.508   6.682   3.850  0.6167  0.5625 -0.0831
 7129SOL     OW27348   0.597   7.990   8.027  0.0701 -0.5789 -0.0108
 7129SOL    HW127349   0.512   8.032   8.043  0.8220  1.7186 -1.5329
 7129SOL    HW227350   0.590   7.956   7.938  0.7780 -0.2708 -0.1878
 7130SOL     OW27351   2.203   1.759   5.253 -0.1495 -0.3750 -0.2707
 7130SOL    HW127352   2.292   1.769   5.218  0.3332  0.3655  1.0829
 7130SOL    HW227353   2.146   1.795   5.185  0.4928 -1.6655 -1.5371
 7131SOL     OW27354   4.471   7.444   4.718  0.3131  0.8087  0.0372
 7131SOL    HW127355   4.441   7.394   4.642 -0.1391 -0.1687  0.8385
 7131SOL    HW227356   4.564   7.458   4.702 -0.1789  2.5621 -1.7564
 7132SOL     OW27357   7.251   2.392   7.552  0.6456  0.4962  0.3415
 7132SOL    HW127358   7.233   2.358   7.464  0.7918  0.8728  0.1653
 7132SOL    HW227359   7.252   2.487   7.542 -0.8358  0.6173  1.0331
 7133SOL     OW27360   0.091   2.390   7.995  0.5949  0.1439  0.1640
 7133SOL    HW127361   0.168   2.340   8.023 -0.2998 -0.5244  1.5338
 7133SOL    HW227362   0.076   2.361   7.904  0.6628 -1.3888  0.6105
 7134SOL     OW27363   0.793   6.610   0.451 -0.1317  0.1723  0.6372
 7134SOL    HW127364   0.791   6.704   0.431 -1.2518 -0.1143 -0.7507
 7134SOL    HW227365   0.886   6.587   0.453  0.1289  1.1753  0.3249
 7135SOL     OW27366   0.115   0.813   8.857  0.0481 -0.0306 -0.5542
 7135SOL    HW127367   0.179   0.758   8.900  0.0391 -0.2876 -0.8691
 7135SOL    HW227368   0.041   0.755   8.837 -0.0150  0.1180 -0.7689
 7136SOL     OW27369   6.841   9.083   4.633  0.3004 -0.2661  0.1545
 7136SOL    HW127370   6.797   9.163   4.606  0.6948 -0.3654 -0.7866
 7136SOL    HW227371   6.927   9.086   4.592  1.3687  0.0860  2.2433
 7137SOL     OW27372   4.913   1.024   1.759 -0.0726  0.1056  0.2482
 7137SOL    HW127373   4.849   1.016   1.689  1.6767  0.7577 -1.5192
 7137SOL    HW227374   4.902   1.114   1.791 -0.2015  0.1433  0.0976
 7138SOL     OW27375   7.796   2.644   4.555  0.5131  0.0301  0.6692
 7138SOL    HW127376   7.849   2.624   4.632 -0.0523 -0.8085  0.8603
 7138SOL    HW227377   7.820   2.576   4.492  0.6921  0.4850  0.2395
 7139SOL     OW27378   5.296   0.756   0.510  0.0132 -0.1653 -0.6457
 7139SOL    HW127379   5.339   0.794   0.434 -0.0940  0.0180 -0.6169
 7139SOL    HW227380   5.275   0.666   0.484 -1.7508  0.4580 -1.5388
 7140SOL     OW27381   1.383   2.642   2.063 -0.0029 -0.2430 -0.0441
 7140SOL    HW127382   1.398   2.583   2.138  0.0155  1.8585  1.7100
 7140SOL    HW227383   1.305   2.607   2.020 -0.3597 -1.1921  1.3130
 7141SOL     OW27384   3.662   2.405   6.834 -0.3037 -0.0683  0.3001
 7141SOL    HW127385   3.737   2.366   6.789 -0.1603  0.9017 -0.3349
 7141SOL    HW227386   3.686   2.497   6.845 -1.2189  0.1573  0.4994
 7142SOL     OW27387   4.733   6.975   2.187  0.5190  0.2995 -0.5264
 7142SOL    HW127388   4.808   6.926   2.155  0.2697 -0.9805  0.7193
 7142SOL    HW227389   4.673   6.980   2.112  1.6040  0.9113 -1.3833
 7143SOL     OW27390   5.458   2.801   5.453  0.3989 -0.0918  0.3653
 7143SOL    HW127391   5.414   2.881   5.427 -1.2028 -0.5235  1.5901
 7143SOL    HW227392   5.460   2.747   5.374 -0.3014  0.3768  0.0194
 7144SOL     OW27393   7.711   0.087   6.812  0.4707  0.2850  0.5659
 7144SOL    HW127394   7.732   0.119   6.900 -0.2976 -0.0828  0.8924
 7144SOL    HW227395   7.617   0.070   6.814  0.3445  0.8044 -0.5117
 7145SOL     OW27396   7.968   8.832   6.913  0.2127 -0.2051  0.2249
 7145SOL    HW127397   8.061   8.809   6.904 -0.2567 -2.7824  1.0855
 7145SOL    HW227398   7.923   8.768   6.858 -1.0585  1.8342 -1.2424
 7146SOL     OW27399   5.898   4.561   8.052  0.0730 -0.2760 -0.2031
 7146SOL    HW127400   5.921   4.645   8.092  0.1664 -0.9523  1.1929
 7146SOL    HW227401   5.977   4.535   8.004  0.4096 -0.0748  0.2364
 7147SOL     OW27402   4.794   0.785   7.024  0.4866 -0.4484  0.5896
 7147SOL    HW127403   4.790   0.743   7.110  1.2471 -1.2783  0.2377
 7147SOL    HW227404   4.770   0.876   7.040  2.1040 -0.2256  1.9415
 7148SOL     OW27405   6.495   3.850   3.295  0.3075 -0.0520 -0.3759
 7148SOL    HW127406   6.444   3.801   3.230 -0.1045 -0.3271  0.1424
 7148SOL    HW227407   6.564   3.790   3.322 -0.1408 -0.3256  0.1899
 7149SOL     OW27408   5.502   9.039   2.922 -0.5493  0.3059  0.0086
 7149SOL    HW127409   5.445   8.962   2.924 -0.5162  0.2859  0.2973
 7149SOL    HW227410   5.453   9.107   2.968 -0.8006  0.6197 -0.7119
 7150SOL     OW27411   5.114   4.374   4.374  0.4151 -0.1416  0.2715
 7150SOL    HW127412   5.192   4.419   4.407  0.3275 -0.2349  0.6032
 7150SOL    HW227413   5.117   4.288   4.414  1.0250 -0.7415 -0.9916
 7151SOL     OW27414   7.128   8.678   8.959 -0.4565  0.2604 -0.3214
 7151SOL    HW127415   7.168   8.599   8.922 -0.4532  0.2952 -0.3931
 7151SOL    HW227416   7.110   8.655   9.050  0.6247  0.5663 -0.0135
 7152SOL     OW27417   4.453   1.327   8.243  0.6451 -0.1104 -0.1163
 7152SOL    HW127418   4.382   1.361   8.188  0.2912 -1.3383 -0.4456
 7152SOL    HW227419   4.413   1.253   8.290  1.8803 -1.3046 -0.8700
 7153SOL     OW27420   2.936   3.491   8.803 -0.1170 -0.1255 -0.1690
 7153SOL    HW127421   3.032   3.484   8.808  0.0144 -0.3468 -2.2409
 7153SOL    HW227422   2.905   3.420   8.858  0.8919  0.0434  0.6694
 7154SOL     OW27423   8.965   3.883   1.991 -0.0203  0.1615 -0.1441
 7154SOL    HW127424   9.006   3.804   1.957  0.8174  0.2362  0.6880
 7154SOL    HW227425   9.026   3.954   1.969 -0.7174  0.5828 -0.8011
 7155SOL     OW27426   4.426   1.384   4.233 -0.3695 -0.4895  0.0812
 7155SOL    HW127427   4.421   1.354   4.142 -0.4824 -0.5081  0.0932
 7155SOL    HW227428   4.341   1.426   4.249  0.6109  2.0062 -0.7038
 7156SOL     OW27429   7.624   4.541   3.181 -0.1674  0.1698 -0.4670
 7156SOL    HW127430   7.560   4.605   3.215  3.0496  2.4309  1.9704
 7156SOL    HW227431   7.664   4.586   3.106  0.8298  0.2482  0.1033
 7157SOL     OW27432   8.640   6.638   2.241  0.2424 -0.0104 -0.0552
 7157SOL    HW127433   8.589   6.717   2.223  1.5743  1.0356  0.5363
 7157SOL    HW227434   8.587   6.567   2.207 -1.3868  1.0614  0.1284
 7158SOL     OW27435   7.567   9.068   3.748  0.0199 -0.0121  0.1218
 7158SOL    HW127436   7.574   9.077   3.653  0.8185 -0.2033  0.1552
 7158SOL    HW227437   7.656   9.079   3.779 -0.1953 -0.2420  0.8280
 7159SOL     OW27438   4.129   4.303   0.175 -0.0891  0.2323  0.2679
 7159SOL    HW127439   4.118   4.341   0.088 -1.5616 -2.3033 -0.7626
 7159SOL    HW227440   4.087   4.366   0.233 -0.5876  1.1898 -1.0752
 7160SOL     OW27441   2.686   3.071   8.125 -0.2399  0.1121 -0.5354
 7160SOL    HW127442   2.727   3.077   8.211 -1.6161  1.0589  0.0940
 7160SOL    HW227443   2.749   3.024   8.071  0.6316 -0.5308  0.9965
 7161SOL     OW27444   1.212   1.029   0.228  0.6531 -0.3096 -0.3138
 7161SOL    HW127445   1.306   1.037   0.208  0.4736 -1.6839 -1.9800
 7161SOL    HW227446   1.207   0.962   0.296  0.9675  1.1339  1.1925
 7162SOL     OW27447   7.745   6.519   4.707  0.6029 -0.4228  0.6307
 7162SOL    HW127448   7.734   6.577   4.782 -0.1812  0.2302  0.0255
 7162SOL    HW227449   7.763   6.433   4.746  0.6198 -0.0171  1.5494
 7163SOL     OW27450   6.318   5.818   1.921 -0.2265  0.0771 -0.0755
 7163SOL    HW127451   6.412   5.800   1.912 -0.7234 -2.1923 -1.2538
 7163SOL    HW227452   6.307   5.904   1.881  1.2639  0.1986 -0.3063
 7164SOL     OW27453   0.328   3.989   7.662  0.8274 -0.5661 -0.3546
 7164SOL    HW127454   0.399   3.986   7.598  1.2296  3.7994 -0.4129
 7164SOL    HW227455   0.260   4.041   7.619 -0.0240  0.1484  1.7636
 7165SOL     OW27456   8.168   8.004   8.397 -0.2107  1.2074 -0.1761
 7165SOL    HW127457   8.140   8.084   8.354  0.2519  0.7573 -1.3432
 7165SOL    HW227458   8.248   7.978   8.352  0.0404  0.4661  0.6502
 7166SOL     OW27459   5.435   0.126   8.074  0.0582  0.4216 -0.4264
 7166SOL    HW127460   5.471   0.170   8.150  0.1710  0.2814 -0.3975
 7166SOL    HW227461   5.441   0.033   8.095 -0.8030  0.4082 -0.2039
 7167SOL     OW27462   0.642   4.333   1.346 -0.3561  0.5080 -0.0460
 7167SOL    HW127463   0.696   4.399   1.390  0.0841  1.6856 -2.2040
 7167SOL    HW227464   0.566   4.323   1.403  1.1763  0.2752  2.0759
 7168SOL     OW27465   1.997   0.718   8.520 -0.9140  0.0245 -0.3567
 7168SOL    HW127466   1.931   0.723   8.451 -2.0641 -0.3086  0.6829
 7168SOL    HW227467   2.031   0.807   8.527  1.8866 -0.5705 -3.7960
 7169SOL     OW27468   6.980   1.037   7.404  0.3044  0.4136 -0.0664
 7169SOL    HW127469   7.019   1.114   7.447  1.4499 -0.3758  0.3527
 7169SOL    HW227470   6.919   1.003   7.469  1.5328 -0.3793  0.7233
 7170SOL     OW27471   6.520   2.659   1.769  0.4236  0.4409  0.2419
 7170SOL    HW127472   6.610   2.678   1.796  0.6210  0.5866 -0.4899
 7170SOL    HW227473   6.524   2.659   1.673 -0.5147  1.2521  0.1849
 7171SOL     OW27474   7.022   1.574   5.088 -0.0530  0.6793 -0.4937
 7171SOL    HW127475   7.086   1.615   5.029  0.7032 -1.0103 -0.9076
 7171SOL    HW227476   7.058   1.487   5.104 -1.5541  0.2155  0.4329
 7172SOL     OW27477   5.482   8.729   8.385 -0.0265  0.0854 -0.9293
 7172SOL    HW127478   5.392   8.702   8.369 -0.4526  1.0734 -0.2989
 7172SOL    HW227479   5.516   8.752   8.299 -0.1853 -0.8434 -1.2462
 7173SOL     OW27480   4.585   1.875   3.003 -0.0081 -0.3703  0.3037
 7173SOL    HW127481   4.549   1.911   2.922  0.9697  1.2768  0.5730
 7173SOL    HW227482   4.622   1.790   2.976  0.1333  0.0596 -0.9340
 7174SOL     OW27483   0.468   7.521   6.713  0.3668  0.1369 -0.8282
 7174SOL    HW127484   0.535   7.563   6.767  0.0911  1.1121 -1.2386
 7174SOL    HW227485   0.385   7.559   6.742 -0.0063 -0.9407 -0.4380
 7175SOL     OW27486   1.114   6.624   0.289 -0.0908  0.2092  0.6611
 7175SOL    HW127487   1.098   6.530   0.284 -3.3568  0.6481  0.3898
 7175SOL    HW227488   1.110   6.644   0.382  0.4483  0.1051  0.7074
 7176SOL     OW27489   0.220   6.266   7.504  0.4436  0.1083  0.0890
 7176SOL    HW127490   0.209   6.187   7.557  0.2332  0.3645  0.4388
 7176SOL    HW227491   0.260   6.236   7.423 -0.2188 -0.4485 -0.0395
 7177SOL     OW27492   4.340   6.994   3.650  0.2431 -0.4433  0.0865
 7177SOL    HW127493   4.380   6.994   3.737 -0.8243  0.7165  0.6046
 7177SOL    HW227494   4.336   7.086   3.625 -2.0386 -0.4927  0.0607
 7178SOL     OW27495   5.766   8.489   7.135 -0.1260  0.0628 -0.1828
 7178SOL    HW127496   5.786   8.446   7.051  0.6702  1.9717 -1.0183
 7178SOL    HW227497   5.830   8.452   7.196 -1.8101 -2.6461  0.1112
 7179SOL     OW27498   7.893   5.541   7.214 -0.1066 -0.2159 -0.2893
 7179SOL    HW127499   7.806   5.534   7.176 -0.4153 -2.6366  0.6711
 7179SOL    HW227500   7.945   5.474   7.168 -0.6942 -3.8636  3.6858
 7180SOL     OW27501   8.639   3.401   3.480 -0.1511 -0.1582  0.5207
 7180SOL    HW127502   8.732   3.376   3.486  0.3579  1.8082  2.2214
 7180SOL    HW227503   8.636   3.465   3.409 -0.5195 -1.3095 -0.5279
 7181SOL     OW27504   7.736   8.151   1.092 -0.7237  0.5521  0.3920
 7181SOL    HW127505   7.734   8.219   1.159 -0.7912  0.5591  0.3836
 7181SOL    HW227506   7.676   8.182   1.024 -1.1044  0.2749  0.5962
 7182SOL     OW27507   6.073   2.396   4.946  0.4024  0.5366 -0.7372
 7182SOL    HW127508   5.981   2.402   4.973  0.3893  1.9883 -1.0561
 7182SOL    HW227509   6.122   2.393   5.029  0.1670  1.6775 -0.5464
 7183SOL     OW27510   5.495   6.543   0.805 -0.3002 -0.5971  0.4308
 7183SOL    HW127511   5.563   6.526   0.740 -0.9271 -0.6382 -0.2268
 7183SOL    HW227512   5.499   6.638   0.819 -0.5048 -0.5129 -0.0592
 7184SOL     OW27513   4.419   1.437   1.402 -0.4587  0.3194 -0.1892
 7184SOL    HW127514   4.492   1.411   1.345 -0.0792  0.2019  0.3390
 7184SOL    HW227515   4.343   1.440   1.344 -0.4413 -1.5491 -0.3494
 7185SOL     OW27516   3.834   5.111   1.383  0.3476  0.2748 -0.2810
 7185SOL    HW127517   3.773   5.038   1.376  1.1331 -0.3622 -0.6548
 7185SOL    HW227518   3.896   5.098   1.311  1.3127  0.5310  0.4756
 7186SOL     OW27519   2.237   4.380   2.978  0.9550  0.1307 -0.3756
 7186SOL    HW127520   2.179   4.352   3.049  1.7872 -1.2744 -0.2116
 7186SOL    HW227521   2.282   4.457   3.012  0.5995  0.0779  0.2309
 7187SOL     OW27522   5.847   4.404   3.176  0.2944 -0.0935 -0.1202
 7187SOL    HW127523   5.940   4.421   3.192  0.6678 -1.5877 -0.5306
 7187SOL    HW227524   5.810   4.390   3.263  0.8449 -1.2035 -0.0380
 7188SOL     OW27525   7.252   8.344   7.230  0.3349  0.4990 -0.0524
 7188SOL    HW127526   7.171   8.393   7.248  0.2285  0.6521 -0.9226
 7188SOL    HW227527   7.231   8.289   7.155  1.3867  1.4614 -1.1017
 7189SOL     OW27528   5.098   8.956   0.753  0.1799 -0.1793  0.2829
 7189SOL    HW127529   5.177   8.913   0.787 -0.3568  0.0114  1.8436
 7189SOL    HW227530   5.131   9.018   0.687  1.2925 -0.3605  0.6468
 7190SOL     OW27531   7.772   6.488   8.093  0.5337 -0.2558 -0.6584
 7190SOL    HW127532   7.710   6.422   8.061  1.0090 -0.1535 -1.8575
 7190SOL    HW227533   7.858   6.454   8.066  0.8609  0.3698 -0.4153
 7191SOL     OW27534   7.585   0.406   3.552  0.3924  0.2220 -0.1390
 7191SOL    HW127535   7.586   0.435   3.461  0.1246  0.9876  0.0928
 7191SOL    HW227536   7.492   0.397   3.573  0.4032  1.4674  0.4892
 7192SOL     OW27537   6.206   4.361   6.198  0.2720  0.0410 -0.0372
 7192SOL    HW127538   6.199   4.309   6.119 -0.1617  1.3077 -0.8619
 7192SOL    HW227539   6.166   4.445   6.176  0.2937  0.4903  1.4683
 7193SOL     OW27540   2.195   4.468   9.326  0.4564  0.1111 -0.3160
 7193SOL    HW127541   2.246   4.548   9.313  0.1797  0.5139  0.8682
 7193SOL    HW227542   2.110   4.499   9.358 -0.6441 -0.5324 -2.4334
 7194SOL     OW27543   7.360   5.698   5.598 -0.1738 -0.2371  0.2371
 7194SOL    HW127544   7.384   5.787   5.574 -0.2034 -0.3268 -0.1308
 7194SOL    HW227545   7.319   5.707   5.684 -2.0159  0.3902 -0.6559
 7195SOL     OW27546   0.384   7.626   6.313  0.1879 -0.3884 -0.4776
 7195SOL    HW127547   0.326   7.628   6.236  1.0176  0.3063 -1.1026
 7195SOL    HW227548   0.466   7.589   6.281  1.6595  2.7644 -0.7839
 7196SOL     OW27549   1.601   1.004   7.225 -0.4303  0.2611  0.0333
 7196SOL    HW127550   1.562   0.994   7.139 -0.0964 -0.0344 -0.0882
 7196SOL    HW227551   1.686   0.960   7.218 -0.9646 -0.9511  0.9134
 7197SOL     OW27552   6.572   9.146   1.841 -0.3928 -0.0375 -0.1988
 7197SOL    HW127553   6.523   9.195   1.774  0.3052  1.2448  0.1978
 7197SOL    HW227554   6.653   9.120   1.796 -0.7018 -0.7323 -0.3669
 7198SOL     OW27555   6.003   2.205   0.207 -0.1310 -0.1160 -0.1743
 7198SOL    HW127556   6.002   2.176   0.116 -3.4399 -0.0947 -0.2661
 7198SOL    HW227557   5.985   2.299   0.203 -1.4783 -0.3217  0.4833
 7199SOL     OW27558   6.725   9.272   0.243 -0.2034  0.5815 -0.1659
 7199SOL    HW127559   6.722   9.241   0.152 -0.4533  2.4339 -0.8342
 7199SOL    HW227560   6.715   9.367   0.236 -0.9960  0.6983  1.8592
 7200SOL     OW27561   5.469   7.169   8.647  0.2437 -0.1331  0.0389
 7200SOL    HW127562   5.465   7.106   8.719  1.3046  0.0245  0.2491
 7200SOL    HW227563   5.543   7.226   8.669  0.2652  0.2270 -0.9274
 7201SOL     OW27564   4.252   2.732   2.634 -0.1525 -0.0376  0.3611
 7201SOL    HW127565   4.297   2.740   2.550  0.7571  0.8866  0.9070
 7201SOL    HW227566   4.168   2.692   2.613 -0.0245  0.3824 -1.0137
 7202SOL     OW27567   3.130   7.204   8.056  0.1202  0.4285  0.2749
 7202SOL    HW127568   3.200   7.247   8.006  0.7971  1.0963  1.7356
 7202SOL    HW227569   3.052   7.257   8.040  0.9276  2.2726  2.0090
 7203SOL     OW27570   9.038   0.620   7.956 -1.1591 -0.8217  0.6105
 7203SOL    HW127571   9.011   0.692   8.013 -1.2276 -0.7360  0.4732
 7203SOL    HW227572   9.007   0.646   7.869  0.9469  0.1490  0.0858
 7204SOL     OW27573   4.066   8.989   5.933  0.0219 -0.4684  0.4703
 7204SOL    HW127574   4.056   9.001   6.027  2.0492 -0.5139  0.7506
 7204SOL    HW227575   4.100   8.900   5.923  3.6369  0.7525  0.1561
 7205SOL     OW27576   8.566   3.541   7.731 -0.1005 -0.4016 -0.1156
 7205SOL    HW127577   8.523   3.586   7.659 -0.7312  0.8377  0.9826
 7205SOL    HW227578   8.499   3.480   7.765 -0.7746  0.9406  1.0752
 7206SOL     OW27579   8.459   2.281   6.072 -0.0702 -0.2978  0.1439
 7206SOL    HW127580   8.460   2.377   6.082 -0.7481 -0.2236 -0.3801
 7206SOL    HW227581   8.551   2.255   6.076  0.2652  0.5542 -1.1970
 7207SOL     OW27582   2.549   9.115   0.741  0.2801 -0.2170  0.2032
 7207SOL    HW127583   2.461   9.150   0.752 -0.6412 -1.4175 -2.3471
 7207SOL    HW227584   2.558   9.049   0.810 -1.2272 -0.7307 -0.0487
 7208SOL     OW27585   1.456   8.065   3.560 -0.1071  0.6861  0.3313
 7208SOL    HW127586   1.459   7.992   3.623 -0.4474  1.1473  0.8853
 7208SOL    HW227587   1.371   8.057   3.518 -0.3827  1.1178  0.8119
 7209SOL     OW27588   6.447   0.704   6.665 -0.3329  0.4924  0.0372
 7209SOL    HW127589   6.438   0.797   6.643 -2.1516  0.6983  1.4674
 7209SOL    HW227590   6.374   0.686   6.724 -0.0301 -1.8681 -0.2194
 7210SOL     OW27591   7.518   6.984   6.376 -0.5244  0.3576  0.1242
 7210SOL    HW127592   7.542   6.983   6.469  0.1959  3.5799  0.0774
 7210SOL    HW227593   7.423   6.996   6.377 -0.7705 -1.3942  0.3851
 7211SOL     OW27594   3.382   6.062   4.662  0.4073 -0.0958  0.5224
 7211SOL    HW127595   3.461   6.063   4.608  0.5307 -1.3580  0.6515
 7211SOL    HW227596   3.365   5.970   4.678 -1.6793  0.0762 -0.3357
 7212SOL     OW27597   1.722   8.188   0.415  0.1827  0.1288 -0.3688
 7212SOL    HW127598   1.695   8.126   0.483  0.5520  0.1181 -0.2306
 7212SOL    HW227599   1.807   8.220   0.444  0.3608  0.0977 -0.8478
 7213SOL     OW27600   1.249   3.912   8.084 -0.4177 -0.0583  0.0525
 7213SOL    HW127601   1.340   3.941   8.086 -0.1990 -0.6374 -0.8404
 7213SOL    HW227602   1.219   3.919   8.175  0.0781  1.4620  0.1229
 7214SOL     OW27603   4.142   1.303   3.900 -0.3277  0.1736 -0.1856
 7214SOL    HW127604   4.124   1.375   3.839 -0.1537  0.8241  0.5104
 7214SOL    HW227605   4.121   1.339   3.986 -3.0599 -1.5333 -0.0210
 7215SOL     OW27606   6.259   3.184   8.273  0.0308 -0.2353  0.2867
 7215SOL    HW127607   6.228   3.247   8.337 -1.1182 -1.1938  0.7216
 7215SOL    HW227608   6.353   3.201   8.265 -0.4614  2.5194 -0.7732
 7216SOL     OW27609   7.363   4.724   4.403 -0.2645 -0.4382 -0.1382
 7216SOL    HW127610   7.337   4.737   4.494 -1.1523 -2.0191 -0.1300
 7216SOL    HW227611   7.281   4.724   4.354  0.1564 -0.2716 -0.8625
 7217SOL     OW27612   5.380   7.088   0.885  0.5706 -0.2366  0.1278
 7217SOL    HW127613   5.469   7.119   0.866  1.0306 -2.2923 -1.5432
 7217SOL    HW227614   5.325   7.131   0.821  0.7104 -0.4878 -0.1657
 7218SOL     OW27615   6.042   1.873   5.968  0.3673  0.5894  0.3826
 7218SOL    HW127616   6.070   1.925   6.043  0.4296 -0.1760  0.8915
 7218SOL    HW227617   6.052   1.933   5.893  1.8425  0.8456  0.7499
 7219SOL     OW27618   6.714   1.910   6.413 -0.1185  0.1394  0.4705
 7219SOL    HW127619   6.634   1.907   6.360 -0.9659  0.0448  1.7093
 7219SOL    HW227620   6.785   1.918   6.349 -1.1471  0.7324 -0.6414
 7220SOL     OW27621   0.436   9.300   7.402  0.0121  0.2373  0.0227
 7220SOL    HW127622   0.371   9.236   7.432 -0.9256  0.6904 -0.9855
 7220SOL    HW227623   0.405   9.384   7.436 -0.0525  0.4790 -0.6135
 7221SOL     OW27624   3.018   4.496   4.202 -0.0106 -0.1285  0.3776
 7221SOL    HW127625   3.083   4.440   4.243  0.7790  0.9383  0.6334
 7221SOL    HW227626   3.065   4.541   4.132 -0.0914  1.6465  1.4043
 7222SOL     OW27627   8.929   7.153   9.063  0.0895 -0.6702  0.2710
 7222SOL    HW127628   8.978   7.208   9.001  0.4230 -0.6463  0.5494
 7222SOL    HW227629   8.867   7.212   9.104 -0.6528 -0.8460 -0.5772
 7223SOL     OW27630   8.205   3.396   0.925 -0.3050 -0.1174  0.0771
 7223SOL    HW127631   8.134   3.444   0.883 -1.1413 -1.0089  0.4315
 7223SOL    HW227632   8.249   3.350   0.854 -0.2263  0.2597 -0.1183
 7224SOL     OW27633   6.274   3.057   0.045  0.1263 -0.4748  0.0468
 7224SOL    HW127634   6.307   3.094  -0.037 -0.8767  0.3509 -0.0080
 7224SOL    HW227635   6.351   3.022   0.089  1.0666  1.2269 -0.1608
 7225SOL     OW27636   6.569   8.661   2.491 -0.2763 -0.2585 -0.2706
 7225SOL    HW127637   6.589   8.568   2.477  0.2269  0.0217 -1.5765
 7225SOL    HW227638   6.645   8.707   2.457 -0.6214  0.6525  0.1589
 7226SOL     OW27639   6.929   5.368   8.056  0.8527  0.8207  0.1025
 7226SOL    HW127640   6.996   5.388   8.122 -0.4798  0.0932  1.7708
 7226SOL    HW227641   6.916   5.273   8.062 -1.8300  1.1620  1.4639
 7227SOL     OW27642   6.986   5.196   1.331 -0.3832  0.1034  0.0447
 7227SOL    HW127643   7.054   5.140   1.368 -0.4637 -0.3854 -0.5234
 7227SOL    HW227644   6.987   5.275   1.385  0.7500  0.1727 -0.0549
 7228SOL     OW27645   0.809   2.178   3.263  0.3207 -0.3534 -0.7949
 7228SOL    HW127646   0.820   2.216   3.175  0.2969 -1.8199 -1.4578
 7228SOL    HW227647   0.717   2.190   3.283  0.8645  2.8592  0.4574
 7229SOL     OW27648   6.797   7.144   0.613  0.1265 -0.5054  0.2663
 7229SOL    HW127649   6.723   7.182   0.660  1.1296  1.4058  0.4032
 7229SOL    HW227650   6.759   7.108   0.533 -1.0314 -0.1580  0.6425
 7230SOL     OW27651   0.564   5.172   8.784 -0.6605 -0.5052 -0.0152
 7230SOL    HW127652   0.474   5.168   8.818 -1.0473  1.9205 -0.6024
 7230SOL    HW227653   0.553   5.186   8.690  0.4027 -2.4954 -0.5001
 7231SOL     OW27654   6.257   8.335   1.028 -0.0947  0.0145  0.1817
 7231SOL    HW127655   6.352   8.333   1.012 -0.0296 -0.7237  0.6123
 7231SOL    HW227656   6.227   8.248   1.004 -0.7858  0.4551 -0.5991
 7232SOL     OW27657   1.631   5.623   8.542  0.4032 -0.5131 -0.5917
 7232SOL    HW127658   1.603   5.580   8.623 -0.0858 -1.3872 -1.1988
 7232SOL    HW227659   1.596   5.566   8.473 -0.2360  0.8604 -1.4302
 7233SOL     OW27660   3.881   2.123   1.574 -0.4937  0.8486  0.1926
 7233SOL    HW127661   3.787   2.121   1.591 -0.5470 -0.5764 -0.1764
 7233SOL    HW227662   3.910   2.206   1.611 -1.8140  1.0930  0.7294
 7234SOL     OW27663   8.572   1.620   2.699  0.0066  0.3450  0.8319
 7234SOL    HW127664   8.534   1.612   2.787 -0.1056  2.0102  0.9710
 7234SOL    HW227665   8.519   1.562   2.644 -0.2706 -0.2990  1.7450
 7235SOL     OW27666   7.980   5.670   2.634  0.2304  0.2354 -0.3411
 7235SOL    HW127667   7.929   5.591   2.653  0.4382  0.3066  0.5259
 7235SOL    HW227668   7.928   5.716   2.568  0.2883 -0.8048 -1.1373
 7236SOL     OW27669   6.707   8.736   5.030  0.2934  0.1586 -0.1311
 7236SOL    HW127670   6.663   8.781   4.958 -0.1731 -0.8941 -0.5152
 7236SOL    HW227671   6.800   8.740   5.008  0.5312  2.8320  0.9273
 7237SOL     OW27672   4.600   7.449   4.062 -0.1360 -0.8275 -0.0173
 7237SOL    HW127673   4.542   7.451   3.985 -0.8056  1.6872  0.4491
 7237SOL    HW227674   4.680   7.492   4.033  0.2087 -1.2805  0.2613
 7238SOL     OW27675   1.155   6.444   0.698  0.5506  0.2541  0.0822
 7238SOL    HW127676   1.104   6.511   0.653  1.3943  1.4998  0.9168
 7238SOL    HW227677   1.150   6.467   0.791  0.9010 -0.8196  0.3866
 7239SOL     OW27678   3.017   6.856   1.969  0.4395 -0.0424 -0.1700
 7239SOL    HW127679   2.937   6.882   2.015  0.2129 -1.6707  0.4003
 7239SOL    HW227680   3.063   6.800   2.031  0.9358 -0.9365 -1.3177
 7240SOL     OW27681   0.254   2.079   5.851  0.2257  0.5263 -0.4128
 7240SOL    HW127682   0.258   1.985   5.830 -0.5326  0.1498  0.9843
 7240SOL    HW227683   0.278   2.084   5.943  1.2214  1.8410 -0.7185
 7241SOL     OW27684   1.754   7.714   5.137 -0.2596  0.0219  0.2117
 7241SOL    HW127685   1.679   7.678   5.184 -0.4234  0.3505  0.2075
 7241SOL    HW227686   1.807   7.755   5.206 -0.1237 -0.1404  0.2043
 7242SOL     OW27687   7.325   2.538   0.429  0.3447  0.7611 -0.6436
 7242SOL    HW127688   7.415   2.527   0.398  0.7345 -1.1900  0.9394
 7242SOL    HW227689   7.334   2.548   0.524 -1.1225 -0.1151 -0.3780
 7243SOL     OW27690   2.700   3.391   2.147 -0.7318 -0.3225 -0.1008
 7243SOL    HW127691   2.770   3.329   2.130 -2.0741 -2.1378  0.5900
 7243SOL    HW227692   2.693   3.394   2.242  1.0511  3.0628  0.0844
 7244SOL     OW27693   2.264   1.464   1.412  0.3927 -0.0113  0.1622
 7244SOL    HW127694   2.247   1.509   1.495  0.9825  0.9825 -0.2291
 7244SOL    HW227695   2.240   1.373   1.428  0.3704  0.1927  1.3813
 7245SOL     OW27696   5.895   8.931   2.707 -0.3756  0.4370  0.1308
 7245SOL    HW127697   5.968   8.946   2.767 -1.4574  3.3742  0.9010
 7245SOL    HW227698   5.891   8.836   2.697  1.1352 -0.0638  3.1196
 7246SOL     OW27699   2.684   9.248   3.404 -0.0463 -0.6207 -0.2768
 7246SOL    HW127700   2.712   9.182   3.341 -2.3682 -1.0153 -0.9885
 7246SOL    HW227701   2.608   9.209   3.447  0.4530  0.3390  1.5781
 7247SOL     OW27702   3.439   3.195   2.761 -0.0520  0.1569  0.2223
 7247SOL    HW127703   3.460   3.277   2.805 -0.1885  0.0525  0.4843
 7247SOL    HW227704   3.473   3.127   2.819  0.3347  0.0374 -0.1452
 7248SOL     OW27705   0.314   9.208   1.889 -0.7849 -0.1429 -0.0519
 7248SOL    HW127706   0.341   9.193   1.799 -1.4454  2.0857 -0.6758
 7248SOL    HW227707   0.221   9.183   1.891 -1.6567  2.7170 -0.8786
 7249SOL     OW27708   0.735   3.788   6.068  0.0369  0.1278  0.1270
 7249SOL    HW127709   0.702   3.750   6.149 -0.5825 -1.7477 -0.9641
 7249SOL    HW227710   0.827   3.763   6.066 -0.3856 -1.4732 -0.6246
 7250SOL     OW27711   6.577   9.061   2.891 -0.0161 -0.3144  0.1463
 7250SOL    HW127712   6.530   9.023   2.965 -0.3727 -0.7687 -0.3121
 7250SOL    HW227713   6.552   9.153   2.891  1.1090  0.0279  1.4661
 7251SOL     OW27714   8.669   5.561   3.912  0.0458  0.5899  0.0947
 7251SOL    HW127715   8.707   5.508   3.983 -0.7706 -0.5390 -0.2766
 7251SOL    HW227716   8.577   5.571   3.937 -0.4173 -0.4179 -1.1306
 7252SOL     OW27717   7.796   6.294   3.276 -0.3733  0.6334 -0.0423
 7252SOL    HW127718   7.745   6.234   3.329  1.5145 -0.2170  0.9194
 7252SOL    HW227719   7.735   6.364   3.252 -1.2693  1.3140  3.6496
 7253SOL     OW27720   2.177   5.274   6.305  0.0069 -0.0224 -0.3378
 7253SOL    HW127721   2.149   5.365   6.307  1.5182  0.4560  1.3418
 7253SOL    HW227722   2.108   5.226   6.351 -0.0661  0.5090  0.1096
 7254SOL     OW27723   8.233   0.802   7.757 -0.1206  0.1596  1.1311
 7254SOL    HW127724   8.244   0.709   7.775  0.2120  0.0307  0.3091
 7254SOL    HW227725   8.181   0.805   7.676 -0.0579  0.6833  1.1066
 7255SOL     OW27726   3.765   8.497   9.051 -0.1173  0.1535  0.0142
 7255SOL    HW127727   3.702   8.513   9.121  1.2751 -0.9491  1.6268
 7255SOL    HW227728   3.826   8.571   9.055  1.8230 -1.3968  2.2532
 7256SOL     OW27729   2.064   4.607   8.397 -0.3168  0.1429 -0.2704
 7256SOL    HW127730   2.049   4.538   8.332  2.0544 -0.3768 -0.3779
 7256SOL    HW227731   2.043   4.566   8.481 -2.8014  0.6268 -0.5793
 7257SOL     OW27732   8.613   2.276   3.879  0.4942  0.3515 -0.4510
 7257SOL    HW127733   8.643   2.259   3.969  0.6186  4.3377  0.4595
 7257SOL    HW227734   8.693   2.279   3.827  0.7942  1.2668  0.0289
 7258SOL     OW27735   3.681   6.826   0.963 -0.3443  0.0148  0.4570
 7258SOL    HW127736   3.685   6.746   0.911  1.0210 -1.9552  3.2866
 7258SOL    HW227737   3.763   6.871   0.945 -0.1861 -0.2990  0.3900
 7259SOL     OW27738   0.381   0.700   8.232 -0.8092 -0.4259 -0.1868
 7259SOL    HW127739   0.435   0.696   8.311 -1.6665 -1.1470  0.3961
 7259SOL    HW227740   0.350   0.610   8.220  0.1798 -0.5653 -1.9919
 7260SOL     OW27741   0.195   9.370   8.352  0.6719 -0.2296 -0.2450
 7260SOL    HW127742   0.260   9.300   8.365  2.1990  1.2858  0.7059
 7260SOL    HW227743   0.241   9.436   8.300 -0.2692  0.7023  0.0815
 7261SOL     OW27744   1.482   6.179   4.099  0.0741  0.1584  0.3902
 7261SOL    HW127745   1.546   6.247   4.117  0.3172  0.2685 -0.8461
 7261SOL    HW227746   1.525   6.098   4.128  0.0208  0.4327  1.2869
 7262SOL     OW27747   8.500   0.367   0.742  0.0384 -0.0611 -0.2414
 7262SOL    HW127748   8.566   0.435   0.754 -0.4375  0.7288 -1.7897
 7262SOL    HW227749   8.438   0.404   0.679 -2.6835 -0.2106  2.1040
 7263SOL     OW27750   7.165   6.855   2.241 -0.1073  0.0544 -0.0604
 7263SOL    HW127751   7.134   6.813   2.160 -0.7686 -0.7532  0.5876
 7263SOL    HW227752   7.126   6.942   2.239 -1.0324 -0.3387 -0.1114
 7264SOL     OW27753   3.543   5.366   1.106  0.1636 -0.2110 -0.3333
 7264SOL    HW127754   3.623   5.331   1.066  1.2887  0.7749  0.9623
 7264SOL    HW227755   3.534   5.319   1.189 -0.5976 -0.2944 -0.4504
 7265SOL     OW27756   2.073   8.832   3.251 -0.4244 -0.3599 -0.5922
 7265SOL    HW127757   2.133   8.807   3.180  2.2488 -1.0913  1.7169
 7265SOL    HW227758   2.131   8.854   3.324 -3.0190  0.8199  1.2496
 7266SOL     OW27759   6.320   8.033   0.729 -0.5398  0.3132 -0.1858
 7266SOL    HW127760   6.408   8.001   0.749 -0.7337 -0.5130 -0.6271
 7266SOL    HW227761   6.333   8.102   0.665 -0.0208  2.0159  1.6332
 7267SOL     OW27762   1.927   5.327   9.234 -0.0574  0.4916  0.3620
 7267SOL    HW127763   1.993   5.386   9.271  1.2831 -1.0854  0.6382
 7267SOL    HW227764   1.977   5.251   9.205 -1.9401 -2.0834  3.1357
 7268SOL     OW27765   9.333   5.677   4.516 -0.0077 -0.1679 -0.6627
 7268SOL    HW127766   9.296   5.594   4.545 -1.3303 -0.5220 -3.1138
 7268SOL    HW227767   9.261   5.721   4.471  0.5245  2.5485  0.9145
 7269SOL     OW27768   0.589   8.112   1.033 -0.4475  0.0056 -0.1676
 7269SOL    HW127769   0.545   8.187   1.073  0.2662  0.2215  0.2325
 7269SOL    HW227770   0.602   8.137   0.942 -0.5555  0.2146 -0.1246
 7270SOL     OW27771   7.633   5.597   7.104 -0.5076  0.1565  0.1759
 7270SOL    HW127772   7.611   5.508   7.077 -0.2513  0.5543 -1.4212
 7270SOL    HW227773   7.631   5.648   7.023 -2.9097  2.1092  1.3144
 7271SOL     OW27774   5.755   6.125   7.133 -0.1286 -0.2287  0.3267
 7271SOL    HW127775   5.791   6.159   7.052  1.0184 -0.7677  0.5902
 7271SOL    HW227776   5.733   6.203   7.185 -1.7368  0.1423 -0.8248
 7272SOL     OW27777   1.119   6.618   8.065  0.0786 -0.5746 -0.5373
 7272SOL    HW127778   1.100   6.580   8.151  0.0670  0.2385 -0.1702
 7272SOL    HW227779   1.196   6.570   8.035  0.6887 -0.2054  0.3749
 7273SOL     OW27780   9.147   2.273   3.259  0.0123 -0.3723 -0.2938
 7273SOL    HW127781   9.224   2.329   3.252  0.3316 -0.9703 -2.1372
 7273SOL    HW227782   9.171   2.193   3.213 -0.9876 -1.4133  0.9333
 7274SOL     OW27783   8.361   0.509   1.108 -0.4440  0.4293 -0.3288
 7274SOL    HW127784   8.411   0.569   1.052 -1.4960  0.4934 -1.2412
 7274SOL    HW227785   8.325   0.444   1.047  0.0477 -0.6985  0.5515
 7275SOL     OW27786   6.514   0.269   2.931 -0.0455  0.9628 -0.2266
 7275SOL    HW127787   6.489   0.297   3.020  0.5430 -0.9201  0.5864
 7275SOL    HW227788   6.431   0.249   2.889 -0.2350 -0.3102  0.7014
 7276SOL     OW27789   5.969   6.763   6.954  0.0453  0.2791  0.1147
 7276SOL    HW127790   5.994   6.728   6.868 -0.5589  0.6217 -0.2100
 7276SOL    HW227791   6.007   6.851   6.955 -1.4485  0.9649 -0.5560
 7277SOL     OW27792   1.664   8.618   7.492 -0.4660 -0.5539  0.2397
 7277SOL    HW127793   1.675   8.684   7.560 -2.6279  0.5548 -0.3927
 7277SOL    HW227794   1.713   8.651   7.417 -1.3219  0.2266  0.0122
 7278SOL     OW27795   7.321   7.520   2.454 -0.4046 -0.7958 -0.0330
 7278SOL    HW127796   7.324   7.537   2.548 -0.4649 -1.9670  0.1975
 7278SOL    HW227797   7.394   7.570   2.418  0.5110 -1.4764  0.8379
 7279SOL     OW27798   3.868   6.395   4.017 -0.0014  0.1284 -0.3588
 7279SOL    HW127799   3.928   6.455   3.973 -0.0798  0.7680  0.3691
 7279SOL    HW227800   3.896   6.308   3.991  2.0458  0.3468  0.9166
 7280SOL     OW27801   1.875   5.456   4.923 -0.1746  0.0237 -0.0981
 7280SOL    HW127802   1.941   5.520   4.948 -0.3954  0.3218 -0.2693
 7280SOL    HW227803   1.791   5.500   4.940 -0.3325 -0.4181  0.2914
 7281SOL     OW27804   6.482   3.132   6.710 -0.3470 -0.1918 -0.3187
 7281SOL    HW127805   6.449   3.221   6.714  0.4144  0.1162 -0.6666
 7281SOL    HW227806   6.499   3.109   6.801  0.2066  0.3189 -0.2840
 7282SOL     OW27807   3.615   0.391   6.537  0.8688  0.2187 -0.0939
 7282SOL    HW127808   3.660   0.408   6.619 -1.7907 -0.6883  1.6799
 7282SOL    HW227809   3.522   0.406   6.557 -0.0244 -1.4422 -2.5452
 7283SOL     OW27810   2.328   0.302   7.282 -0.6390 -0.3949  0.0153
 7283SOL    HW127811   2.248   0.267   7.244  0.1400 -1.1326 -1.0345
 7283SOL    HW227812   2.321   0.397   7.273 -1.2629 -0.4731 -0.3191
 7284SOL     OW27813   8.634   0.548   5.654  0.5120 -0.7834 -0.7749
 7284SOL    HW127814   8.695   0.545   5.580  1.1060  1.1014 -0.4353
 7284SOL    HW227815   8.680   0.505   5.726  1.5960  0.7952 -0.4667
 7285SOL     OW27816   3.187   5.217   4.107  0.1734  0.6723  0.6099
 7285SOL    HW127817   3.108   5.164   4.118  1.5891 -1.3119  1.8422
 7285SOL    HW227818   3.210   5.206   4.014  0.3971 -0.8805  0.8225
 7286SOL     OW27819   0.674   6.599   9.289 -0.5266 -0.2566 -0.2628
 7286SOL    HW127820   0.718   6.581   9.372  0.4192 -0.6880 -0.8421
 7286SOL    HW227821   0.728   6.556   9.223 -1.4014 -0.1357 -1.0852
 7287SOL     OW27822   5.986   1.668   3.543  0.4087 -0.2264 -0.2337
 7287SOL    HW127823   6.025   1.613   3.610  1.3598  2.4161  1.5433
 7287SOL    HW227824   5.977   1.754   3.584 -2.1837  0.6980 -2.4134
 7288SOL     OW27825   9.369   7.061   6.822  0.2401  0.0959  0.2864
 7288SOL    HW127826   9.391   6.973   6.851  1.9660  0.3086 -0.2427
 7288SOL    HW227827   9.454   7.103   6.806 -0.4878  2.1599  1.3849
 7289SOL     OW27828   2.139   4.695   0.214  0.3868  1.1008 -0.2838
 7289SOL    HW127829   2.113   4.773   0.263 -1.5607  0.9591 -0.9914
 7289SOL    HW227830   2.211   4.657   0.264 -0.1243  2.1244  1.2878
 7290SOL     OW27831   0.316   1.691   1.876  0.1338 -0.4801 -0.1279
 7290SOL    HW127832   0.328   1.631   1.802 -0.2114  0.8259 -1.2904
 7290SOL    HW227833   0.403   1.699   1.915  0.3948 -0.9182 -0.6084
 7291SOL     OW27834   2.170   7.926   3.248  0.3121 -0.6193  0.1463
 7291SOL    HW127835   2.230   8.000   3.264  0.5961 -0.7696 -0.2255
 7291SOL    HW227836   2.209   7.878   3.176 -1.6181  0.8010 -2.0226
 7292SOL     OW27837   6.326   8.613   6.278  0.1359 -0.5183  0.2114
 7292SOL    HW127838   6.390   8.562   6.327  0.3920 -0.5138 -0.1176
 7292SOL    HW227839   6.288   8.551   6.216 -1.8983 -1.1643  1.9524
 7293SOL     OW27840   8.839   0.647   8.378 -0.5148  0.2094 -0.1994
 7293SOL    HW127841   8.837   0.743   8.383 -0.4522  0.2357 -0.6401
 7293SOL    HW227842   8.918   0.622   8.426  0.6275  0.5074 -1.8320
 7294SOL     OW27843   7.191   4.172   6.211  0.1130 -0.0155  0.3127
 7294SOL    HW127844   7.128   4.112   6.173 -1.4416  1.7933 -0.1134
 7294SOL    HW227845   7.183   4.160   6.306  0.7760 -1.3694  0.2149
 7295SOL     OW27846   0.458   3.356   6.666 -0.3047 -0.7299  0.0493
 7295SOL    HW127847   0.531   3.317   6.618 -1.8900 -1.4781 -1.8658
 7295SOL    HW227848   0.385   3.297   6.652 -2.2041  1.7047 -1.0294
 7296SOL     OW27849   3.162   8.674   6.625  0.3696 -0.5563 -0.3026
 7296SOL    HW127850   3.150   8.583   6.597 -0.7653 -0.9039  1.1742
 7296SOL    HW227851   3.125   8.677   6.713 -1.9834  1.9176 -1.2395
 7297SOL     OW27852   0.423   3.166   4.919 -0.0242  0.6772  0.0691
 7297SOL    HW127853   0.468   3.157   4.835 -2.0907 -0.2259 -1.0254
 7297SOL    HW227854   0.351   3.103   4.915  0.5655 -0.3740  3.0981
 7298SOL     OW27855   1.251   7.119   3.604  0.5027 -0.1574  0.4065
 7298SOL    HW127856   1.346   7.110   3.593  0.4076 -0.7913  0.0850
 7298SOL    HW227857   1.221   7.031   3.628 -0.0888 -0.1002 -0.1136
 7299SOL     OW27858   0.791   1.566   1.873 -0.0391 -0.2422  0.2897
 7299SOL    HW127859   0.884   1.581   1.888 -0.2011  0.5116  0.5781
 7299SOL    HW227860   0.751   1.580   1.958 -0.4488 -0.3018  0.1081
 7300SOL     OW27861   7.706   2.419   6.286  0.2283  0.3217 -0.5561
 7300SOL    HW127862   7.667   2.361   6.351  2.2696 -0.3345  0.1556
 7300SOL    HW227863   7.738   2.360   6.218 -0.8979  0.9278 -1.6574
 7301SOL     OW27864   1.171   6.433   6.536 -0.4054 -0.0765 -0.3392
 7301SOL    HW127865   1.193   6.403   6.624 -0.6221 -0.5783 -0.4541
 7301SOL    HW227866   1.188   6.527   6.538 -3.0710  0.4608  1.1067
 7302SOL     OW27867   1.364   1.691   5.620  0.7288  0.0577 -0.1639
 7302SOL    HW127868   1.335   1.684   5.711 -0.1404 -0.0459 -0.4381
 7302SOL    HW227869   1.386   1.784   5.608 -1.3568  0.5587 -0.4721
 7303SOL     OW27870   0.109   8.578   3.592 -0.0361  0.4894 -1.0413
 7303SOL    HW127871   0.148   8.658   3.629  0.1191  0.3173 -0.8284
 7303SOL    HW227872   0.175   8.546   3.531  0.5438 -0.2752 -0.0427
 7304SOL     OW27873   4.388   7.881   2.901 -0.0511 -0.2039 -0.1152
 7304SOL    HW127874   4.330   7.810   2.873  1.6792 -1.0110 -1.8535
 7304SOL    HW227875   4.385   7.879   2.996 -2.5222 -0.4675 -0.1273
 7305SOL     OW27876   1.359   6.783   1.446  0.2984  0.6069 -0.2900
 7305SOL    HW127877   1.284   6.724   1.455  0.2227  0.6146 -0.8363
 7305SOL    HW227878   1.426   6.730   1.403  0.0479  1.0610 -1.2729
 7306SOL     OW27879   1.923   6.569   4.715  0.6782  0.0145  0.1458
 7306SOL    HW127880   1.874   6.487   4.723 -1.1932  1.0521 -0.0687
 7306SOL    HW227881   1.910   6.612   4.800  0.4490  0.6928 -0.2264
 7307SOL     OW27882   6.729   5.391   3.642 -0.0125  0.1490 -0.8175
 7307SOL    HW127883   6.815   5.388   3.600  0.2717  0.0943 -0.2358
 7307SOL    HW227884   6.668   5.411   3.571  0.3485 -0.8836 -1.4381
 7308SOL     OW27885   6.014   6.345   1.295 -0.4713 -0.0498  0.7524
 7308SOL    HW127886   5.992   6.333   1.387 -1.0931 -0.7666  0.5222
 7308SOL    HW227887   5.977   6.429   1.272  1.4226  1.1160  1.6531
 7309SOL     OW27888   8.524   7.410   0.395  0.4901  0.0219 -0.0471
 7309SOL    HW127889   8.432   7.434   0.385  0.3134 -0.7416 -0.3789
 7309SOL    HW227890   8.572   7.493   0.393 -0.1294  0.3706 -0.6436
 7310SOL     OW27891   8.507   8.725   7.040  0.4607 -0.1265 -0.6200
 7310SOL    HW127892   8.579   8.696   7.096  0.1918 -1.0282 -0.7343
 7310SOL    HW227893   8.516   8.821   7.039  1.1562 -0.1675  0.0307
 7311SOL     OW27894   8.928   7.134   8.011  0.1642 -0.6623 -0.8181
 7311SOL    HW127895   8.947   7.119   8.104 -0.6141 -0.5018 -0.6262
 7311SOL    HW227896   8.940   7.228   8.000  0.6952 -0.7476 -0.9881
 7312SOL     OW27897   7.853   2.148   2.750 -0.0946  0.0743 -0.6173
 7312SOL    HW127898   7.870   2.237   2.719  2.2216  0.5433  1.6703
 7312SOL    HW227899   7.925   2.096   2.714 -0.3070 -0.4551 -0.2975
 7313SOL     OW27900   3.441   5.555   8.579  0.0635 -0.3347  0.6930
 7313SOL    HW127901   3.459   5.486   8.643  2.2131 -2.9563 -2.3973
 7313SOL    HW227902   3.350   5.542   8.555 -1.3257  1.7539  4.1234
 7314SOL     OW27903   0.175   7.572   6.837 -0.1855  0.1719 -0.3490
 7314SOL    HW127904   0.195   7.482   6.862 -0.7151  0.4947  1.3365
 7314SOL    HW227905   0.180   7.572   6.741  0.5256 -1.4687 -0.3343
 7315SOL     OW27906   4.860   7.669   1.587  0.3967  0.0927 -0.2874
 7315SOL    HW127907   4.824   7.580   1.583 -1.5616  0.7861  0.5001
 7315SOL    HW227908   4.949   7.657   1.620  0.3842 -1.6144 -0.7477
 7316SOL     OW27909   7.859   7.509   1.749 -0.0346 -0.4407  0.0704
 7316SOL    HW127910   7.774   7.551   1.732  0.5439  1.3397  1.2621
 7316SOL    HW227911   7.843   7.454   1.826 -0.2819 -0.7103 -0.1704
 7317SOL     OW27912   6.103   3.010   9.005  0.3570 -0.5143 -0.2846
 7317SOL    HW127913   6.082   2.918   8.988 -0.7655  0.0713 -2.4477
 7317SOL    HW227914   6.125   3.046   8.918 -0.8624  1.6434  0.2242
 7318SOL     OW27915   3.012   6.031   7.598  0.3964  0.1741  0.2763
 7318SOL    HW127916   3.021   5.998   7.687  0.4489 -1.2239 -0.2187
 7318SOL    HW227917   3.097   6.014   7.557  0.2430  0.4326 -0.1552
 7319SOL     OW27918   3.095   4.956   6.284 -0.5909 -0.2840 -0.2330
 7319SOL    HW127919   3.105   4.883   6.224  0.8124  0.5429 -1.0639
 7319SOL    HW227920   3.001   4.973   6.286 -0.7058 -0.5336 -1.9614
 7320SOL     OW27921   7.995   3.305   4.295 -0.0540  0.0993  0.4936
 7320SOL    HW127922   8.005   3.281   4.203 -0.5965  0.4184  0.3494
 7320SOL    HW227923   7.919   3.257   4.326  0.4408 -0.4208  0.9277
 7321SOL     OW27924   6.821   6.009   5.191  0.6276  0.1550  0.3985
 7321SOL    HW127925   6.872   6.068   5.246 -1.0820  1.4668  0.6560
 7321SOL    HW227926   6.767   5.959   5.253  0.8575 -0.5022  0.0796
 7322SOL     OW27927   0.239   5.663   1.971  0.7276  0.6084 -0.0898
 7322SOL    HW127928   0.201   5.607   2.039  1.9037 -0.0584  0.0662
 7322SOL    HW227929   0.202   5.631   1.889  1.4277 -0.4716 -0.0049
 7323SOL     OW27930   4.114   6.942   1.571  0.0671  0.5195 -0.0570
 7323SOL    HW127931   4.021   6.961   1.588  0.0764  0.6157 -0.1138
 7323SOL    HW227932   4.113   6.852   1.539 -0.1683  0.9743 -1.3962
 7324SOL     OW27933   3.352   4.558   0.911  0.6695  0.4728 -0.1939
 7324SOL    HW127934   3.373   4.640   0.954  1.8489  0.2867 -0.3998
 7324SOL    HW227935   3.308   4.584   0.830  1.8429  0.9469 -0.7019
 7325SOL     OW27936   4.667   4.541   1.178 -0.2375 -0.1742  0.5997
 7325SOL    HW127937   4.729   4.469   1.166 -0.3302  0.0839 -1.7422
 7325SOL    HW227938   4.721   4.611   1.216  0.9841  0.0633 -1.4417
 7326SOL     OW27939   1.237   2.215   9.033  0.0527  0.3944  0.0655
 7326SOL    HW127940   1.225   2.193   9.126  0.0914  0.9800  0.2188
 7326SOL    HW227941   1.165   2.172   8.988 -0.6622  1.0745  0.5292
 7327SOL     OW27942   0.131   1.557   8.363 -0.2333  0.3554 -0.2268
 7327SOL    HW127943   0.080   1.637   8.348 -1.0229  0.0895  0.9640
 7327SOL    HW227944   0.207   1.567   8.305  1.1485  3.2637  1.8256
 7328SOL     OW27945   1.543   7.964   1.020 -0.2234  0.3651 -0.1323
 7328SOL    HW127946   1.465   7.968   1.075  1.3893 -0.9041  2.4373
 7328SOL    HW227947   1.569   7.872   1.023  1.0950  0.6669 -1.3853
 7329SOL     OW27948   6.397   6.172   4.680 -0.4747 -0.1694 -0.4066
 7329SOL    HW127949   6.416   6.237   4.613 -0.4106  0.2713  0.0332
 7329SOL    HW227950   6.435   6.208   4.760 -0.5431 -0.6904 -0.1335
 7330SOL     OW27951   8.297   3.468   1.856 -0.1017  0.2629 -0.7404
 7330SOL    HW127952   8.319   3.395   1.798 -0.9675 -1.7108  1.2872
 7330SOL    HW227953   8.202   3.471   1.855 -0.0765  1.4008 -0.7779
 7331SOL     OW27954   7.522   2.986   5.710 -0.0209  0.3017 -0.1110
 7331SOL    HW127955   7.584   2.974   5.638 -0.5947 -2.2144 -0.2890
 7331SOL    HW227956   7.550   2.923   5.777 -0.9179  0.8692  0.8318
 7332SOL     OW27957   2.626   4.519   4.861  0.1090 -0.2923 -0.2727
 7332SOL    HW127958   2.629   4.614   4.847 -2.2139 -0.0263  0.5221
 7332SOL    HW227959   2.688   4.503   4.932 -0.7602  0.9592  0.8360
 7333SOL     OW27960   4.696   4.261   2.035  0.2985 -0.4194  0.1270
 7333SOL    HW127961   4.601   4.275   2.040  0.4289  0.2347  1.0369
 7333SOL    HW227962   4.715   4.262   1.941 -0.7357 -1.6549 -0.1317
 7334SOL     OW27963   7.148   0.522   1.903 -0.1731  0.2802  0.3972
 7334SOL    HW127964   7.158   0.468   1.825 -0.4919  0.6060  0.1272
 7334SOL    HW227965   7.073   0.484   1.949 -0.3972  0.4930  0.2074
 7335SOL     OW27966   7.895   1.734   3.944 -0.2726  0.1250 -0.2030
 7335SOL    HW127967   7.828   1.707   4.007 -0.9369  0.7049 -0.6552
 7335SOL    HW227968   7.978   1.726   3.992 -0.5538 -1.5193  0.0603
 7336SOL     OW27969   5.966   2.022   0.663 -0.2185 -0.9939 -0.3070
 7336SOL    HW127970   5.887   2.000   0.613 -0.8027  1.4928 -0.5940
 7336SOL    HW227971   6.031   1.958   0.635 -1.1207 -0.9297 -2.7687
 7337SOL     OW27972   0.619   7.964   7.670 -0.3125 -0.4816  0.0066
 7337SOL    HW127973   0.689   8.028   7.686 -0.4133 -0.2211 -0.5761
 7337SOL    HW227974   0.570   8.000   7.596 -0.5821 -1.0639 -0.1034
 7338SOL     OW27975   5.964   1.391   4.910  0.4141 -0.1918 -0.2020
 7338SOL    HW127976   6.000   1.441   4.984 -0.3787 -0.0119  0.0628
 7338SOL    HW227977   5.894   1.446   4.876 -1.3601 -1.6779  0.9138
 7339SOL     OW27978   3.730   8.218   1.027  0.4909 -0.4292 -0.4537
 7339SOL    HW127979   3.680   8.281   0.975 -0.0383  0.4994  1.1117
 7339SOL    HW227980   3.669   8.145   1.041 -0.0128  0.1212  0.3429
 7340SOL     OW27981   1.139   4.847   4.439  0.2778  0.1294  0.3144
 7340SOL    HW127982   1.147   4.933   4.396  1.5397  0.2823  0.8217
 7340SOL    HW227983   1.104   4.868   4.526  1.0084  0.1833  0.5992
 7341SOL     OW27984   3.340   8.510   0.994  0.0632 -0.2561 -0.3254
 7341SOL    HW127985   3.297   8.521   1.078  1.5173 -0.2247  0.4338
 7341SOL    HW227986   3.269   8.484   0.934 -0.5706 -3.3019  1.5434
 7342SOL     OW27987   1.008   4.653   8.469 -0.1831 -0.2833 -0.6410
 7342SOL    HW127988   0.940   4.701   8.518  1.2114  2.8577 -1.5110
 7342SOL    HW227989   1.090   4.677   8.513  0.6132 -2.2044 -0.9743
 7343SOL     OW27990   3.823   4.417   3.203  0.0331 -0.0287  0.4874
 7343SOL    HW127991   3.879   4.476   3.153 -0.6001 -1.4058 -2.0188
 7343SOL    HW227992   3.882   4.352   3.239  0.3290 -0.0453 -0.0190
 7344SOL     OW27993   0.577   2.056   3.501 -0.4337 -0.5173  0.4953
 7344SOL    HW127994   0.669   2.064   3.528  0.0175  2.3232 -1.4564
 7344SOL    HW227995   0.531   2.031   3.581  1.8445 -0.4079  1.9239
 7345SOL     OW27996   5.669   1.893   4.549  0.3982 -0.0386 -0.0620
 7345SOL    HW127997   5.741   1.830   4.550  0.7636  0.3725 -0.1811
 7345SOL    HW227998   5.712   1.978   4.559 -0.2491  0.0510  2.7448
 7346SOL     OW27999   3.081   3.159   3.140  0.0758 -0.2463 -0.2794
 7346SOL    HW128000   3.140   3.114   3.078  1.0977 -0.0214  0.5086
 7346SOL    HW228001   3.106   3.125   3.226 -0.1922  0.6771  0.1751
 7347SOL     OW28002   1.450   1.739   0.378  0.3630 -0.2120 -0.4085
 7347SOL    HW128003   1.355   1.735   0.376  0.3925 -1.6478 -0.2210
 7347SOL    HW228004   1.477   1.649   0.397  1.7853 -0.0379 -1.4669
 7348SOL     OW28005   0.922   4.435   7.186 -0.0643  1.5549 -0.0220
 7348SOL    HW128006   0.957   4.447   7.098 -1.7596 -0.1030 -1.0127
 7348SOL    HW228007   0.987   4.474   7.244  0.8436  3.1667 -2.0229
 7349SOL     OW28008   5.171   8.962   5.984  0.0719  0.0256 -0.0702
 7349SOL    HW128009   5.183   8.886   5.926  0.1669 -0.6976  0.8656
 7349SOL    HW228010   5.137   9.030   5.927 -1.6531 -1.2257 -0.6268
 7350SOL     OW28011   5.700   5.127   0.146  0.6706 -0.0870  0.1335
 7350SOL    HW128012   5.666   5.120   0.057 -2.1730  0.0064  1.1011
 7350SOL    HW228013   5.635   5.180   0.192  2.6268  0.8131  2.0213
 7351SOL     OW28014   6.321   5.538   6.857  0.2642  0.0281 -0.7178
 7351SOL    HW128015   6.416   5.539   6.870  0.3903 -1.3850 -1.3480
 7351SOL    HW228016   6.289   5.610   6.911  1.6642  0.3132 -0.2206
 7352SOL     OW28017   7.849   7.055   5.178 -0.2304 -0.6797 -0.6431
 7352SOL    HW128018   7.802   7.098   5.106 -0.1550  0.9875  0.2649
 7352SOL    HW228019   7.813   7.094   5.257  2.0660  0.0353  0.1221
 7353SOL     OW28020   2.333   8.177   8.042  0.2382  0.0818 -0.0409
 7353SOL    HW128021   2.348   8.089   8.006 -0.0817 -0.2893  0.7166
 7353SOL    HW228022   2.239   8.192   8.028  0.2675  0.2569 -0.0505
 7354SOL     OW28023   0.393   4.767   5.492 -0.0471 -0.6105 -0.3419
 7354SOL    HW128024   0.354   4.833   5.549 -0.1577  0.2173 -1.3604
 7354SOL    HW228025   0.478   4.748   5.532  0.6064  1.1967 -0.8045
 7355SOL     OW28026   5.918   2.753   4.170 -0.3406 -0.2126  0.8729
 7355SOL    HW128027   5.904   2.824   4.233 -1.2260 -1.1532  1.7782
 7355SOL    HW228028   5.830   2.724   4.146  0.0030 -1.2582  0.8243
 7356SOL     OW28029   5.105   7.063   1.017 -0.5010 -0.2036  0.4350
 7356SOL    HW128030   5.050   7.048   0.941 -0.0377 -2.1722  0.4337
 7356SOL    HW228031   5.193   7.075   0.981 -0.3358 -0.8168  0.6132
 7357SOL     OW28032   3.949   2.427   2.683  0.4885  0.0238  0.1249
 7357SOL    HW128033   3.943   2.517   2.712 -0.0091  0.0852 -0.1455
 7357SOL    HW228034   3.910   2.428   2.595 -0.8257 -0.6998  0.6674
 7358SOL     OW28035   7.163   7.973   8.297  0.1936  0.9497  0.9899
 7358SOL    HW128036   7.173   7.981   8.392 -1.2929 -1.6097  1.4893
 7358SOL    HW228037   7.070   7.991   8.282  0.2516  0.5566  0.1463
 7359SOL     OW28038   7.099   9.127   9.367 -0.0113  0.2292 -0.1114
 7359SOL    HW128039   7.018   9.107   9.320 -0.5103 -1.9013  1.4554
 7359SOL    HW228040   7.083   9.213   9.406 -1.2087  0.2162 -0.5145
 7360SOL     OW28041   6.222   7.132   1.302 -0.6591  0.1397 -0.0184
 7360SOL    HW128042   6.178   7.116   1.219  0.3720 -3.5477 -0.0225
 7360SOL    HW228043   6.157   7.180   1.354 -2.2032  0.4931 -2.1492
 7361SOL     OW28044   2.572   2.364   1.598 -0.3390 -0.9448 -0.1481
 7361SOL    HW128045   2.509   2.292   1.611  0.1295 -1.1544  1.1139
 7361SOL    HW228046   2.574   2.377   1.503 -2.2974 -0.9114 -0.2301
 7362SOL     OW28047   6.304   4.260   5.958  0.0133 -0.3044  0.3406
 7362SOL    HW128048   6.306   4.214   5.874  2.7172 -0.1014  0.2301
 7362SOL    HW228049   6.356   4.206   6.017 -0.4740  0.3887  1.4483
 7363SOL     OW28050   5.795   6.834   3.116  0.5978  0.0791  0.0214
 7363SOL    HW128051   5.744   6.802   3.041  2.5964 -0.5699 -1.1436
 7363SOL    HW228052   5.789   6.764   3.181 -0.9880  0.5652  0.4609
 7364SOL     OW28053   3.712   2.143   1.193 -0.6364 -0.1752 -0.0925
 7364SOL    HW128054   3.729   2.081   1.122 -2.6311 -0.8197 -0.0695
 7364SOL    HW228055   3.798   2.174   1.219  0.2122 -0.6185 -2.1741
 7365SOL     OW28056   3.197   3.460   7.723  0.2391  0.4788 -0.1364
 7365SOL    HW128057   3.152   3.488   7.643 -0.5484  0.2398  0.2140
 7365SOL    HW228058   3.176   3.528   7.787  0.5865  0.4892 -0.0303
 7366SOL     OW28059   2.838   3.083   4.969  0.7396 -0.0221 -0.0129
 7366SOL    HW128060   2.769   3.096   4.905  1.5375 -1.5780 -1.2302
 7366SOL    HW228061   2.896   3.159   4.957 -0.2435  0.8130  0.3935
 7367SOL     OW28062   4.402   5.701   3.170  0.0696  0.2685  0.5130
 7367SOL    HW128063   4.373   5.779   3.123  0.7374 -0.2358 -0.7852
 7367SOL    HW228064   4.368   5.712   3.259 -2.2180  0.7179 -0.3566
 7368SOL     OW28065   0.400   4.049   4.825 -0.0289 -0.1866  0.6721
 7368SOL    HW128066   0.330   4.023   4.885  0.0808 -1.0117  0.4645
 7368SOL    HW228067   0.373   4.134   4.791 -1.5192 -1.0180 -0.3198
 7369SOL     OW28068   2.037   4.053   6.411 -0.1677 -0.0852 -0.3432
 7369SOL    HW128069   2.125   4.033   6.378 -0.4660  0.2877 -1.3964
 7369SOL    HW228070   2.050   4.130   6.467  0.4036 -0.9662  0.7744
 7370SOL     OW28071   2.827   6.369   4.692 -0.6153  0.3923 -0.4643
 7370SOL    HW128072   2.740   6.331   4.706 -1.0622  1.7629  0.7838
 7370SOL    HW228073   2.879   6.338   4.766 -0.9224  1.9341  0.4454
 7371SOL     OW28074   4.127   5.393   3.513  0.0323 -0.3074  0.0811
 7371SOL    HW128075   4.076   5.464   3.551  0.9113 -1.4352  3.7672
 7371SOL    HW228076   4.082   5.313   3.542  0.6159 -1.3140 -1.6334
 7372SOL     OW28077   2.628   3.074   0.030  0.1308  0.0288 -0.5954
 7372SOL    HW128078   2.682   3.009   0.074 -0.6055 -0.1813  0.0300
 7372SOL    HW228079   2.655   3.071  -0.061  0.1941 -1.0656 -0.5484
 7373SOL     OW28080   8.401   4.458   1.941  0.3178  0.5423  0.5909
 7373SOL    HW128081   8.380   4.369   1.970 -0.7544  0.2011 -1.1092
 7373SOL    HW228082   8.382   4.513   2.017 -3.2431 -0.2064  0.4415
 7374SOL     OW28083   2.851   6.352   9.074 -0.1134 -0.2779  0.3387
 7374SOL    HW128084   2.898   6.280   9.033 -0.1413 -0.4418  0.5961
 7374SOL    HW228085   2.840   6.416   9.004 -0.2182 -0.5844  0.0757
 7375SOL     OW28086   4.133   7.498   2.322 -0.2019 -0.5958  0.3703
 7375SOL    HW128087   4.112   7.515   2.230 -0.6757 -1.3202  0.3389
 7375SOL    HW228088   4.190   7.571   2.347  1.1630 -1.1784 -0.9238
 7376SOL     OW28089   4.558   2.005   0.631  0.0122 -0.5351  0.3803
 7376SOL    HW128090   4.527   1.954   0.556  0.2821  2.2424 -1.8146
 7376SOL    HW228091   4.492   2.074   0.641  1.3137  0.6593  0.9667
 7377SOL     OW28092   1.370   8.247   5.740  0.4672  0.1635 -0.1381
 7377SOL    HW128093   1.306   8.311   5.772  1.1524  0.9507 -0.3365
 7377SOL    HW228094   1.316   8.180   5.697 -0.4783 -0.7853  2.3224
 7378SOL     OW28095   3.421   3.779   9.265  0.1229  0.6525 -0.3581
 7378SOL    HW128096   3.401   3.853   9.322  1.7152  0.4667  0.4720
 7378SOL    HW228097   3.470   3.817   9.192  0.3946  0.4977 -0.2549
 7379SOL     OW28098   8.813   8.163   6.943 -0.3166 -0.1697  0.5656
 7379SOL    HW128099   8.783   8.254   6.938  0.9053  0.2103 -1.2213
 7379SOL    HW228100   8.890   8.166   7.000 -0.6880 -0.2200  1.0730
 7380SOL     OW28101   6.075   2.711   9.044  0.4644  0.2093 -0.0023
 7380SOL    HW128102   6.000   2.716   8.986  1.7766  2.7131 -1.6773
 7380SOL    HW228103   6.126   2.636   9.012 -0.5132 -0.5321  0.1542
 7381SOL     OW28104   8.193   4.093   6.997  0.4353 -0.4380  0.2017
 7381SOL    HW128105   8.097   4.096   7.003  0.4415  1.5384 -0.0061
 7381SOL    HW228106   8.224   4.122   7.082  0.7956  1.1368 -0.4331
 7382SOL     OW28107   8.823   3.988   8.875  0.0265  0.0396  1.0940
 7382SOL    HW128108   8.773   4.057   8.919 -1.0065 -0.8339  1.3167
 7382SOL    HW228109   8.852   4.029   8.793 -0.2293  0.8618  1.4058
 7383SOL     OW28110   8.706   8.753   0.399  0.2740  0.5928 -0.1779
 7383SOL    HW128111   8.686   8.735   0.490 -0.3013  3.1305  0.2655
 7383SOL    HW228112   8.772   8.823   0.402  0.4540  0.5273 -1.7139
 7384SOL     OW28113   4.436   2.589   7.963 -0.4323  0.4772 -0.3004
 7384SOL    HW128114   4.384   2.525   7.914 -1.6884  0.4572  0.9896
 7384SOL    HW228115   4.476   2.538   8.033 -0.2160  0.8322 -0.1674
 7385SOL     OW28116   8.416   2.445   8.294 -0.1047  0.6417 -0.2639
 7385SOL    HW128117   8.329   2.430   8.330 -0.0497 -1.3214 -0.8293
 7385SOL    HW228118   8.432   2.539   8.308 -1.6828  0.7473  1.1676
 7386SOL     OW28119   4.265   3.630   6.831 -0.6026 -0.3742 -0.1119
 7386SOL    HW128120   4.355   3.648   6.860 -0.7228  0.3814 -0.2080
 7386SOL    HW228121   4.221   3.715   6.834 -1.0125 -0.5455 -1.1283
 7387SOL     OW28122   6.751   0.619   8.520 -0.7256 -0.5259  0.0233
 7387SOL    HW128123   6.655   0.628   8.522 -0.7692 -0.8837 -0.3051
 7387SOL    HW228124   6.780   0.690   8.463 -0.7492 -0.0974  0.5347
 7388SOL     OW28125   1.700   8.820   9.263 -0.5817 -0.3443 -0.2790
 7388SOL    HW128126   1.741   8.820   9.176 -0.1050 -3.0271 -0.1630
 7388SOL    HW228127   1.754   8.759   9.314 -1.7283  0.0319  1.4536
 7389SOL     OW28128   4.361   2.837   7.799 -0.5682  0.3280 -0.0162
 7389SOL    HW128129   4.365   2.757   7.852 -1.4260  0.5130  0.3545
 7389SOL    HW228130   4.267   2.854   7.788 -0.4088  1.5306  0.3025
 7390SOL     OW28131   9.017   5.765   1.718  0.5236 -0.1413  0.1435
 7390SOL    HW128132   8.985   5.680   1.748 -0.4648  0.4570  0.8541
 7390SOL    HW228133   9.004   5.764   1.623  1.0464 -0.9870  0.0767
 7391SOL     OW28134   8.866   2.070   8.401  0.4054 -0.9422 -0.1044
 7391SOL    HW128135   8.918   2.150   8.410  2.8371 -2.3873 -0.4948
 7391SOL    HW228136   8.799   2.077   8.470  1.1182  0.9745  0.4569
 7392SOL     OW28137   9.276   1.195   2.875  0.0732  0.0234  0.3084
 7392SOL    HW128138   9.213   1.123   2.876  0.2784 -0.1552  1.0200
 7392SOL    HW228139   9.313   1.193   2.787 -1.4752  0.6378 -0.3909
 7393SOL     OW28140   4.806   6.614   2.408  0.1455  0.8019  0.4810
 7393SOL    HW128141   4.739   6.549   2.432  0.7335  0.4009  1.0464
 7393SOL    HW228142   4.842   6.581   2.325 -1.6776  2.0359 -0.8934
 7394SOL     OW28143   4.041   2.507   9.001  0.2634 -0.0213  0.4225
 7394SOL    HW128144   3.994   2.568   9.058  0.9617  0.0812  0.9097
 7394SOL    HW228145   4.116   2.478   9.054  2.8890  2.6207 -1.4889
 7395SOL     OW28146   3.860   1.034   7.137 -0.2063 -0.4641 -0.4027
 7395SOL    HW128147   3.786   1.045   7.077 -1.1664 -0.5160  0.7364
 7395SOL    HW228148   3.826   0.977   7.206  0.3979  0.7525  0.9442
 7396SOL     OW28149   8.272   3.252   2.733  0.6280  0.0385  0.4974
 7396SOL    HW128150   8.270   3.208   2.818  1.4328  0.2741  0.6449
 7396SOL    HW228151   8.192   3.222   2.689  1.6354 -2.3943  0.1641
 7397SOL     OW28152   5.670   5.985   6.661 -0.0135  0.4868 -0.4009
 7397SOL    HW128153   5.691   6.078   6.669 -0.8752  0.6728 -0.1912
 7397SOL    HW228154   5.579   5.979   6.690  0.5727 -0.6855  1.3520
 7398SOL     OW28155   2.553   9.352   4.221  0.0247  0.2251 -0.1378
 7398SOL    HW128156   2.624   9.351   4.285 -0.4927  0.8783  0.4501
 7398SOL    HW228157   2.492   9.285   4.252 -2.0426  2.9230  2.1863
 7399SOL     OW28158   7.196   1.762   4.459  0.3716  0.0410 -0.6548
 7399SOL    HW128159   7.160   1.749   4.371  0.4557  0.8118 -0.8140
 7399SOL    HW228160   7.152   1.696   4.513  1.3363 -1.3825 -1.5307
 7400SOL     OW28161   1.908   9.272   1.631  0.3686  0.4734  0.2593
 7400SOL    HW128162   1.879   9.201   1.574 -0.2778  0.1691  0.9511
 7400SOL    HW228163   1.995   9.295   1.599  0.3434 -0.2335 -0.3353
 7401SOL     OW28164   5.115   2.780   6.272  0.1463  0.1253 -0.4223
 7401SOL    HW128165   5.069   2.850   6.317  3.0603  1.3325  0.9392
 7401SOL    HW228166   5.138   2.818   6.187  0.3686  0.2376 -0.3109
 7402SOL     OW28167   5.237   7.702   3.016 -0.4348  0.0200 -0.3639
 7402SOL    HW128168   5.325   7.708   3.054 -1.5842 -0.5193  2.6760
 7402SOL    HW228169   5.209   7.613   3.034 -1.3869 -0.0425 -1.9511
 7403SOL     OW28170   7.110   2.449   7.208  0.0812 -0.5306  0.5117
 7403SOL    HW128171   7.089   2.356   7.208 -2.1666 -0.0754  0.5857
 7403SOL    HW228172   7.035   2.491   7.165  1.2071  1.2263  0.1330
 7404SOL     OW28173   1.442   3.479   7.867  0.0264 -0.9447  0.4470
 7404SOL    HW128174   1.421   3.551   7.926  2.3590 -1.4163  1.9891
 7404SOL    HW228175   1.421   3.400   7.917 -0.0694 -1.3372 -0.2057
 7405SOL     OW28176   7.506   3.031   0.050  0.0374 -0.5319  0.0780
 7405SOL    HW128177   7.458   3.030   0.133 -0.8750  0.0938 -0.4222
 7405SOL    HW228178   7.443   3.066  -0.013  0.9699 -0.2535 -0.7177
 7406SOL     OW28179   3.655   7.745   0.950  0.3685 -0.0034  0.2611
 7406SOL    HW128180   3.733   7.754   0.896 -0.6757  1.0416 -1.1591
 7406SOL    HW228181   3.663   7.658   0.989  1.8988 -0.1843 -0.3724
 7407SOL     OW28182   9.056   6.582   8.605  0.5548 -0.0280  0.2222
 7407SOL    HW128183   9.068   6.488   8.593 -0.7613 -0.0875 -1.0051
 7407SOL    HW228184   8.987   6.589   8.671  0.0207  0.0361 -0.3314
 7408SOL     OW28185   6.929   2.547   0.955 -0.1402 -0.4432  0.3864
 7408SOL    HW128186   6.884   2.463   0.962  1.2308 -1.1206  1.6929
 7408SOL    HW228187   6.911   2.592   1.037 -0.7668  0.5285 -0.2511
 7409SOL     OW28188   1.011   2.645   8.382 -0.0529 -0.7267  0.1461
 7409SOL    HW128189   1.067   2.719   8.359 -0.5069  0.6423  2.9867
 7409SOL    HW228190   0.929   2.663   8.335  0.9086 -1.2939 -1.8518
 7410SOL     OW28191   0.051   2.591   3.900 -0.2722  0.0210 -0.0073
 7410SOL    HW128192   0.014   2.518   3.951 -1.5018  1.3569  1.1037
 7410SOL    HW228193   0.136   2.559   3.871  0.6861 -0.6868  3.2250
 7411SOL     OW28194   7.904   4.157   8.599  0.1270 -0.3716 -0.4277
 7411SOL    HW128195   7.864   4.162   8.686  0.3034  0.9828 -0.3939
 7411SOL    HW228196   7.998   4.153   8.616  0.1763  0.1365 -0.5379
 7412SOL     OW28197   5.764   3.543   4.270 -0.1400 -0.0191  0.0258
 7412SOL    HW128198   5.831   3.480   4.243 -0.1367 -1.0822  2.2781
 7412SOL    HW228199   5.681   3.503   4.243  0.0003  0.2444 -0.8081
 7413SOL     OW28200   2.285   2.750   7.527  0.7042  0.0801  0.2020
 7413SOL    HW128201   2.375   2.778   7.513  1.4234 -1.1710  1.9790
 7413SOL    HW228202   2.292   2.659   7.556 -1.0120  0.3634  1.7117
 7414SOL     OW28203   6.824   2.254   2.218  0.5578 -0.1045  0.0033
 7414SOL    HW128204   6.765   2.273   2.145  1.1714 -1.7453 -0.9631
 7414SOL    HW228205   6.832   2.338   2.264  0.3880  1.0661 -1.9760
 7415SOL     OW28206   9.286   8.026   4.930 -0.4444  0.3332 -0.1212
 7415SOL    HW128207   9.258   7.958   4.991 -1.4341  0.2190 -0.6785
 7415SOL    HW228208   9.246   8.107   4.963 -0.2002  0.4458 -0.0948
 7416SOL     OW28209   8.773   8.020   9.205  0.7948  0.0304 -0.9289
 7416SOL    HW128210   8.840   8.030   9.138  2.3185  0.0193  0.5452
 7416SOL    HW228211   8.761   8.109   9.240  1.0865 -0.1986 -0.2297
 7417SOL     OW28212   7.259   4.542   1.388  0.3157  0.0328 -0.7832
 7417SOL    HW128213   7.276   4.464   1.335 -1.1632 -0.8427 -0.0501
 7417SOL    HW228214   7.275   4.514   1.478 -2.1518 -0.1059 -0.3044
 7418SOL     OW28215   7.100   0.660   6.771 -0.4347 -0.2220 -0.0224
 7418SOL    HW128216   7.163   0.593   6.746 -0.4663 -0.1897 -0.1847
 7418SOL    HW228217   7.145   0.712   6.837  1.0169  1.9809 -2.5800
 7419SOL     OW28218   8.632   2.553   3.986 -0.3134 -0.3518 -0.0941
 7419SOL    HW128219   8.538   2.564   4.001 -0.7436  0.5321 -2.9276
 7419SOL    HW228220   8.640   2.463   3.952 -0.0211 -0.6412  0.7140
 7420SOL     OW28221   4.723   5.868   5.086 -0.2653  0.0864  0.2104
 7420SOL    HW128222   4.706   5.894   5.177 -1.4462  0.6030 -0.1500
 7420SOL    HW228223   4.718   5.772   5.087 -1.1123  0.1248  0.5408
 7421SOL     OW28224   7.774   7.736   6.111 -0.1994  0.2600 -0.8123
 7421SOL    HW128225   7.866   7.717   6.129  0.2298  1.6237 -1.3969
 7421SOL    HW228226   7.726   7.663   6.150  0.9850  0.5760  1.3803
 7422SOL     OW28227   3.818   7.846   7.590  0.0761  0.1392 -0.5952
 7422SOL    HW128228   3.914   7.843   7.596 -0.0236 -0.2749  1.3688
 7422SOL    HW228229   3.789   7.881   7.674 -1.5349 -0.6047 -0.7997
 7423SOL     OW28230   8.022   4.646   3.958  0.0399  0.6020 -0.1872
 7423SOL    HW128231   8.056   4.573   3.905 -1.3166  1.2937 -2.1376
 7423SOL    HW228232   8.100   4.692   3.988  0.8803 -0.0656 -1.2550
 7424SOL     OW28233   3.431   4.264   2.205 -0.8459 -0.0296 -0.3058
 7424SOL    HW128234   3.512   4.315   2.206 -1.0967  0.4139 -1.2076
 7424SOL    HW228235   3.362   4.328   2.221 -1.0629 -0.2978 -0.1587
 7425SOL     OW28236   5.004   0.079   4.276 -0.2488  0.3833 -0.2770
 7425SOL    HW128237   4.912   0.057   4.257 -0.6913  0.0821  1.9653
 7425SOL    HW228238   5.054   0.011   4.230 -1.2017 -0.1358 -0.5846
 7426SOL     OW28239   5.232   5.703   0.815 -0.1590  1.0083 -0.4289
 7426SOL    HW128240   5.285   5.669   0.743 -1.6521 -3.0909  0.0971
 7426SOL    HW228241   5.291   5.702   0.890  0.2010  0.7615 -0.7082
 7427SOL     OW28242   5.757   2.845   6.751 -0.0070 -0.2649 -0.2355
 7427SOL    HW128243   5.758   2.769   6.809 -3.3868 -0.8771 -0.7790
 7427SOL    HW228244   5.733   2.918   6.808 -2.2539 -0.6709 -0.6037
 7428SOL     OW28245   5.268   3.021   0.708  0.0286  0.1107 -0.2615
 7428SOL    HW128246   5.345   3.035   0.764 -0.0640 -1.0578  0.1785
 7428SOL    HW228247   5.196   3.064   0.755  0.0029 -0.6353  0.3897
 7429SOL     OW28248   8.552   8.658   6.129  0.3022 -0.4102 -0.6786
 7429SOL    HW128249   8.618   8.591   6.114  0.1270 -0.6782 -0.2546
 7429SOL    HW228250   8.473   8.610   6.150  0.0190 -0.0812 -0.9804
 7430SOL     OW28251   6.560   7.848   4.245 -0.1121 -0.1473 -0.1653
 7430SOL    HW128252   6.464   7.845   4.241 -0.2557  2.3637 -0.3166
 7430SOL    HW228253   6.584   7.778   4.306 -2.1750  0.2339  1.1757
 7431SOL     OW28254   0.807   1.267   8.272  0.2039  0.7093 -0.3250
 7431SOL    HW128255   0.729   1.250   8.220  0.0060 -1.7533  0.6554
 7431SOL    HW228256   0.775   1.281   8.361  0.6413  3.6513 -0.5273
 7432SOL     OW28257   0.365   8.430   8.352 -0.6268  0.0217 -0.4415
 7432SOL    HW128258   0.459   8.430   8.334 -0.5865 -1.2128 -0.3228
 7432SOL    HW228259   0.329   8.493   8.289  0.4389  1.7698  0.6038
 7433SOL     OW28260   2.321   0.440   5.065 -0.2084  0.4195  0.9000
 7433SOL    HW128261   2.417   0.450   5.064 -0.2041  0.3811 -0.0199
 7433SOL    HW228262   2.306   0.347   5.052 -0.3728  0.4766  0.6670
 7434SOL     OW28263   7.757   5.837   8.700  0.2462 -0.2680 -0.5669
 7434SOL    HW128264   7.671   5.801   8.724  0.1603 -0.2022 -0.7680
 7434SOL    HW228265   7.741   5.882   8.617  0.9919 -2.4472 -1.9945
 7435SOL     OW28266   1.617   7.294   0.162 -0.1458  0.3673 -0.5376
 7435SOL    HW128267   1.650   7.365   0.106 -1.0337  0.3409 -1.1158
 7435SOL    HW228268   1.660   7.216   0.130  1.1483  0.6827  0.3622
 7436SOL     OW28269   6.211   8.140   7.141  1.0206  0.2389 -0.0514
 7436SOL    HW128270   6.204   8.099   7.227  0.7583  2.0759  0.8769
 7436SOL    HW228271   6.123   8.133   7.105  0.3924  1.8010  1.0417
 7437SOL     OW28272   5.313   7.062   7.146  0.3429 -0.2428  0.0967
 7437SOL    HW128273   5.335   7.154   7.140 -0.7893 -0.0126 -0.9202
 7437SOL    HW228274   5.377   7.025   7.207  0.6653  1.2471  0.6800
 7438SOL     OW28275   8.735   5.357   0.360  0.1291 -0.4249  0.1547
 7438SOL    HW128276   8.716   5.410   0.438 -1.7140 -0.9332  0.1028
 7438SOL    HW228277   8.788   5.285   0.393  1.3296  0.5704  0.4971
 7439SOL     OW28278   2.142   3.907   8.374 -0.4982 -0.0179  0.3521
 7439SOL    HW128279   2.205   3.890   8.304 -1.3644 -0.5622 -0.3113
 7439SOL    HW228280   2.172   3.852   8.447  0.5377  0.7257  0.5115
 7440SOL     OW28281   2.232   0.976   2.212  0.2386  0.2985  0.2924
 7440SOL    HW128282   2.208   1.054   2.263  1.0454  0.9624 -0.3254
 7440SOL    HW228283   2.237   1.006   2.122 -2.4452 -1.1472 -0.4445
 7441SOL     OW28284   9.133   6.565   2.348  0.3095  0.1490  0.3071
 7441SOL    HW128285   9.041   6.580   2.370 -0.3478 -1.8137 -0.8774
 7441SOL    HW228286   9.134   6.558   2.253  2.0495  2.0843  0.1164
 7442SOL     OW28287   0.171   8.547   7.047 -0.1078  0.0581 -0.3177
 7442SOL    HW128288   0.252   8.500   7.069  1.0485  1.7610 -0.7772
 7442SOL    HW228289   0.155   8.602   7.123  0.6829  1.6864 -1.2823
 7443SOL     OW28290   0.488   5.010   3.534  0.1163 -0.1176  0.4395
 7443SOL    HW128291   0.456   4.998   3.623 -1.4990  1.9268  0.2081
 7443SOL    HW228292   0.503   4.921   3.501 -0.1551 -0.9340  2.4146
 7444SOL     OW28293   2.325   8.494   4.084 -0.2537  0.0334 -0.3854
 7444SOL    HW128294   2.364   8.558   4.143 -0.0681 -0.2064 -0.2443
 7444SOL    HW228295   2.337   8.530   3.997 -0.4413  0.3444 -0.2839
 7445SOL     OW28296   5.836   1.743   5.106 -0.0689  0.3840 -0.3732
 7445SOL    HW128297   5.863   1.822   5.059  1.1442 -0.9462 -2.0217
 7445SOL    HW228298   5.754   1.717   5.065  0.8602 -0.6329 -1.6703
 7446SOL     OW28299   7.378   3.459   3.567 -0.0806 -0.1116  0.1667
 7446SOL    HW128300   7.408   3.532   3.513 -2.5879  0.1446 -1.0237
 7446SOL    HW228301   7.309   3.496   3.622 -1.1551 -1.4509 -0.2207
 7447SOL     OW28302   1.694   5.629   4.451  0.4980 -0.4821 -0.4402
 7447SOL    HW128303   1.783   5.664   4.446  0.5339 -0.2609  1.2241
 7447SOL    HW228304   1.695   5.573   4.528 -1.5120  1.7042  1.3027
 7448SOL     OW28305   5.363   7.877   1.826  0.1640  0.0118 -0.5043
 7448SOL    HW128306   5.408   7.792   1.824 -0.3887 -0.3306  0.6753
 7448SOL    HW228307   5.347   7.898   1.734  0.1853 -1.2421 -0.8120
 7449SOL     OW28308   2.345   1.309   7.021 -0.1165  0.4800 -0.1460
 7449SOL    HW128309   2.363   1.384   7.077  2.1868 -0.0726 -0.0507
 7449SOL    HW228310   2.386   1.330   6.937  0.1116 -0.4582 -0.2815
 7450SOL     OW28311   2.291   9.172   0.868  0.1017  0.0181  0.3331
 7450SOL    HW128312   2.261   9.081   0.857  0.9151 -0.1617 -0.5439
 7450SOL    HW228313   2.238   9.206   0.940 -2.8471  0.0055 -1.6651
 7451SOL     OW28314   1.660   8.769   3.967  0.3954  0.5095  0.1357
 7451SOL    HW128315   1.579   8.778   3.917 -0.2526  0.1836  1.1071
 7451SOL    HW228316   1.714   8.710   3.914  0.1999  1.1035 -0.7474
 7452SOL     OW28317   8.285   8.325   8.282  0.1858 -0.2772 -0.1594
 7452SOL    HW128318   8.230   8.358   8.211  2.0294 -0.2469 -1.6642
 7452SOL    HW228319   8.359   8.284   8.237  1.2186 -0.6350  1.7632
 7453SOL     OW28320   7.505   2.920   4.675 -0.3371 -0.0975  0.4314
 7453SOL    HW128321   7.502   3.016   4.668  2.3835  0.1483  1.5529
 7453SOL    HW228322   7.543   2.892   4.591  2.6293  0.2296  1.5519
 7454SOL     OW28323   1.622   7.418   3.751  0.1556  0.0842  0.0031
 7454SOL    HW128324   1.532   7.433   3.723  0.2216  0.5636  0.0271
 7454SOL    HW228325   1.669   7.496   3.721  0.4480  0.0943  0.4825
 7455SOL     OW28326   7.178   5.743   6.142 -0.4822 -0.3385  0.4560
 7455SOL    HW128327   7.122   5.820   6.145  0.2925  0.6151 -3.6860
 7455SOL    HW228328   7.267   5.778   6.142  0.0711 -1.5624  2.2843
 7456SOL     OW28329   7.943   5.684   1.626 -0.1665 -0.1653 -0.3324
 7456SOL    HW128330   7.975   5.726   1.706  0.6796 -1.7844  0.2234
 7456SOL    HW228331   8.007   5.707   1.559  0.9359 -1.4350  0.2338
 7457SOL     OW28332   0.765   8.841   2.800 -0.0132 -0.3140  0.3079
 7457SOL    HW128333   0.691   8.801   2.846 -1.9477  0.8426 -1.5858
 7457SOL    HW228334   0.842   8.819   2.853 -1.7079 -1.5048  2.4227
 7458SOL     OW28335   0.157   8.547   5.800 -0.4528 -0.1942  0.0095
 7458SOL    HW128336   0.161   8.491   5.878  2.5493  1.7644  1.4302
 7458SOL    HW228337   0.064   8.572   5.794 -1.0686 -1.7041  1.9468
 7459SOL     OW28338   3.812   8.495   3.212 -0.4845 -0.1889 -0.4475
 7459SOL    HW128339   3.898   8.458   3.193 -0.5437 -1.1978  1.0638
 7459SOL    HW228340   3.750   8.431   3.179 -0.6120 -0.4819  0.3337
 7460SOL     OW28341   1.037   2.787   7.157  0.2580 -0.1619  0.0787
 7460SOL    HW128342   0.957   2.817   7.114 -2.0632 -1.1358  3.3550
 7460SOL    HW228343   1.082   2.867   7.185 -0.3573  0.3733 -0.4509
 7461SOL     OW28344   7.437   1.041   2.642  0.2159  0.7641  0.1555
 7461SOL    HW128345   7.484   1.008   2.719 -0.4149 -1.1338 -0.2260
 7461SOL    HW228346   7.351   1.000   2.646  0.7229 -0.8029 -2.4473
 7462SOL     OW28347   3.518   8.425   0.650  0.4393  0.2713  0.5191
 7462SOL    HW128348   3.557   8.508   0.622  2.7096 -0.6470  0.6801
 7462SOL    HW228349   3.588   8.361   0.637 -1.0093 -1.5025  1.0756
 7463SOL     OW28350   1.902   1.758   9.147  0.3938  0.5421  0.2143
 7463SOL    HW128351   1.915   1.690   9.213  1.5448  0.2251 -0.3123
 7463SOL    HW228352   1.822   1.732   9.100  0.8256 -0.4507  0.0204
 7464SOL     OW28353   0.555   0.822   9.239  0.1386 -0.1169  0.2027
 7464SOL    HW128354   0.522   0.751   9.183 -2.4289  0.5505  0.7156
 7464SOL    HW228355   0.554   0.899   9.183  0.5600 -0.0314  0.3124
 7465SOL     OW28356   8.157   0.763   3.962  0.1840  0.3145  0.2751
 7465SOL    HW128357   8.211   0.685   3.976 -0.2302  0.0010  0.1664
 7465SOL    HW228358   8.100   0.739   3.888  0.5696  0.9995 -0.2523
 7466SOL     OW28359   2.542   4.053   5.547  0.6639 -0.2447 -0.2260
 7466SOL    HW128360   2.502   4.092   5.469 -0.3076  0.9381  0.8410
 7466SOL    HW228361   2.636   4.064   5.532  0.5272 -0.7677 -1.5998
 7467SOL     OW28362   6.442   8.169   8.018 -0.2724  0.3213 -0.5129
 7467SOL    HW128363   6.534   8.148   8.036 -0.7543 -1.8307 -0.2768
 7467SOL    HW228364   6.428   8.254   8.060  0.9913 -0.3968  1.5166
 7468SOL     OW28365   3.795   5.752   7.116 -0.2524  0.4079  0.0875
 7468SOL    HW128366   3.807   5.777   7.025 -1.5659  0.5733 -0.0551
 7468SOL    HW228367   3.854   5.809   7.165 -1.6298  2.3448 -0.4128
 7469SOL     OW28368   8.228   2.597   0.810 -0.3432 -0.3719  0.4581
 7469SOL    HW128369   8.317   2.564   0.797  0.4722  0.9929  2.1537
 7469SOL    HW228370   8.216   2.598   0.905 -0.6216  3.1242  0.5461
 7470SOL     OW28371   6.268   1.762   8.961 -0.0581  0.5210  0.0362
 7470SOL    HW128372   6.210   1.686   8.954  1.6473 -0.9859  1.5154
 7470SOL    HW228373   6.328   1.753   8.887  0.3320  0.2691  0.3847
 7471SOL     OW28374   0.822   9.130   2.223  0.1563 -0.0179  0.1985
 7471SOL    HW128375   0.750   9.076   2.255 -0.9375  0.4046 -1.4422
 7471SOL    HW228376   0.851   9.180   2.300 -1.2080 -0.2812  0.9108
 7472SOL     OW28377   0.042   6.983   8.846  0.3324  0.1435  0.7498
 7472SOL    HW128378  -0.003   6.928   8.781  0.4670  2.0928 -1.1075
 7472SOL    HW228379   0.072   6.922   8.913  0.1389 -1.9846 -1.0017
 7473SOL     OW28380   5.307   7.465   1.307  0.6025  0.5071  0.0308
 7473SOL    HW128381   5.392   7.497   1.279  0.8681  0.3781  0.6625
 7473SOL    HW228382   5.248   7.484   1.234  0.9734  1.4611 -0.0290
 7474SOL     OW28383   5.218   6.911   6.226 -0.4805 -0.5976  0.0107
 7474SOL    HW128384   5.247   6.863   6.303 -0.0936 -1.3572 -0.5996
 7474SOL    HW228385   5.224   6.848   6.155 -2.7494 -0.4932 -0.3143
 7475SOL     OW28386   6.967   5.196   8.457 -0.4865 -0.7418 -0.5680
 7475SOL    HW128387   6.921   5.259   8.512  0.6066  0.8486 -1.3892
 7475SOL    HW228388   6.913   5.189   8.378 -0.1035 -0.0052 -0.9089
 7476SOL     OW28389   1.598   6.196   1.550  0.5915 -0.2281 -0.5221
 7476SOL    HW128390   1.649   6.232   1.622 -0.5825 -0.4462  0.4593
 7476SOL    HW228391   1.660   6.187   1.478  1.7466  0.1964  0.3931
 7477SOL     OW28392   1.964   6.063   5.055  1.0346  0.4135  0.5051
 7477SOL    HW128393   1.990   6.058   5.147  0.5513 -0.6979  0.6023
 7477SOL    HW228394   1.871   6.085   5.058  1.3737  1.9383  0.2283
 7478SOL     OW28395   8.116   5.182   0.074  0.1439 -0.0497 -0.1993
 7478SOL    HW128396   8.098   5.270   0.106  1.9379 -0.6843  2.9914
 7478SOL    HW228397   8.107   5.126   0.151  3.0552 -2.0363 -1.1203
 7479SOL     OW28398   8.667   6.877   0.906 -0.4871 -0.3405  0.6550
 7479SOL    HW128399   8.722   6.946   0.944  0.4174  0.0322 -1.2451
 7479SOL    HW228400   8.589   6.924   0.876  0.5609  0.1053 -1.5535
 7480SOL     OW28401   5.745   0.778   4.507 -0.1131  0.6500  0.0420
 7480SOL    HW128402   5.825   0.785   4.455  0.2239  0.2510  0.4921
 7480SOL    HW228403   5.776   0.771   4.598 -0.5542 -1.3177  0.0933
 7481SOL     OW28404   7.579   6.064   4.816 -0.0995  0.2017  0.2522
 7481SOL    HW128405   7.577   6.158   4.832 -2.7790  0.5710 -1.5451
 7481SOL    HW228406   7.634   6.055   4.738  1.2912  0.0760  1.2233
 7482SOL     OW28407   7.929   0.163   5.492  0.3710 -0.0440 -0.0446
 7482SOL    HW128408   7.989   0.089   5.482 -0.3630 -0.5506 -0.7847
 7482SOL    HW228409   7.974   0.236   5.449  0.4447 -0.4363 -0.6484
 7483SOL     OW28410   3.263   8.330   7.461  0.2326  0.1066 -0.0197
 7483SOL    HW128411   3.207   8.280   7.520  1.3123  1.6685  2.5224
 7483SOL    HW228412   3.333   8.269   7.436 -0.9952 -0.9895 -0.8748
 7484SOL     OW28413   0.703   2.905   3.328 -0.5006  0.0211  0.1903
 7484SOL    HW128414   0.775   2.909   3.390 -0.2898  2.3603 -0.1126
 7484SOL    HW228415   0.651   2.829   3.356  1.9813 -1.7051  0.4549
 7485SOL     OW28416   7.178   4.290   7.752 -0.5246 -0.0175 -0.0536
 7485SOL    HW128417   7.099   4.255   7.710 -1.3657 -0.6523  1.9375
 7485SOL    HW228418   7.158   4.382   7.768 -0.2370  0.2039 -0.9169
 7486SOL     OW28419   4.465   1.353   2.918 -0.0482 -0.1484 -0.1185
 7486SOL    HW128420   4.393   1.380   2.974  1.3262 -1.4797  2.4637
 7486SOL    HW228421   4.460   1.257   2.918 -1.3535 -0.3303 -4.3116
 7487SOL     OW28422   3.488   7.037   7.777  0.5150  0.0517  0.0495
 7487SOL    HW128423   3.429   6.982   7.830  0.2195  0.7285  0.4350
 7487SOL    HW228424   3.430   7.082   7.716  0.6348  0.6783  0.3912
 7488SOL     OW28425   8.611   6.641   0.051 -0.1382  0.5330 -0.1987
 7488SOL    HW128426   8.637   6.587  -0.023 -1.4115 -0.5854  0.1174
 7488SOL    HW228427   8.641   6.592   0.128  0.8267  1.4865  0.0507
 7489SOL     OW28428   3.388   5.237   4.686  0.1705  0.1670 -0.0351
 7489SOL    HW128429   3.424   5.307   4.741  2.2502  0.6154 -1.8240
 7489SOL    HW228430   3.317   5.279   4.637 -0.9534  0.0489  1.4254
 7490SOL     OW28431   8.586   7.872   8.056 -0.3267  0.1907  0.3868
 7490SOL    HW128432   8.570   7.833   7.970  0.5056 -0.0032  0.3085
 7490SOL    HW228433   8.653   7.938   8.040 -0.4519  0.4299  0.8256
 7491SOL     OW28434   1.767   7.213   1.281 -0.1760 -0.5631 -0.4765
 7491SOL    HW128435   1.829   7.207   1.354  0.3662  0.0009 -0.8760
 7491SOL    HW228436   1.814   7.175   1.207  0.3927  1.4215 -1.2051
 7492SOL     OW28437   3.904   6.120   1.629 -0.5628 -0.1258 -0.2785
 7492SOL    HW128438   3.897   6.209   1.663 -1.3701 -0.1128 -0.4655
 7492SOL    HW228439   3.839   6.070   1.678  1.4257 -1.1484  1.4712
 7493SOL     OW28440   7.220   6.448   5.616  0.3127  0.8250  0.0163
 7493SOL    HW128441   7.277   6.417   5.546  1.1741  0.0324  1.0282
 7493SOL    HW228442   7.133   6.450   5.578  0.7370  0.2155 -1.0186
 7494SOL     OW28443   4.050   8.395   2.880  0.0088 -0.0926  0.4421
 7494SOL    HW128444   4.010   8.310   2.857 -2.0951  0.6212  1.1695
 7494SOL    HW228445   4.066   8.389   2.974 -0.4992  0.4165  0.5696
 7495SOL     OW28446   5.658   4.479   2.447  0.3773 -0.4133  0.1987
 7495SOL    HW128447   5.570   4.445   2.464  0.1827 -0.3083 -0.5615
 7495SOL    HW228448   5.669   4.550   2.511 -0.2363 -0.1815  0.0514
 7496SOL     OW28449   0.923   6.130   3.879  0.4301 -0.6103  0.0700
 7496SOL    HW128450   0.841   6.087   3.855  0.3479  0.4882 -1.8532
 7496SOL    HW228451   0.944   6.185   3.803  3.4074 -1.5417  0.1024
 7497SOL     OW28452   6.973   0.886   7.967 -0.1373 -0.0087  0.0333
 7497SOL    HW128453   6.914   0.862   7.896 -0.3692 -0.6133  0.4151
 7497SOL    HW228454   6.974   0.982   7.967 -0.8668  0.0005 -0.1806
 7498SOL     OW28455   4.065   3.323   6.953 -0.0788 -0.1069 -0.0614
 7498SOL    HW128456   4.030   3.394   7.007  0.4876  0.0446  0.1105
 7498SOL    HW228457   4.101   3.368   6.876 -1.6929 -0.3849 -1.0271
 7499SOL     OW28458   4.039   0.022   1.535 -0.1930 -0.3196  0.6182
 7499SOL    HW128459   4.021  -0.072   1.536 -1.2363 -0.1313  0.9844
 7499SOL    HW228460   3.958   0.062   1.505 -0.7998  0.6347  3.2084
 7500SOL     OW28461   2.441   1.649   6.592  0.2272 -0.2259  0.0634
 7500SOL    HW128462   2.464   1.570   6.642  0.3592 -0.7471 -0.8086
 7500SOL    HW228463   2.466   1.629   6.502 -0.5784  0.4733 -0.3278
 7501SOL     OW28464   6.861   2.151   7.480 -0.2754  0.1475  0.1588
 7501SOL    HW128465   6.895   2.092   7.413  0.2008  0.7397 -0.1375
 7501SOL    HW228466   6.870   2.102   7.562  0.4377 -0.0618 -0.0358
 7502SOL     OW28467   0.283   3.339   3.424  0.0766  0.0831  0.0857
 7502SOL    HW128468   0.371   3.320   3.392 -0.0451  0.1320 -0.2847
 7502SOL    HW228469   0.279   3.297   3.509  0.3517 -0.1893 -0.0338
 7503SOL     OW28470   3.219   5.342   9.267 -0.0954  0.0320  0.1178
 7503SOL    HW128471   3.270   5.292   9.330  0.4153 -0.2286 -0.4868
 7503SOL    HW228472   3.150   5.383   9.318 -0.3815 -1.1033  0.6553
 7504SOL     OW28473   4.800   4.922   6.003  0.1368 -0.1848 -0.5187
 7504SOL    HW128474   4.864   4.851   6.000  1.5112  0.9607  0.6478
 7504SOL    HW228475   4.749   4.904   6.081 -1.7823 -1.6937 -2.0058
 7505SOL     OW28476   2.874   4.043   1.640  0.0596 -0.1051  0.0379
 7505SOL    HW128477   2.867   3.959   1.595 -0.4474  0.0014 -0.0899
 7505SOL    HW228478   2.874   4.022   1.733  0.5659 -0.2898 -0.0031
 7506SOL     OW28479   6.724   4.306   6.467  0.2625 -0.9472  0.6719
 7506SOL    HW128480   6.693   4.321   6.378 -0.1699 -2.0595  0.6187
 7506SOL    HW228481   6.644   4.297   6.519  0.4633 -2.4130  0.7818
 7507SOL     OW28482   2.330   7.563   7.933 -0.3382 -0.0041  0.2599
 7507SOL    HW128483   2.330   7.496   7.865 -0.1990 -0.5375  0.7814
 7507SOL    HW228484   2.405   7.619   7.912  1.4678 -1.8026  1.5428
 7508SOL     OW28485   7.805   8.028   1.652  0.0479  0.3735  0.1991
 7508SOL    HW128486   7.748   7.997   1.581 -1.3667  1.3332  0.8809
 7508SOL    HW228487   7.883   7.972   1.646 -1.2716 -1.4976 -0.2752
 7509SOL     OW28488   1.473   3.229   4.980 -0.2135  0.0177 -0.1568
 7509SOL    HW128489   1.426   3.160   4.933 -1.9354  0.7762  0.3726
 7509SOL    HW228490   1.485   3.298   4.916 -2.1199  0.8471  0.3043
 7510SOL     OW28491   7.028   1.129   2.530 -0.1491 -0.4599 -0.6042
 7510SOL    HW128492   7.026   1.088   2.616 -0.4203 -0.2607 -0.5155
 7510SOL    HW228493   6.987   1.064   2.472 -1.0971 -0.0863 -0.3642
 7511SOL     OW28494   4.212   3.065   4.507 -0.2947 -0.1732  0.0423
 7511SOL    HW128495   4.261   3.066   4.589  0.7620  1.0425 -0.5743
 7511SOL    HW228496   4.150   2.992   4.517  0.5581 -0.7418  1.4632
 7512SOL     OW28497   1.790   6.866   7.916  0.5793  0.7532  0.0258
 7512SOL    HW128498   1.767   6.922   7.990  1.4982  0.4883  0.5232
 7512SOL    HW228499   1.813   6.927   7.846  0.7592  1.0015  0.2990
 7513SOL     OW28500   4.752   2.713   8.108  0.6589  0.0307 -0.0936
 7513SOL    HW128501   4.759   2.618   8.112  0.3202  0.0413  1.9464
 7513SOL    HW228502   4.829   2.745   8.155  1.5217  0.8369 -1.9703
 7514SOL     OW28503   0.229   4.432   1.106  0.2409 -0.2783  0.4284
 7514SOL    HW128504   0.201   4.499   1.043  0.7541 -1.2992 -0.9424
 7514SOL    HW228505   0.322   4.417   1.086  0.1075 -1.4819  0.6226
 7515SOL     OW28506   8.769   3.325   8.618  0.2677 -0.0502  0.5406
 7515SOL    HW128507   8.745   3.406   8.664  1.0775  0.6751 -0.2714
 7515SOL    HW228508   8.798   3.355   8.531 -0.2564 -1.2966 -0.0897
 7516SOL     OW28509   9.033   1.010   3.521  0.4105  0.4775  0.1658
 7516SOL    HW128510   8.948   0.967   3.513  0.4279  0.6119 -0.9400
 7516SOL    HW228511   9.036   1.070   3.446  0.7984  1.6756  1.1188
 7517SOL     OW28512   3.660   6.321   7.197 -0.5124 -0.2731  0.4782
 7517SOL    HW128513   3.614   6.332   7.114 -0.2075 -1.2629  0.1727
 7517SOL    HW228514   3.591   6.321   7.263 -0.8725 -0.8599  0.1034
 7518SOL     OW28515   5.347   5.319   6.585  0.5033 -0.6988 -0.6763
 7518SOL    HW128516   5.375   5.410   6.580  1.3202 -0.9155 -0.2000
 7518SOL    HW228517   5.251   5.323   6.577  0.1601  0.5476  2.5625
 7519SOL     OW28518   2.766   8.426   7.909 -0.0703 -0.1807  0.2716
 7519SOL    HW128519   2.722   8.496   7.958 -0.8525 -1.0109  0.7944
 7519SOL    HW228520   2.843   8.404   7.962  0.4671  0.6275 -0.1591
 7520SOL     OW28521   6.961   7.301   9.286  0.2932 -0.4157 -0.5105
 7520SOL    HW128522   6.946   7.293   9.192 -0.1923 -1.2551 -0.3795
 7520SOL    HW228523   6.885   7.258   9.326 -0.5049  1.6414  0.3090
 7521SOL     OW28524   0.980   0.968   7.356 -0.1276 -0.0148  0.2099
 7521SOL    HW128525   0.903   1.016   7.327 -0.5161  0.0199  1.2531
 7521SOL    HW228526   0.960   0.944   7.446  0.2791 -1.6567 -0.1034
 7522SOL     OW28527   2.493   1.608   1.681  0.4693  0.1553 -0.1599
 7522SOL    HW128528   2.557   1.565   1.624  0.1515  0.2751 -0.6110
 7522SOL    HW228529   2.415   1.553   1.676  0.5369  0.0053  0.3949
 7523SOL     OW28530   7.919   2.763   0.912 -0.1138 -0.1018  0.4464
 7523SOL    HW128531   7.939   2.809   0.993  1.0501  1.0369 -0.4267
 7523SOL    HW228532   7.879   2.830   0.856 -0.3527 -0.7079 -0.1239
 7524SOL     OW28533   5.905   5.996   2.887 -0.0964  0.3748 -0.3851
 7524SOL    HW128534   5.824   6.044   2.876  0.4649  1.5396  0.2999
 7524SOL    HW228535   5.950   6.003   2.803 -0.2084  0.7062 -0.4175
 7525SOL     OW28536   5.434   6.346   4.751  0.0549 -0.1531 -0.3458
 7525SOL    HW128537   5.341   6.326   4.756  0.0710  0.0536  0.9864
 7525SOL    HW228538   5.442   6.405   4.676 -0.7856 -0.6576 -0.8442
 7526SOL     OW28539   7.925   8.944   1.521 -0.4159  0.3740  0.3288
 7526SOL    HW128540   7.936   8.849   1.523  0.3274  0.3693 -1.8507
 7526SOL    HW228541   8.010   8.978   1.491 -1.1213  1.6103 -0.3632
 7527SOL     OW28542   8.393   5.696   0.541  0.1431 -0.1085 -0.0632
 7527SOL    HW128543   8.373   5.610   0.503  2.5810 -0.1549 -1.4946
 7527SOL    HW228544   8.487   5.706   0.528 -0.0285  2.7244  0.2305
 7528SOL     OW28545   4.000   6.097   0.243  0.5668  0.6285  0.0098
 7528SOL    HW128546   3.919   6.046   0.250  0.7111  0.4326  0.2936
 7528SOL    HW228547   4.069   6.033   0.260  0.6837  1.2459  2.0500
 7529SOL     OW28548   8.017   5.903   9.123  0.4603  0.2524  0.7455
 7529SOL    HW128549   8.030   5.898   9.218 -0.0642  0.5187  0.8320
 7529SOL    HW228550   8.076   5.972   9.094  1.0618 -0.2300  0.7897
 7530SOL     OW28551   7.051   2.052   5.516  0.2760  0.1574 -0.2803
 7530SOL    HW128552   7.040   2.133   5.565  1.5325  0.2449 -0.1320
 7530SOL    HW228553   6.980   1.996   5.547 -1.6109  1.7211 -1.5181
 7531SOL     OW28554   1.108   7.000   7.663 -0.0695  0.5826 -0.5298
 7531SOL    HW128555   1.116   6.906   7.643 -1.8342  0.3178 -0.1425
 7531SOL    HW228556   1.024   7.025   7.625 -0.2221  1.7095  0.5015
 7532SOL     OW28557   7.340   4.538   0.578  0.9565 -0.0707 -0.0666
 7532SOL    HW128558   7.355   4.601   0.648 -1.5825  0.3505  0.1869
 7532SOL    HW228559   7.318   4.457   0.623  2.8372 -0.8138 -0.4076
 7533SOL     OW28560   7.167   4.601   7.803 -0.2339  0.1916  0.2985
 7533SOL    HW128561   7.194   4.659   7.873  0.8566 -0.0845  0.1170
 7533SOL    HW228562   7.165   4.656   7.725 -2.0945  0.6616  0.6137
 7534SOL     OW28563   4.470   3.458   0.337 -0.1713 -0.1057 -0.0198
 7534SOL    HW128564   4.453   3.390   0.402 -0.5919 -0.3385 -0.3689
 7534SOL    HW228565   4.451   3.540   0.382 -2.0474 -0.3371 -0.3174
 7535SOL     OW28566   1.415   7.647   5.691 -0.2328 -0.2218  0.3772
 7535SOL    HW128567   1.482   7.670   5.628  0.3327 -2.0229  0.2737
 7535SOL    HW228568   1.428   7.709   5.764  0.6446  0.3066 -0.2139
 7536SOL     OW28569   0.202   4.205   6.908 -0.0817 -0.1808 -0.5785
 7536SOL    HW128570   0.186   4.142   6.978 -1.0689 -0.6038 -1.1514
 7536SOL    HW228571   0.205   4.289   6.952  0.6000 -0.5626  0.1229
 7537SOL     OW28572   5.274   4.285   2.734 -0.2296  0.3886  0.2403
 7537SOL    HW128573   5.289   4.210   2.790  1.6843  0.8978  0.4870
 7537SOL    HW228574   5.194   4.264   2.685  0.0437 -1.5993  0.5898
 7538SOL     OW28575   0.453   5.489   7.236 -0.0937  0.0474 -0.1756
 7538SOL    HW128576   0.414   5.535   7.162 -0.2335  0.8523  0.3918
 7538SOL    HW228577   0.426   5.539   7.313  1.8457  0.5135  0.2579
 7539SOL     OW28578   4.727   2.950   1.622  0.6279 -0.3276  0.0929
 7539SOL    HW128579   4.714   2.856   1.636  1.8387 -0.4937  0.1771
 7539SOL    HW228580   4.648   2.990   1.658  0.6952 -1.2268  1.3054
 7540SOL     OW28581   5.464   7.300   5.637 -0.0554 -0.0426  0.4664
 7540SOL    HW128582   5.479   7.274   5.728  0.8840 -1.1443  0.0231
 7540SOL    HW228583   5.544   7.274   5.591 -0.7149  0.0285 -0.7691
 7541SOL     OW28584   6.677   4.293   6.016  0.1092  1.1088  0.1090
 7541SOL    HW128585   6.643   4.369   6.062 -0.5094  0.2086  1.1800
 7541SOL    HW228586   6.772   4.301   6.022  0.0718  0.3675  2.7289
 7542SOL     OW28587   8.178   6.119   9.097  0.1413 -0.2755  0.2825
 7542SOL    HW128588   8.270   6.104   9.076 -0.1395 -1.4558 -0.1753
 7542SOL    HW228589   8.132   6.104   9.015 -0.5058 -0.1512  0.6187
 7543SOL     OW28590   0.691   7.621   8.712 -0.0039  0.1321 -0.1945
 7543SOL    HW128591   0.764   7.571   8.676 -0.9482 -2.1743  0.8770
 7543SOL    HW228592   0.730   7.669   8.786  0.5478 -0.7597  0.1220
 7544SOL     OW28593   2.574   5.488   1.777 -0.0175  0.4615  0.1956
 7544SOL    HW128594   2.498   5.438   1.749 -0.1252 -0.3264  1.7747
 7544SOL    HW228595   2.551   5.579   1.759 -0.1946  0.0381 -1.8605
 7545SOL     OW28596   4.364   0.515   7.059  0.4129 -0.4399  0.5227
 7545SOL    HW128597   4.345   0.425   7.033 -0.9367  0.1219 -0.5631
 7545SOL    HW228598   4.453   0.530   7.028  0.3127 -1.1119 -0.1198
 7546SOL     OW28599   5.685   7.652   7.546 -0.2204 -0.0985  0.1832
 7546SOL    HW128600   5.628   7.713   7.498 -0.8673 -0.8364 -0.0086
 7546SOL    HW228601   5.746   7.708   7.594  2.5355  0.7779 -3.8288
 7547SOL     OW28602   5.302   3.998   4.102 -0.2360  0.0180 -0.6570
 7547SOL    HW128603   5.383   3.952   4.123 -1.0281 -1.6735 -1.1561
 7547SOL    HW228604   5.276   3.965   4.017 -1.7463  0.1011 -0.2587
 7548SOL     OW28605   7.680   1.644   7.600  0.3986 -0.1081  0.4905
 7548SOL    HW128606   7.640   1.707   7.540  0.6195  1.0630  1.5380
 7548SOL    HW228607   7.677   1.687   7.685  4.2307  0.2152  0.6116
 7549SOL     OW28608   6.927   1.456   0.342 -0.3350  0.6295  0.3649
 7549SOL    HW128609   6.928   1.457   0.246  1.5080 -0.0611  0.3294
 7549SOL    HW228610   6.884   1.374   0.365 -1.2569  1.0426  0.1590
 7550SOL     OW28611   1.075   9.096   2.137  0.1289 -0.2161 -0.0438
 7550SOL    HW128612   0.986   9.114   2.166 -0.0502  0.6814 -1.0791
 7550SOL    HW228613   1.065   9.057   2.050  0.7405 -0.1234 -0.1596
 7551SOL     OW28614   2.106   4.258   4.750 -0.2565  0.0001 -0.3175
 7551SOL    HW128615   2.064   4.275   4.835  0.8924  0.9634  0.0761
 7551SOL    HW228616   2.200   4.258   4.769  0.0084 -3.0341 -0.9976
 7552SOL     OW28617   4.038   5.929   9.315  0.4437 -0.5058  0.0278
 7552SOL    HW128618   3.965   5.911   9.373  0.4776 -1.3142 -0.1628
 7552SOL    HW228619   4.023   5.872   9.239  1.1278 -0.4976 -0.1255
 7553SOL     OW28620   2.841   0.495   6.961  0.0602  0.3639  0.1600
 7553SOL    HW128621   2.761   0.511   6.910 -1.2494 -3.2270  0.7802
 7553SOL    HW228622   2.843   0.565   7.026 -0.9788  2.1582 -1.6159
 7554SOL     OW28623   8.933   1.854   6.938  0.3132  0.0644  0.3331
 7554SOL    HW128624   8.923   1.764   6.967 -0.1938 -0.0874 -0.2929
 7554SOL    HW228625   9.008   1.852   6.878  0.3068  0.0602  0.3247
 7555SOL     OW28626   6.744   0.312   3.252 -0.4380  0.0218  0.3346
 7555SOL    HW128627   6.781   0.312   3.340 -0.6594 -2.2377  0.4997
 7555SOL    HW228628   6.793   0.379   3.205 -1.1451  2.1562  2.4636
 7556SOL     OW28629   8.720   8.161   6.621 -0.2196  0.2019  0.5018
 7556SOL    HW128630   8.706   8.117   6.537 -0.3196  0.7053  0.2480
 7556SOL    HW228631   8.806   8.203   6.612 -0.8050  1.3750  0.1378
 7557SOL     OW28632   7.670   0.832   3.823  0.0160 -0.4677 -0.1656
 7557SOL    HW128633   7.693   0.894   3.754  1.4747 -0.3174  0.4203
 7557SOL    HW228634   7.722   0.859   3.898 -0.9960 -1.0715  0.7919
 7558SOL     OW28635   8.290   2.862   6.582 -0.1767  0.2168 -0.1520
 7558SOL    HW128636   8.201   2.830   6.595  0.3173 -0.9688  0.4905
 7558SOL    HW228637   8.298   2.875   6.487 -1.7207  2.5315 -0.0307
 7559SOL     OW28638   7.346   1.065   8.661 -0.1872 -0.1797  0.1591
 7559SOL    HW128639   7.295   1.135   8.704  0.2734 -0.9836  2.1088
 7559SOL    HW228640   7.302   0.984   8.687  0.4729 -0.7395 -0.4349
 7560SOL     OW28641   2.523   4.455   1.749  0.1406  0.0691  0.4253
 7560SOL    HW128642   2.585   4.523   1.778 -0.1709  0.4664  0.1650
 7560SOL    HW228643   2.576   4.375   1.747  0.2645  0.0867  1.7396
 7561SOL     OW28644   2.548   3.201   8.591 -0.1828  0.4518  0.0259
 7561SOL    HW128645   2.476   3.253   8.628 -1.5604 -0.3326 -1.4666
 7561SOL    HW228646   2.517   3.111   8.593  0.9539  0.0291 -0.2372
 7562SOL     OW28647   8.482   3.774   9.042 -0.2632  0.1204 -0.6887
 7562SOL    HW128648   8.530   3.773   8.959 -1.1981  0.3583 -1.2392
 7562SOL    HW228649   8.551   3.780   9.109  0.5303 -0.6063 -1.4072
 7563SOL     OW28650   3.969   3.427   0.855  0.0946 -0.8883 -0.3710
 7563SOL    HW128651   3.974   3.446   0.949  1.3033 -0.7309 -0.4569
 7563SOL    HW228652   3.886   3.465   0.828  0.3851  0.3316  0.3580
 7564SOL     OW28653   2.272   1.893   8.662 -0.0096 -0.9161  0.1032
 7564SOL    HW128654   2.354   1.903   8.709  0.1023 -2.6553  0.3597
 7564SOL    HW228655   2.218   1.966   8.692  0.7271 -0.9125  1.5295
 7565SOL     OW28656   4.951   2.169   3.739 -0.1980 -0.1754 -0.1231
 7565SOL    HW128657   5.031   2.118   3.723  0.5690  1.0069 -0.2181
 7565SOL    HW228658   4.880   2.107   3.726  0.7245 -1.8448  2.1430
 7566SOL     OW28659   5.024   3.627   6.304  0.5545 -0.3127 -0.3786
 7566SOL    HW128660   5.034   3.537   6.333  0.5642 -0.9316 -2.1452
 7566SOL    HW228661   4.960   3.622   6.233  0.7812  1.0210 -0.7029
 7567SOL     OW28662   6.948   0.369   7.682  0.4442 -0.6119  0.1217
 7567SOL    HW128663   6.919   0.424   7.609  0.3029 -0.9219 -0.0554
 7567SOL    HW228664   7.031   0.408   7.708  0.3319 -0.2952  0.0139
 7568SOL     OW28665   8.466   0.404   8.132 -0.5441  0.6647  0.5255
 7568SOL    HW128666   8.548   0.451   8.115 -0.6741  2.1255  3.2672
 7568SOL    HW228667   8.399   0.472   8.130 -0.9675  0.4098  3.0465
 7569SOL     OW28668   4.945   4.983   3.448 -0.6980  0.2191  0.5837
 7569SOL    HW128669   5.019   5.028   3.407 -1.0238 -1.3386 -1.9248
 7569SOL    HW228670   4.964   4.987   3.542  2.5086  0.0156  0.0650
 7570SOL     OW28671   5.708   2.287   7.435  0.1078  0.0205  0.1144
 7570SOL    HW128672   5.780   2.230   7.462  0.2200 -0.9063 -1.9287
 7570SOL    HW228673   5.745   2.375   7.432  0.7870 -0.2580  0.3219
 7571SOL     OW28674   3.956   7.403   3.309  0.2891  0.2577  0.0199
 7571SOL    HW128675   3.926   7.450   3.231  0.9536  0.0911 -0.3458
 7571SOL    HW228676   3.884   7.412   3.372 -0.2037  0.4995 -0.5661
 7572SOL     OW28677   3.159   7.796   5.963  0.0150  0.0487 -0.8395
 7572SOL    HW128678   3.189   7.718   5.916 -1.3696  0.0069 -1.6890
 7572SOL    HW228679   3.135   7.764   6.050  0.4846 -0.2671 -0.8210
 7573SOL     OW28680   4.576   4.459   8.050  0.1436  0.2566  0.4944
 7573SOL    HW128681   4.519   4.404   8.104 -0.0648 -0.0398 -0.0233
 7573SOL    HW228682   4.640   4.398   8.013  1.3462  0.6884  1.7239
 7574SOL     OW28683   3.319   3.832   2.416  0.2307  0.0513  0.0459
 7574SOL    HW128684   3.230   3.866   2.408  0.1173  0.2467  1.7382
 7574SOL    HW228685   3.370   3.883   2.353 -1.1296 -1.2837 -2.2565
 7575SOL     OW28686   5.657   6.179   3.179  0.2935  0.2385  0.0615
 7575SOL    HW128687   5.674   6.274   3.176  0.9424  0.1157 -0.6754
 7575SOL    HW228688   5.646   6.160   3.272  2.8794  0.6194  0.5403
 7576SOL     OW28689   1.580   1.502   0.407 -0.2105  0.3959  0.5413
 7576SOL    HW128690   1.597   1.476   0.497  0.6097  0.5361  0.4332
 7576SOL    HW228691   1.644   1.571   0.390 -1.2687  1.3479  0.2986
 7577SOL     OW28692   7.495   6.981   1.536 -0.2953 -0.5755 -0.0266
 7577SOL    HW128693   7.557   6.955   1.605 -0.1846 -2.8580 -0.8908
 7577SOL    HW228694   7.466   6.898   1.498 -2.2475  0.5340 -1.0956
 7578SOL     OW28695   7.350   2.202   1.491  0.2601 -0.4230  0.4017
 7578SOL    HW128696   7.424   2.222   1.548  0.6655  1.9033 -0.7907
 7578SOL    HW228697   7.283   2.266   1.515 -0.8206 -1.5336  0.4520
 7579SOL     OW28698   0.498   5.596   7.650  0.0759 -0.1247  0.6193
 7579SOL    HW128699   0.575   5.647   7.627 -1.1585  0.5236 -2.6294
 7579SOL    HW228700   0.529   5.505   7.653  0.8768  0.0510 -1.2730
 7580SOL     OW28701   8.599   0.155   5.828  0.1986  0.2514 -0.2471
 7580SOL    HW128702   8.547   0.197   5.897 -1.1898 -0.6499 -0.7020
 7580SOL    HW228703   8.621   0.069   5.863  3.0645  1.2494  0.6964
 7581SOL     OW28704   1.281   5.113   1.946  0.2186 -0.1452 -0.0088
 7581SOL    HW128705   1.337   5.169   1.998 -1.9264  1.2295  0.9743
 7581SOL    HW228706   1.300   5.137   1.855 -0.1095  1.6664  0.3704
 7582SOL     OW28707   2.079   8.279   2.166 -0.3426 -0.1418 -0.0926
 7582SOL    HW128708   2.054   8.220   2.095  1.1153  0.8304 -1.4688
 7582SOL    HW228709   2.041   8.363   2.143  1.4246  0.5606 -0.5645
 7583SOL     OW28710   0.335   0.691   6.874 -0.2840  0.3423  0.5169
 7583SOL    HW128711   0.394   0.720   6.804 -1.5936 -0.7559 -1.1350
 7583SOL    HW228712   0.374   0.610   6.906 -0.2936  0.2153  0.2139
 7584SOL     OW28713   4.246   4.036   4.979  0.1079  0.3000 -0.1707
 7584SOL    HW128714   4.320   4.052   4.920  0.2971  1.0757  0.2561
 7584SOL    HW228715   4.280   3.976   5.045 -0.3953 -1.3808 -1.3870
 7585SOL     OW28716   6.618   5.819   2.977 -0.3186 -0.7144  0.3626
 7585SOL    HW128717   6.711   5.835   2.958 -0.2047 -1.3094  0.4070
 7585SOL    HW228718   6.613   5.821   3.073  0.1025 -3.0430  0.4835
 7586SOL     OW28719   2.743   3.830   1.249  0.0402  0.0715 -0.0434
 7586SOL    HW128720   2.696   3.748   1.237  1.6002 -1.0220  1.0396
 7586SOL    HW228721   2.774   3.852   1.161 -1.0375 -0.0637 -0.4741
 7587SOL     OW28722   8.301   2.337   2.716  0.6714  0.1308  0.6188
 7587SOL    HW128723   8.256   2.313   2.635  1.4837 -1.3296  0.5753
 7587SOL    HW228724   8.271   2.273   2.781  0.3598  1.0182  1.3697
 7588SOL     OW28725   0.894   2.969   6.723 -0.2145  0.1539  0.0217
 7588SOL    HW128726   0.831   3.000   6.788 -1.9633 -0.6573 -1.2306
 7588SOL    HW228727   0.954   2.913   6.772 -2.5874 -1.9402  0.6924
 7589SOL     OW28728   9.087   8.622   1.431  0.2010 -0.7040 -0.1461
 7589SOL    HW128729   9.073   8.614   1.526 -0.5565  0.9120 -0.1001
 7589SOL    HW228730   9.012   8.672   1.399  1.1590 -0.0012 -1.3799
 7590SOL     OW28731   7.846   5.765   7.627 -0.4731 -0.2637 -0.4632
 7590SOL    HW128732   7.850   5.846   7.679  0.6328 -0.3739 -0.3492
 7590SOL    HW228733   7.793   5.706   7.680 -0.3515  0.0208 -0.0113
 7591SOL     OW28734   6.427   5.722   0.718  1.0573 -0.4089 -0.0646
 7591SOL    HW128735   6.482   5.734   0.641  2.8115  0.0070  1.1971
 7591SOL    HW228736   6.423   5.809   0.758  0.9581 -0.8155  0.8225
 7592SOL     OW28737   7.954   7.665   8.001  0.5410  0.7656  0.4224
 7592SOL    HW128738   7.877   7.614   8.026  0.6009  0.4977  0.0699
 7592SOL    HW228739   7.966   7.646   7.908  0.9004  0.9793  0.4236
 7593SOL     OW28740   9.292   4.963   3.034  0.0285  0.5095 -0.3608
 7593SOL    HW128741   9.264   4.872   3.026  2.0221 -0.0666 -1.6965
 7593SOL    HW228742   9.220   5.007   3.079 -1.1055 -1.6583  0.0812
 7594SOL     OW28743   8.679   5.993   0.559  0.4235  0.7573 -0.4829
 7594SOL    HW128744   8.584   5.987   0.545  0.3469  0.5981  0.0477
 7594SOL    HW228745   8.693   6.082   0.592  0.5783  1.0727 -1.3844
 7595SOL     OW28746   3.783   5.709   0.902 -0.1662  0.4316 -0.9879
 7595SOL    HW128747   3.854   5.682   0.843  0.6276  1.3594 -0.4809
 7595SOL    HW228748   3.823   5.774   0.959 -1.1173  0.0769  0.1142
 7596SOL     OW28749   0.393   3.850   9.227 -0.1505 -0.4714 -0.3859
 7596SOL    HW128750   0.337   3.853   9.149 -1.0647 -0.5344  0.2571
 7596SOL    HW228751   0.351   3.909   9.289  1.1436  0.3960 -0.2946
 7597SOL     OW28752   1.646   2.628   4.029 -0.2450  0.1834  0.1248
 7597SOL    HW128753   1.676   2.719   4.027  0.6987 -0.1131  0.3929
 7597SOL    HW228754   1.643   2.605   4.121  0.2131 -0.2774  0.0286
 7598SOL     OW28755   7.940   6.028   4.934  0.5160  0.2570  0.0204
 7598SOL    HW128756   7.952   6.004   5.026  2.0324  1.3197  0.1299
 7598SOL    HW228757   7.919   5.945   4.891  0.4243 -0.3686  1.2096
 7599SOL     OW28758   8.408   6.411   4.522 -0.4692  0.9304 -0.0231
 7599SOL    HW128759   8.404   6.395   4.617  0.3512  0.1415 -0.1155
 7599SOL    HW228760   8.343   6.351   4.486 -0.1654  0.6063 -0.0333
 7600SOL     OW28761   0.588   3.482   3.041 -0.1102  0.8026 -0.6202
 7600SOL    HW128762   0.648   3.474   2.967 -2.0067 -1.4791 -2.0496
 7600SOL    HW228763   0.525   3.549   3.014  0.0295  1.0059 -0.4430
 7601SOL     OW28764   7.787   2.250   7.432  0.9110 -0.5487 -0.1288
 7601SOL    HW128765   7.877   2.256   7.401  0.7429  1.1403 -0.3990
 7601SOL    HW228766   7.793   2.269   7.526  0.6485  1.7236 -0.5232
 7602SOL     OW28767   2.694   6.567   3.251 -0.2356  0.4725 -0.1873
 7602SOL    HW128768   2.669   6.510   3.323 -2.8616  0.6397 -0.8799
 7602SOL    HW228769   2.696   6.510   3.174 -0.9228  0.9238 -0.5519
 7603SOL     OW28770   7.516   0.325   5.269 -0.3668 -0.3271 -0.4447
 7603SOL    HW128771   7.581   0.271   5.314 -1.4576 -0.5684  0.9313
 7603SOL    HW228772   7.525   0.412   5.309 -0.3078 -0.1475 -0.8508
 7604SOL     OW28773   3.547   6.710   2.146  0.8484 -0.2125 -0.7093
 7604SOL    HW128774   3.615   6.777   2.153  0.4349  0.1499 -0.1349
 7604SOL    HW228775   3.545   6.667   2.231 -0.0859  0.2165 -0.4990
 7605SOL     OW28776   1.187   8.254   9.240 -0.2087  0.2408  0.2299
 7605SOL    HW128777   1.276   8.285   9.220 -0.8669  1.4790 -0.9394
 7605SOL    HW228778   1.159   8.211   9.160 -1.0215  0.7226  0.2519
 7606SOL     OW28779   3.561   0.932   1.032  0.0705  0.1128 -0.0262
 7606SOL    HW128780   3.557   1.026   1.053 -0.4381  0.0001  0.4075
 7606SOL    HW228781   3.519   0.889   1.107 -0.4615 -0.4004 -0.6055
 7607SOL     OW28782   7.041   6.434   3.695 -0.1453  0.4359 -0.2260
 7607SOL    HW128783   6.966   6.402   3.746  0.1642  0.0122 -0.0301
 7607SOL    HW228784   7.055   6.523   3.727  0.3120  0.0298  0.7508
 7608SOL     OW28785   3.615   7.178   7.995 -0.4374 -0.2856  0.5492
 7608SOL    HW128786   3.698   7.215   7.964 -0.9829  0.2328 -0.3578
 7608SOL    HW228787   3.567   7.158   7.914 -1.6740  0.5403  1.0513
 7609SOL     OW28788   8.063   6.903   4.024 -0.4935 -0.1376  0.0004
 7609SOL    HW128789   8.092   6.978   4.075 -0.8427 -0.4477  0.6771
 7609SOL    HW228790   8.067   6.932   3.933  1.2923  0.0359  0.1002
 7610SOL     OW28791   8.223   9.285   2.939  0.2137 -0.2179  0.1037
 7610SOL    HW128792   8.265   9.240   2.865  1.4360  0.6062  0.2649
 7610SOL    HW228793   8.295   9.328   2.985 -0.8809  1.8455  0.0113
 7611SOL     OW28794   7.561   8.560   2.714  0.0203 -0.0516 -1.1232
 7611SOL    HW128795   7.524   8.545   2.627  0.6589  1.0579 -1.6139
 7611SOL    HW228796   7.563   8.655   2.722  1.2628 -0.1160 -0.4682
 7612SOL     OW28797   4.572   5.376   6.067  0.2326  0.0128  0.0446
 7612SOL    HW128798   4.573   5.297   6.012 -0.5446 -0.3008  0.4555
 7612SOL    HW228799   4.539   5.445   6.010 -0.5197 -0.2995  0.0901
 7613SOL     OW28800   3.380   7.387   8.705 -0.1804 -0.3995 -0.0327
 7613SOL    HW128801   3.291   7.355   8.714 -0.9299  1.4855 -0.2650
 7613SOL    HW228802   3.424   7.320   8.652 -1.7263 -0.8967 -0.7525
 7614SOL     OW28803   1.277   7.668   2.105 -0.1681 -0.2382 -0.2650
 7614SOL    HW128804   1.335   7.592   2.102  0.4143  0.1725  0.4365
 7614SOL    HW228805   1.237   7.665   2.192 -0.9860 -0.3488 -0.6325
 7615SOL     OW28806   7.793   1.626   1.687 -0.2420  0.1039  0.5385
 7615SOL    HW128807   7.718   1.586   1.730  0.3844 -0.1358  1.4324
 7615SOL    HW228808   7.757   1.665   1.607 -0.7108 -3.1828 -1.0276
 7616SOL     OW28809   2.430   8.490   1.154  0.0697 -0.0233 -0.0227
 7616SOL    HW128810   2.413   8.519   1.065  3.0192 -0.0665 -0.6964
 7616SOL    HW228811   2.496   8.421   1.146 -0.3963 -0.8267  2.1424
 7617SOL     OW28812   5.973   4.905   4.999 -0.1918 -0.3293 -0.3178
 7617SOL    HW128813   5.977   4.910   5.094  0.6133  0.9611 -0.3892
 7617SOL    HW228814   5.923   4.982   4.973  1.2057  0.3984 -0.9963
 7618SOL     OW28815   8.321   1.558   7.051  0.5393  0.0081 -0.4849
 7618SOL    HW128816   8.382   1.484   7.054  2.8619  1.7992  0.3276
 7618SOL    HW228817   8.280   1.560   7.137  0.3083 -0.4424 -0.5829
 7619SOL     OW28818   9.092   9.020   3.912 -0.1885 -0.6603  0.4645
 7619SOL    HW128819   9.155   8.958   3.948 -1.5834 -1.6714  1.2741
 7619SOL    HW228820   9.007   8.992   3.948 -1.1075  0.6390 -0.5729
 7620SOL     OW28821   7.653   7.004   7.456  0.0752 -0.2620  0.4585
 7620SOL    HW128822   7.712   6.930   7.471  0.7140 -0.4631 -2.4532
 7620SOL    HW228823   7.700   7.059   7.394 -1.0680  1.8171  1.3550
 7621SOL     OW28824   0.995   0.110   0.882 -0.2111 -0.3636  0.4294
 7621SOL    HW128825   0.914   0.161   0.880 -0.7359 -1.1101 -2.1487
 7621SOL    HW228826   1.063   0.174   0.900 -1.1792  0.6644  0.5591
 7622SOL     OW28827   2.073   8.077   0.960  0.1252 -0.1685  0.5647
 7622SOL    HW128828   2.031   7.998   0.994  0.0064  0.4253  1.8397
 7622SOL    HW228829   2.024   8.097   0.880  0.7226 -1.8559 -0.2709
 7623SOL     OW28830   4.741   8.539   7.495  0.3016 -0.1002 -0.7711
 7623SOL    HW128831   4.752   8.587   7.414  0.9444  0.8288 -0.1526
 7623SOL    HW228832   4.659   8.490   7.484  0.0267  0.5532 -1.7010
 7624SOL     OW28833   5.192   8.347   2.553  0.7905 -0.4750 -0.2027
 7624SOL    HW128834   5.112   8.398   2.541  0.3542 -0.8909  0.7338
 7624SOL    HW228835   5.200   8.296   2.472  0.3393 -0.1155 -0.4807
 7625SOL     OW28836   2.232   0.545   5.341 -0.6168  0.3847  0.5158
 7625SOL    HW128837   2.263   0.526   5.252 -0.7678 -0.4569  0.6329
 7625SOL    HW228838   2.180   0.468   5.365 -1.4793  1.0862  0.9236
 7626SOL     OW28839   2.744   4.614   8.032 -0.2797 -0.2891  0.6622
 7626SOL    HW128840   2.682   4.671   7.985 -1.4369 -0.6564  1.6912
 7626SOL    HW228841   2.795   4.572   7.962  0.4861  1.8261 -0.1293
 7627SOL     OW28842   5.187   8.490   3.517  0.4232 -0.2347 -0.4574
 7627SOL    HW128843   5.135   8.432   3.573  3.0957 -0.4752  1.9961
 7627SOL    HW228844   5.198   8.570   3.569  0.0393  1.0068 -2.1919
 7628SOL     OW28845   0.499   1.722   4.956  0.2333  0.1467 -0.3965
 7628SOL    HW128846   0.460   1.638   4.980  0.0182  0.1284 -0.8041
 7628SOL    HW228847   0.448   1.787   5.003  0.1800  0.0741 -0.3533
 7629SOL     OW28848   1.485   4.581   5.471 -1.0264 -0.3192  0.0731
 7629SOL    HW128849   1.429   4.629   5.531 -0.4477  2.5156 -1.4700
 7629SOL    HW228850   1.574   4.597   5.503 -0.8082 -0.0631 -0.6390
 7630SOL     OW28851   2.922   4.510   2.648 -0.6360  0.3781  0.1479
 7630SOL    HW128852   2.886   4.565   2.578  1.2052  0.4240 -0.8286
 7630SOL    HW228853   2.956   4.572   2.712  0.6750  0.4050 -0.5463
 7631SOL     OW28854   4.202   7.109   3.202 -0.0186  0.3682  0.0588
 7631SOL    HW128855   4.127   7.076   3.252  0.4557 -1.2691 -0.2254
 7631SOL    HW228856   4.211   7.200   3.228 -1.7077  0.4075  0.5753
 7632SOL     OW28857   7.452   4.479   4.785  0.1434  0.2038 -0.8538
 7632SOL    HW128858   7.415   4.557   4.744 -0.6663  1.7168  2.4084
 7632SOL    HW228859   7.533   4.509   4.826 -0.8497 -0.2251  1.5939
 7633SOL     OW28860   1.249   4.834   5.771  0.4434  0.3515 -1.0787
 7633SOL    HW128861   1.313   4.827   5.842  0.2106 -0.3343 -0.9313
 7633SOL    HW228862   1.268   4.759   5.714 -1.0468 -0.6141 -0.3518
 7634SOL     OW28863   1.463   2.659   1.001 -0.2353 -0.0203  0.0429
 7634SOL    HW128864   1.369   2.644   0.991 -0.3150 -0.3070  1.0774
 7634SOL    HW228865   1.469   2.736   1.059  0.1496 -0.6410  0.8550
 7635SOL     OW28866   0.138   2.911   3.836 -0.3661 -0.1163  0.4943
 7635SOL    HW128867   0.187   2.839   3.875  1.1641 -0.2987 -1.5521
 7635SOL    HW228868   0.082   2.869   3.771  0.1296  0.4651 -0.3299
 7636SOL     OW28869   7.598   4.540   8.688  0.1530  0.1737 -0.3546
 7636SOL    HW128870   7.639   4.500   8.611 -0.2435  1.3289 -1.2026
 7636SOL    HW228871   7.510   4.503   8.690  0.3990 -0.3972 -0.0316
 7637SOL     OW28872   8.968   4.340   5.797  0.4209 -0.8538  0.0001
 7637SOL    HW128873   9.038   4.377   5.744 -0.3639  1.1189  0.2456
 7637SOL    HW228874   8.992   4.361   5.888 -0.9449  0.8005  0.0276
 7638SOL     OW28875   0.510   7.152   3.635  0.0369 -0.7868 -0.2083
 7638SOL    HW128876   0.422   7.182   3.658  0.6625  0.5598  0.5510
 7638SOL    HW228877   0.559   7.154   3.718  1.2874  0.3557 -0.9215
 7639SOL     OW28878   6.531   3.990   3.882 -0.0073  0.0760 -0.3171
 7639SOL    HW128879   6.605   4.047   3.904 -0.7538  0.2679  1.9522
 7639SOL    HW228880   6.504   3.952   3.965 -1.5414 -1.1597 -1.3105
 7640SOL     OW28881   1.024   8.602   2.104  0.3116  0.0436 -0.5821
 7640SOL    HW128882   1.053   8.530   2.047  0.4706  0.2049 -0.7100
 7640SOL    HW228883   0.974   8.659   2.046  0.3641  0.1431 -0.5299
 7641SOL     OW28884   0.634   7.310   6.763 -0.0617  0.0622  0.2331
 7641SOL    HW128885   0.588   7.388   6.730 -0.0504  0.1173  0.3467
 7641SOL    HW228886   0.635   7.322   6.858  0.3373  0.1406  0.2175
 7642SOL     OW28887   6.894   3.462   4.168 -0.4983 -0.3554  1.1045
 7642SOL    HW128888   6.892   3.558   4.179 -1.4879 -0.0082 -1.5375
 7642SOL    HW228889   6.855   3.429   4.249  0.5862  1.3889  2.4417
 7643SOL     OW28890   4.233   6.645   1.798  0.0143 -0.3282 -0.8385
 7643SOL    HW128891   4.227   6.616   1.707 -0.0727  0.9518 -1.2630
 7643SOL    HW228892   4.325   6.630   1.822  0.0683 -0.5431 -1.1767
 7644SOL     OW28893   1.975   8.689   5.575 -0.5957  0.4464  0.3997
 7644SOL    HW128894   1.888   8.728   5.563  0.1501  2.6480  1.5770
 7644SOL    HW228895   2.031   8.738   5.514  0.1397  0.2944  0.9453
 7645SOL     OW28896   2.140   5.824   0.290 -0.6791 -0.1690 -0.3372
 7645SOL    HW128897   2.118   5.887   0.359  1.6197  0.8450 -0.4385
 7645SOL    HW228898   2.071   5.836   0.224 -0.2599  2.3714 -0.4104
 7646SOL     OW28899   9.148   6.493   6.840  0.6573 -0.1011 -0.0829
 7646SOL    HW128900   9.123   6.436   6.913 -0.4884 -1.8463 -1.7616
 7646SOL    HW228901   9.243   6.488   6.837  0.6547 -0.8023  0.6623
 7647SOL     OW28902   6.738   7.712   7.152 -0.1837  0.4728 -0.4044
 7647SOL    HW128903   6.679   7.682   7.221  1.6497  0.6131  1.3202
 7647SOL    HW228904   6.713   7.802   7.135 -0.7959  0.3679 -0.0721
 7648SOL     OW28905   4.024   9.075   5.443  0.1859  0.0184  0.3978
 7648SOL    HW128906   3.965   9.000   5.435  0.5698 -0.2267 -0.1801
 7648SOL    HW228907   3.966   9.150   5.456 -0.1607 -0.5468  2.3983
 7649SOL     OW28908   8.756   3.814   7.711 -0.3452  0.2418  0.3248
 7649SOL    HW128909   8.752   3.817   7.806  1.2705 -1.5389  0.5074
 7649SOL    HW228910   8.750   3.721   7.690  1.4163  0.4083 -1.1552
 7650SOL     OW28911   3.945   5.270   0.888 -0.3734 -0.3769  0.5358
 7650SOL    HW128912   3.903   5.342   0.935  0.3801  0.9707 -0.7410
 7650SOL    HW228913   3.938   5.295   0.796  1.8598 -0.8389  0.1857
 7651SOL     OW28914   4.431   2.927   8.950  0.0506  0.2901  0.3691
 7651SOL    HW128915   4.401   2.990   8.884 -1.1291  0.1467  0.7491
 7651SOL    HW228916   4.524   2.947   8.961  0.1116  0.7632 -0.8362
 7652SOL     OW28917   6.388   5.955   4.211 -0.1065  0.6878  0.3537
 7652SOL    HW128918   6.447   5.940   4.285  0.6181  2.8886  0.2942
 7652SOL    HW228919   6.312   5.998   4.249 -0.2186  0.8330 -0.0295
 7653SOL     OW28920   0.390   4.668   2.852 -0.1189  0.5156 -0.5268
 7653SOL    HW128921   0.440   4.748   2.870 -0.2782  1.0973 -2.4803
 7653SOL    HW228922   0.299   4.696   2.852 -0.3078 -0.0513  0.5575
 7654SOL     OW28923   7.643   1.368   9.123  0.1267 -0.3130  0.2101
 7654SOL    HW128924   7.705   1.397   9.190  1.4417  0.7400 -1.3930
 7654SOL    HW228925   7.594   1.297   9.166  2.5054 -1.2955  1.5405
 7655SOL     OW28926   7.511   5.162   5.800 -0.0721 -0.5636 -0.0230
 7655SOL    HW128927   7.595   5.126   5.772 -0.3286 -0.3482 -1.1104
 7655SOL    HW228928   7.529   5.201   5.886  1.0754 -0.0338 -0.4857
 7656SOL     OW28929   6.064   7.543   8.224  0.0325  0.7049  0.0711
 7656SOL    HW128930   6.105   7.585   8.300  0.5530 -0.8534  0.6929
 7656SOL    HW228931   6.132   7.485   8.190 -0.0469  1.6893 -1.8694
 7657SOL     OW28932   3.343   8.443   2.511  0.1554  0.2984 -0.1126
 7657SOL    HW128933   3.435   8.469   2.518  0.2212  0.3630 -1.0415
 7657SOL    HW228934   3.331   8.378   2.581  0.9162  0.2596 -0.0092
 7658SOL     OW28935   2.934   6.926   5.558  0.0556  0.6606  0.0877
 7658SOL    HW128936   2.907   6.940   5.467  2.0479 -1.8833 -1.0560
 7658SOL    HW228937   2.993   6.998   5.577 -0.1750  1.0773 -0.7380
 7659SOL     OW28938   7.889   2.303   9.364 -0.5618  0.4369  0.2800
 7659SOL    HW128939   7.936   2.386   9.355  0.0422 -0.0536 -1.5474
 7659SOL    HW228940   7.817   2.309   9.300 -1.7449  0.3292  1.5601
 7660SOL     OW28941   7.032   2.354   7.863  0.8850 -0.2845  0.4201
 7660SOL    HW128942   7.077   2.434   7.889  2.2826 -0.8781 -0.0631
 7660SOL    HW228943   6.957   2.384   7.812  0.8794  0.7303  0.9958
 7661SOL     OW28944   1.365   6.804   8.103 -0.6062 -0.2685  0.7023
 7661SOL    HW128945   1.421   6.727   8.107  1.6056  1.3046  1.8932
 7661SOL    HW228946   1.370   6.843   8.190 -0.1350  2.1993 -0.3277
 7662SOL     OW28947   2.473   1.438   2.256  0.3512  0.3647  0.0606
 7662SOL    HW128948   2.519   1.371   2.205  0.4142  0.7836 -0.4351
 7662SOL    HW228949   2.385   1.441   2.218  0.5018  0.9204 -0.2531
 7663SOL     OW28950   3.026   5.904   3.622 -0.2083  0.2568  0.0172
 7663SOL    HW128951   2.996   5.912   3.713 -0.0859 -1.3228  0.2215
 7663SOL    HW228952   2.959   5.951   3.571 -1.1566 -0.2234  0.7835
 7664SOL     OW28953   6.236   6.937   6.091  0.2007  0.2128  0.2198
 7664SOL    HW128954   6.187   7.005   6.045  2.0900  0.9578 -0.8136
 7664SOL    HW228955   6.242   6.865   6.027 -0.2269 -0.2007  0.6379
 7665SOL     OW28956   7.957   3.268   5.649 -0.4706  0.0514  0.2639
 7665SOL    HW128957   8.004   3.198   5.604 -0.8199  0.3299 -0.5529
 7665SOL    HW228958   7.964   3.246   5.742  0.2051 -0.5695  0.0704
 7666SOL     OW28959   1.552   4.937   6.264 -0.1301  0.4064  0.0367
 7666SOL    HW128960   1.464   4.919   6.297  0.1646  0.0375  0.6479
 7666SOL    HW228961   1.579   4.854   6.223 -0.0568  0.5116 -0.1286
 7667SOL     OW28962   4.251   9.218   0.169 -0.3660 -0.0111  0.0976
 7667SOL    HW128963   4.276   9.236   0.078 -0.2047  0.2649  0.1939
 7667SOL    HW228964   4.206   9.298   0.197  0.4852  0.3098  0.5802
 7668SOL     OW28965   7.854   6.840   1.839  0.2304  0.4073 -0.8015
 7668SOL    HW128966   7.872   6.904   1.770 -0.3565  2.0580  0.5082
 7668SOL    HW228967   7.773   6.870   1.880  0.3968 -0.6922  0.4062
 7669SOL     OW28968   1.877   6.907   5.154  0.0724 -0.4175 -0.4988
 7669SOL    HW128969   1.849   6.844   5.220  3.3493 -0.6952  0.7748
 7669SOL    HW228970   1.848   6.992   5.188  0.1117 -0.7321  0.3447
 7670SOL     OW28971   4.039   0.163   4.243 -0.1914 -0.1077 -0.0381
 7670SOL    HW128972   4.120   0.191   4.287  0.0142 -0.7541  0.0028
 7670SOL    HW228973   4.053   0.070   4.224 -0.2799  0.1509 -1.4695
 7671SOL     OW28974   1.489   7.853   0.485  0.2901 -0.5613  0.3231
 7671SOL    HW128975   1.396   7.876   0.486  0.5697  0.6065  1.1782
 7671SOL    HW228976   1.498   7.785   0.551 -0.1045 -1.3365 -0.4089
 7672SOL     OW28977   0.912   6.389   7.647  0.2351  0.1139  0.1472
 7672SOL    HW128978   0.891   6.468   7.597  1.8942  1.2404  1.1410
 7672SOL    HW228979   0.886   6.317   7.589 -2.0638  1.3404 -0.4650
 7673SOL     OW28980   1.828   6.803   6.746 -0.1568 -0.1274  0.1019
 7673SOL    HW128981   1.827   6.707   6.751 -1.2546 -0.2534 -1.5337
 7673SOL    HW228982   1.736   6.828   6.752 -0.0177  0.6983 -0.8794
 7674SOL     OW28983   4.352   8.520   3.932 -0.1930  0.3611  0.0988
 7674SOL    HW128984   4.379   8.439   3.888  0.9209  1.2516 -0.9052
 7674SOL    HW228985   4.294   8.490   4.002 -0.2963 -1.2628 -0.6242
 7675SOL     OW28986   6.780   7.356   0.900  0.1141 -0.0729  0.2382
 7675SOL    HW128987   6.707   7.365   0.839 -1.3224 -2.5153  1.4010
 7675SOL    HW228988   6.761   7.274   0.947  2.0935  0.7186  2.6394
 7676SOL     OW28989   3.215   3.916   5.977  0.4919  0.1887  0.0138
 7676SOL    HW128990   3.300   3.954   5.998  0.7196 -0.5833  0.5305
 7676SOL    HW228991   3.179   3.888   6.061 -0.0384  0.0335 -0.2585
 7677SOL     OW28992   0.630   6.883   7.457 -0.4936 -0.8462 -0.1396
 7677SOL    HW128993   0.678   6.926   7.387 -1.6117  1.5929  0.5001
 7677SOL    HW228994   0.676   6.907   7.537 -1.1914 -0.7605  0.2458
 7678SOL     OW28995   6.088   2.936   2.249  0.0556 -0.2270  0.1515
 7678SOL    HW128996   6.060   3.027   2.240  1.1525  0.2998  1.5995
 7678SOL    HW228997   6.154   2.924   2.182 -0.0311  0.0745  0.0106
 7679SOL     OW28998   1.185   5.451   3.254 -0.1754 -0.6565  0.0631
 7679SOL    HW128999   1.253   5.514   3.230  0.2224 -0.7610  0.8810
 7679SOL    HW229000   1.224   5.398   3.323 -1.7343  0.6004  2.0538
 7680SOL     OW29001   1.453   9.294   0.871 -0.4619 -0.0736  0.2695
 7680SOL    HW129002   1.471   9.260   0.784  1.2966  2.4132 -0.4601
 7680SOL    HW229003   1.497   9.232   0.930 -1.0751 -1.3978 -0.6214
 7681SOL     OW29004   3.455   4.303   0.846 -0.5506  0.4811 -0.2035
 7681SOL    HW129005   3.550   4.302   0.838 -0.3081  1.2482  2.0681
 7681SOL    HW229006   3.433   4.393   0.870 -1.7697  0.0933  0.2263
 7682SOL     OW29007   2.781   7.151   2.144  0.4018 -0.0736  0.7178
 7682SOL    HW129008   2.797   7.221   2.082 -2.1668 -0.2868 -0.3112
 7682SOL    HW229009   2.798   7.190   2.230  0.3123  1.3896  0.0871
 7683SOL     OW29010   8.665   0.713   0.024  0.4077  0.1813 -0.0094
 7683SOL    HW129011   8.691   0.768   0.098 -1.7304  0.3834  0.6598
 7683SOL    HW229012   8.596   0.657   0.059 -2.6754  2.1422 -2.3867
 7684SOL     OW29013   4.075   2.906   2.291 -0.4180 -0.3398 -0.6503
 7684SOL    HW129014   4.109   2.826   2.330  1.6023 -0.6025 -2.7509
 7684SOL    HW229015   4.106   2.976   2.349  2.4473 -0.7131 -1.5747
 7685SOL     OW29016   1.454   5.489   0.679  0.0779  0.5828  0.2549
 7685SOL    HW129017   1.519   5.550   0.714  1.1328 -0.8839  0.9265
 7685SOL    HW229018   1.505   5.419   0.639 -1.1198  0.5412 -1.3012
 7686SOL     OW29019   3.806   1.334   4.630 -0.1912  0.9733 -0.5485
 7686SOL    HW129020   3.894   1.326   4.596 -0.2367  2.3243 -1.0648
 7686SOL    HW229021   3.806   1.418   4.677 -1.3895  1.3725 -1.2131
 7687SOL     OW29022   7.019   0.882   0.931 -0.0535 -0.1579 -0.7044
 7687SOL    HW129023   7.071   0.914   0.857  1.2435 -1.2303 -0.2780
 7687SOL    HW229024   7.078   0.885   1.006 -0.7751 -0.8748 -0.0873
 7688SOL     OW29025   9.301   8.907   8.092  0.4130  0.2531  0.6488
 7688SOL    HW129026   9.222   8.956   8.067 -1.2842 -3.2531 -1.5298
 7688SOL    HW229027   9.289   8.890   8.186 -1.1514  0.2915  0.4831
 7689SOL     OW29028   7.003   4.007   6.101  0.2273 -0.0837  0.3405
 7689SOL    HW129029   6.918   3.982   6.066  0.5204  1.0162 -1.2653
 7689SOL    HW229030   7.052   3.925   6.107  0.0739 -0.3752 -1.6661
 7690SOL     OW29031   4.207   9.072   3.016  0.0180  0.7078  0.0620
 7690SOL    HW129032   4.125   9.121   3.012  0.0424  0.7185 -0.3692
 7690SOL    HW229033   4.209   9.035   3.104 -1.0209 -0.2639 -0.2993
 7691SOL     OW29034   0.159   5.518   8.497  0.2180 -0.6294 -0.2316
 7691SOL    HW129035   0.244   5.552   8.468  0.8444 -2.0507 -0.1065
 7691SOL    HW229036   0.105   5.597   8.508  0.6471  0.1649 -2.9581
 7692SOL     OW29037   4.372   1.556   8.593 -0.8057 -0.1302  0.8826
 7692SOL    HW129038   4.315   1.480   8.601  0.5474 -1.1953  0.8903
 7692SOL    HW229039   4.442   1.527   8.533  1.0031  0.2781  2.6786
 7693SOL     OW29040   3.010   3.482   0.717 -0.3756 -0.1115  0.0467
 7693SOL    HW129041   2.981   3.556   0.664  1.5847  0.5218 -0.2422
 7693SOL    HW229042   2.981   3.504   0.806  0.8421  1.4529  0.1114
 7694SOL     OW29043   8.814   6.239   4.851  0.2893 -0.4329  0.3077
 7694SOL    HW129044   8.847   6.287   4.775  0.4668 -1.2196 -0.1168
 7694SOL    HW229045   8.868   6.161   4.857 -1.3717 -1.6954 -0.3393
 7695SOL     OW29046   6.646   2.796   0.007 -0.0604  0.2665 -0.2232
 7695SOL    HW129047   6.588   2.720  -0.004 -0.7403  0.4334  1.7544
 7695SOL    HW229048   6.592   2.861   0.052  0.9531  1.3982 -0.5829
 7696SOL     OW29049   6.751   4.129   3.958 -0.5749  0.0123 -0.0385
 7696SOL    HW129050   6.817   4.115   4.025  0.0676 -0.0231 -0.6689
 7696SOL    HW229051   6.789   4.195   3.900 -1.4893  0.7093  0.1082
 7697SOL     OW29052   2.636   2.746   1.269  0.4511  0.0609  0.8085
 7697SOL    HW129053   2.561   2.803   1.287 -0.8669 -1.6927  1.1249
 7697SOL    HW229054   2.631   2.730   1.175  1.0307  0.7232  0.6583
 7698SOL     OW29055   7.024   6.657   6.488 -0.4636  0.8251 -0.0193
 7698SOL    HW129056   7.035   6.678   6.395  1.1494 -0.4419 -0.1498
 7698SOL    HW229057   7.038   6.740   6.533 -0.5129  1.3020 -0.8557
 7699SOL     OW29058   0.066   1.443   7.148  0.2237  0.1820  0.4390
 7699SOL    HW129059   0.074   1.422   7.241 -0.2660  0.0247  0.4462
 7699SOL    HW229060  -0.028   1.447   7.131  0.3010 -0.2376 -0.1481
 7700SOL     OW29061   8.808   6.314   5.125  0.5077  0.4359  0.0880
 7700SOL    HW129062   8.794   6.289   5.033  1.2214  0.7756 -0.1112
 7700SOL    HW229063   8.790   6.233   5.174 -1.9489  0.7555 -0.1538
 7701SOL     OW29064   2.420   7.780   6.580 -0.2303  0.0713  0.0964
 7701SOL    HW129065   2.431   7.722   6.655  0.9574  1.2873  0.9182
 7701SOL    HW229066   2.469   7.859   6.604 -0.1495  0.6466 -1.8017
 7702SOL     OW29067   3.326   5.222   5.214  1.0770  0.2048 -0.4348
 7702SOL    HW129068   3.251   5.216   5.274  0.0311 -0.5515 -1.7518
 7702SOL    HW229069   3.372   5.139   5.226  1.8844  0.7786  0.5667
 7703SOL     OW29070   8.618   0.329   7.511 -0.0654 -0.6012  0.0535
 7703SOL    HW129071   8.626   0.349   7.605 -2.2965  0.6239  0.0560
 7703SOL    HW229072   8.583   0.240   7.509 -1.2161 -0.1779  0.4578
 7704SOL     OW29073   3.750   8.824   5.193  0.0682  0.4944  0.0534
 7704SOL    HW129074   3.658   8.833   5.170  0.2510  0.8329 -0.5764
 7704SOL    HW229075   3.783   8.914   5.195 -0.3826  0.7492  3.7192
 7705SOL     OW29076   4.927   7.724   9.057 -0.8682  0.8825  0.4110
 7705SOL    HW129077   4.907   7.631   9.041  1.9438  0.3112 -0.4963
 7705SOL    HW229078   4.892   7.769   8.981  0.4229  0.0631 -0.7281
 7706SOL     OW29079   7.955   5.782   4.853  0.0061 -0.3251  0.3814
 7706SOL    HW129080   7.931   5.810   4.765 -0.7491  0.2398  0.7625
 7706SOL    HW229081   7.991   5.694   4.841 -0.8258 -0.5693 -0.3915
 7707SOL     OW29082   7.552   2.181   5.729  0.3868 -0.3182 -0.5639
 7707SOL    HW129083   7.605   2.120   5.678 -0.2021 -1.0759 -0.2941
 7707SOL    HW229084   7.474   2.131   5.752  0.2313  0.2984  0.3082
 7708SOL     OW29085   6.022   7.876   1.372 -0.6273 -0.3662 -0.3591
 7708SOL    HW129086   6.030   7.785   1.345 -0.4822 -0.0557 -1.4101
 7708SOL    HW229087   6.064   7.880   1.458  1.1033 -0.9033 -1.1374
 7709SOL     OW29088   4.212   8.155   0.250  0.5826  0.2896  0.1318
 7709SOL    HW129089   4.153   8.195   0.313  0.0181  0.8171 -0.7092
 7709SOL    HW229090   4.292   8.208   0.254  0.7089  0.0672  0.6859
 7710SOL     OW29091   7.011   0.168   0.331  0.7801  0.2051 -0.1006
 7710SOL    HW129092   7.055   0.194   0.250 -0.4461  0.2982 -0.7746
 7710SOL    HW229093   6.986   0.251   0.372 -0.0557  0.1512 -0.4811
 7711SOL     OW29094   0.450   1.793   8.027  0.1543  0.1809  0.3061
 7711SOL    HW129095   0.537   1.824   8.052  0.7430 -0.4614 -0.8631
 7711SOL    HW229096   0.408   1.870   7.988  1.0415 -0.0387 -1.1659
 7712SOL     OW29097   8.411   6.506   3.857 -0.3914  0.1464 -0.0174
 7712SOL    HW129098   8.379   6.546   3.938  0.1722 -0.4199  0.4927
 7712SOL    HW229099   8.504   6.489   3.874 -0.1508  0.4620 -0.9602
 7713SOL     OW29100   4.692   3.238   8.314 -0.2459 -0.0110 -0.3096
 7713SOL    HW129101   4.713   3.146   8.324  0.2178  0.2689  1.7700
 7713SOL    HW229102   4.596   3.241   8.310 -0.2688 -0.5725 -0.1637
 7714SOL     OW29103   3.288   4.500   2.298  0.1715 -0.1566  0.0941
 7714SOL    HW129104   3.201   4.485   2.336 -0.4254 -1.4928 -1.6667
 7714SOL    HW229105   3.332   4.557   2.361 -1.9159  0.4347  1.1114
 7715SOL     OW29106   8.686   3.767   6.280  0.1498  0.2197  0.2291
 7715SOL    HW129107   8.763   3.813   6.244  0.6059 -0.6786  0.0239
 7715SOL    HW229108   8.715   3.735   6.365  0.0830 -0.3158  0.0547
 7716SOL     OW29109   5.327   3.269   2.491 -0.0715  0.3815 -0.3051
 7716SOL    HW129110   5.311   3.264   2.585  0.8826  1.2873 -0.0728
 7716SOL    HW229111   5.399   3.208   2.475  0.8678  1.4289 -0.1561
 7717SOL     OW29112   1.468   5.182   8.530 -0.3858 -0.1521  0.0684
 7717SOL    HW129113   1.382   5.221   8.547  0.5158  0.8824  2.7802
 7717SOL    HW229114   1.528   5.256   8.529  0.6852 -0.9960 -0.3306
 7718SOL     OW29115   9.111   6.025   1.063 -0.3319 -0.7331 -0.4318
 7718SOL    HW129116   9.034   6.054   1.111 -0.0272  0.4015 -0.5826
 7718SOL    HW229117   9.128   5.937   1.096 -0.2099 -0.0542  1.4806
 7719SOL     OW29118   4.992   7.811   1.981 -0.0114 -0.2285 -0.0154
 7719SOL    HW129119   5.035   7.728   2.002 -4.1420 -2.8392 -0.6694
 7719SOL    HW229120   5.039   7.876   2.033  2.3175 -3.2566  2.0462
 7720SOL     OW29121   9.110   1.554   4.214 -0.1377  0.4001  0.2411
 7720SOL    HW129122   9.178   1.490   4.235  1.4949  1.1220 -2.3998
 7720SOL    HW229123   9.074   1.526   4.130 -0.1199  2.3219 -0.4707
 7721SOL     OW29124   5.103   0.071   5.152  0.0963  0.1925  0.2593
 7721SOL    HW129125   5.144  -0.013   5.174 -0.1559 -0.1543 -0.5620
 7721SOL    HW229126   5.014   0.062   5.185 -0.5585 -0.6787 -1.6153
 7722SOL     OW29127   6.160   3.145   3.147 -0.1757 -0.1926  0.2041
 7722SOL    HW129128   6.169   3.229   3.192  1.3838 -1.4311  2.3865
 7722SOL    HW229129   6.072   3.115   3.170 -1.1595  1.2282 -1.4478
 7723SOL     OW29130   2.840   8.458   3.015  0.0007  0.1989 -0.0832
 7723SOL    HW129131   2.910   8.480   3.077  0.9422 -1.7291 -0.4086
 7723SOL    HW229132   2.841   8.363   3.010 -2.0578  0.1643 -0.8160
 7724SOL     OW29133   5.380   4.651   4.832 -0.3366 -0.0577 -0.3196
 7724SOL    HW129134   5.405   4.681   4.745 -0.7437  1.0856 -0.0654
 7724SOL    HW229135   5.290   4.619   4.822 -0.0239 -0.8720 -0.5233
 7725SOL     OW29136   6.959   7.340   4.254 -0.1287 -0.2634 -0.1218
 7725SOL    HW129137   6.943   7.273   4.320 -1.0288  1.0750  1.0819
 7725SOL    HW229138   6.875   7.387   4.247 -0.0346 -0.2912 -2.1517
 7726SOL     OW29139   2.218   6.181   1.276  0.4452 -0.0248 -0.3122
 7726SOL    HW129140   2.301   6.157   1.234  0.8087  1.3844 -0.4773
 7726SOL    HW229141   2.229   6.152   1.367  1.2166  0.3083 -0.2833
 7727SOL     OW29142   2.952   1.026   6.680 -0.1454  0.1582  0.4199
 7727SOL    HW129143   2.884   1.091   6.699 -1.1333  0.0756 -2.3137
 7727SOL    HW229144   3.010   1.069   6.618  1.2640 -0.4156  1.2951
 7728SOL     OW29145   6.975   3.014   6.187 -0.0260  0.5518  0.0081
 7728SOL    HW129146   7.063   2.990   6.157 -0.5020 -1.1388 -0.1532
 7728SOL    HW229147   6.935   3.057   6.111  0.5274  1.0026 -0.0358
 7729SOL     OW29148   1.923   2.589   8.025  0.2757 -0.8332  0.2749
 7729SOL    HW129149   1.832   2.585   8.056  0.3427 -1.3765  0.4270
 7729SOL    HW229150   1.951   2.679   8.041 -1.5071  0.5822 -3.4333
 7730SOL     OW29151   0.460   1.767   4.517  0.7175 -0.3287  0.5505
 7730SOL    HW129152   0.403   1.842   4.500  2.1870  0.5916 -0.5107
 7730SOL    HW229153   0.463   1.720   4.434  2.8362  0.5995  0.0468
 7731SOL     OW29154   6.859   6.278   8.524 -0.0529  0.1363 -0.0939
 7731SOL    HW129155   6.903   6.247   8.445  1.3210  0.1839  0.6162
 7731SOL    HW229156   6.839   6.370   8.506 -0.5511 -0.0905 -0.7159
 7732SOL     OW29157   5.530   6.580   4.090  0.0116 -0.4538 -0.6066
 7732SOL    HW129158   5.469   6.653   4.101  1.3614  0.7763 -0.9128
 7732SOL    HW229159   5.529   6.562   3.996 -0.3190 -0.8394 -0.5318
 7733SOL     OW29160   4.042   2.234   1.989  0.6441  0.2003 -0.1693
 7733SOL    HW129161   4.107   2.244   1.919  0.5860  0.5153 -0.1809
 7733SOL    HW229162   3.992   2.316   1.986  0.6611  0.2276  0.2630
 7734SOL     OW29163   0.286   5.456   6.237 -0.4321  0.4309  0.0565
 7734SOL    HW129164   0.234   5.408   6.301  0.0978 -0.4873 -0.1819
 7734SOL    HW229165   0.236   5.537   6.221 -2.0381 -0.6282 -0.5161
 7735SOL     OW29166   4.494   0.113   8.402 -0.3305 -0.1479 -0.1041
 7735SOL    HW129167   4.448   0.141   8.323 -1.3772 -1.2487  0.0877
 7735SOL    HW229168   4.548   0.040   8.373  0.2477  0.2488 -0.0418
 7736SOL     OW29169   0.408   5.078   2.648 -0.5386 -0.7279  0.2779
 7736SOL    HW129170   0.357   5.104   2.725  0.1838  1.9351 -0.0306
 7736SOL    HW229171   0.344   5.036   2.590 -1.3583 -1.6021  1.7727
 7737SOL     OW29172   6.397   4.726   2.099  0.5535  0.1314 -0.2515
 7737SOL    HW129173   6.405   4.725   2.004  0.3545 -1.6134 -0.2834
 7737SOL    HW229174   6.474   4.679   2.130 -0.2695 -0.8750  0.3346
 7738SOL     OW29175   5.275   4.834   5.416  0.3700  0.5403 -0.0257
 7738SOL    HW129176   5.319   4.816   5.499  2.4203  1.4570 -0.8686
 7738SOL    HW229177   5.254   4.928   5.420 -1.8628  0.0881  0.4698
 7739SOL     OW29178   5.322   8.781   3.250 -0.6304  0.2087 -0.0064
 7739SOL    HW129179   5.273   8.701   3.269  0.8285 -0.9510 -0.9043
 7739SOL    HW229180   5.411   8.763   3.279 -0.1923  1.3860 -0.5441
 7740SOL     OW29181   6.955   3.138   1.858  0.0955  0.2916  0.6703
 7740SOL    HW129182   7.039   3.118   1.897 -1.4408 -2.8695  2.7518
 7740SOL    HW229183   6.908   3.189   1.925 -1.0820 -1.6271  1.3814
 7741SOL     OW29184   2.013   0.813   4.805  0.2818  0.1107 -0.0351
 7741SOL    HW129185   2.040   0.740   4.861 -0.6455  0.3857  0.8102
 7741SOL    HW229186   1.984   0.772   4.724 -0.2733 -0.4686  0.4499
 7742SOL     OW29187   6.746   4.591   6.136 -0.4947 -0.2311  0.1381
 7742SOL    HW129188   6.712   4.592   6.225 -0.1872  0.7334  0.2624
 7742SOL    HW229189   6.820   4.652   6.138  0.4856 -1.3678 -0.4141
 7743SOL     OW29190   6.543   6.888   0.181  0.0994  0.0793  0.4457
 7743SOL    HW129191   6.618   6.835   0.210 -0.1494 -0.1616  0.6489
 7743SOL    HW229192   6.507   6.840   0.107  1.2270  1.0998 -0.8417
 7744SOL     OW29193   1.885   9.307   4.565 -0.3755  1.0177  0.4397
 7744SOL    HW129194   1.849   9.221   4.544 -1.9877  1.5994  0.7210
 7744SOL    HW229195   1.922   9.297   4.653 -1.7486  0.9423  1.0270
 7745SOL     OW29196   5.941   0.540   5.182 -0.5166  0.3005 -0.2898
 7745SOL    HW129197   5.989   0.615   5.217  0.2256  0.1761 -1.0295
 7745SOL    HW229198   5.960   0.540   5.089  1.1658 -1.9806 -0.0415
 7746SOL     OW29199   7.256   6.176   1.389  0.2245  0.1976 -0.3088
 7746SOL    HW129200   7.188   6.239   1.362 -0.1978 -0.1019  0.0433
 7746SOL    HW229201   7.316   6.173   1.315  0.7774  1.7337  0.0279
 7747SOL     OW29202   6.990   7.357   0.321 -0.3909 -0.1500 -0.3253
 7747SOL    HW129203   6.926   7.286   0.330  0.0101 -0.4839 -0.0727
 7747SOL    HW229204   7.029   7.365   0.408  0.5129 -0.5225 -0.6812
 7748SOL     OW29205   6.794   1.734   6.629 -1.5382 -0.0246  0.0872
 7748SOL    HW129206   6.743   1.807   6.593  0.3118  1.4365  0.2778
 7748SOL    HW229207   6.844   1.701   6.555 -0.5160  0.5517  0.5035
 7749SOL     OW29208   2.985   3.973   7.861 -0.2415 -0.2080  0.3858
 7749SOL    HW129209   2.976   4.016   7.776  0.2130  1.4365  1.1385
 7749SOL    HW229210   2.938   3.890   7.851 -2.6313  1.1711 -0.6091
 7750SOL     OW29211   3.922   5.747   6.315  0.3152  0.7591  0.2654
 7750SOL    HW129212   3.938   5.817   6.253 -0.2211  0.6987  0.0567
 7750SOL    HW229213   3.937   5.667   6.266  0.0368  0.7137  0.2522
 7751SOL     OW29214   2.540   1.577   6.370  0.4921 -0.3311  0.3628
 7751SOL    HW129215   2.599   1.506   6.345  0.3437 -0.1558 -0.5003
 7751SOL    HW229216   2.536   1.633   6.293 -1.2389 -0.6313  0.2090
 7752SOL     OW29217   7.298   5.562   3.890 -0.7843  0.3080 -0.1055
 7752SOL    HW129218   7.344   5.588   3.810 -0.7655 -0.1238 -0.2343
 7752SOL    HW229219   7.364   5.569   3.959  0.1176 -2.3451 -0.5887
 7753SOL     OW29220   5.809   1.907   7.107 -0.5385  0.0424 -0.3058
 7753SOL    HW129221   5.882   1.960   7.137 -1.6450  1.1785  0.4744
 7753SOL    HW229222   5.810   1.915   7.012 -0.7035  1.5173 -0.2046
 7754SOL     OW29223   2.460   6.794   0.932 -0.2288 -0.3692 -0.6157
 7754SOL    HW129224   2.553   6.801   0.955 -0.3505  1.0250 -0.4593
 7754SOL    HW229225   2.434   6.708   0.962  0.3728  0.1983  1.7279
 7755SOL     OW29226   2.484   8.518   9.154  0.2551 -0.1811  0.7856
 7755SOL    HW129227   2.416   8.456   9.181 -0.1362 -1.1426 -2.0098
 7755SOL    HW229228   2.437   8.599   9.137 -0.1875 -0.7012 -0.6547
 7756SOL     OW29229   4.006   6.749   3.053  0.0053 -0.5220 -0.1037
 7756SOL    HW129230   4.035   6.658   3.058 -0.5189 -0.6411  0.9835
 7756SOL    HW229231   4.078   6.800   3.091  0.3830 -0.4499 -0.8927
 7757SOL     OW29232   0.595   5.606   1.427 -0.1479 -0.1274 -0.0679
 7757SOL    HW129233   0.682   5.645   1.431 -0.2525  0.1047 -0.0898
 7757SOL    HW229234   0.609   5.522   1.383 -0.3399  1.0590 -2.5453
 7758SOL     OW29235   9.218   1.992   6.202  0.3822  0.4925  0.3776
 7758SOL    HW129236   9.254   1.905   6.218 -0.4875 -0.3255 -1.8393
 7758SOL    HW229237   9.294   2.046   6.178  0.8916  0.3482  1.5710
 7759SOL     OW29238   1.268   5.713   1.527  0.2694  0.1716 -0.6360
 7759SOL    HW129239   1.198   5.773   1.552 -0.0464 -0.6470  0.5297
 7759SOL    HW229240   1.252   5.696   1.434  0.6606  2.2340 -1.1248
 7760SOL     OW29241   7.374   3.076   3.810  0.4061 -0.4715  0.1025
 7760SOL    HW129242   7.351   3.030   3.890  1.6855  0.9523  1.3548
 7760SOL    HW229243   7.411   3.160   3.839 -0.4160  0.7248 -2.0092
 7761SOL     OW29244   3.552   9.355   2.456 -0.7251  0.0135 -0.1904
 7761SOL    HW129245   3.520   9.389   2.373 -0.3595  0.2899 -0.2208
 7761SOL    HW229246   3.619   9.418   2.484  0.3286 -0.9388 -0.4890
 7762SOL     OW29247   0.933   9.198   2.461 -0.2236  0.4368 -0.3092
 7762SOL    HW129248   0.921   9.267   2.525  1.9798 -0.1136  0.8089
 7762SOL    HW229249   0.931   9.117   2.511 -2.3244 -0.3366 -1.5359
 7763SOL     OW29250   6.570   6.003   1.550 -0.3841  0.0940 -0.3285
 7763SOL    HW129251   6.519   5.929   1.518 -0.6920 -0.0206  0.4265
 7763SOL    HW229252   6.506   6.068   1.575 -0.1254  0.4154 -0.4912
 7764SOL     OW29253   1.373   8.713   4.382 -0.0392  0.4685 -0.4198
 7764SOL    HW129254   1.291   8.764   4.382  0.2249  0.8961 -0.3115
 7764SOL    HW229255   1.437   8.772   4.344  0.3759  0.3818  0.1375
 7765SOL     OW29256   8.398   8.862   0.325  0.1665  0.1830  0.2903
 7765SOL    HW129257   8.420   8.769   0.323 -0.4319  0.0474 -0.0814
 7765SOL    HW229258   8.303   8.865   0.313  0.4866  0.9627 -3.0641
 7766SOL     OW29259   7.701   0.988   4.332  0.5169 -0.6353 -0.1107
 7766SOL    HW129260   7.643   0.912   4.333 -1.5930  0.8567 -1.3594
 7766SOL    HW229261   7.685   1.031   4.417 -0.2665 -0.2171 -0.4588
 7767SOL     OW29262   9.051   2.016   0.569 -0.1987  0.0644 -0.2673
 7767SOL    HW129263   8.986   1.978   0.509  0.1922 -0.2106 -0.5231
 7767SOL    HW229264   9.022   1.990   0.656  0.6004 -1.6959 -0.4915
 7768SOL     OW29265   6.773   7.055   6.776 -0.1470  0.0638 -0.1101
 7768SOL    HW129266   6.693   7.004   6.765 -0.8384  0.8528  1.0246
 7768SOL    HW229267   6.828   7.001   6.833 -0.7994  0.4685  0.9335
 7769SOL     OW29268   1.507   7.142   2.383 -0.4420 -0.3253 -0.2957
 7769SOL    HW129269   1.569   7.070   2.397 -0.5455 -0.2930  0.3671
 7769SOL    HW229270   1.495   7.180   2.470  0.3322  1.0822 -0.7736
 7770SOL     OW29271   1.351   5.306   7.178 -0.1427 -0.0574  0.0551
 7770SOL    HW129272   1.399   5.326   7.098 -0.8804 -0.3849 -0.4803
 7770SOL    HW229273   1.417   5.272   7.238  0.1918 -1.1326 -0.8910
 7771SOL     OW29274   8.090   7.936   2.130  0.2708  0.1540  0.1430
 7771SOL    HW129275   8.105   7.844   2.109 -2.4337 -0.1322 -0.9616
 7771SOL    HW229276   7.998   7.940   2.156  0.1290  2.6481 -0.4751
 7772SOL     OW29277   8.497   6.799   6.175 -0.2386 -0.2953 -0.3623
 7772SOL    HW129278   8.498   6.736   6.247 -1.8236 -0.9151 -0.8528
 7772SOL    HW229279   8.495   6.885   6.219  0.3826 -0.6094  0.3067
 7773SOL     OW29280   8.424   0.772   7.316  0.0614 -0.0555 -0.0395
 7773SOL    HW129281   8.349   0.724   7.351  0.4334 -1.2511 -0.8233
 7773SOL    HW229282   8.496   0.709   7.318  0.5818  0.4797 -1.0766
 7774SOL     OW29283   4.863   8.692   8.013  0.5772 -0.4119 -0.4075
 7774SOL    HW129284   4.828   8.779   7.995 -0.5317 -0.7814 -0.1279
 7774SOL    HW229285   4.929   8.678   7.944 -0.6060 -0.1342 -1.6453
 7775SOL     OW29286   4.669   0.559   0.551 -0.6095 -0.0149  0.1886
 7775SOL    HW129287   4.696   0.629   0.610  0.6097  0.0199 -0.3855
 7775SOL    HW229288   4.580   0.582   0.526 -2.1052 -1.1770  3.7022
 7776SOL     OW29289   5.430   4.419   9.057 -0.2910  0.5131  0.0156
 7776SOL    HW129290   5.421   4.514   9.063  2.2602  0.6859  3.5847
 7776SOL    HW229291   5.502   4.406   8.994  1.1135  1.1504  1.4316
 7777SOL     OW29292   2.359   5.414   3.621  0.5277 -0.1227 -0.3276
 7777SOL    HW129293   2.323   5.338   3.575  0.8784 -0.1921 -0.4925
 7777SOL    HW229294   2.406   5.376   3.696  1.6544 -0.1564 -1.0312
 7778SOL     OW29295   5.176   2.225   9.067 -0.3365  0.1823  0.6598
 7778SOL    HW129296   5.085   2.220   9.096 -0.4627  0.9503  0.4112
 7778SOL    HW229297   5.172   2.221   8.972 -0.0517 -0.4769  0.6661
 7779SOL     OW29298   9.049   0.655   6.721  0.8933  0.0410 -0.1470
 7779SOL    HW129299   8.972   0.710   6.708 -0.0658 -0.8378  1.4013
 7779SOL    HW229300   9.101   0.702   6.786 -1.0812 -1.7768  3.0337
 7780SOL     OW29301   2.676   5.039   7.647  0.4281  0.4345 -0.1000
 7780SOL    HW129302   2.597   4.985   7.649  0.1017  0.7654 -1.9524
 7780SOL    HW229303   2.682   5.076   7.735 -1.0625 -0.1822  0.2973
 7781SOL     OW29304   7.367   4.542   3.698  0.0899  0.1812 -0.1920
 7781SOL    HW129305   7.285   4.591   3.705  1.4330  2.4136  2.3201
 7781SOL    HW229306   7.372   4.492   3.780  1.0113 -0.2700 -0.5105
 7782SOL     OW29307   1.956   7.516   7.117  0.1986  0.1875  0.2568
 7782SOL    HW129308   1.887   7.495   7.055 -0.8327  0.7266  1.1962
 7782SOL    HW229309   1.978   7.607   7.098  1.7228 -0.3952 -1.0156
 7783SOL     OW29310   3.935   3.350   1.211  0.3304  0.3251  0.7314
 7783SOL    HW129311   3.901   3.439   1.221 -0.6429 -0.0295  0.7265
 7783SOL    HW229312   3.868   3.295   1.250  0.8912 -0.4160  0.6637
 7784SOL     OW29313   2.755   6.963   3.391 -0.2132 -0.0281 -0.2150
 7784SOL    HW129314   2.803   7.043   3.411 -0.5189  0.3096 -0.7963
 7784SOL    HW229315   2.707   6.943   3.472  0.1154  0.1886  0.0362
 7785SOL     OW29316   1.159   4.375   6.518  0.8103 -0.3259 -0.3841
 7785SOL    HW129317   1.148   4.298   6.462  0.5300  0.0766 -0.8768
 7785SOL    HW229318   1.224   4.429   6.474  1.4348 -0.5379  0.2475
 7786SOL     OW29319   1.538   5.271   3.207 -0.1750 -0.7242 -0.1382
 7786SOL    HW129320   1.627   5.251   3.235  0.2409 -0.0389 -0.9342
 7786SOL    HW229321   1.501   5.185   3.185  0.0153 -1.0961  0.9365
 7787SOL     OW29322   6.669   0.651   7.960  0.5007  0.5413 -0.2276
 7787SOL    HW129323   6.583   0.643   8.001  0.1851  0.9057 -0.8022
 7787SOL    HW229324   6.725   0.591   8.009  0.5694  2.1559  1.8607
 7788SOL     OW29325   0.187   6.666   7.036  0.5844 -0.1560 -0.2495
 7788SOL    HW129326   0.262   6.726   7.041  0.7047 -0.4070  1.2157
 7788SOL    HW229327   0.134   6.687   7.112 -1.2631  0.5126 -1.6472
 7789SOL     OW29328   9.079   4.433   7.822 -0.0357  0.7392 -0.4200
 7789SOL    HW129329   9.029   4.479   7.754  1.3238  1.3126 -1.0802
 7789SOL    HW229330   9.133   4.502   7.862 -0.8364  0.4148  1.2857
 7790SOL     OW29331   9.258   2.439   4.059  0.0113  0.2047 -0.1659
 7790SOL    HW129332   9.179   2.463   4.009 -0.8374 -0.1283  0.9789
 7790SOL    HW229333   9.237   2.354   4.098  0.7443  0.3453  0.5627
 7791SOL     OW29334   5.905   4.064   1.870  0.4746  0.0609  0.4943
 7791SOL    HW129335   5.831   4.051   1.929  0.9157  1.5325  1.4335
 7791SOL    HW229336   5.979   4.084   1.928  1.9173 -2.3821 -0.3257
 7792SOL     OW29337   0.745   1.244   7.096 -0.0918  0.6532 -0.3278
 7792SOL    HW129338   0.745   1.177   7.028 -0.4686 -0.2589  0.5460
 7792SOL    HW229339   0.652   1.254   7.120  0.1510 -0.1124  1.0502
 7793SOL     OW29340   1.484   6.307   2.314  0.7739 -0.1182  0.8547
 7793SOL    HW129341   1.397   6.279   2.286  0.7784  0.2668  0.4518
 7793SOL    HW229342   1.500   6.388   2.266  2.2231 -1.2812 -0.7523
 7794SOL     OW29343   8.098   2.714   7.400 -0.0144 -0.3403 -0.2862
 7794SOL    HW129344   8.118   2.720   7.306 -0.9042 -2.5100 -0.6642
 7794SOL    HW229345   8.060   2.799   7.422  1.2895  0.6345 -1.5914
 7795SOL     OW29346   1.971   7.648   0.915 -0.0749  0.3333 -0.0301
 7795SOL    HW129347   1.944   7.707   0.986  0.0724  0.7332 -0.3017
 7795SOL    HW229348   2.025   7.582   0.958 -1.9780 -0.8554  0.6271
 7796SOL     OW29349   5.446   9.016   7.877 -0.9949  0.2056 -0.3104
 7796SOL    HW129350   5.406   9.095   7.839 -1.9886 -0.6062 -0.9941
 7796SOL    HW229351   5.510   8.988   7.812  1.5006  2.0239  1.1747
 7797SOL     OW29352   8.741   6.349   3.830  0.3467  0.4593  0.0766
 7797SOL    HW129353   8.826   6.308   3.846 -0.1337 -1.6669 -2.2190
 7797SOL    HW229354   8.734   6.353   3.735 -1.6164  1.7149  0.2245
 7798SOL     OW29355   3.576   6.535   7.863  0.2021 -0.1928 -0.0809
 7798SOL    HW129356   3.615   6.597   7.925  2.5473 -0.6161 -1.0645
 7798SOL    HW229357   3.630   6.540   7.785 -0.5583 -2.2581 -0.8175
 7799SOL     OW29358   9.079   3.549   5.397  0.5358  0.5286 -0.0916
 7799SOL    HW129359   9.074   3.642   5.376 -2.6901  0.4609 -0.0988
 7799SOL    HW229360   9.172   3.530   5.403  1.3343  3.2964 -2.1155
 7800SOL     OW29361   3.133   6.283   3.136  0.0140  0.7118 -0.1085
 7800SOL    HW129362   3.170   6.196   3.119 -2.6110 -0.4590 -0.1623
 7800SOL    HW229363   3.205   6.343   3.116  1.5338 -1.3676 -1.2566
 7801SOL     OW29364   1.578   0.061   4.460  0.0346 -0.2066 -0.5599
 7801SOL    HW129365   1.537   0.068   4.546  0.3039 -0.8949 -0.3752
 7801SOL    HW229366   1.646   0.128   4.460  0.0852 -0.2582 -0.2089
 7802SOL     OW29367   5.196   5.495   9.234  0.1065 -0.0987  0.2892
 7802SOL    HW129368   5.200   5.439   9.311 -0.4433 -1.2023 -0.4543
 7802SOL    HW229369   5.281   5.540   9.233  0.2490 -0.3139  1.3384
 7803SOL     OW29370   0.887   6.090   8.262 -0.4509 -0.3105  0.5552
 7803SOL    HW129371   0.810   6.137   8.295 -0.6928  0.5473 -1.1422
 7803SOL    HW229372   0.852   6.033   8.193  0.3908 -0.0483 -0.1051
 7804SOL     OW29373   7.095   0.688   0.410  0.3366 -0.1902 -0.1196
 7804SOL    HW129374   7.145   0.748   0.466  0.8370 -1.0557  0.3861
 7804SOL    HW229375   7.146   0.681   0.330  1.3227 -1.4488  0.5797
 7805SOL     OW29376   0.525   0.681   3.616  0.0897 -0.2571 -0.5865
 7805SOL    HW129377   0.581   0.606   3.637  0.8948 -0.1596 -2.2254
 7805SOL    HW229378   0.587   0.751   3.592 -0.6451  0.9244  0.7950
 7806SOL     OW29379   9.056   4.378   8.692 -0.0110  0.4498  0.6079
 7806SOL    HW129380   9.144   4.406   8.667 -0.6016  1.4216 -0.4092
 7806SOL    HW229381   9.056   4.283   8.676  2.1072 -0.3962  4.4201
 7807SOL     OW29382   1.307   7.172   5.356  0.2075 -0.3543 -0.8261
 7807SOL    HW129383   1.314   7.205   5.267  2.0502  0.5055 -0.4058
 7807SOL    HW229384   1.359   7.233   5.409 -1.8679 -0.1033  1.0559
 7808SOL     OW29385   7.873   0.323   6.751 -0.1831  0.2180 -0.0046
 7808SOL    HW129386   7.818   0.276   6.814 -2.1411  0.9223 -1.0855
 7808SOL    HW229387   7.916   0.391   6.803  1.6280 -1.8247  1.3163
 7809SOL     OW29388   0.580   4.273   5.878 -0.0167 -0.4768  0.1184
 7809SOL    HW129389   0.579   4.178   5.862 -0.6623 -0.4964  0.2275
 7809SOL    HW229390   0.619   4.310   5.799  1.5986 -0.9252  0.6727
 7810SOL     OW29391   7.355   0.192   3.329 -0.2213 -0.2574  0.0710
 7810SOL    HW129392   7.277   0.237   3.360  0.2970  0.8757 -0.1919
 7810SOL    HW229393   7.427   0.231   3.379  0.1159 -1.8522  0.9074
 7811SOL     OW29394   7.144   3.845   7.279  0.3507  0.0352 -0.8345
 7811SOL    HW129395   7.127   3.850   7.185  0.3824 -0.4424 -0.8674
 7811SOL    HW229396   7.085   3.909   7.318  0.7311  0.6353 -1.2257
 7812SOL     OW29397   6.729   3.218   6.631 -0.2179 -0.5631  0.5838
 7812SOL    HW129398   6.643   3.178   6.646  0.2823 -1.5526  0.8901
 7812SOL    HW229399   6.776   3.154   6.578  0.5176 -0.2518  0.8580
 7813SOL     OW29400   4.829   0.091   9.082 -0.6924 -0.3350 -0.1083
 7813SOL    HW129401   4.756   0.153   9.089 -0.5591 -0.0424 -1.2347
 7813SOL    HW229402   4.787   0.007   9.067 -0.8258 -0.3294  0.2131
 7814SOL     OW29403   8.566   8.128   2.708  0.5546  0.1777 -0.2326
 7814SOL    HW129404   8.570   8.186   2.632  1.5855  0.8035  0.2872
 7814SOL    HW229405   8.482   8.082   2.698 -0.7199  2.3694 -0.2175
 7815SOL     OW29406   8.261   0.622   2.235 -0.3757 -0.0862 -0.4973
 7815SOL    HW129407   8.299   0.560   2.172 -0.4201 -1.5061  0.8151
 7815SOL    HW229408   8.177   0.583   2.260 -1.8589  2.0142 -1.8478
 7816SOL     OW29409   2.138   5.423   2.887 -0.2109 -0.2764  0.1032
 7816SOL    HW129410   2.058   5.425   2.940 -0.5982 -1.4052 -0.4155
 7816SOL    HW229411   2.107   5.411   2.798  0.4427  1.5251 -0.4131
 7817SOL     OW29412   8.453   1.623   5.067  0.2185 -0.5313 -0.7642
 7817SOL    HW129413   8.399   1.638   4.990 -1.0378 -1.3395 -0.0804
 7817SOL    HW229414   8.406   1.556   5.116  1.2046 -0.3340  0.5014
 7818SOL     OW29415   6.666   5.599   4.161  0.3575  0.0650 -0.3023
 7818SOL    HW129416   6.649   5.614   4.068  1.5843 -0.6502 -0.6644
 7818SOL    HW229417   6.713   5.516   4.164  0.1487 -0.0275  0.9832
 7819SOL     OW29418   7.819   4.056   6.423  0.4097  0.4049 -0.2533
 7819SOL    HW129419   7.774   4.141   6.425 -0.8165 -0.1993 -0.9548
 7819SOL    HW229420   7.803   4.023   6.335 -0.8945 -1.4765  0.6373
 7820SOL     OW29421   3.624   0.270   7.928 -0.4517 -0.4786  0.2181
 7820SOL    HW129422   3.710   0.304   7.952  0.8886 -1.8394 -2.2371
 7820SOL    HW229423   3.629   0.177   7.950 -0.8761 -0.7885 -0.9487
 7821SOL     OW29424   5.174   5.812   1.684 -0.6614 -0.0921 -0.0370
 7821SOL    HW129425   5.134   5.769   1.608  0.5988 -0.1204 -0.7143
 7821SOL    HW229426   5.206   5.740   1.738  1.7093 -0.0746 -1.3143
 7822SOL     OW29427   8.730   2.555   5.768 -0.0987  0.1044 -0.2131
 7822SOL    HW129428   8.789   2.480   5.776 -0.3868 -0.2713 -1.3990
 7822SOL    HW229429   8.710   2.559   5.674  2.5033  3.6333 -0.8256
 7823SOL     OW29430   6.505   2.994   0.185 -0.3699  0.5165 -0.0296
 7823SOL    HW129431   6.569   3.062   0.205  0.7973 -0.3864 -0.5447
 7823SOL    HW229432   6.497   2.944   0.266 -0.0237  0.3284 -0.1086
 7824SOL     OW29433   4.779   4.181   0.579  0.1512  0.3532 -0.7486
 7824SOL    HW129434   4.784   4.090   0.549 -0.8833 -0.0620  0.2430
 7824SOL    HW229435   4.869   4.206   0.599  0.3989 -0.5997 -0.6519
 7825SOL     OW29436   7.201   2.936   5.984 -0.0408 -0.1551 -0.7818
 7825SOL    HW129437   7.161   2.957   5.900  1.2891 -2.5583 -2.1533
 7825SOL    HW229438   7.235   2.847   5.972 -2.5907 -1.9542  3.3748
 7826SOL     OW29439   4.704   2.098   8.162 -0.7937  0.0195 -0.0488
 7826SOL    HW129440   4.707   2.094   8.258 -2.0822  0.7484  0.0503
 7826SOL    HW229441   4.790   2.068   8.134 -0.4060 -0.2412  1.3393
 7827SOL     OW29442   6.461   7.445   7.924 -0.2974 -0.1523  0.3157
 7827SOL    HW129443   6.449   7.503   7.849 -1.5633  1.8539  1.9601
 7827SOL    HW229444   6.556   7.436   7.932 -0.1251  0.2228 -1.0455
 7828SOL     OW29445   5.167   4.964   6.407  0.1369 -0.0410  0.0878
 7828SOL    HW129446   5.175   4.968   6.312 -0.9016 -0.3198 -0.0218
 7828SOL    HW229447   5.147   5.054   6.433  1.1027  0.1728  0.1230
 7829SOL     OW29448   5.809   1.692   8.428 -0.4973  0.2778 -0.1858
 7829SOL    HW129449   5.745   1.627   8.401  1.4805 -1.4643 -0.9190
 7829SOL    HW229450   5.801   1.695   8.523 -1.8335  0.3278 -0.2773
 7830SOL     OW29451   3.643   8.206   6.606  0.2158 -0.3076 -0.3437
 7830SOL    HW129452   3.703   8.254   6.663 -0.7985  2.4390 -1.4080
 7830SOL    HW229453   3.557   8.246   6.621 -0.5893 -1.3374 -1.8310
 7831SOL     OW29454   5.975   3.764   8.018 -0.5989  0.7691 -0.1911
 7831SOL    HW129455   5.943   3.674   8.013  1.4745 -0.0967  0.7154
 7831SOL    HW229456   5.911   3.815   7.969 -0.7369 -1.4857 -2.5582
 7832SOL     OW29457   7.563   7.620   2.617 -0.0871  0.5844  0.4579
 7832SOL    HW129458   7.644   7.568   2.621 -0.2829  0.3532  3.5757
 7832SOL    HW229459   7.561   7.654   2.527  1.9985 -1.6782 -0.5605
 7833SOL     OW29460   1.954   6.927   4.507  0.5739  0.5241 -0.2482
 7833SOL    HW129461   1.938   6.965   4.593 -1.2961  0.0723 -0.3629
 7833SOL    HW229462   1.960   7.003   4.449  1.3232  0.8080  0.1898
 7834SOL     OW29463   1.938   4.375   2.889  0.1401  0.4296  0.1586
 7834SOL    HW129464   2.020   4.325   2.893  1.1276  2.0039  0.5215
 7834SOL    HW229465   1.907   4.362   2.800  0.6962 -0.3230  0.0625
 7835SOL     OW29466   8.755   4.115   2.279 -0.0667 -0.0226  0.1077
 7835SOL    HW129467   8.781   4.026   2.256  0.3849 -0.0052  0.5243
 7835SOL    HW229468   8.756   4.116   2.375  1.1158  0.7624  0.1147
 7836SOL     OW29469   7.834   2.748   8.718  0.2451  0.5458 -0.5918
 7836SOL    HW129470   7.748   2.768   8.681 -1.0921 -0.0114  2.0021
 7836SOL    HW229471   7.862   2.670   8.671 -2.2054 -1.2126  0.6584
 7837SOL     OW29472   8.477   1.545   2.354 -0.2389  0.6694  0.3473
 7837SOL    HW129473   8.485   1.465   2.302  3.5323  0.4571  0.9201
 7837SOL    HW229474   8.448   1.612   2.292 -1.6564 -0.7502 -0.5677
 7838SOL     OW29475   2.494   1.688   0.743 -0.4973 -0.0431  0.2443
 7838SOL    HW129476   2.476   1.600   0.709  0.3429 -0.8557  1.7889
 7838SOL    HW229477   2.584   1.705   0.717  0.1500 -0.6632  1.9130
 7839SOL     OW29478   0.771   8.606   8.883 -0.7019 -0.1453 -0.6916
 7839SOL    HW129479   0.781   8.544   8.955  0.2608 -0.6370 -1.2241
 7839SOL    HW229480   0.792   8.555   8.805 -1.9835  0.3063 -1.3632
 7840SOL     OW29481   2.508   0.012   0.873  0.0745 -0.2971  0.2591
 7840SOL    HW129482   2.546   0.012   0.785 -0.2085 -1.2579  0.1252
 7840SOL    HW229483   2.425  -0.035   0.864  0.0118 -0.3503  1.0232
 7841SOL     OW29484   6.484   1.814   1.756  0.0452  0.0486  0.2782
 7841SOL    HW129485   6.440   1.740   1.797 -1.0134  0.6591  0.2826
 7841SOL    HW229486   6.551   1.774   1.701 -1.5927 -1.0534 -1.0459
 7842SOL     OW29487   2.176   6.558   3.970 -0.0240 -0.3529 -0.4977
 7842SOL    HW129488   2.199   6.495   3.902  1.1264 -1.8544  1.1735
 7842SOL    HW229489   2.160   6.504   4.048 -0.9707  1.3080  0.5130
 7843SOL     OW29490   4.546   3.174   9.102  0.3731  0.5349  0.1774
 7843SOL    HW129491   4.508   3.160   9.189  1.5408 -1.0436  0.4853
 7843SOL    HW229492   4.476   3.215   9.051 -1.7461 -2.1595  0.7179
 7844SOL     OW29493   6.684   7.407   1.317 -0.7783 -0.0408 -1.0743
 7844SOL    HW129494   6.622   7.363   1.375 -1.2443  0.2264 -1.3710
 7844SOL    HW229495   6.699   7.344   1.246 -1.2633  0.1723 -1.3742
 7845SOL     OW29496   7.150   4.603   6.883  0.4346  0.1545 -0.3255
 7845SOL    HW129497   7.168   4.675   6.943 -2.8122 -0.4333  1.6063
 7845SOL    HW229498   7.211   4.534   6.907  2.5050  1.6163 -1.1319
 7846SOL     OW29499   6.045   8.609   7.003  0.2649 -0.6398 -0.1391
 7846SOL    HW129500   6.018   8.573   7.087  1.4928 -1.6492 -0.1560
 7846SOL    HW229501   5.988   8.685   6.990  0.3047 -0.2548  1.7563
 7847SOL     OW29502   5.281   5.917   0.356  0.1675  0.2758 -0.1979
 7847SOL    HW129503   5.267   5.864   0.278  0.2882 -0.5776  0.3504
 7847SOL    HW229504   5.374   5.907   0.376  0.2313  0.8469 -0.1958
 7848SOL     OW29505   7.392   1.479   4.932  0.2306  0.0635 -0.3111
 7848SOL    HW129506   7.366   1.397   4.973  0.7691 -0.4309 -0.9386
 7848SOL    HW229507   7.347   1.546   4.982  2.2595 -0.3542  2.2572
 7849SOL     OW29508   5.939   1.448   5.172  0.0486 -0.2745 -0.5870
 7849SOL    HW129509   5.892   1.365   5.173 -0.3727 -0.0564  1.1898
 7849SOL    HW229510   5.874   1.512   5.144  0.0572 -0.3577 -0.8037
 7850SOL     OW29511   7.129   8.006   2.772  0.0927 -0.4715  0.0920
 7850SOL    HW129512   7.171   7.963   2.846  0.8954  2.0793  1.2397
 7850SOL    HW229513   7.035   8.005   2.792  0.2725 -0.1572  0.9825
 7851SOL     OW29514   5.264   2.693   1.078 -0.0971  0.4621  0.1099
 7851SOL    HW129515   5.337   2.670   1.136  1.0629  0.0692 -1.4323
 7851SOL    HW229516   5.209   2.751   1.130  1.4725  1.0170  1.2293
 7852SOL     OW29517   2.936   3.498   2.656 -0.2981  0.4004  0.4533
 7852SOL    HW129518   2.875   3.509   2.584 -1.1681 -3.0938  0.5227
 7852SOL    HW229519   2.892   3.537   2.731 -0.4229  1.8821 -0.3433
 7853SOL     OW29520   6.791   0.991   8.836 -0.3166  0.1060 -0.2230
 7853SOL    HW129521   6.697   1.003   8.852  0.0592  1.6376  1.1876
 7853SOL    HW229522   6.820   1.075   8.799  0.7852  0.3239  1.0299
 7854SOL     OW29523   5.221   4.557   8.223 -0.2120 -0.3036 -1.0210
 7854SOL    HW129524   5.304   4.510   8.214 -0.0246  0.0430 -1.1491
 7854SOL    HW229525   5.166   4.522   8.154 -0.5411 -1.2814 -0.2877
 7855SOL     OW29526   0.249   2.102   4.006  0.2434  0.0894 -0.1539
 7855SOL    HW129527   0.208   2.171   4.059  0.3153 -0.1403  0.2045
 7855SOL    HW229528   0.174   2.055   3.968  0.1967  0.6369 -0.7676
 7856SOL     OW29529   8.868   4.222   5.034  0.5134  0.1423 -0.4985
 7856SOL    HW129530   8.818   4.214   5.116 -0.8796  0.4272 -1.2895
 7856SOL    HW229531   8.954   4.253   5.062  0.2016 -0.1802  0.9003
 7857SOL     OW29532   7.671   5.034   1.192  0.0283 -0.3699 -0.1592
 7857SOL    HW129533   7.754   4.986   1.185 -0.0605 -0.3359 -1.5651
 7857SOL    HW229534   7.696   5.126   1.189  0.0917 -0.3132  1.3670
 7858SOL     OW29535   3.324   6.214   0.618 -0.1625 -0.2509 -0.4501
 7858SOL    HW129536   3.277   6.134   0.643 -0.6431 -0.3161 -1.5004
 7858SOL    HW229537   3.416   6.190   0.623 -0.2408 -0.3288  0.9705
 7859SOL     OW29538   0.847   3.403   1.586  0.4438 -0.1081  0.0982
 7859SOL    HW129539   0.882   3.462   1.519  1.0920 -1.3679 -0.7136
 7859SOL    HW229540   0.782   3.455   1.633  0.9321  1.2126 -0.6444
 7860SOL     OW29541   1.089   5.658   4.187  0.1685 -0.0141 -0.4740
 7860SOL    HW129542   1.014   5.670   4.245 -1.0993 -0.6154 -1.8904
 7860SOL    HW229543   1.099   5.563   4.180  1.3991  0.0563  0.0763
 7861SOL     OW29544   1.995   6.571   3.283  0.2848  0.4235 -0.5529
 7861SOL    HW129545   2.084   6.537   3.270  0.6836  1.1646  0.1202
 7861SOL    HW229546   1.942   6.494   3.302  0.9469  0.0524 -0.1709
 7862SOL     OW29547   2.975   2.340   1.319  0.2068 -0.0557 -0.2481
 7862SOL    HW129548   2.910   2.287   1.273 -0.0858  0.8478 -0.9075
 7862SOL    HW229549   2.927   2.419   1.345  1.2593  1.1046 -1.6577
 7863SOL     OW29550   1.714   2.957   1.631  0.0586  0.1003  0.0728
 7863SOL    HW129551   1.620   2.977   1.635  0.0246  0.8076 -2.4144
 7863SOL    HW229552   1.721   2.895   1.558  1.7608  2.1528 -1.6522
 7864SOL     OW29553   5.104   5.053   5.599 -0.5173  0.5710 -0.6407
 7864SOL    HW129554   5.096   5.068   5.505 -0.4381  2.0974 -0.4319
 7864SOL    HW229555   5.064   5.130   5.639 -1.4169 -0.5054  0.6002
 7865SOL     OW29556   2.632   7.563   5.046 -0.3407  0.5311 -0.1494
 7865SOL    HW129557   2.559   7.564   5.108 -2.9774 -0.0287 -3.0034
 7865SOL    HW229558   2.685   7.489   5.073 -1.7350 -0.0832  1.0840
 7866SOL     OW29559   1.024   2.709   1.911  1.0283 -0.4956 -0.0491
 7866SOL    HW129560   1.072   2.704   1.828  2.3884  1.0574  0.5819
 7866SOL    HW229561   0.995   2.800   1.917  0.0839 -0.8268  0.7385
 7867SOL     OW29562   7.847   0.487   5.422 -0.6303 -0.2833 -0.1869
 7867SOL    HW129563   7.870   0.531   5.504 -0.5374  1.9880 -1.3429
 7867SOL    HW229564   7.764   0.527   5.396 -0.7908 -1.1547 -1.0504
 7868SOL     OW29565   7.290   2.928   7.948 -0.0171 -0.4081  0.2485
 7868SOL    HW129566   7.281   3.015   7.910 -1.5577  0.3128  2.1245
 7868SOL    HW229567   7.377   2.900   7.921  0.0558  1.2038 -1.3893
 7869SOL     OW29568   4.551   9.340   1.745  0.5109 -0.3087 -0.1674
 7869SOL    HW129569   4.604   9.343   1.666 -1.3693  1.2742 -1.4634
 7869SOL    HW229570   4.513   9.252   1.745  0.3894 -0.2656 -1.1091
 7870SOL     OW29571   8.759   0.388   5.840  0.1382  0.4048  0.3495
 7870SOL    HW129572   8.723   0.299   5.843 -1.0121  0.8785  1.6500
 7870SOL    HW229573   8.841   0.378   5.792 -0.1322 -1.2980  0.1549
 7871SOL     OW29574   2.296   6.859   1.292  0.0392  0.0193  0.0220
 7871SOL    HW129575   2.226   6.888   1.350 -0.9853 -0.0989 -1.1137
 7871SOL    HW229576   2.268   6.773   1.261  1.1584 -0.4634  0.2793
 7872SOL     OW29577   2.917   6.361   1.918 -0.1359 -0.0743  0.9442
 7872SOL    HW129578   2.911   6.447   1.877  1.8014 -0.6209 -0.6500
 7872SOL    HW229579   2.920   6.299   1.844  0.3669 -1.3566  2.0023
 7873SOL     OW29580   6.490   2.659   8.168 -0.7398 -0.5067 -0.0937
 7873SOL    HW129581   6.473   2.752   8.154  0.7811  0.0557  1.5053
 7873SOL    HW229582   6.527   2.629   8.084 -2.3830 -0.0086 -1.0381
 7874SOL     OW29583   5.129   2.427   5.549  0.4364 -0.0630 -0.6302
 7874SOL    HW129584   5.182   2.432   5.628  0.7550 -1.0227 -0.7693
 7874SOL    HW229585   5.114   2.518   5.524 -0.2645  0.2948  0.9232
 7875SOL     OW29586   2.680   9.271   9.062  0.3179 -0.0013  0.0042
 7875SOL    HW129587   2.676   9.234   9.150  0.0117  0.3621  0.1476
 7875SOL    HW229588   2.720   9.357   9.074  2.2949 -0.7980 -0.5068
 7876SOL     OW29589   7.665   3.161   0.421 -0.1393 -0.2520 -0.1220
 7876SOL    HW129590   7.661   3.161   0.516  0.6090  0.9771 -0.0796
 7876SOL    HW229591   7.693   3.072   0.398  0.2007 -0.3902  0.8169
 7877SOL     OW29592   1.340   1.001   7.669 -0.0913  0.1574 -0.2037
 7877SOL    HW129593   1.415   0.947   7.693  0.0670 -0.0166 -1.0595
 7877SOL    HW229594   1.357   1.027   7.579  0.3667  2.5682  0.5153
 7878SOL     OW29595   7.284   8.003   0.788 -0.3394  0.7982  0.2413
 7878SOL    HW129596   7.242   7.947   0.853 -0.1473 -1.1146 -1.1874
 7878SOL    HW229597   7.303   8.084   0.835 -0.6717 -0.2946  2.4066
 7879SOL     OW29598   4.884   8.328   8.479  0.1055 -0.0239 -0.3083
 7879SOL    HW129599   4.943   8.259   8.510 -0.9630 -1.7527 -1.9392
 7879SOL    HW229600   4.855   8.373   8.559 -0.2563 -2.3606  0.9634
 7880SOL     OW29601   8.687   2.889   8.340  0.2308 -0.4221 -0.1366
 7880SOL    HW129602   8.728   2.971   8.314 -1.9557  0.7247 -0.2415
 7880SOL    HW229603   8.748   2.851   8.403  1.5674  1.0051 -0.5006
 7881SOL     OW29604   8.324   0.109   6.271 -0.6436 -0.3314 -0.2204
 7881SOL    HW129605   8.320   0.199   6.239  2.2975  0.3742  1.0142
 7881SOL    HW229606   8.286   0.113   6.359 -1.7209 -0.6046 -0.6654
 7882SOL     OW29607   8.507   6.417   2.148 -0.5579  0.0560 -0.1870
 7882SOL    HW129608   8.449   6.464   2.088 -1.2256 -0.0404  0.3801
 7882SOL    HW229609   8.558   6.360   2.091 -1.4942 -0.3553 -0.6267
 7883SOL     OW29610   3.465   8.367   7.069 -0.1710  0.1639 -0.1957
 7883SOL    HW129611   3.393   8.363   7.006 -0.6269  0.5300  0.2994
 7883SOL    HW229612   3.491   8.459   7.072  0.2669  0.0460 -0.3148
 7884SOL     OW29613   6.468   6.112   8.098  0.1465 -0.1022 -0.3019
 7884SOL    HW129614   6.491   6.042   8.037  0.2289 -0.7876  0.4937
 7884SOL    HW229615   6.448   6.187   8.042  2.2221 -0.0884 -1.0912
 7885SOL     OW29616   5.123   1.714   4.246  0.4178  0.2800  0.5474
 7885SOL    HW129617   5.198   1.704   4.187  0.8099 -0.1686  1.1175
 7885SOL    HW229618   5.084   1.627   4.251  0.5861  0.2382  1.2132
 7886SOL     OW29619   1.328   2.177   5.218  0.6225 -0.2800 -0.4996
 7886SOL    HW129620   1.421   2.183   5.242  0.3957  0.1275  0.3152
 7886SOL    HW229621   1.328   2.177   5.123  1.3487  2.2868 -0.5935
 7887SOL     OW29622   3.500   7.149   2.351 -0.0259  0.2599 -0.4624
 7887SOL    HW129623   3.594   7.161   2.368 -0.0993  0.5195 -0.2437
 7887SOL    HW229624   3.457   7.216   2.403 -0.3778 -0.3522  0.0565
 7888SOL     OW29625   3.978   0.619   9.188 -0.3435 -0.0317  0.0427
 7888SOL    HW129626   3.980   0.529   9.156 -2.1414 -0.4686  1.0109
 7888SOL    HW229627   3.961   0.672   9.110  1.1573 -0.4663 -0.6019
 7889SOL     OW29628   7.499   3.842   5.262 -0.2106 -0.1361 -0.2531
 7889SOL    HW129629   7.460   3.862   5.177 -0.7317  0.0127  0.0216
 7889SOL    HW229630   7.575   3.787   5.240  0.3251  0.8286 -0.8920
 7890SOL     OW29631   4.280   5.916   8.541  0.4101  0.2966  0.0705
 7890SOL    HW129632   4.321   5.856   8.604  0.0800 -0.0519 -0.0388
 7890SOL    HW229633   4.271   5.864   8.461  1.9034  1.0925 -0.6585
 7891SOL     OW29634   6.107   6.723   2.159  0.5922  0.0860 -0.3246
 7891SOL    HW129635   6.122   6.761   2.073  0.5836  1.7887  0.3778
 7891SOL    HW229636   6.023   6.760   2.187  0.1928 -1.0915  0.0917
 7892SOL     OW29637   4.021   0.961   5.273 -0.1494 -0.3815 -0.0066
 7892SOL    HW129638   4.104   0.951   5.227 -0.4776  2.9921 -1.6394
 7892SOL    HW229639   3.954   0.954   5.205 -1.0144 -0.0826  0.7752
 7893SOL     OW29640   1.444   0.343   9.191  0.1469 -0.5543  0.6073
 7893SOL    HW129641   1.483   0.391   9.118 -0.4928 -0.0707  0.5777
 7893SOL    HW229642   1.421   0.410   9.255 -0.1329 -0.8879  0.8602
 7894SOL     OW29643   6.144   3.409   0.422 -0.1019 -0.3208 -0.7694
 7894SOL    HW129644   6.098   3.360   0.490 -1.6353  0.0229 -1.4925
 7894SOL    HW229645   6.220   3.356   0.401  0.1162 -0.6857  0.8242
 7895SOL     OW29646   6.008   7.711   8.013  0.7141  0.4050 -0.0395
 7895SOL    HW129647   6.053   7.694   7.931  0.2612  1.8405 -0.6210
 7895SOL    HW229648   6.046   7.648   8.075  1.3024 -0.4688 -1.2482
 7896SOL     OW29649   9.301   0.350   8.745 -0.8482 -0.7707 -0.6002
 7896SOL    HW129650   9.258   0.297   8.812  2.0910 -1.3926  0.9268
 7896SOL    HW229651   9.297   0.297   8.666  0.3635 -2.5023  0.4369
 7897SOL     OW29652   8.563   7.624   5.994 -0.3081 -0.1597  0.3974
 7897SOL    HW129653   8.616   7.585   6.064  0.0061 -2.0355 -0.8013
 7897SOL    HW229654   8.474   7.621   6.028 -0.1300 -0.8403  0.8234
 7898SOL     OW29655   3.290   1.134   8.788 -0.2549 -0.4209  0.3691
 7898SOL    HW129656   3.245   1.167   8.866 -0.7107 -0.5301  0.1542
 7898SOL    HW229657   3.270   1.041   8.787  1.2139 -0.7802  1.0973
 7899SOL     OW29658   6.923   6.951   4.384  0.7047 -0.2861  0.2860
 7899SOL    HW129659   6.834   6.978   4.361  0.4930  0.1722  1.5479
 7899SOL    HW229660   6.939   6.874   4.330 -0.3632 -0.2302 -0.1442
 7900SOL     OW29661   4.195   0.871   0.948 -0.1432  0.4010  0.3626
 7900SOL    HW129662   4.112   0.865   0.901 -0.2593 -1.3932  0.6976
 7900SOL    HW229663   4.260   0.835   0.886 -0.1142 -0.9048  1.1078
 7901SOL     OW29664   9.233   8.448   4.582  0.5491  0.4482  0.3904
 7901SOL    HW129665   9.246   8.498   4.662  0.3527  0.0216  0.6905
 7901SOL    HW229666   9.283   8.367   4.596 -0.6050 -0.2498  0.6612
 7902SOL     OW29667   2.114   2.243   9.335  0.5429  0.6807  0.4819
 7902SOL    HW129668   2.168   2.171   9.304 -1.0977 -0.2997 -0.2544
 7902SOL    HW229669   2.094   2.221   9.426  0.0531  0.1798  0.2616
 7903SOL     OW29670   7.602   7.085   3.356 -0.4072  0.2854 -0.5739
 7903SOL    HW129671   7.637   7.005   3.395 -0.3669  1.0384  0.9963
 7903SOL    HW229672   7.672   7.149   3.364 -1.1624  1.0531  0.1463
 7904SOL     OW29673   3.955   8.719   8.717  0.1410  0.0634 -0.3141
 7904SOL    HW129674   4.047   8.697   8.735  0.0713  0.3530  0.4053
 7904SOL    HW229675   3.917   8.637   8.686  0.3517 -0.3681  0.5328
 7905SOL     OW29676   3.434   7.386   8.112 -0.1227 -0.0848 -0.0198
 7905SOL    HW129677   3.456   7.299   8.078 -1.9938 -0.8741  0.6252
 7905SOL    HW229678   3.499   7.402   8.181 -0.9613 -1.9475  1.2969
 7906SOL     OW29679   0.457   2.544   0.685 -0.1612 -0.6132  0.0883
 7906SOL    HW129680   0.370   2.506   0.699 -0.6443 -0.3562 -1.9461
 7906SOL    HW229681   0.464   2.614   0.750 -1.1458 -1.1466  0.7859
 7907SOL     OW29682   2.757   6.798   7.622  0.1954 -0.3568 -0.2154
 7907SOL    HW129683   2.726   6.710   7.643  0.5995 -0.4881 -0.1772
 7907SOL    HW229684   2.812   6.823   7.696 -0.6258  0.2784  0.1960
 7908SOL     OW29685   1.735   5.460   6.936 -0.1039 -0.5231  0.4036
 7908SOL    HW129686   1.788   5.537   6.917  0.1889 -0.5811  0.9848
 7908SOL    HW229687   1.645   5.492   6.929  0.0103  0.1782  1.8330
 7909SOL     OW29688   4.563   1.231   5.736 -0.3014  0.0247 -0.2600
 7909SOL    HW129689   4.491   1.284   5.703  0.7836  0.6627 -1.6926
 7909SOL    HW229690   4.562   1.152   5.682 -1.0980 -0.8731  1.0064
 7910SOL     OW29691   0.052   6.253   7.910 -0.2221 -0.0765 -0.2246
 7910SOL    HW129692   0.012   6.340   7.919  0.9905  0.5152 -0.4195
 7910SOL    HW229693   0.145   6.268   7.927 -0.1457 -1.5156  0.7471
 7911SOL     OW29694   6.797   5.080   8.210  0.0826 -0.6194 -0.3395
 7911SOL    HW129695   6.730   5.146   8.191  0.3564  0.0769  0.9839
 7911SOL    HW229696   6.751   5.011   8.258  0.4126  0.2666  1.3556
 7912SOL     OW29697   7.848   4.998   6.455  0.2693  0.0626  0.3781
 7912SOL    HW129698   7.838   5.002   6.360 -0.6922  0.8580  0.4919
 7912SOL    HW229699   7.941   4.983   6.469  0.5806  0.8639 -0.6843
 7913SOL     OW29700   1.025   8.592   8.100  0.5671  0.1249  0.2064
 7913SOL    HW129701   1.050   8.529   8.033 -1.8941  0.2095 -0.9102
 7913SOL    HW229702   0.939   8.563   8.130  0.6691  1.3028  1.8255
 7914SOL     OW29703   1.874   2.315   1.407 -0.2667  0.5078  0.1433
 7914SOL    HW129704   1.886   2.305   1.501  2.1224  2.0712  0.0793
 7914SOL    HW229705   1.864   2.409   1.394 -2.5834  0.1627 -1.0286
 7915SOL     OW29706   2.582   5.722   1.148 -0.1295  0.0430 -0.4524
 7915SOL    HW129707   2.583   5.637   1.103  1.1536 -0.5129  0.5933
 7915SOL    HW229708   2.491   5.732   1.177 -0.1192 -1.3582  0.1145
 7916SOL     OW29709   7.994   1.081   9.366 -0.0680 -0.1969 -0.1107
 7916SOL    HW129710   8.031   1.168   9.383 -0.0487 -0.0694 -0.7563
 7916SOL    HW229711   8.011   1.031   9.445  3.3375 -0.7961 -1.0435
 7917SOL     OW29712   5.808   1.051   2.100 -0.3725  0.4879  0.5690
 7917SOL    HW129713   5.734   1.002   2.137 -3.2488  2.8365 -1.5247
 7917SOL    HW229714   5.772   1.138   2.083  3.5731  2.4619  1.2956
 7918SOL     OW29715   2.871   9.156   2.912  0.3411  0.0428  0.6054
 7918SOL    HW129716   2.925   9.220   2.957 -1.2414  0.3254  2.1888
 7918SOL    HW229717   2.905   9.156   2.822  0.5263  2.9550  0.5679
 7919SOL     OW29718   3.087   5.396   4.324  0.3448 -0.0762  0.2124
 7919SOL    HW129719   3.135   5.326   4.281 -0.4837 -0.8948  0.5693
 7919SOL    HW229720   3.101   5.473   4.269 -0.2017 -0.9456 -1.2138
 7920SOL     OW29721   2.613   2.693   2.575  0.2530 -0.5317 -0.4414
 7920SOL    HW129722   2.580   2.628   2.636 -1.2950 -0.6578 -1.3516
 7920SOL    HW229723   2.552   2.690   2.501  1.7082  0.0255 -1.7339
 7921SOL     OW29724   0.476   0.132   6.660 -0.3470  0.2041  0.8213
 7921SOL    HW129725   0.499   0.222   6.684  1.3910  0.2073 -0.7118
 7921SOL    HW229726   0.459   0.135   6.566  0.3946 -1.1803  0.6117
 7922SOL     OW29727   8.621   7.465   2.223 -0.4573  0.0336 -0.0718
 7922SOL    HW129728   8.608   7.446   2.316  1.6111  0.2891  0.3082
 7922SOL    HW229729   8.702   7.515   2.220  2.1790 -3.8620 -2.3775
 7923SOL     OW29730   4.407   9.240   8.977 -0.3832 -0.2080 -0.0865
 7923SOL    HW129731   4.362   9.295   9.041 -1.6074  2.0423 -2.7106
 7923SOL    HW229732   4.337   9.191   8.933  0.1329  0.1062 -1.3075
 7924SOL     OW29733   4.432   1.121   9.284 -0.1625 -0.3667 -0.1542
 7924SOL    HW129734   4.468   1.088   9.366 -1.9226 -0.0399  0.8127
 7924SOL    HW229735   4.342   1.088   9.282  0.0263 -0.9034 -2.2970
 7925SOL     OW29736   8.596   4.659   4.081  0.0452  0.0385  0.2626
 7925SOL    HW129737   8.538   4.582   4.080  0.3497 -0.2111 -1.9209
 7925SOL    HW229738   8.670   4.634   4.026 -0.0849  2.0711 -0.9274
 7926SOL     OW29739   1.777   4.044   0.476 -0.4250 -0.0303  0.2789
 7926SOL    HW129740   1.735   4.043   0.390 -0.2957 -1.4221  0.2115
 7926SOL    HW229741   1.708   4.017   0.536  0.1051 -1.4960  0.2735
 7927SOL     OW29742   0.895   2.554   3.137  0.0162 -0.6000  0.4913
 7927SOL    HW129743   0.830   2.513   3.080 -0.2379  1.6874 -0.9878
 7927SOL    HW229744   0.845   2.588   3.211 -1.0434  2.9925 -1.6192
 7928SOL     OW29745   5.926   0.394   6.403  0.0086  0.2690  0.0602
 7928SOL    HW129746   5.868   0.431   6.470  0.5266  0.7051  0.2733
 7928SOL    HW229747   6.014   0.416   6.432  0.2279  1.1687 -1.1555
 7929SOL     OW29748   5.871   7.620   1.647  0.1602  0.3978  0.2035
 7929SOL    HW129749   5.863   7.630   1.742 -1.5739 -1.0734  0.2716
 7929SOL    HW229750   5.963   7.639   1.629  1.3154 -2.1699  2.6108
 7930SOL     OW29751   0.477   8.042   8.778 -0.9856 -0.4164 -0.1173
 7930SOL    HW129752   0.491   7.995   8.695  0.5436 -1.1817  0.5384
 7930SOL    HW229753   0.438   7.977   8.836 -0.1848 -0.4631  0.3690
 7931SOL     OW29754   8.722   2.647   2.967  0.4340 -0.5867  0.4484
 7931SOL    HW129755   8.791   2.587   2.940  2.1515  1.3037  0.3522
 7931SOL    HW229756   8.725   2.718   2.902 -1.5302 -0.3842  0.5224
 7932SOL     OW29757   6.785   0.023   5.866 -0.2594  0.0639  0.3249
 7932SOL    HW129758   6.787  -0.071   5.851 -0.5796  0.1381 -0.2205
 7932SOL    HW229759   6.694   0.042   5.888  0.2014 -0.0483  2.5208
 7933SOL     OW29760   3.609   5.046   4.873  0.1737 -0.1721 -0.2222
 7933SOL    HW129761   3.593   5.016   4.783 -1.6216 -0.0169  0.0007
 7933SOL    HW229762   3.642   5.135   4.862 -1.1540  0.2904 -0.7413
 7934SOL     OW29763   2.677   7.129   7.060  0.7150 -0.4852  0.3934
 7934SOL    HW129764   2.586   7.100   7.069  0.4583  0.5648  1.4621
 7934SOL    HW229765   2.713   7.074   6.990 -0.8684 -0.5904 -0.3755
 7935SOL     OW29766   6.945   0.271   1.967  0.2530  0.1077 -0.3596
 7935SOL    HW129767   6.919   0.216   1.894  1.3184 -0.1315 -0.5745
 7935SOL    HW229768   7.020   0.226   2.006  1.0080  1.2807 -0.3990
 7936SOL     OW29769   1.265   7.243   1.663  0.4110 -0.1144  0.1072
 7936SOL    HW129770   1.321   7.315   1.635  0.9119 -0.4061  0.3337
 7936SOL    HW229771   1.292   7.169   1.608 -1.5655  0.3670 -1.6518
 7937SOL     OW29772   0.558   3.783   3.598 -0.3406  0.0346  0.1002
 7937SOL    HW129773   0.519   3.714   3.544 -1.3691  1.2283 -0.7216
 7937SOL    HW229774   0.590   3.736   3.676  0.0938 -1.5385 -0.9725
 7938SOL     OW29775   1.648   2.540   0.622  0.7393  0.0833  0.4766
 7938SOL    HW129776   1.571   2.593   0.601  1.3866  1.4238  1.3642
 7938SOL    HW229777   1.611   2.456   0.650 -0.2923 -0.0512 -1.1738
 7939SOL     OW29778   3.266   2.680   5.931  0.7728  0.3225 -0.0207
 7939SOL    HW129779   3.278   2.762   5.980  1.3523  1.4769 -1.9794
 7939SOL    HW229780   3.179   2.688   5.892  0.5433 -0.3227  0.3500
 7940SOL     OW29781   0.817   2.563   5.060 -0.3079 -0.5096 -0.2311
 7940SOL    HW129782   0.817   2.654   5.031 -0.8646 -0.9036 -1.5156
 7940SOL    HW229783   0.791   2.568   5.152 -1.5469  0.5431 -0.5984
 7941SOL     OW29784   1.622   7.416   0.403  0.1183  0.3183  0.1310
 7941SOL    HW129785   1.697   7.476   0.405 -0.5456  1.1804 -0.0900
 7941SOL    HW229786   1.614   7.389   0.312 -0.1270  0.6070  0.0654
 7942SOL     OW29787   4.917   2.767   3.949 -0.0638 -0.8254 -0.6415
 7942SOL    HW129788   4.961   2.721   4.020 -1.7632 -1.3900  0.1094
 7942SOL    HW229789   4.895   2.853   3.985  0.5578 -0.4809 -1.0684
 7943SOL     OW29790   0.048   2.341   4.573  0.1366 -0.0476  0.5166
 7943SOL    HW129791   0.143   2.341   4.559 -0.0704 -0.9073 -1.1470
 7943SOL    HW229792   0.035   2.280   4.646  0.7439 -1.6922 -0.6664
 7944SOL     OW29793   6.684   9.085   9.051 -0.0202  0.0019  0.0967
 7944SOL    HW129794   6.599   9.065   9.090  0.1740 -0.4930  0.2679
 7944SOL    HW229795   6.664   9.143   8.977 -0.4777  0.1100  0.3038
 7945SOL     OW29796   0.447   1.746   2.560 -0.5587 -0.0679 -0.1895
 7945SOL    HW129797   0.511   1.814   2.577  0.4244 -1.0049 -0.0269
 7945SOL    HW229798   0.403   1.733   2.645 -0.3811 -0.0012 -0.0873
 7946SOL     OW29799   7.411   6.694   3.459  0.2955 -0.0792  0.2760
 7946SOL    HW129800   7.463   6.701   3.379  0.8075  0.8448  0.6702
 7946SOL    HW229801   7.321   6.684   3.429  0.5541 -0.3779 -0.4128
 7947SOL     OW29802   1.974   2.028   9.080  0.3462 -0.0018 -0.1117
 7947SOL    HW129803   2.068   2.043   9.074  0.1943  0.9611 -0.2815
 7947SOL    HW229804   1.965   1.948   9.132  1.2678 -0.3908 -0.5514
 7948SOL     OW29805   0.927   6.859   5.368  0.1321  0.3036 -0.3035
 7948SOL    HW129806   0.889   6.826   5.450  1.5542 -2.4480 -0.6121
 7948SOL    HW229807   0.884   6.807   5.300  1.6272 -0.1198 -0.9596
 7949SOL     OW29808   0.869   6.563   6.827 -0.3149  0.0341  0.1674
 7949SOL    HW129809   0.944   6.601   6.873  0.1054 -1.1733  0.5364
 7949SOL    HW229810   0.821   6.515   6.895 -1.1531  0.3792 -0.1662
 7950SOL     OW29811   3.884   0.297   2.211 -0.1235  0.4512  0.1160
 7950SOL    HW129812   3.854   0.345   2.134  1.1573  0.2339 -0.5478
 7950SOL    HW229813   3.969   0.336   2.232  1.0668 -1.6195 -0.5732
 7951SOL     OW29814   8.316   4.407   7.053 -0.5125  0.4075 -0.3684
 7951SOL    HW129815   8.339   4.448   7.137 -1.5876 -0.5488  0.4344
 7951SOL    HW229816   8.399   4.390   7.010  0.0237  1.7358  0.0979
 7952SOL     OW29817   3.223   8.542   1.259 -0.5529  0.5302  0.3782
 7952SOL    HW129818   3.231   8.454   1.296 -0.7950  0.4943  0.3449
 7952SOL    HW229819   3.149   8.581   1.306 -0.8887  0.4715 -0.0967
 7953SOL     OW29820   7.427   2.251   0.857 -0.5476  0.1003  0.8298
 7953SOL    HW129821   7.352   2.215   0.812  0.3664  0.8539 -1.4524
 7953SOL    HW229822   7.392   2.285   0.939 -2.7877  0.8152 -0.3385
 7954SOL     OW29823   7.196   8.557   3.720 -0.1980  0.2834 -0.0347
 7954SOL    HW129824   7.215   8.489   3.656  1.9973  1.1141 -0.3694
 7954SOL    HW229825   7.142   8.513   3.786  0.7043 -1.6424 -0.4943
 7955SOL     OW29826   2.166   5.595   1.119  0.4548 -0.3570  0.5494
 7955SOL    HW129827   2.087   5.585   1.065  0.1994 -0.9091  1.0174
 7955SOL    HW229828   2.195   5.505   1.135  2.8298 -0.1942 -1.9943
 7956SOL     OW29829   8.201   1.594   1.320 -0.5272  0.0269 -0.2175
 7956SOL    HW129830   8.278   1.558   1.276  0.4343  0.4573  1.0413
 7956SOL    HW229831   8.199   1.686   1.295  1.4747  0.9187  2.4130
 7957SOL     OW29832   5.198   5.672   8.457 -0.0673  0.0773  0.0651
 7957SOL    HW129833   5.122   5.696   8.404  0.1450  0.6814  0.0197
 7957SOL    HW229834   5.236   5.597   8.411 -0.6556 -0.2501  0.1105
 7958SOL     OW29835   1.759   1.401   0.060 -0.2054  0.2181  0.1381
 7958SOL    HW129836   1.680   1.384   0.008  0.9064 -0.5384 -1.3378
 7958SOL    HW229837   1.730   1.389   0.151 -1.8014  0.0142 -0.3684
 7959SOL     OW29838   8.351   5.949   8.728 -0.5286  0.0022  0.0605
 7959SOL    HW129839   8.412   5.973   8.658 -1.1293 -1.3433 -0.9637
 7959SOL    HW229840   8.316   6.032   8.759 -1.5153  0.5841 -2.4046
 7960SOL     OW29841   1.321   0.199   0.667 -0.5982 -0.0440  0.2514
 7960SOL    HW129842   1.385   0.269   0.654  1.4472 -1.4962  1.8068
 7960SOL    HW229843   1.345   0.134   0.601 -0.2785 -0.6963  0.9962
 7961SOL     OW29844   3.582   4.170   2.479 -0.2797  0.2343  0.0938
 7961SOL    HW129845   3.672   4.152   2.505 -0.2238 -1.2078 -0.9364
 7961SOL    HW229846   3.565   4.107   2.409 -2.3280 -0.0048  0.7443
 7962SOL     OW29847   4.216   4.712   5.585 -0.3100 -0.1879  0.1839
 7962SOL    HW129848   4.179   4.660   5.513 -0.7791  0.5084 -0.0958
 7962SOL    HW229849   4.189   4.802   5.565  0.6069  0.1827  0.5783
 7963SOL     OW29850   7.955   6.880   2.135  0.5975  0.5061  0.3449
 7963SOL    HW129851   7.924   6.927   2.213 -1.3861  2.3460 -1.4105
 7963SOL    HW229852   7.878   6.833   2.103  0.4554  2.1854 -2.0858
 7964SOL     OW29853   1.198   6.294   9.073 -0.0093  0.7744  0.2997
 7964SOL    HW129854   1.172   6.345   8.996 -0.8593  1.6324  1.1190
 7964SOL    HW229855   1.152   6.337   9.146  0.9650  0.1359  1.3142
 7965SOL     OW29856   2.322   1.085   7.229 -0.1737 -0.1790  0.2826
 7965SOL    HW129857   2.261   1.155   7.206  0.1789  0.7383  1.9401
 7965SOL    HW229858   2.333   1.034   7.148 -1.2835  1.0281 -0.6667
 7966SOL     OW29859   5.893   6.995   5.248  0.1030 -0.7511 -0.0288
 7966SOL    HW129860   5.876   6.992   5.154 -0.0724  0.7203 -0.0620
 7966SOL    HW229861   5.944   7.075   5.261  0.5271 -1.1804  1.0724
 7967SOL     OW29862   8.912   2.077   7.953 -0.0758  0.5625  0.7624
 7967SOL    HW129863   8.947   2.082   7.864 -0.0186  0.6335  0.7887
 7967SOL    HW229864   8.910   2.168   7.983  2.0507  0.3641  1.6570
 7968SOL     OW29865   2.170   7.616   1.218 -0.4602 -0.6551  0.4144
 7968SOL    HW129866   2.178   7.563   1.297 -3.1362 -2.2589 -0.2853
 7968SOL    HW229867   2.185   7.555   1.146  2.8623  0.9562 -0.4532
 7969SOL     OW29868   8.639   7.236   1.078  0.5776  0.5354 -0.1201
 7969SOL    HW129869   8.620   7.312   1.023 -0.2207  0.3632 -0.0989
 7969SOL    HW229870   8.728   7.251   1.110  0.5490  1.3035 -0.3739
 7970SOL     OW29871   6.061   2.427   2.656 -0.7129  0.3245  0.4703
 7970SOL    HW129872   5.975   2.446   2.619  0.2375  1.0578 -1.4821
 7970SOL    HW229873   6.107   2.382   2.586  1.0233  1.3497  0.9048
 7971SOL     OW29874   6.147   0.883   2.046  0.4369  0.0166  0.3854
 7971SOL    HW129875   6.161   0.854   2.137 -2.0200 -0.6428  0.6293
 7971SOL    HW229876   6.198   0.821   1.993  1.9556  0.4465  1.2762
 7972SOL     OW29877   8.232   4.908   3.753 -0.1791 -0.0023  0.3666
 7972SOL    HW129878   8.295   4.859   3.806  1.2173  2.2030  0.8688
 7972SOL    HW229879   8.186   4.963   3.817 -1.9965 -0.8692 -0.1277
 7973SOL     OW29880   3.828   6.266   4.596 -0.0691 -0.1503 -0.2794
 7973SOL    HW129881   3.779   6.196   4.554 -3.3911  1.2484  0.9420
 7973SOL    HW229882   3.794   6.268   4.686 -0.6269  3.3641 -0.4367
 7974SOL     OW29883   8.791   8.252   6.065 -0.0992 -0.0518 -0.3273
 7974SOL    HW129884   8.750   8.295   5.990 -0.1634  1.0173  0.3100
 7974SOL    HW229885   8.747   8.167   6.071  0.6465 -0.6103 -2.1442
 7975SOL     OW29886   3.210   2.341   2.545 -0.3101 -0.3148 -0.0765
 7975SOL    HW129887   3.210   2.249   2.574  1.3993 -0.3482 -0.0947
 7975SOL    HW229888   3.229   2.391   2.623  1.6071 -0.2089 -0.5697
 7976SOL     OW29889   1.329   2.118   5.882 -0.3823 -0.0983 -0.0239
 7976SOL    HW129890   1.274   2.170   5.825  0.2142 -0.4073 -0.9132
 7976SOL    HW229891   1.417   2.126   5.844  0.2805  0.7241  1.5966
 7977SOL     OW29892   0.364   5.133   5.388 -0.4064 -0.2441  0.3715
 7977SOL    HW129893   0.312   5.055   5.405  0.3259 -0.7500  0.3065
 7977SOL    HW229894   0.452   5.110   5.416  0.2967 -0.2104 -1.6322
 7978SOL     OW29895   6.689   6.055   1.928 -0.4107  0.5983  0.4176
 7978SOL    HW129896   6.733   6.052   2.013  0.1042 -1.2404  0.1183
 7978SOL    HW229897   6.715   6.140   1.891 -0.1963  1.1872  1.8350
 7979SOL     OW29898   3.066   2.759   8.856  0.4986 -0.0617  0.3128
 7979SOL    HW129899   3.057   2.735   8.948 -0.7135  4.1618  1.4840
 7979SOL    HW229900   3.153   2.800   8.850 -0.2690  1.6197  0.1655
 7980SOL     OW29901   7.924   3.595   1.313  0.1483 -0.2826  0.2058
 7980SOL    HW129902   7.999   3.635   1.357  0.7150 -0.2978 -0.7067
 7980SOL    HW229903   7.850   3.609   1.372  1.0312 -1.0143  1.5313
 7981SOL     OW29904   4.197   8.644   7.007 -0.0830 -1.0008  0.4979
 7981SOL    HW129905   4.108   8.664   7.036  0.2803  1.8495 -0.0821
 7981SOL    HW229906   4.231   8.584   7.074 -2.3996 -2.1946  0.7086
 7982SOL     OW29907   2.916   4.522   9.003  0.0719  0.0410 -0.0192
 7982SOL    HW129908   2.949   4.601   9.044 -0.3062 -0.3273  1.0451
 7982SOL    HW229909   2.976   4.453   9.031  0.3186 -0.0771 -0.8191
 7983SOL     OW29910   7.589   3.536   0.897  0.2339  0.3283  0.2233
 7983SOL    HW129911   7.530   3.611   0.892  1.4022  1.3171  0.4800
 7983SOL    HW229912   7.676   3.576   0.903  0.8054 -1.0458  1.4852
 7984SOL     OW29913   4.714   6.223   4.984 -0.5568  0.2006 -0.7840
 7984SOL    HW129914   4.788   6.183   4.939  1.4709  1.1126  1.4857
 7984SOL    HW229915   4.754   6.292   5.038 -3.1268  0.9885  0.2447
 7985SOL     OW29916   8.087   7.641   4.961 -0.9337  0.7125 -0.1313
 7985SOL    HW129917   8.025   7.638   5.034  0.9021 -0.4409  1.4630
 7985SOL    HW229918   8.173   7.649   5.002  0.1488  0.3576 -2.1886
 7986SOL     OW29919   1.067   3.224   7.271  0.3899 -0.3561  0.4370
 7986SOL    HW129920   1.043   3.295   7.210 -1.1076 -0.4127  0.9024
 7986SOL    HW229921   1.100   3.154   7.215 -0.5506 -0.2403 -0.2871
 7987SOL     OW29922   7.529   8.835   6.734  0.3037 -0.0676  0.1911
 7987SOL    HW129923   7.586   8.763   6.759 -0.7056 -1.2749 -0.7970
 7987SOL    HW229924   7.443   8.811   6.770  0.3312  1.6348  1.5339
 7988SOL     OW29925   3.501   4.005   0.502 -0.3745 -0.1396 -0.9061
 7988SOL    HW129926   3.577   4.053   0.536  0.8536 -0.4729 -2.9958
 7988SOL    HW229927   3.494   3.929   0.559  1.0351 -0.2134 -0.7745
 7989SOL     OW29928   5.185   3.423   0.916  0.0770  0.4177  0.1640
 7989SOL    HW129929   5.200   3.511   0.950  1.1279  0.8125 -1.2438
 7989SOL    HW229930   5.235   3.419   0.834 -2.5550 -0.3747 -1.5376
 7990SOL     OW29931   6.637   3.128   4.206 -0.6805  0.0023 -0.1681
 7990SOL    HW129932   6.635   3.139   4.301  1.8295  0.0172 -0.0629
 7990SOL    HW229933   6.613   3.215   4.171 -2.1472 -0.1492  0.4093
 7991SOL     OW29934   1.655   1.590   3.967 -0.6963  0.0787 -0.3784
 7991SOL    HW129935   1.573   1.598   3.918 -1.8272  0.3296  1.4481
 7991SOL    HW229936   1.662   1.673   4.015 -1.5639 -1.4232  2.5972
 7992SOL     OW29937   6.095   3.830   3.243 -0.2136 -0.3062  0.2271
 7992SOL    HW129938   6.176   3.787   3.214  0.7206  0.7346  1.1813
 7992SOL    HW229939   6.071   3.887   3.171  0.4091  0.0229  0.2664
 7993SOL     OW29940   6.163   3.725   4.755  0.1017 -0.0670 -0.3977
 7993SOL    HW129941   6.232   3.755   4.696 -0.5380 -0.7035 -1.5165
 7993SOL    HW229942   6.179   3.631   4.765 -0.8804 -0.3344 -1.1082
 7994SOL     OW29943   5.417   4.835   7.638 -0.7153  0.2832 -0.0540
 7994SOL    HW129944   5.368   4.881   7.706  0.3862  0.2694  0.7887
 7994SOL    HW229945   5.408   4.891   7.560 -0.9352  0.9763  0.4559
 7995SOL     OW29946   0.099   7.645   7.317  0.0357 -0.1737  0.6106
 7995SOL    HW129947   0.090   7.552   7.338 -0.5085 -0.2568  0.0411
 7995SOL    HW229948   0.187   7.667   7.347  1.1198 -1.4849 -1.3662
 7996SOL     OW29949   2.376   8.297   6.674 -0.4597 -0.0185 -0.0121
 7996SOL    HW129950   2.462   8.289   6.716 -0.6404  0.5709  0.4816
 7996SOL    HW229951   2.313   8.284   6.745 -0.8161 -1.9797 -0.6387
 7997SOL     OW29952   0.158   3.213   0.309 -0.0041  0.2932  0.1032
 7997SOL    HW129953   0.217   3.239   0.239 -0.2200  0.4377 -0.0262
 7997SOL    HW229954   0.213   3.162   0.369  0.1919  0.2145 -0.1427
 7998SOL     OW29955   5.074   5.041   8.271 -0.2352 -0.3004 -0.6640
 7998SOL    HW129956   5.130   4.974   8.233  0.2578  0.5176 -1.4001
 7998SOL    HW229957   4.985   5.007   8.258  0.0103 -0.8564 -0.9389
 7999SOL     OW29958   5.551   8.815   0.821 -0.4658 -0.2067 -0.0964
 7999SOL    HW129959   5.591   8.895   0.787  0.1163 -0.3185  0.3076
 7999SOL    HW229960   5.603   8.744   0.784 -2.3465 -0.5468 -2.2836
 8000SOL     OW29961   6.471   8.848   1.608  0.1480  0.8759  0.2628
 8000SOL    HW129962   6.553   8.820   1.650 -0.5477 -0.5743  0.7564
 8000SOL    HW229963   6.410   8.777   1.627 -1.4310  2.2399  0.5048
 8001SOL     OW29964   2.083   6.731   7.574 -0.4280  0.3562 -0.6275
 8001SOL    HW129965   2.081   6.677   7.653 -0.1905  0.1185 -0.7823
 8001SOL    HW229966   2.105   6.670   7.504 -0.2238  0.6401 -0.8149
 8002SOL     OW29967   1.366   7.903   4.827  0.6541  0.2677 -0.2659
 8002SOL    HW129968   1.414   7.825   4.855  0.7153  1.3422  3.1118
 8002SOL    HW229969   1.318   7.875   4.749  2.9655 -2.2267 -0.9599
 8003SOL     OW29970   7.233   6.112   4.170  0.4429 -0.1030 -0.1856
 8003SOL    HW129971   7.291   6.053   4.122 -0.3160  0.2957 -1.6742
 8003SOL    HW229972   7.289   6.184   4.199  0.9711 -0.4856 -0.2584
 8004SOL     OW29973   7.691   6.030   5.925 -0.6915  0.0005  0.1004
 8004SOL    HW129974   7.652   6.115   5.904 -0.6987  0.2233  0.9811
 8004SOL    HW229975   7.767   6.023   5.868 -0.6154  0.6598  0.1214
 8005SOL     OW29976   7.119   3.178   5.231  0.2776 -0.2545  0.6473
 8005SOL    HW129977   7.180   3.241   5.192  0.1762  0.0056  0.9046
 8005SOL    HW229978   7.115   3.203   5.323 -0.0293 -0.4257  0.6796
 8006SOL     OW29979   5.070   6.881   0.646  0.0247  0.1262  0.6729
 8006SOL    HW129980   5.084   6.887   0.552  0.9912 -0.1448  0.7947
 8006SOL    HW229981   5.012   6.955   0.666 -0.3146  0.0937 -0.1495
 8007SOL     OW29982   7.478   3.145   3.437  0.0441 -0.3780 -0.3737
 8007SOL    HW129983   7.535   3.070   3.421  0.3043 -0.3989  0.5950
 8007SOL    HW229984   7.419   3.115   3.506 -0.4007  0.0247 -0.5823
 8008SOL     OW29985   4.954   4.317   7.220 -0.3398 -0.0118  0.0734
 8008SOL    HW129986   4.946   4.356   7.133 -0.6517  1.1648  0.6087
 8008SOL    HW229987   4.964   4.391   7.279 -0.3831 -0.7783  1.0814
 8009SOL     OW29988   5.948   8.408   3.688  0.0952  0.9900 -0.7952
 8009SOL    HW129989   5.946   8.321   3.726  0.3756  1.2995 -0.0474
 8009SOL    HW229990   5.866   8.416   3.639 -0.4226  0.6979  0.0118
 8010SOL     OW29991   7.037   4.540   4.633  0.5843  0.3116 -0.4479
 8010SOL    HW129992   7.055   4.497   4.549  0.1544  0.5636 -0.6722
 8010SOL    HW229993   7.058   4.473   4.699  1.3279  0.2521 -0.7318
 8011SOL     OW29994   6.445   2.239   6.433 -0.6266 -0.1587 -0.4939
 8011SOL    HW129995   6.538   2.249   6.417 -0.8294  1.0759 -1.0286
 8011SOL    HW229996   6.416   2.175   6.368 -0.1066 -0.7608 -0.1329
 8012SOL     OW29997   2.356   5.008   9.038 -0.2335 -0.8647  0.4084
 8012SOL    HW129998   2.398   5.034   8.957  0.5662 -0.9875  0.7780
 8012SOL    HW229999   2.359   4.913   9.037  1.2064 -0.8637  1.2922
 8013SOL     OW30000   5.214   6.724   3.397 -0.9028  0.2797 -0.5987
 8013SOL    HW130001   5.302   6.729   3.360 -0.6232  0.8422  0.1265
 8013SOL    HW230002   5.207   6.633   3.428  0.1207  0.7143  0.9943
 8014SOL     OW30003   5.783   1.380   6.340  0.4661 -0.5097 -0.2422
 8014SOL    HW130004   5.865   1.407   6.381  0.3908  0.3701 -0.6385
 8014SOL    HW230005   5.775   1.438   6.264 -1.1227  0.2361  0.4626
 8015SOL     OW30006   3.156   7.191   2.364 -0.0547 -0.3520 -0.1779
 8015SOL    HW130007   3.139   7.098   2.351 -0.7775 -0.2007 -0.3817
 8015SOL    HW230008   3.204   7.195   2.446 -1.6990 -0.7698  0.8570
 8016SOL     OW30009   0.442   4.178   4.248 -0.2158  0.0757  0.0141
 8016SOL    HW130010   0.411   4.268   4.238  2.3261  0.9710 -0.5873
 8016SOL    HW230011   0.454   4.146   4.159 -1.2334 -0.9482  0.2193
 8017SOL     OW30012   5.211   5.873   0.051  0.2484 -0.0406 -0.3156
 8017SOL    HW130013   5.190   5.963   0.078 -0.1267  0.6311 -2.5858
 8017SOL    HW230014   5.254   5.884  -0.034  1.4286 -1.9670 -0.0099
 8018SOL     OW30015   0.581   6.491   1.154  0.5370 -0.3892  0.3837
 8018SOL    HW130016   0.494   6.524   1.134  0.4876 -0.7264  0.0300
 8018SOL    HW230017   0.641   6.559   1.123  0.4279 -0.5179 -0.1209
 8019SOL     OW30018   5.090   0.407   1.883  0.3853 -0.0831 -0.4510
 8019SOL    HW130019   5.140   0.327   1.866  0.3008 -0.4649  0.9544
 8019SOL    HW230020   5.024   0.409   1.814  0.8446 -0.8469 -0.9253
 8020SOL     OW30021   3.875   8.481   5.314  0.5473  0.3886 -0.0044
 8020SOL    HW130022   3.803   8.529   5.275 -1.5564 -2.9147 -0.6005
 8020SOL    HW230023   3.849   8.467   5.405 -0.1883 -1.7161 -0.4818
 8021SOL     OW30024   4.228   5.997   1.309  0.1952  0.7712 -0.4300
 8021SOL    HW130025   4.189   6.070   1.357 -0.5432  0.1091 -0.0009
 8021SOL    HW230026   4.202   5.919   1.357  1.2219  0.2277 -0.7135
 8022SOL     OW30027   8.336   6.669   4.506 -0.0078 -0.2725  0.6121
 8022SOL    HW130028   8.376   6.582   4.510  1.4455  0.1690 -2.1613
 8022SOL    HW230029   8.375   6.716   4.580  1.6921 -1.0597  0.2708
 8023SOL     OW30030   5.232   0.823   6.414  0.2747 -0.1838 -0.1643
 8023SOL    HW130031   5.171   0.768   6.366 -0.1385 -0.4100  0.6050
 8023SOL    HW230032   5.267   0.767   6.483  1.7740 -0.2220 -0.9114
 8024SOL     OW30033   8.730   7.944   5.834  0.5499 -0.0327 -0.0262
 8024SOL    HW130034   8.778   8.013   5.789 -0.5397  1.8502  1.5355
 8024SOL    HW230035   8.640   7.955   5.805  0.2186 -0.2237  0.8953
 8025SOL     OW30036   8.778   4.765   1.981  0.6726  0.3344  0.1741
 8025SOL    HW130037   8.763   4.750   1.888 -0.2262 -2.4344  0.6899
 8025SOL    HW230038   8.692   4.787   2.016  0.5995 -0.6439  0.6510
 8026SOL     OW30039   7.796   6.294   4.824 -0.1560  0.0916  0.2485
 8026SOL    HW130040   7.841   6.209   4.829 -1.2906 -0.5706 -0.5110
 8026SOL    HW230041   7.755   6.304   4.910 -0.9458 -0.6800 -0.0186
 8027SOL     OW30042   0.021   7.436   0.733  0.5005  0.1512  0.4322
 8027SOL    HW130043  -0.062   7.476   0.706  0.1317  0.4292  1.9263
 8027SOL    HW230044  -0.003   7.377   0.804  1.5140 -0.1620  0.5198
 8028SOL     OW30045   2.907   6.443   6.301  0.2730  0.8048  0.5588
 8028SOL    HW130046   3.002   6.432   6.299  0.4239  2.1405 -0.3255
 8028SOL    HW230047   2.893   6.537   6.305 -1.0241  0.6226  0.8827
 8029SOL     OW30048   1.411   5.965   4.470 -0.8935  0.0382  0.0960
 8029SOL    HW130049   1.327   6.005   4.449 -0.4537  0.6149 -0.6001
 8029SOL    HW230050   1.409   5.879   4.427 -1.6548 -0.5320  1.2157
 8030SOL     OW30051   4.426   6.856   5.791  0.0127  0.5432  0.3923
 8030SOL    HW130052   4.509   6.871   5.746 -0.9048  1.4271 -1.0890
 8030SOL    HW230053   4.448   6.856   5.884  1.7357  0.2529  0.0044
 8031SOL     OW30054   0.884   6.282   6.657  0.2900 -0.1949 -0.1298
 8031SOL    HW130055   0.968   6.239   6.674  0.0064 -0.7166  0.0015
 8031SOL    HW230056   0.905   6.375   6.651  1.0228 -0.4116 -1.0833
 8032SOL     OW30057   5.371   3.941   8.594  0.6731  0.1564 -0.5852
 8032SOL    HW130058   5.331   3.988   8.520 -0.5637  1.4264  0.8279
 8032SOL    HW230059   5.297   3.921   8.652  1.6854 -0.3252  0.5748
 8033SOL     OW30060   1.291   5.796   4.090 -0.1469 -0.1279 -0.1092
 8033SOL    HW130061   1.250   5.822   4.007  0.6858  1.8404  0.0386
 8033SOL    HW230062   1.219   5.763   4.143 -0.6882 -1.5616 -1.6270
 8034SOL     OW30063   4.655   7.547   6.842  0.0077 -0.2395  0.2527
 8034SOL    HW130064   4.670   7.461   6.880  1.0000 -0.5929 -0.8845
 8034SOL    HW230065   4.577   7.580   6.886  2.1812  0.3010  4.1982
 8035SOL     OW30066   7.342   5.262   1.329 -0.5927  0.2749  0.1425
 8035SOL    HW130067   7.297   5.346   1.341 -0.9570  0.0237  0.5668
 8035SOL    HW230068   7.278   5.197   1.357 -1.2554 -0.3210 -2.5191
 8036SOL     OW30069   0.729   9.011   2.596  0.7372  0.4196 -0.3744
 8036SOL    HW130070   0.732   8.963   2.679  0.4958  3.3510  1.5035
 8036SOL    HW230071   0.641   9.049   2.593  1.3956  1.9841 -0.9300
 8037SOL     OW30072   6.435   0.671   3.863  0.2214 -0.5607 -0.6011
 8037SOL    HW130073   6.421   0.761   3.893 -0.7336 -1.4877  2.0306
 8037SOL    HW230074   6.503   0.679   3.796 -0.2680  2.1586 -0.9167
 8038SOL     OW30075   7.208   0.527   5.096 -0.4581  0.1915  0.0961
 8038SOL    HW130076   7.258   0.598   5.056 -0.4925 -0.0151 -0.3260
 8038SOL    HW230077   7.237   0.525   5.187  3.0750 -2.2494 -0.8530
 8039SOL     OW30078   7.983   4.397   6.606 -0.0875 -0.0572 -0.3378
 8039SOL    HW130079   7.930   4.317   6.609 -0.1472 -0.0041  0.2099
 8039SOL    HW230080   7.992   4.422   6.698  0.1028  0.4557 -0.4972
 8040SOL     OW30081   2.161   7.438   6.321 -0.4803  1.0930 -0.2070
 8040SOL    HW130082   2.186   7.418   6.231  0.0206  1.3404 -0.1269
 8040SOL    HW230083   2.224   7.504   6.349  1.0383 -0.8565  1.2040
 8041SOL     OW30084   6.908   2.379   3.836 -0.1531  0.2388  0.7287
 8041SOL    HW130085   6.818   2.388   3.866 -0.5188  0.6030 -0.3965
 8041SOL    HW230086   6.944   2.468   3.841 -0.1597  0.2684  0.2911
 8042SOL     OW30087   2.692   8.962   2.500  0.0168 -0.3691 -0.6778
 8042SOL    HW130088   2.711   9.048   2.462 -3.2262  2.2119  2.7410
 8042SOL    HW230089   2.751   8.956   2.576 -3.0725  1.6025  2.1982
 8043SOL     OW30090   2.107   4.918   1.780  0.2882  0.7459 -1.1446
 8043SOL    HW130091   2.148   4.832   1.783  0.8919  0.9873 -2.0565
 8043SOL    HW230092   2.034   4.907   1.719 -0.6910  0.4685  0.0264
 8044SOL     OW30093   5.800   3.325   2.285 -0.1855  0.9788 -0.4268
 8044SOL    HW130094   5.874   3.264   2.279 -1.0901 -0.2740  0.6461
 8044SOL    HW230095   5.816   3.388   2.214  2.2722  1.2000  0.2243
 8045SOL     OW30096   3.637   3.979   8.565  0.0992 -0.3091  0.2439
 8045SOL    HW130097   3.708   3.942   8.618  0.2447  0.7481  0.7950
 8045SOL    HW230098   3.599   4.048   8.620 -0.5240 -0.0042 -0.5577
 8046SOL     OW30099   4.924   5.893   9.036 -0.3423  0.2235  0.0492
 8046SOL    HW130100   4.963   5.819   9.083 -0.1392  0.3841  0.1297
 8046SOL    HW230101   4.871   5.852   8.967 -0.6523 -0.0158  0.4223
 8047SOL     OW30102   7.086   0.626   8.479 -0.5651  0.0796 -0.2332
 8047SOL    HW130103   7.020   0.581   8.426 -0.6812 -1.0156  0.7745
 8047SOL    HW230104   7.163   0.570   8.473 -0.6390 -0.1699  0.8738
 8048SOL     OW30105   5.883   5.905   3.207  0.6358 -0.2493 -0.3218
 8048SOL    HW130106   5.787   5.907   3.217  0.6931  1.0362  0.1750
 8048SOL    HW230107   5.900   5.962   3.132  1.1171  1.1345  0.7928
 8049SOL     OW30108   6.888   4.876   7.211  0.1503 -0.2042  0.1834
 8049SOL    HW130109   6.806   4.921   7.192  1.1420  2.5654  1.8613
 8049SOL    HW230110   6.862   4.788   7.238 -2.0005 -0.3195 -1.9345
 8050SOL     OW30111   8.173   5.637   7.715  0.0858 -0.1841  0.2086
 8050SOL    HW130112   8.168   5.722   7.670  1.0487 -0.8476 -1.2204
 8050SOL    HW230113   8.173   5.573   7.645 -0.5276 -1.3935  1.2720
 8051SOL     OW30114   7.519   5.103   2.431  0.9627  0.2516 -0.2327
 8051SOL    HW130115   7.610   5.092   2.404  1.6139  0.6157  1.6438
 8051SOL    HW230116   7.520   5.179   2.490 -0.5432  0.2485 -0.1623
 8052SOL     OW30117   2.157   2.125   8.838 -0.3114 -0.4267 -0.1621
 8052SOL    HW130118   2.127   2.216   8.841 -0.4639 -0.4788 -0.0440
 8052SOL    HW230119   2.186   2.106   8.928 -0.4326 -0.5430 -0.1466
 8053SOL     OW30120   8.813   5.637   1.512  0.1066 -0.0040 -0.3719
 8053SOL    HW130121   8.888   5.578   1.512  0.4772  0.4588 -0.2239
 8053SOL    HW230122   8.778   5.634   1.423 -0.8712 -1.6822  0.0271
 8054SOL     OW30123   4.489   5.983   0.217  0.1037  0.1521  0.1232
 8054SOL    HW130124   4.534   5.940   0.145  1.1923  0.5511  0.5476
 8054SOL    HW230125   4.406   5.935   0.225 -0.0527  0.1230 -1.3870
 8055SOL     OW30126   6.939   8.771   6.459  0.2315  0.1975  0.2642
 8055SOL    HW130127   6.980   8.687   6.478  0.5056  0.0886 -0.7807
 8055SOL    HW230128   6.856   8.768   6.507  1.6686  0.6978  2.9599
 8056SOL     OW30129   7.285   6.179   2.672 -0.6792  0.1858 -0.5189
 8056SOL    HW130130   7.370   6.160   2.633 -0.3750  2.7348 -1.2420
 8056SOL    HW230131   7.294   6.150   2.763 -0.3775 -3.0050 -1.4173
 8057SOL     OW30132   7.981   9.033   4.612  0.1129 -0.4308 -0.2226
 8057SOL    HW130133   7.958   8.953   4.659  0.6232 -0.3443  0.1903
 8057SOL    HW230134   7.903   9.088   4.617  0.2583 -0.2955  0.8089
 8058SOL     OW30135   6.013   8.718   1.975 -0.0463  0.2480 -0.0222
 8058SOL    HW130136   6.082   8.679   1.922 -0.2773  0.7647 -0.7170
 8058SOL    HW230137   6.046   8.804   1.999 -1.1587  1.2721 -1.9150
 8059SOL     OW30138   3.404   3.011   6.476 -0.5255 -0.7715 -0.0368
 8059SOL    HW130139   3.491   3.051   6.474 -0.7691 -0.2687 -0.8609
 8059SOL    HW230140   3.374   3.024   6.566  0.2309 -0.9146  0.2451
 8060SOL     OW30141   1.581   9.202   0.189  0.1812 -0.4561 -0.2541
 8060SOL    HW130142   1.506   9.156   0.227  0.8728 -0.3064  1.4140
 8060SOL    HW230143   1.633   9.134   0.149  0.4065 -0.9375  0.8203
 8061SOL     OW30144   2.104   6.974   4.997  0.0787 -0.3013 -0.0384
 8061SOL    HW130145   2.027   6.938   5.041  0.4176 -1.2150 -0.1608
 8061SOL    HW230146   2.168   6.903   5.000  1.6332  1.0731  1.7988
 8062SOL     OW30147   9.291   8.855   7.383 -0.9439  0.0008 -0.1769
 8062SOL    HW130148   9.240   8.796   7.438  0.5727 -1.4235 -0.2226
 8062SOL    HW230149   9.369   8.805   7.360  0.0972  1.8096 -0.7757
 8063SOL     OW30150   8.436   4.412   1.517 -0.1668  0.3930  0.0177
 8063SOL    HW130151   8.438   4.317   1.532 -0.7249  0.4035  0.1614
 8063SOL    HW230152   8.481   4.423   1.433 -0.0565  0.0044  0.0225
 8064SOL     OW30153   3.686   5.615   5.018  0.0320  0.2958  0.1495
 8064SOL    HW130154   3.773   5.596   5.053  0.3921 -0.4125 -1.0546
 8064SOL    HW230155   3.701   5.634   4.925 -1.0239  0.8331  0.0671
 8065SOL     OW30156   2.045   6.661   7.819  0.3252 -0.6227  0.0682
 8065SOL    HW130157   1.980   6.591   7.819 -0.3407 -0.0992 -1.8653
 8065SOL    HW230158   2.032   6.706   7.902 -2.4580 -0.0218 -0.5905
 8066SOL     OW30159   6.272   8.980   4.217 -0.2152 -1.0289  0.0123
 8066SOL    HW130160   6.235   9.018   4.138  1.6716 -0.2733 -0.5690
 8066SOL    HW230161   6.224   9.022   4.289 -1.2326 -0.9507 -0.6992
 8067SOL     OW30162   7.627   2.341   3.067 -0.0739  0.3710 -0.1593
 8067SOL    HW130163   7.650   2.262   3.020  0.6048  0.3717  0.1649
 8067SOL    HW230164   7.535   2.357   3.045  0.0006 -0.0947 -0.8013
 8068SOL     OW30165   2.069   4.847   3.057  0.0195  0.0366 -0.3974
 8068SOL    HW130166   2.028   4.771   3.016 -0.1361 -0.3387  0.4368
 8068SOL    HW230167   2.001   4.915   3.054 -0.7474 -0.6229  1.0930
 8069SOL     OW30168   8.507   4.138   1.523  0.4101  0.3052  0.8803
 8069SOL    HW130169   8.434   4.083   1.495  0.9639  0.7694 -1.7259
 8069SOL    HW230170   8.536   4.099   1.606  0.8464 -3.4952 -0.8352
 8070SOL     OW30171   2.276   5.666   6.473  0.1159 -0.0455  0.3146
 8070SOL    HW130172   2.293   5.628   6.559  2.5615  1.9464  0.8238
 8070SOL    HW230173   2.275   5.760   6.488 -1.0758  0.3042 -1.6076
 8071SOL     OW30174   2.908   3.656   2.241 -0.0733 -0.4075 -0.2662
 8071SOL    HW130175   2.920   3.646   2.147  2.3493 -0.8776  0.0037
 8071SOL    HW230176   2.893   3.750   2.254 -1.9667 -0.5431 -1.1981
 8072SOL     OW30177   8.202   3.078   9.222  0.3844 -0.2719 -0.2711
 8072SOL    HW130178   8.161   3.033   9.148  0.7021 -0.4337 -0.3516
 8072SOL    HW230179   8.186   3.171   9.206  1.6444 -0.2072 -1.2720
 8073SOL     OW30180   0.011   5.883   0.436  0.3690 -0.1796  0.3280
 8073SOL    HW130181   0.056   5.960   0.402  0.4776 -0.4538 -0.1598
 8073SOL    HW230182  -0.082   5.907   0.435  0.4754  0.3086  1.1379
 8074SOL     OW30183   4.441   5.688   5.055 -0.6490  0.0891 -0.7185
 8074SOL    HW130184   4.515   5.677   5.115 -1.6518  1.0575  0.7649
 8074SOL    HW230185   4.451   5.776   5.020 -0.8803  0.0784 -0.8137
 8075SOL     OW30186   6.158   0.271   0.120 -0.0037  0.3380 -0.1724
 8075SOL    HW130187   6.236   0.248   0.170 -0.0851  0.5213  0.0388
 8075SOL    HW230188   6.085   0.247   0.177 -0.1177 -0.4782 -0.6452
 8076SOL     OW30189   2.272   9.086   8.393 -0.2229  0.1160 -0.0077
 8076SOL    HW130190   2.324   9.093   8.473 -0.7285  1.1038  0.2426
 8076SOL    HW230191   2.201   9.148   8.405 -0.4671  0.0621 -1.1054
 8077SOL     OW30192   6.907   8.922   7.752 -0.1898 -0.4824 -0.7741
 8077SOL    HW130193   6.973   8.863   7.789  0.0057 -1.7128 -2.9069
 8077SOL    HW230194   6.825   8.874   7.760 -0.7390  0.6406  0.9757
 8078SOL     OW30195   9.210   0.703   6.231 -0.2614 -0.0388  0.3567
 8078SOL    HW130196   9.117   0.722   6.215 -0.3445 -0.1608  0.6776
 8078SOL    HW230197   9.219   0.709   6.327  0.4905  2.0042  0.2178
 8079SOL     OW30198   2.988   9.326   3.071  0.5065 -0.5443 -0.5602
 8079SOL    HW130199   3.067   9.351   3.118  0.4146 -0.8882 -0.2254
 8079SOL    HW230200   2.923   9.391   3.097  0.9053  0.2719 -1.5131
 8080SOL     OW30201   7.674   1.971   5.583  0.5132 -0.1182 -0.1807
 8080SOL    HW130202   7.743   2.000   5.523 -0.2223 -0.1621 -1.0662
 8080SOL    HW230203   7.596   1.964   5.528 -0.5761  1.4160  1.1072
 8081SOL     OW30204   0.631   6.063   0.826  0.2699 -0.0949 -0.2736
 8081SOL    HW130205   0.666   6.102   0.746 -1.7034  0.2144 -1.0472
 8081SOL    HW230206   0.577   6.132   0.864 -0.8276 -1.0599 -0.0348
 8082SOL     OW30207   3.150   1.184   1.410 -0.0107 -0.1180  0.2006
 8082SOL    HW130208   3.240   1.158   1.389  1.0869  2.5435  1.1147
 8082SOL    HW230209   3.102   1.101   1.419  2.1773 -1.5999 -0.9588
 8083SOL     OW30210   1.758   0.611   6.401  0.3732 -0.2303  0.8046
 8083SOL    HW130211   1.777   0.524   6.367  1.4866  0.2972 -0.0056
 8083SOL    HW230212   1.665   0.625   6.382  0.5775 -0.6151 -0.5574
 8084SOL     OW30213   6.210   8.643   2.695 -0.1825 -0.0672 -0.1052
 8084SOL    HW130214   6.209   8.598   2.779  0.3728  1.6068  0.8554
 8084SOL    HW230215   6.285   8.702   2.701  0.4951 -0.6205 -2.1906
 8085SOL     OW30216   4.362   5.785   7.545 -0.2441 -0.0087 -0.7106
 8085SOL    HW130217   4.386   5.843   7.473 -0.9091  0.2379 -0.7368
 8085SOL    HW230218   4.269   5.766   7.531 -1.3547  2.6835  1.8604
 8086SOL     OW30219   0.425   3.666   2.383  0.1477 -0.1164 -0.2962
 8086SOL    HW130220   0.451   3.629   2.468  3.0114  0.2181 -0.9076
 8086SOL    HW230221   0.388   3.751   2.404 -0.9475 -0.8073  0.7155
 8087SOL     OW30222   6.601   4.171   8.914  0.2908 -0.1648 -0.2346
 8087SOL    HW130223   6.538   4.125   8.858  0.4045 -0.5883 -0.0161
 8087SOL    HW230224   6.650   4.227   8.854 -1.0252  1.0205 -0.2821
 8088SOL     OW30225   1.533   8.558   4.817 -0.4403  0.0479  0.1912
 8088SOL    HW130226   1.594   8.499   4.774  0.2172  1.4358 -0.8199
 8088SOL    HW230227   1.449   8.511   4.814  0.2921 -1.3611  0.5549
 8089SOL     OW30228   1.321   3.355   1.793 -0.0356 -0.4544  0.1595
 8089SOL    HW130229   1.372   3.379   1.715  0.0674  0.2112  0.4177
 8089SOL    HW230230   1.232   3.342   1.761  0.0542 -0.4158 -0.1096
 8090SOL     OW30231   4.485   8.008   4.134  0.3322  0.6960  0.1199
 8090SOL    HW130232   4.450   7.993   4.221  1.9709 -0.3259  0.6473
 8090SOL    HW230233   4.440   7.944   4.078  0.4850  0.2123  0.5478
 8091SOL     OW30234   6.761   2.662   4.657  0.7135 -0.5641 -0.3755
 8091SOL    HW130235   6.838   2.719   4.666  1.7767 -2.0835  0.5474
 8091SOL    HW230236   6.686   2.722   4.663  1.7617  0.6765  1.3696
 8092SOL     OW30237   0.533   8.632   4.083 -0.4696 -0.0566 -0.0980
 8092SOL    HW130238   0.441   8.658   4.080 -0.2171  0.8593 -0.2471
 8092SOL    HW230239   0.541   8.579   4.163 -1.0333  0.2085  0.1358
 8093SOL     OW30240   2.730   8.823   1.805 -0.1275 -0.4288  0.5441
 8093SOL    HW130241   2.738   8.771   1.725  0.0720  1.1984 -0.5598
 8093SOL    HW230242   2.818   8.824   1.841 -0.0350 -0.5056  0.3262
 8094SOL     OW30243   3.846   8.679   0.382 -0.4751 -0.7196  0.0153
 8094SOL    HW130244   3.930   8.638   0.402 -0.7370 -1.1601  0.2148
 8094SOL    HW230245   3.862   8.773   0.393  0.2372 -0.7265 -0.8453
 8095SOL     OW30246   4.429   2.176   7.793  0.5285  0.0766 -0.2984
 8095SOL    HW130247   4.376   2.097   7.798 -1.0382  1.0593 -0.6942
 8095SOL    HW230248   4.517   2.147   7.816 -0.3622 -1.3969  1.5429
 8096SOL     OW30249   2.943   2.348   5.542  0.3744  0.6943 -0.3277
 8096SOL    HW130250   2.874   2.331   5.477 -0.5151  0.0930  0.7364
 8096SOL    HW230251   2.895   2.368   5.623  1.4577  1.0320  0.2509
 8097SOL     OW30252   6.084   2.801   2.520  0.8989  0.2288 -0.1654
 8097SOL    HW130253   6.029   2.764   2.451 -0.3436  0.4702  0.6686
 8097SOL    HW230254   6.119   2.881   2.482  0.2800  0.3241 -0.5487
 8098SOL     OW30255   0.567   0.332   1.999  0.3582 -0.1146  0.1650
 8098SOL    HW130256   0.632   0.328   1.928  0.6902 -3.0629  0.5167
 8098SOL    HW230257   0.611   0.290   2.073 -1.3779 -0.6195  0.9373
 8099SOL     OW30258   6.504   4.108   0.902 -0.2031  0.1603 -0.1340
 8099SOL    HW130259   6.543   4.159   0.973  0.6219 -0.0895 -0.4051
 8099SOL    HW230260   6.578   4.079   0.849 -0.8470  1.5776 -1.9523
 8100SOL     OW30261   0.214   2.662   1.625 -0.3289  0.4619 -0.1136
 8100SOL    HW130262   0.274   2.629   1.558  0.2095 -0.8120  0.9428
 8100SOL    HW230263   0.235   2.755   1.632 -1.5607  1.0195 -2.8601
 8101SOL     OW30264   3.040   5.190   6.691  0.3111 -0.0882  0.4667
 8101SOL    HW130265   3.048   5.229   6.778  1.0884 -0.4971  0.5857
 8101SOL    HW230266   2.961   5.135   6.697  0.1700  0.1422  0.8038
 8102SOL     OW30267   4.388   1.160   6.729  0.2637  0.0309  0.1503
 8102SOL    HW130268   4.298   1.141   6.756  0.2689  0.9037  0.8180
 8102SOL    HW230269   4.424   1.074   6.707 -0.8523 -0.2914 -0.5264
 8103SOL     OW30270   0.088   3.605   8.300  0.0582 -0.0474  0.1189
 8103SOL    HW130271   0.121   3.629   8.213 -0.9136 -0.3156 -0.3298
 8103SOL    HW230272   0.059   3.515   8.291 -0.3910  0.0421  0.6253
 8104SOL     OW30273   2.721   6.108   0.878 -0.4943 -0.0783  0.2229
 8104SOL    HW130274   2.761   6.137   0.960  0.3525 -1.9161  0.5015
 8104SOL    HW230275   2.673   6.185   0.847  1.3255  1.4882  1.0725
 8105SOL     OW30276   9.145   8.243   5.029  0.1841 -0.3281  0.1127
 8105SOL    HW130277   9.080   8.313   5.038  0.2344 -0.2735  0.0550
 8105SOL    HW230278   9.182   8.234   5.117 -0.8928 -1.3446  0.4868
 8106SOL     OW30279   8.182   4.977   8.178  0.1603 -0.3199 -0.1744
 8106SOL    HW130280   8.111   4.929   8.221  0.0049 -0.2135 -0.3124
 8106SOL    HW230281   8.256   4.968   8.238 -0.3423  0.7195  0.6305
 8107SOL     OW30282   4.421   4.912   8.108 -0.4385 -0.2445 -1.0037
 8107SOL    HW130283   4.325   4.906   8.105 -0.3753 -1.7797 -0.6955
 8107SOL    HW230284   4.451   4.829   8.072  0.7349 -0.7775  1.0501
 8108SOL     OW30285   3.734   3.524   0.429 -0.1418  0.4580  0.1620
 8108SOL    HW130286   3.698   3.481   0.352 -0.3025  1.5707 -0.3971
 8108SOL    HW230287   3.757   3.452   0.488 -0.9530 -0.3655 -0.4985
 8109SOL     OW30288   2.663   0.208   9.071  0.4839 -0.3503  0.0359
 8109SOL    HW130289   2.639   0.296   9.041 -2.2298 -0.9573  0.2019
 8109SOL    HW230290   2.663   0.214   9.166 -2.5188 -1.0996  0.1645
 8110SOL     OW30291   4.132   9.238   8.175 -0.3232 -0.0838 -0.3161
 8110SOL    HW130292   4.074   9.221   8.101  0.5064 -4.0100 -0.2673
 8110SOL    HW230293   4.092   9.191   8.248  1.3472 -0.3684  0.4605
 8111SOL     OW30294   7.265   3.502   8.401  0.3419  0.0448  0.0366
 8111SOL    HW130295   7.175   3.530   8.417  1.1036  1.7767  1.5986
 8111SOL    HW230296   7.304   3.574   8.352  1.3170  0.0473  0.7951
 8112SOL     OW30297   7.072   2.324   1.803 -0.0884  0.0833 -0.6879
 8112SOL    HW130298   6.996   2.268   1.789  0.0830 -0.7589  1.4333
 8112SOL    HW230299   7.051   2.405   1.756 -1.7056 -0.6103 -1.2218
 8113SOL     OW30300   7.930   8.668   1.547  0.8806 -0.3432 -0.2216
 8113SOL    HW130301   7.858   8.646   1.606  1.4600  1.5623  1.2977
 8113SOL    HW230302   8.009   8.658   1.600  1.4933  0.4252 -0.9615
 8114SOL     OW30303   0.754   7.561   4.938  0.0171  0.0216  0.3427
 8114SOL    HW130304   0.737   7.621   5.011  0.6665  1.8930 -0.9787
 8114SOL    HW230305   0.846   7.576   4.916 -0.2331 -0.3302 -1.0050
 8115SOL     OW30306   7.976   0.570   4.656  0.0681 -0.5714 -0.3827
 8115SOL    HW130307   7.922   0.644   4.683 -2.8335 -2.4688 -0.5810
 8115SOL    HW230308   8.040   0.560   4.726 -0.5623  1.0684  0.4790
 8116SOL     OW30309   5.959   2.798   8.786  0.0355 -0.2690 -0.0866
 8116SOL    HW130310   5.867   2.821   8.793  0.2882  0.9240 -0.5549
 8116SOL    HW230311   5.994   2.856   8.719  1.5431  0.6033  1.3774
 8117SOL     OW30312   8.993   2.158   3.892  0.5003  0.1584 -0.0396
 8117SOL    HW130313   8.946   2.173   3.810 -1.2441 -0.2585  0.8398
 8117SOL    HW230314   8.952   2.080   3.929  2.2918 -0.5624  0.5237
 8118SOL     OW30315   6.082   3.629   5.193  0.4728  0.3830  0.2658
 8118SOL    HW130316   6.131   3.558   5.234  0.1483 -0.0042  0.0019
 8118SOL    HW230317   6.122   3.640   5.106 -0.1245 -0.1826 -0.0929
 8119SOL     OW30318   3.104   2.261   4.127 -0.0931  0.4596  0.0202
 8119SOL    HW130319   3.101   2.275   4.221 -0.1465 -0.7268  0.2071
 8119SOL    HW230320   3.033   2.200   4.109  1.1224 -0.8658 -0.4814
 8120SOL     OW30321   1.691   2.587   8.163 -0.1258  0.3031 -0.8504
 8120SOL    HW130322   1.693   2.660   8.225 -0.2240  0.7093 -1.3209
 8120SOL    HW230323   1.599   2.579   8.138 -0.1380 -0.0814 -0.6856
 8121SOL     OW30324   9.276   3.074   6.394  0.5167 -0.4136 -0.3642
 8121SOL    HW130325   9.371   3.077   6.381  0.6486 -1.6091  0.2085
 8121SOL    HW230326   9.258   2.983   6.416 -0.4511  0.2966  2.0018
 8122SOL     OW30327   3.464   6.402   4.573 -0.4009 -0.4301 -0.1972
 8122SOL    HW130328   3.483   6.330   4.512  0.1855 -0.9611  0.5929
 8122SOL    HW230329   3.385   6.372   4.619 -0.4622 -0.3267 -0.2356
 8123SOL     OW30330   8.725   3.064   5.913 -0.6162  0.2668  0.3054
 8123SOL    HW130331   8.780   3.052   5.991 -0.8970  0.0672  0.4753
 8123SOL    HW230332   8.694   2.976   5.892 -1.3823  0.4575  0.5905
 8124SOL     OW30333   2.741   8.192   0.642  0.5215 -0.4820  0.1833
 8124SOL    HW130334   2.724   8.272   0.691  0.8213 -0.6194  0.5127
 8124SOL    HW230335   2.666   8.184   0.583 -0.4175 -0.8962  1.3858
 8125SOL     OW30336   8.029   8.371   1.942  0.2589 -0.0457 -0.0401
 8125SOL    HW130337   8.076   8.324   1.874  0.9654  0.9822 -0.2835
 8125SOL    HW230338   7.936   8.359   1.920  0.4582 -0.3837 -0.7246
 8126SOL     OW30339   6.027   2.711   7.104  0.2800 -0.1207  0.0528
 8126SOL    HW130340   5.988   2.654   7.037  0.5727  0.5817 -0.7312
 8126SOL    HW230341   6.121   2.699   7.093  0.3789  1.2973 -0.8408
 8127SOL     OW30342   8.415   7.296   8.365 -0.4536 -0.3993 -0.5049
 8127SOL    HW130343   8.417   7.256   8.278 -0.4813  0.6063 -0.9883
 8127SOL    HW230344   8.473   7.242   8.418  0.5234 -0.3284 -1.4665
 8128SOL     OW30345   2.403   5.160   2.558  0.1572 -0.3104 -0.4135
 8128SOL    HW130346   2.476   5.189   2.612 -0.9512  0.0598  0.9413
 8128SOL    HW230347   2.363   5.089   2.608 -0.3034 -0.6339 -1.2228
 8129SOL     OW30348   3.440   1.747   4.910 -0.3748  0.5874 -0.2443
 8129SOL    HW130349   3.402   1.822   4.863 -1.1463  0.3276 -0.0530
 8129SOL    HW230350   3.365   1.707   4.954 -0.0587 -0.6010 -0.7601
 8130SOL     OW30351   4.324   4.650   0.469  0.1947 -0.6573 -0.0751
 8130SOL    HW130352   4.392   4.583   0.459 -0.1761 -1.1584  0.6769
 8130SOL    HW230353   4.350   4.719   0.408  0.5397 -1.5180 -0.9452
 8131SOL     OW30354   2.813   6.935   6.541 -0.2223 -0.0494 -0.3260
 8131SOL    HW130355   2.728   6.959   6.504 -0.0952  0.5763 -0.2294
 8131SOL    HW230356   2.873   7.003   6.509  0.1414 -0.2138 -0.0020
 8132SOL     OW30357   0.846   5.640   5.288  0.3393  0.0957  0.2184
 8132SOL    HW130358   0.828   5.609   5.377  1.3872  0.4501  0.5650
 8132SOL    HW230359   0.807   5.574   5.231 -1.0558  0.2626  0.9241
 8133SOL     OW30360   1.230   4.064   0.062  0.4045  0.1751  0.8933
 8133SOL    HW130361   1.202   4.107  -0.019 -1.3268 -0.7476  0.9543
 8133SOL    HW230362   1.198   3.974   0.053 -1.5077  0.4952  3.3394
 8134SOL     OW30363   7.490   3.324   7.145 -0.3537  0.3391 -0.0307
 8134SOL    HW130364   7.512   3.383   7.073 -0.7817  0.2123 -0.2685
 8134SOL    HW230365   7.574   3.303   7.186 -0.1702  0.8626 -0.1391
 8135SOL     OW30366   6.562   2.183   1.848 -0.4300 -0.4928 -0.5141
 8135SOL    HW130367   6.523   2.270   1.856 -1.2676 -0.9029 -0.0285
 8135SOL    HW230368   6.494   2.130   1.807  0.1252 -0.8935 -0.9323
 8136SOL     OW30369   6.477   5.217   8.852 -0.0878 -0.2094  0.0090
 8136SOL    HW130370   6.422   5.147   8.818 -0.2824  0.3259 -0.8164
 8136SOL    HW230371   6.436   5.298   8.821  0.1984  0.2776  0.8326
 8137SOL     OW30372   4.755   7.918   1.440 -0.1174  0.1585 -0.0459
 8137SOL    HW130373   4.692   7.848   1.458 -0.2743  0.0864 -0.8434
 8137SOL    HW230374   4.801   7.930   1.523 -0.0413 -0.9407  0.0902
 8138SOL     OW30375   1.017   2.982   8.623 -0.4845  0.7290 -0.1001
 8138SOL    HW130376   0.957   3.057   8.623 -0.2216  0.9386 -0.2391
 8138SOL    HW230377   1.055   2.981   8.535 -2.1285 -0.8838 -0.8633
 8139SOL     OW30378   5.899   7.283   3.693  0.1486  0.0548  0.1180
 8139SOL    HW130379   5.934   7.205   3.735 -0.4430 -1.1087 -1.4418
 8139SOL    HW230380   5.823   7.252   3.644 -1.1890  1.9348  0.8762
 8140SOL     OW30381   3.697   6.822   1.277 -0.0538 -0.8191  0.4798
 8140SOL    HW130382   3.705   6.909   1.317  2.5826 -2.6983  4.7642
 8140SOL    HW230383   3.753   6.826   1.199 -1.2676  1.6761 -0.3579
 8141SOL     OW30384   8.567   6.169   1.335  0.0039 -0.2131 -0.3796
 8141SOL    HW130385   8.534   6.189   1.247 -2.0634 -0.9018  0.1683
 8141SOL    HW230386   8.490   6.177   1.392  1.7220  2.6457  1.8445
 8142SOL     OW30387   6.720   6.877   6.064  0.4392 -0.1714 -0.5248
 8142SOL    HW130388   6.726   6.883   6.159  0.8886 -1.4039 -0.4603
 8142SOL    HW230389   6.764   6.956   6.033 -3.0747  2.3538  0.2666
 8143SOL     OW30390   3.670   7.626   9.333 -0.5131 -0.2166 -0.3518
 8143SOL    HW130391   3.673   7.704   9.389 -1.0403 -0.4641  0.0315
 8143SOL    HW230392   3.754   7.584   9.346 -0.2499  0.2561 -0.5106
 8144SOL     OW30393   9.058   9.018   3.475  0.6032 -0.0350  0.1516
 8144SOL    HW130394   9.053   8.924   3.460  1.1347  0.1705 -1.4698
 8144SOL    HW230395   8.981   9.054   3.430  1.1619  0.4279 -0.4495
 8145SOL     OW30396   4.557   3.556   1.786 -0.0053  0.0000  0.5347
 8145SOL    HW130397   4.548   3.569   1.880  0.0727  1.6764  0.3484
 8145SOL    HW230398   4.466   3.551   1.754 -0.1161  1.5877  0.4823
 8146SOL     OW30399   9.157   4.179   1.573  0.5012  0.4204  0.6299
 8146SOL    HW130400   9.074   4.226   1.561  0.4826 -0.0347 -1.4872
 8146SOL    HW230401   9.200   4.223   1.646 -1.0091  1.5271  0.8919
 8147SOL     OW30402   7.617   6.417   9.090 -0.1913 -0.2644 -0.2234
 8147SOL    HW130403   7.607   6.494   9.147  0.3756 -0.7314  0.5374
 8147SOL    HW230404   7.691   6.370   9.128  0.0885 -0.6781 -1.2703
 8148SOL     OW30405   1.289   0.812   5.776 -0.1772 -0.1206  0.4481
 8148SOL    HW130406   1.332   0.754   5.714 -0.3835 -0.0789  0.2651
 8148SOL    HW230407   1.360   0.853   5.825  0.0197  0.6174 -0.4415
 8149SOL     OW30408   5.745   5.523   2.669 -0.4269  0.0851 -0.1430
 8149SOL    HW130409   5.769   5.438   2.705 -0.0401  0.5987  0.8573
 8149SOL    HW230410   5.725   5.506   2.577  0.1987 -0.9846 -0.0938
 8150SOL     OW30411   7.851   6.956   8.080  0.1966  0.1096 -0.3588
 8150SOL    HW130412   7.851   6.992   8.168 -0.4666 -1.5039  0.3384
 8150SOL    HW230413   7.817   6.867   8.090  2.3034 -0.9460 -1.9029
 8151SOL     OW30414   1.706   8.059   7.704  0.4583 -0.2774  0.4328
 8151SOL    HW130415   1.774   8.002   7.741 -0.2698 -1.3690  0.1485
 8151SOL    HW230416   1.649   8.078   7.778 -0.3791 -1.5524  0.1569
 8152SOL     OW30417   0.157   7.648   3.857  0.2570  0.0844 -0.3657
 8152SOL    HW130418   0.137   7.727   3.908  0.3164 -0.4107  0.4317
 8152SOL    HW230419   0.137   7.575   3.916  0.6755 -0.4939 -0.9255
 8153SOL     OW30420   4.802   3.113   8.630 -0.8303 -0.3088 -0.0652
 8153SOL    HW130421   4.894   3.088   8.620 -0.4406  1.2821 -0.8061
 8153SOL    HW230422   4.761   3.091   8.546 -0.4573  1.4593 -0.7715
 8154SOL     OW30423   0.137   4.080   1.496  0.1746 -0.6826  0.3511
 8154SOL    HW130424   0.209   4.061   1.557 -0.1599 -1.2320  0.5804
 8154SOL    HW230425   0.177   4.077   1.409  0.4243 -0.9878  0.4779
 8155SOL     OW30426   4.469   2.835   7.140 -0.0667 -0.1618 -0.1970
 8155SOL    HW130427   4.386   2.879   7.158 -0.0071 -0.9824  2.6839
 8155SOL    HW230428   4.524   2.902   7.100 -1.9388  0.4964 -1.8438
 8156SOL     OW30429   0.157   4.943   3.176  0.7951  0.6133 -0.6454
 8156SOL    HW130430   0.128   4.861   3.217  1.3594  0.1770 -1.1103
 8156SOL    HW230431   0.078   4.977   3.134  0.3771  0.7041  0.1990
 8157SOL     OW30432   8.971   3.520   5.688  0.3463  0.0260  0.1022
 8157SOL    HW130433   8.961   3.430   5.719  2.6298 -0.1398  0.5611
 8157SOL    HW230434   9.003   3.512   5.599 -1.5873  0.4617 -0.6787
 8158SOL     OW30435   4.134   4.242   6.169 -0.6079 -0.2883  0.1035
 8158SOL    HW130436   4.098   4.215   6.085 -2.5288  1.8054  0.1550
 8158SOL    HW230437   4.077   4.313   6.198  1.1119  0.3241  2.2953
 8159SOL     OW30438   6.567   1.046   7.681  0.0800 -0.3373  0.5611
 8159SOL    HW130439   6.484   1.034   7.726 -0.0729  0.9197  0.6683
 8159SOL    HW230440   6.622   1.095   7.743  0.3124  0.2823 -0.1099
 8160SOL     OW30441   7.223   4.395   7.447  0.0681  0.0190  0.2381
 8160SOL    HW130442   7.229   4.446   7.527  0.5655  0.6983 -0.2232
 8160SOL    HW230443   7.145   4.340   7.459  0.8119 -0.7594  1.6710
 8161SOL     OW30444   4.005   7.733   8.511 -0.1074 -0.5048 -0.3158
 8161SOL    HW130445   3.962   7.724   8.596  1.9192 -1.1011  0.7088
 8161SOL    HW230446   4.072   7.665   8.510  0.9296  0.4675 -1.7503
 8162SOL     OW30447   4.480   1.807   1.725 -0.6018  0.0975 -0.6838
 8162SOL    HW130448   4.448   1.850   1.804 -1.4974 -1.4844 -0.1315
 8162SOL    HW230449   4.418   1.736   1.710  0.2735 -0.4137 -2.0921
 8163SOL     OW30450   4.543   6.712   4.617 -0.1871 -0.0496  0.0886
 8163SOL    HW130451   4.582   6.759   4.691  0.5941  0.7323 -0.7869
 8163SOL    HW230452   4.453   6.745   4.613 -0.0191  0.4463  0.2543
 8164SOL     OW30453   0.976   1.213   2.333  0.3330  0.0165  0.8892
 8164SOL    HW130454   0.903   1.258   2.374 -0.9075 -0.2530 -0.8935
 8164SOL    HW230455   1.036   1.283   2.307  1.2780  0.1728  3.2606
 8165SOL     OW30456   7.306   0.038   7.726 -0.4960 -0.6083  0.2949
 8165SOL    HW130457   7.370   0.044   7.797  0.7866 -2.3702 -0.6276
 8165SOL    HW230458   7.229  -0.002   7.766 -0.3599 -0.1758  1.0115
 8166SOL     OW30459   5.260   4.172   6.377  0.5095  0.3167  0.5778
 8166SOL    HW130460   5.264   4.259   6.416  2.8937  0.1326  0.8624
 8166SOL    HW230461   5.277   4.186   6.284  1.1860  0.1485  0.6700
 8167SOL     OW30462   6.019   6.594   5.992 -0.3284 -0.1861  0.3983
 8167SOL    HW130463   5.927   6.578   5.971 -0.3507  0.0914  0.2866
 8167SOL    HW230464   6.031   6.553   6.078 -0.5829 -0.1246  0.4644
 8168SOL     OW30465   4.871   5.470   4.361 -0.0913  0.5495  0.3135
 8168SOL    HW130466   4.776   5.480   4.366 -0.4241 -1.9420  0.3154
 8168SOL    HW230467   4.905   5.535   4.423 -1.8071  1.1252  0.7107
 8169SOL     OW30468   0.250   3.262   8.257 -0.2145 -0.3873 -0.2129
 8169SOL    HW130469   0.292   3.333   8.208  0.1650  0.5242  1.3619
 8169SOL    HW230470   0.236   3.193   8.192  1.8885  0.0595 -1.2203
 8170SOL     OW30471   4.884   5.230   0.078 -0.5099 -0.8549  0.1636
 8170SOL    HW130472   4.888   5.208   0.171  0.9907 -0.5929  0.1887
 8170SOL    HW230473   4.882   5.145   0.033 -5.0776 -1.1166  0.4288
 8171SOL     OW30474   7.343   6.562   6.018  0.0214  0.0014  0.6066
 8171SOL    HW130475   7.377   6.473   6.027 -0.6969 -0.1143  2.8320
 8171SOL    HW230476   7.411   6.618   6.055 -0.4824  0.1367  1.3568
 8172SOL     OW30477   1.020   8.120   3.889 -0.4219 -0.6236  0.1946
 8172SOL    HW130478   1.012   8.209   3.925  0.2350 -0.9366  1.1495
 8172SOL    HW230479   1.107   8.091   3.916  0.3035 -0.7297 -2.0520
 8173SOL     OW30480   3.157   7.126   1.254 -1.0127  0.3212  0.1214
 8173SOL    HW130481   3.232   7.127   1.312  0.0206 -0.5362 -1.1439
 8173SOL    HW230482   3.094   7.186   1.294 -0.4660 -0.4318  2.2414
 8174SOL     OW30483   0.321   1.603   2.765 -0.0530  0.1045 -0.1847
 8174SOL    HW130484   0.282   1.682   2.803  0.4146 -0.4261  1.5249
 8174SOL    HW230485   0.330   1.543   2.840 -1.3513 -1.9794 -1.5783
 8175SOL     OW30486   7.132   1.172   4.277 -0.7592 -0.3450  0.0561
 8175SOL    HW130487   7.083   1.247   4.244  0.0542  0.3282  0.3475
 8175SOL    HW230488   7.222   1.204   4.286 -0.3743 -1.3956  0.0595
 8176SOL     OW30489   7.376   7.550   2.840 -0.3180  0.3847  0.4863
 8176SOL    HW130490   7.307   7.585   2.785 -0.6542 -0.1497  0.5625
 8176SOL    HW230491   7.456   7.592   2.808 -0.7089  1.2498  0.6095
 8177SOL     OW30492   0.516   7.460   8.915 -0.2307 -0.3250 -0.5905
 8177SOL    HW130493   0.611   7.453   8.910 -0.3048 -1.4756 -0.5899
 8177SOL    HW230494   0.487   7.463   8.824 -0.1978  0.0097 -0.5908
 8178SOL     OW30495   8.589   5.980   9.284 -0.1089  0.1504 -0.1564
 8178SOL    HW130496   8.513   6.003   9.232  1.6792  0.1665 -2.9607
 8178SOL    HW230497   8.633   5.911   9.234  0.5825 -1.4553  2.4712
 8179SOL     OW30498   7.396   3.389   2.868  0.0951  0.6326 -0.1864
 8179SOL    HW130499   7.477   3.339   2.875 -0.0729  0.3967  0.1189
 8179SOL    HW230500   7.423   3.480   2.870  0.3864  0.5553 -0.5161
 8180SOL     OW30501   3.441   5.799   3.589  0.0926  0.0785 -0.1737
 8180SOL    HW130502   3.469   5.831   3.675 -0.2718  0.2854 -0.1290
 8180SOL    HW230503   3.522   5.774   3.545  0.2963  0.1385  0.1636
 8181SOL     OW30504   4.409   3.245   8.281 -0.2038 -0.0029 -0.2369
 8181SOL    HW130505   4.343   3.287   8.337  0.3134 -0.2033  0.5322
 8181SOL    HW230506   4.369   3.246   8.194 -1.1007  0.1510  0.1572
 8182SOL     OW30507   1.928   1.493   1.922 -0.3094  0.3919 -0.3535
 8182SOL    HW130508   2.008   1.460   1.882 -1.1913 -0.7683 -1.2056
 8182SOL    HW230509   1.860   1.479   1.856 -1.4607  0.1285  0.8461
 8183SOL     OW30510   1.422   1.082   7.422  0.1560 -0.0828 -0.3440
 8183SOL    HW130511   1.340   1.091   7.372 -0.7441 -2.0233  0.6595
 8183SOL    HW230512   1.488   1.059   7.357 -0.6209 -0.8250 -0.8928
 8184SOL     OW30513   2.469   1.148   7.922  0.2926  0.2493  0.6460
 8184SOL    HW130514   2.524   1.070   7.927  0.5660  0.3096 -0.8175
 8184SOL    HW230515   2.462   1.179   8.012  0.3135 -1.3645  1.2407
 8185SOL     OW30516   7.977   8.056   1.377 -0.0600  0.3466 -0.2314
 8185SOL    HW130517   7.905   8.072   1.316  0.4351  1.1812 -0.6126
 8185SOL    HW230518   7.963   7.967   1.408 -1.7676  0.8057  0.4012
 8186SOL     OW30519   5.789   6.503   1.657 -0.0795  0.0197 -0.0789
 8186SOL    HW130520   5.715   6.550   1.618 -0.8408 -1.0498  0.0291
 8186SOL    HW230521   5.866   6.537   1.612 -0.7124  0.5790 -0.7570
 8187SOL     OW30522   6.826   0.582   5.902 -0.2482 -0.5559  0.0753
 8187SOL    HW130523   6.795   0.501   5.943  1.2323 -1.0944  0.1590
 8187SOL    HW230524   6.904   0.606   5.952 -1.8611  2.2074  1.5486
 8188SOL     OW30525   0.592   3.364   6.917  0.3097 -0.2176 -0.1754
 8188SOL    HW130526   0.629   3.354   6.829 -0.3916  1.7223 -0.7459
 8188SOL    HW230527   0.499   3.383   6.902  0.4229  1.3910  0.8784
 8189SOL     OW30528   4.906   4.203   5.175  0.1513 -0.3260  0.3202
 8189SOL    HW130529   4.881   4.152   5.251 -1.1751  0.2008  0.2775
 8189SOL    HW230530   4.872   4.153   5.100  0.4774 -0.3021  0.1557
 8190SOL     OW30531   7.585   2.330   8.748  0.0476  0.1856  0.1872
 8190SOL    HW130532   7.655   2.323   8.812  0.0181  0.7259  0.2781
 8190SOL    HW230533   7.563   2.423   8.745 -1.6604 -0.1403  1.2185
 8191SOL     OW30534   0.488   1.256   4.753  0.4091 -0.2312 -0.4721
 8191SOL    HW130535   0.462   1.312   4.680  1.4118  2.3585  1.0274
 8191SOL    HW230536   0.408   1.243   4.804 -0.2592 -1.9214 -1.8634
 8192SOL     OW30537   0.799   8.281   6.533  0.1520  0.1909  0.0394
 8192SOL    HW130538   0.819   8.209   6.593  0.8098  2.5661  2.8704
 8192SOL    HW230539   0.871   8.281   6.471  2.1416  0.5684  2.2215
 8193SOL     OW30540   5.564   5.627   3.574  0.1816  0.4411 -0.6062
 8193SOL    HW130541   5.656   5.602   3.580 -0.0081 -0.0692  0.2938
 8193SOL    HW230542   5.525   5.560   3.518 -0.0996 -0.7225  0.9070
 8194SOL     OW30543   4.289   3.664   7.144 -0.1341  0.2747 -0.6385
 8194SOL    HW130544   4.379   3.696   7.156  0.2874 -1.1270  0.0459
 8194SOL    HW230545   4.281   3.652   7.049  0.6143 -0.1922 -0.6491
 8195SOL     OW30546   1.098   0.037   9.213  0.2834 -0.2056  0.2840
 8195SOL    HW130547   1.193   0.043   9.209  0.2012  0.6864 -0.6301
 8195SOL    HW230548   1.072   0.109   9.271 -0.0470  2.1656 -2.5988
 8196SOL     OW30549   2.718   5.531   7.965  0.5510 -0.1692 -0.2528
 8196SOL    HW130550   2.642   5.526   8.022  0.3399  0.4825 -0.4773
 8196SOL    HW230551   2.738   5.624   7.959  1.6426 -0.3580  0.1664
 8197SOL     OW30552   9.336   4.805   6.499 -0.2109 -0.1583  0.2591
 8197SOL    HW130553   9.420   4.781   6.460 -0.5667 -0.6707 -0.2057
 8197SOL    HW230554   9.342   4.900   6.513 -0.7117  0.4294 -2.7161
 8198SOL     OW30555   0.464   1.051   9.100 -0.4254 -0.1268  0.3206
 8198SOL    HW130556   0.415   1.073   9.180 -0.0495 -1.1570  0.8595
 8198SOL    HW230557   0.505   1.132   9.073 -1.1803  0.4090  0.7408
 8199SOL     OW30558   4.126   7.403   0.935  0.2805  0.1420  0.0024
 8199SOL    HW130559   4.205   7.412   0.881  1.5516  0.6451  1.8611
 8199SOL    HW230560   4.152   7.348   1.008 -1.1855  0.0811  0.5233
 8200SOL     OW30561   0.119   2.960   7.200 -0.0206  0.2770  0.0254
 8200SOL    HW130562   0.124   2.888   7.263  0.6448  1.2724  1.1446
 8200SOL    HW230563   0.204   2.959   7.156 -0.3938 -0.2611 -0.6965
 8201SOL     OW30564   1.625   1.061   6.169 -0.1078 -0.2086 -0.2197
 8201SOL    HW130565   1.632   1.137   6.112 -1.5380  0.6933  0.7376
 8201SOL    HW230566   1.695   1.072   6.233  1.0296 -0.8379 -1.3274
 8202SOL     OW30567   1.100   4.031   1.488  0.1421 -0.2876 -0.4189
 8202SOL    HW130568   1.112   4.008   1.396 -1.1296 -0.8969 -0.4442
 8202SOL    HW230569   1.150   4.113   1.499 -0.9561  0.6397 -2.0338
 8203SOL     OW30570   4.986   8.055   0.461  0.1979  0.5148 -0.1445
 8203SOL    HW130571   5.000   7.989   0.529  1.0442  1.6557  0.8500
 8203SOL    HW230572   5.040   8.026   0.388 -0.8932 -0.8491 -0.4633
 8204SOL     OW30573   0.774   5.156   3.601 -0.3546  0.3833 -0.6601
 8204SOL    HW130574   0.795   5.065   3.624  0.4886  0.3534 -1.4906
 8204SOL    HW230575   0.859   5.200   3.596 -0.6690  0.9399 -1.3708
 8205SOL     OW30576   2.838   8.602   9.059 -0.4640 -0.3179 -0.0036
 8205SOL    HW130577   2.868   8.599   9.149 -0.8498  0.4306  0.1565
 8205SOL    HW230578   2.745   8.625   9.065 -0.5018 -0.2926 -0.5873
 8206SOL     OW30579   4.445   3.238   2.069  0.2018 -0.6968 -0.6827
 8206SOL    HW130580   4.429   3.143   2.066 -0.6690 -0.5936  0.1108
 8206SOL    HW230581   4.401   3.272   1.991  2.3038 -1.1416 -2.1554
 8207SOL     OW30582   9.075   6.330   6.102 -0.1031  0.3389 -0.1005
 8207SOL    HW130583   9.016   6.404   6.083  2.4846  2.9807  1.3684
 8207SOL    HW230584   9.139   6.365   6.164  1.9837 -2.8587 -0.2077
 8208SOL     OW30585   5.489   9.027   2.596  0.4813  1.1535  0.4378
 8208SOL    HW130586   5.547   9.059   2.665 -1.0838  2.3566  1.2730
 8208SOL    HW230587   5.547   8.990   2.530  2.5719  6.0119 -0.8363
 8209SOL     OW30588   6.324   2.132   4.795 -0.2213 -0.2615  0.0794
 8209SOL    HW130589   6.390   2.199   4.814 -1.0227  0.3952  0.6701
 8209SOL    HW230590   6.266   2.174   4.731 -1.7599  0.3621  1.7491
 8210SOL     OW30591   7.492   2.784   7.833  0.4994 -0.1918  0.1589
 8210SOL    HW130592   7.489   2.758   7.741 -0.3921 -0.0287  0.1336
 8210SOL    HW230593   7.496   2.701   7.881 -0.0440 -0.3210 -0.0031
 8211SOL     OW30594   5.738   8.990   0.711  0.0243  0.6093 -0.5555
 8211SOL    HW130595   5.759   8.991   0.618 -1.3571 -0.2068 -0.9124
 8211SOL    HW230596   5.705   9.078   0.729 -0.2817  0.5891 -0.9924
 8212SOL     OW30597   5.399   3.376   0.497 -0.3627 -0.3734  0.4069
 8212SOL    HW130598   5.320   3.322   0.492 -0.9583  0.5386 -0.6925
 8212SOL    HW230599   5.433   3.362   0.586 -0.5771 -2.3812  0.1996
 8213SOL     OW30600   5.969   4.358   2.738 -0.3405  1.0258  0.2414
 8213SOL    HW130601   5.986   4.391   2.826  0.1825 -1.1328  1.0165
 8213SOL    HW230602   6.052   4.371   2.692 -0.4966  1.8062  0.1586
 8214SOL     OW30603   8.650   2.547   7.596  0.0232  0.3552  0.5067
 8214SOL    HW130604   8.629   2.502   7.679 -1.6663 -0.3982 -0.2835
 8214SOL    HW230605   8.700   2.482   7.547 -0.6557  0.0728  0.1772
 8215SOL     OW30606   0.366   2.881   4.074 -0.1031  0.1710  0.1392
 8215SOL    HW130607   0.313   2.951   4.035  0.5001  0.6214  0.1030
 8215SOL    HW230608   0.375   2.906   4.166 -0.8048 -0.4432  0.3861
 8216SOL     OW30609   1.524   8.667   2.996  0.1444  0.1343  0.9167
 8216SOL    HW130610   1.478   8.584   3.010  0.8797 -0.6604 -0.9473
 8216SOL    HW230611   1.613   8.651   3.029  0.7723 -0.4530 -0.9185
 8217SOL     OW30612   4.906   3.094   5.422  0.0157 -0.1311 -0.0078
 8217SOL    HW130613   4.994   3.127   5.408  0.4169 -0.8608  0.7009
 8217SOL    HW230614   4.875   3.068   5.336  0.9078 -0.8714 -0.1204
 8218SOL     OW30615   6.469   8.816   3.702  0.1061  0.1108 -0.3873
 8218SOL    HW130616   6.457   8.745   3.765  0.0609 -0.5131 -1.0815
 8218SOL    HW230617   6.381   8.847   3.683  0.0260 -0.4797 -1.0077
 8219SOL     OW30618   0.979   0.588   0.972  0.6142 -0.4642  0.0665
 8219SOL    HW130619   1.038   0.516   0.948  0.0479 -0.8647 -0.1528
 8219SOL    HW230620   0.915   0.547   1.032  0.1940 -0.1832 -0.1849
 8220SOL     OW30621   7.085   3.723   6.445 -0.0844 -0.0945  0.4827
 8220SOL    HW130622   7.071   3.717   6.351  2.1757 -0.7447  0.1099
 8220SOL    HW230623   7.157   3.661   6.463 -1.0882 -0.7176  2.8041
 8221SOL     OW30624   0.070   9.128   1.771  0.4203 -0.2417 -0.5605
 8221SOL    HW130625   0.121   9.087   1.701 -0.0199 -2.5493  0.3827
 8221SOL    HW230626  -0.018   9.091   1.761  0.0585  0.2886  0.5045
 8222SOL     OW30627   5.548   0.142   0.587  0.3819 -0.1057  0.3137
 8222SOL    HW130628   5.471   0.197   0.596  0.2614 -0.0958 -0.6816
 8222SOL    HW230629   5.616   0.188   0.635  0.6185  1.5834 -1.4935
 8223SOL     OW30630   0.059   6.831   9.183 -0.1508 -0.0075 -0.2720
 8223SOL    HW130631   0.100   6.914   9.205  1.1857 -1.2052  2.2937
 8223SOL    HW230632  -0.016   6.826   9.242 -0.0095 -0.7459 -0.1461
 8224SOL     OW30633   2.327   3.972   5.115  0.0716 -0.3249  0.2626
 8224SOL    HW130634   2.265   4.002   5.049  0.2691 -1.4821 -0.4685
 8224SOL    HW230635   2.413   3.998   5.080  0.1263 -0.3064  0.4114
 8225SOL     OW30636   0.889   5.763   2.351 -0.2135  0.1722  0.0885
 8225SOL    HW130637   0.865   5.722   2.269 -1.6900  1.6124 -0.2511
 8225SOL    HW230638   0.916   5.852   2.326  1.8500 -0.1741  0.8998
 8226SOL     OW30639   5.959   1.080   6.248 -0.3109 -0.5185  0.3328
 8226SOL    HW130640   5.960   0.985   6.257 -1.4898 -0.5133  0.7509
 8226SOL    HW230641   5.889   1.098   6.186  1.5485 -0.0206 -1.7438
 8227SOL     OW30642   7.197   0.196   2.083 -0.3032  0.0587  0.1856
 8227SOL    HW130643   7.156   0.147   2.154  0.5520 -1.0560 -0.0623
 8227SOL    HW230644   7.208   0.285   2.118 -1.6405  0.0276  0.7391
 8228SOL     OW30645   8.352   8.280   8.546  0.0330  0.1197  0.2787
 8228SOL    HW130646   8.336   8.313   8.458 -1.7990 -0.9551  0.1595
 8228SOL    HW230647   8.294   8.331   8.602 -1.5257 -1.5646  0.3196
 8229SOL     OW30648   7.509   4.609   8.976 -0.3812  0.5727  0.2033
 8229SOL    HW130649   7.559   4.565   9.045 -2.4500  0.6846  1.9013
 8229SOL    HW230650   7.571   4.670   8.936  1.0953 -0.0044  1.5012
 8230SOL     OW30651   5.464   6.132   5.434  0.1630 -0.1115  0.0582
 8230SOL    HW130652   5.397   6.078   5.475  0.2758  0.2439  0.7106
 8230SOL    HW230653   5.534   6.070   5.412 -0.5479 -0.5634 -1.0412
 8231SOL     OW30654   8.682   7.262   7.418 -0.6696  0.2565 -0.1745
 8231SOL    HW130655   8.730   7.344   7.402 -0.6395 -0.0357 -1.7503
 8231SOL    HW230656   8.672   7.223   7.331 -1.9174 -0.7333  0.3793
 8232SOL     OW30657   2.272   2.991   2.461  0.4023  0.6695  0.0344
 8232SOL    HW130658   2.297   3.059   2.398  0.5648  1.2364  0.6870
 8232SOL    HW230659   2.290   3.031   2.547  0.5750 -0.2299  0.4318
 8233SOL     OW30660   5.659   0.515   8.725  0.4375  0.0366 -0.1551
 8233SOL    HW130661   5.614   0.456   8.785  1.3023  1.8740  2.4926
 8233SOL    HW230662   5.592   0.578   8.698 -0.1725 -1.3160 -1.9436
 8234SOL     OW30663   2.225   6.729   5.321 -0.9200 -0.1675 -0.7029
 8234SOL    HW130664   2.290   6.659   5.329 -1.0842 -0.4417 -1.6428
 8234SOL    HW230665   2.161   6.696   5.258 -2.4016 -0.2035  0.7603
 8235SOL     OW30666   7.848   0.179   6.165  0.3482 -0.0861 -0.3871
 8235SOL    HW130667   7.917   0.113   6.174  0.2844 -0.0535  0.3824
 8235SOL    HW230668   7.795   0.149   6.092  1.0153 -0.2600 -0.8133
 8236SOL     OW30669   3.182   6.669   6.523  0.2272 -0.2943  0.2213
 8236SOL    HW130670   3.180   6.577   6.498 -2.8750 -0.2272 -0.1646
 8236SOL    HW230671   3.225   6.713   6.450 -1.2065 -1.0998 -1.1719
 8237SOL     OW30672   6.269   0.456   7.095  0.4029  0.3217  0.3203
 8237SOL    HW130673   6.297   0.472   7.005  1.8300  1.8832  0.9905
 8237SOL    HW230674   6.330   0.390   7.128 -0.6596 -0.9020 -0.0833
 8238SOL     OW30675   0.095   3.982   7.045  0.0504 -0.2502 -0.1686
 8238SOL    HW130676   0.019   3.923   7.048 -0.8547  0.7726 -1.5247
 8238SOL    HW230677   0.154   3.942   6.981  0.3959 -0.7302  0.4380
 8239SOL     OW30678   8.374   8.796   1.301 -0.8381 -0.4236 -0.1034
 8239SOL    HW130679   8.431   8.872   1.288 -1.0248 -0.4512 -1.1515
 8239SOL    HW230680   8.356   8.795   1.395  0.5951 -0.2027  0.1894
 8240SOL     OW30681   2.596   4.642   8.365 -0.1613  0.2665  0.1539
 8240SOL    HW130682   2.563   4.698   8.295  0.7889 -0.3415 -0.8114
 8240SOL    HW230683   2.577   4.553   8.335 -2.4202  0.0023  2.0475
 8241SOL     OW30684   9.249   7.851   5.140  0.0486  0.5888 -0.3395
 8241SOL    HW130685   9.342   7.838   5.158  0.1574  0.2405 -1.1212
 8241SOL    HW230686   9.216   7.764   5.116 -0.4973  0.6944 -0.0005
 8242SOL     OW30687   0.748   4.959   2.345  0.0211 -0.2611  0.2901
 8242SOL    HW130688   0.842   4.940   2.340  0.9786  3.6632  0.5809
 8242SOL    HW230689   0.740   5.020   2.418 -3.1749 -2.0215  1.6280
 8243SOL     OW30690   0.762   0.353   6.956 -0.0977 -0.2457 -0.0437
 8243SOL    HW130691   0.844   0.336   7.002 -0.2751 -0.4146  0.2153
 8243SOL    HW230692   0.720   0.267   6.949 -0.8467  0.0034  0.9763
 8244SOL     OW30693   4.001   7.196   1.950  0.3064  0.0803  0.1943
 8244SOL    HW130694   4.069   7.239   1.899  1.7217  0.1118  2.0127
 8244SOL    HW230695   4.044   7.119   1.988 -0.8027 -0.1771  0.9921
 8245SOL     OW30696   4.905   7.069   9.248 -0.4937  0.8519  0.0572
 8245SOL    HW130697   4.850   7.011   9.195 -0.5547  1.9475 -1.1349
 8245SOL    HW230698   4.927   7.141   9.189 -0.1089  1.8534  1.3714
 8246SOL     OW30699   4.260   8.650   7.660  0.1374  0.1706 -0.3890
 8246SOL    HW130700   4.216   8.581   7.610  0.1920 -0.4396  0.3925
 8246SOL    HW230701   4.211   8.657   7.741  1.1321 -0.1273  0.2529
 8247SOL     OW30702   5.955   4.653   0.196 -0.4414  0.5934 -0.0204
 8247SOL    HW130703   5.874   4.697   0.220 -0.6604  0.7909 -1.0521
 8247SOL    HW230704   6.020   4.723   0.193 -0.2461  0.4516  0.7028
 8248SOL     OW30705   4.586   4.543   0.543 -0.1920  0.2901  0.4614
 8248SOL    HW130706   4.616   4.546   0.634 -1.1879  0.3666  0.7993
 8248SOL    HW230707   4.658   4.582   0.493  1.0469 -1.1893  1.0058
 8249SOL     OW30708   5.529   6.726   2.364 -0.3941  0.2404  0.0266
 8249SOL    HW130709   5.610   6.675   2.377 -0.6230 -0.0786  0.2130
 8249SOL    HW230710   5.527   6.786   2.439  0.1453  0.8947 -0.4690
 8250SOL     OW30711   1.499   5.684   2.578 -0.3876  0.1128 -0.3833
 8250SOL    HW130712   1.476   5.776   2.564  0.5960  0.9555  2.8152
 8250SOL    HW230713   1.593   5.681   2.564 -0.3020 -0.2237  0.2396
 8251SOL     OW30714   6.244   1.311   3.409  0.4864  0.7319 -1.2100
 8251SOL    HW130715   6.322   1.341   3.456  1.0280 -0.2193 -1.4587
 8251SOL    HW230716   6.252   1.215   3.410 -1.9730  0.4646  0.9526
 8252SOL     OW30717   7.106   4.794   2.398 -0.0322  0.2654 -0.3755
 8252SOL    HW130718   7.076   4.844   2.323  2.0790  2.2902  0.0346
 8252SOL    HW230719   7.147   4.858   2.456  0.5215 -1.5691  1.4033
 8253SOL     OW30720   3.766   7.610   2.776  0.3962 -0.7006 -0.1456
 8253SOL    HW130721   3.790   7.545   2.709  1.1213 -2.9525  2.1553
 8253SOL    HW230722   3.716   7.560   2.841 -1.6274  1.7424  0.3108
 8254SOL     OW30723   7.483   5.354   7.038 -0.3186 -0.1790  0.3909
 8254SOL    HW130724   7.404   5.348   6.984 -1.0980  0.2664  1.4588
 8254SOL    HW230725   7.471   5.289   7.106  0.7182 -0.8147 -0.0144
 8255SOL     OW30726   0.913   0.185   8.409  0.2149 -0.0033  0.1996
 8255SOL    HW130727   0.975   0.112   8.417  1.6139  0.9336 -1.4920
 8255SOL    HW230728   0.895   0.191   8.315  0.2864  1.9211  0.2694
 8256SOL     OW30729   8.090   2.692   5.482 -0.2816  0.5600 -0.4422
 8256SOL    HW130730   8.135   2.671   5.564 -1.1182 -0.1269 -0.1432
 8256SOL    HW230731   8.003   2.721   5.509 -1.0871 -1.0853 -1.1152
 8257SOL     OW30732   2.647   7.640   3.619  0.6032 -0.2796  0.0800
 8257SOL    HW130733   2.725   7.694   3.609  1.7158 -1.6920  0.8626
 8257SOL    HW230734   2.617   7.657   3.708  1.6962 -1.8640  0.7779
 8258SOL     OW30735   5.409   5.778   5.178 -0.4207 -0.1686  0.2156
 8258SOL    HW130736   5.384   5.745   5.264 -0.3639 -0.0551  0.2770
 8258SOL    HW230737   5.391   5.706   5.118  0.7274 -0.7127  0.4939
 8259SOL     OW30738   3.545   6.338   6.955 -0.0415 -0.1643  0.5371
 8259SOL    HW130739   3.563   6.266   6.894 -0.3543 -0.9288  1.3317
 8259SOL    HW230740   3.459   6.370   6.930  0.0847 -0.0832  0.2026
 8260SOL     OW30741   7.635   5.664   1.629 -0.0377 -0.5099  0.2780
 8260SOL    HW130742   7.728   5.683   1.639  0.0217 -0.7208  0.1334
 8260SOL    HW230743   7.628   5.625   1.542 -0.6712  2.2288 -1.0267
 8261SOL     OW30744   7.693   1.716   4.123 -0.3928 -0.4751 -0.0295
 8261SOL    HW130745   7.620   1.696   4.181  1.0127 -1.6447  1.4449
 8261SOL    HW230746   7.732   1.796   4.158 -1.4337  0.6659 -1.3488
 8262SOL     OW30747   7.825   6.693   7.031 -0.5252 -0.5684 -0.0653
 8262SOL    HW130748   7.855   6.606   7.056 -2.0443 -0.3483  2.8621
 8262SOL    HW230749   7.844   6.748   7.106 -0.5206  1.4485 -1.4604
 8263SOL     OW30750   3.455   2.449   0.864  0.0478 -0.2065 -0.1972
 8263SOL    HW130751   3.506   2.423   0.787  1.3490  0.1163  0.5173
 8263SOL    HW230752   3.519   2.450   0.935 -1.0512 -0.1194  0.8131
 8264SOL     OW30753   2.552   3.275   7.567 -0.0607 -0.3994 -0.0763
 8264SOL    HW130754   2.638   3.237   7.551  0.3119  0.4359 -0.1493
 8264SOL    HW230755   2.494   3.230   7.505  0.6283  0.1175 -1.1373
 8265SOL     OW30756   0.321   5.247   7.958  0.0904 -0.0254 -0.0679
 8265SOL    HW130757   0.367   5.163   7.968  0.5077  0.2468  0.3246
 8265SOL    HW230758   0.342   5.275   7.869  0.0888 -0.2572 -0.1431
 8266SOL     OW30759   7.682   9.252   5.531  0.6957 -0.1824  0.0692
 8266SOL    HW130760   7.620   9.193   5.487  0.1093 -1.1257  2.0597
 8266SOL    HW230761   7.763   9.243   5.481  0.1267 -1.3751 -0.6940
 8267SOL     OW30762   5.442   3.592   9.162  0.3694 -0.1712  0.1220
 8267SOL    HW130763   5.426   3.686   9.159 -1.1689 -0.3703  0.9695
 8267SOL    HW230764   5.502   3.579   9.235  1.3760  0.2230 -0.6119
 8268SOL     OW30765   9.322   8.879   6.486 -0.1075 -0.3719  0.4589
 8268SOL    HW130766   9.332   8.967   6.449  0.7960 -0.2140  1.0508
 8268SOL    HW230767   9.342   8.821   6.413 -0.2313 -0.0770  0.1869
 8269SOL     OW30768   2.763   8.878   3.706 -0.2728 -0.2379  0.0312
 8269SOL    HW130769   2.674   8.902   3.679 -0.5310  0.9345  1.7998
 8269SOL    HW230770   2.751   8.796   3.755 -1.0395  1.8188  3.6074
 8270SOL     OW30771   4.481   3.309   0.116  0.3326  0.0330 -0.1263
 8270SOL    HW130772   4.549   3.351   0.064  0.2415 -1.0940 -1.2194
 8270SOL    HW230773   4.493   3.343   0.204  0.1586  2.4265 -0.9554
 8271SOL     OW30774   0.102   7.761   5.262 -0.4584 -0.5753  0.3847
 8271SOL    HW130775   0.131   7.672   5.240  0.6430 -0.3202  0.7228
 8271SOL    HW230776   0.134   7.774   5.351 -0.8483  0.0729  0.4316
 8272SOL     OW30777   7.463   8.101   0.234  0.3097 -0.5434  0.5064
 8272SOL    HW130778   7.370   8.106   0.257 -0.0164  2.4451 -0.9459
 8272SOL    HW230779   7.466   8.042   0.159 -1.4506  3.1908 -2.8924
 8273SOL     OW30780   1.222   8.332   8.664 -0.0255  0.1592 -0.0554
 8273SOL    HW130781   1.141   8.354   8.711 -0.0666  0.1498 -0.1223
 8273SOL    HW230782   1.291   8.337   8.731 -0.0421  0.4431 -0.0582
 8274SOL     OW30783   1.572   6.925   4.142 -0.9186 -0.5751 -0.8092
 8274SOL    HW130784   1.626   6.922   4.221  1.2313 -1.0212 -2.2171
 8274SOL    HW230785   1.526   7.008   4.147  2.3967  1.4780 -1.0187
 8275SOL     OW30786   9.286   2.832   7.523 -0.1661  0.6014 -0.2645
 8275SOL    HW130787   9.243   2.894   7.463 -0.8235  0.4023 -0.0023
 8275SOL    HW230788   9.304   2.885   7.601 -0.2780  0.5911 -0.2309
 8276SOL     OW30789   3.288   8.492   7.807  0.1283 -0.3125 -0.4089
 8276SOL    HW130790   3.367   8.531   7.769 -0.2521  0.7788 -0.1300
 8276SOL    HW230791   3.215   8.539   7.765 -0.3406 -0.4961  0.1760
 8277SOL     OW30792   6.217   2.923   5.755 -0.0983  0.0259 -0.2264
 8277SOL    HW130793   6.309   2.908   5.775 -0.2394 -1.7315 -0.6819
 8277SOL    HW230794   6.179   2.957   5.836  0.8862  0.4724  0.0517
 8278SOL     OW30795   1.141   3.378   2.465 -0.1495  0.1677 -0.1013
 8278SOL    HW130796   1.203   3.320   2.510  0.3196  0.5225 -0.2895
 8278SOL    HW230797   1.187   3.405   2.385  0.9188  3.2489  1.3951
 8279SOL     OW30798   8.215   7.841   6.441  0.0618 -0.3403 -0.1893
 8279SOL    HW130799   8.125   7.830   6.470 -0.4532 -0.5421 -1.7953
 8279SOL    HW230800   8.245   7.753   6.420  0.2964 -0.1594 -0.6291
 8280SOL     OW30801   0.497   5.823   0.882 -0.0457  0.0674 -0.1765
 8280SOL    HW130802   0.408   5.856   0.894  0.2702  1.3869 -1.1905
 8280SOL    HW230803   0.548   5.900   0.855  1.2975 -0.7582 -0.0925
 8281SOL     OW30804   5.677   6.491   2.434  0.1751  0.4306 -0.4355
 8281SOL    HW130805   5.717   6.406   2.447  1.4322  1.0456 -0.1573
 8281SOL    HW230806   5.746   6.554   2.453 -1.1870  1.5691  1.1492
 8282SOL     OW30807   8.345   4.234   0.817 -0.1339 -0.2892 -0.1361
 8282SOL    HW130808   8.388   4.293   0.755 -2.7030  2.2643  0.2945
 8282SOL    HW230809   8.330   4.153   0.767 -2.2419  1.6971 -3.0244
 8283SOL     OW30810   9.036   0.315   1.611  0.1101  0.6634  0.3610
 8283SOL    HW130811   9.066   0.230   1.644 -0.8863 -0.2710 -1.0026
 8283SOL    HW230812   8.942   0.317   1.632 -0.9176 -0.5773 -3.2992
 8284SOL     OW30813   5.222   4.960   1.465 -0.5250 -1.4929 -0.3813
 8284SOL    HW130814   5.288   4.920   1.521 -0.1870  0.0678  0.4080
 8284SOL    HW230815   5.272   4.995   1.391 -0.0438  1.4008  1.1414
 8285SOL     OW30816   9.206   3.076   6.840  0.3364  0.2873 -0.6697
 8285SOL    HW130817   9.121   3.106   6.873  0.8963  0.9586  0.1896
 8285SOL    HW230818   9.234   3.145   6.780 -0.3730 -0.6203 -2.1207
 8286SOL     OW30819   7.178   6.654   3.304  0.0274 -0.1426 -0.0066
 8286SOL    HW130820   7.098   6.620   3.343 -0.9342  0.5374 -1.3424
 8286SOL    HW230821   7.210   6.582   3.249  0.8759 -0.7553  1.2332
 8287SOL     OW30822   3.972   6.730   5.353  0.0120 -0.2215 -0.1140
 8287SOL    HW130823   4.001   6.659   5.296 -1.6551 -0.2534 -0.9784
 8287SOL    HW230824   3.948   6.687   5.435 -1.2818 -0.7293 -0.7352
 8288SOL     OW30825   5.770   3.162   9.169  0.3155 -0.6753  0.0888
 8288SOL    HW130826   5.714   3.222   9.218 -1.0036 -2.8133  1.4069
 8288SOL    HW230827   5.859   3.184   9.195 -0.2698 -0.7172  2.3191
 8289SOL     OW30828   6.251   8.532   0.164  0.3281 -0.5013 -0.4822
 8289SOL    HW130829   6.174   8.589   0.174 -0.5076 -1.6302 -0.2219
 8289SOL    HW230830   6.324   8.592   0.153 -0.2682  0.6587  1.4331
 8290SOL     OW30831   7.837   2.903   0.674 -0.4201 -0.2009 -0.1972
 8290SOL    HW130832   7.871   2.989   0.701  0.4041 -0.5144 -0.2214
 8290SOL    HW230833   7.855   2.899   0.580 -0.4331 -0.4103 -0.1899
 8291SOL     OW30834   8.610   7.664   0.369 -0.3715 -0.0930 -0.6806
 8291SOL    HW130835   8.546   7.731   0.347 -0.6102  0.8258  2.3438
 8291SOL    HW230836   8.658   7.649   0.288 -1.0193  2.9621 -1.7668
 8292SOL     OW30837   1.916   3.425   9.128 -0.2174  0.2818  0.6002
 8292SOL    HW130838   1.860   3.418   9.051  0.6352 -0.7851  0.0468
 8292SOL    HW230839   1.859   3.400   9.201 -0.6550 -0.1242  0.1327
 8293SOL     OW30840   1.096   9.007   6.224  0.9535 -0.1636  0.4073
 8293SOL    HW130841   1.090   8.979   6.316 -1.6976  0.5950  0.5470
 8293SOL    HW230842   1.006   9.032   6.201  1.2346 -1.6257 -2.8429
 8294SOL     OW30843   5.650   1.198   6.522 -0.2619  0.2620  0.0215
 8294SOL    HW130844   5.583   1.266   6.531 -0.8529 -0.2265 -0.5727
 8294SOL    HW230845   5.710   1.232   6.455  0.2627  0.8241  0.7541
 8295SOL     OW30846   0.596   7.919   5.024  0.2810 -0.2743 -0.3750
 8295SOL    HW130847   0.538   7.870   5.082 -1.4541  1.8675 -0.1734
 8295SOL    HW230848   0.639   7.852   4.971 -1.0714 -2.0621  0.6701
 8296SOL     OW30849   0.149   3.616   7.213 -0.1787 -0.5601  0.2852
 8296SOL    HW130850   0.115   3.528   7.198 -1.9530  0.1430  0.0203
 8296SOL    HW230851   0.177   3.646   7.126  2.7963 -1.7155  0.7048
 8297SOL     OW30852   4.548   2.914   7.509  0.3302  0.1573  0.1448
 8297SOL    HW130853   4.462   2.900   7.469  0.8514 -0.8890 -0.6392
 8297SOL    HW230854   4.584   2.990   7.463 -0.0069  0.3791  0.2343
 8298SOL     OW30855   5.529   5.677   0.125 -0.0556 -0.3333  0.2514
 8298SOL    HW130856   5.538   5.770   0.142  2.3734 -0.4494 -0.0631
 8298SOL    HW230857   5.510   5.638   0.211  0.6698  0.2899  0.7072
 8299SOL     OW30858   4.808   6.837   3.165 -0.0482  0.0271  0.5375
 8299SOL    HW130859   4.769   6.755   3.136 -0.0449 -0.3741  1.6410
 8299SOL    HW230860   4.771   6.853   3.251 -0.2677  1.3416  0.2276
 8300SOL     OW30861   5.747   4.553   8.319 -0.5209 -0.3397 -0.0884
 8300SOL    HW130862   5.751   4.530   8.227  0.3453  1.3200 -0.5020
 8300SOL    HW230863   5.758   4.470   8.365 -1.7631 -1.2988 -1.4458
 8301SOL     OW30864   4.369   6.578   8.820  0.1448 -0.5177  0.9223
 8301SOL    HW130865   4.284   6.580   8.864 -0.2551  0.8035  0.1489
 8301SOL    HW230866   4.407   6.664   8.839 -0.4649  0.5325 -2.0203
 8302SOL     OW30867   2.276   8.117   3.980 -0.0033 -0.2612  0.6863
 8302SOL    HW130868   2.344   8.099   4.046 -0.3546  0.6913  1.3209
 8302SOL    HW230869   2.318   8.176   3.918 -0.1738  0.1245  0.9391
 8303SOL     OW30870   9.320   0.423   4.724  0.0695  0.3834  0.7706
 8303SOL    HW130871   9.248   0.483   4.743 -1.5655 -1.4521  0.6860
 8303SOL    HW230872   9.282   0.335   4.735  2.5160 -0.6656  1.4989
 8304SOL     OW30873   9.225   6.562   5.745 -0.0831 -0.2185 -0.4426
 8304SOL    HW130874   9.164   6.572   5.672  0.3668  1.6488 -0.6157
 8304SOL    HW230875   9.173   6.578   5.823  0.2727  2.2638 -0.6321
 8305SOL     OW30876   3.487   0.503   9.107  0.6489 -0.3588 -0.3381
 8305SOL    HW130877   3.547   0.473   9.039  1.5094  2.5859 -1.0425
 8305SOL    HW230878   3.432   0.568   9.064 -0.2945 -0.0393  1.2648
 8306SOL     OW30879   7.736   0.302   1.385 -0.1662 -1.1809  0.0439
 8306SOL    HW130880   7.702   0.350   1.460  0.4095  0.5259 -0.7388
 8306SOL    HW230881   7.803   0.360   1.348  0.1678 -2.3631 -1.2736
 8307SOL     OW30882   4.148   4.575   6.472 -0.6011 -0.7391 -0.0486
 8307SOL    HW130883   4.101   4.524   6.406 -1.0934  0.7031 -0.8479
 8307SOL    HW230884   4.094   4.652   6.486  0.2137 -0.3337  1.0098
 8308SOL     OW30885   3.103   1.205   5.965  0.2721  0.0009  0.7751
 8308SOL    HW130886   3.127   1.121   6.005 -0.2930 -1.2796 -1.3828
 8308SOL    HW230887   3.159   1.211   5.887 -1.2351  0.5115 -0.3126
 8309SOL     OW30888   9.329   0.677   9.187 -0.2490  0.4905  0.6996
 8309SOL    HW130889   9.399   0.740   9.167  0.7759  0.2939  3.3149
 8309SOL    HW230890   9.270   0.683   9.112  1.5961  2.0293 -0.7494
 8310SOL     OW30891   8.613   0.120   6.959  0.3335  0.1095 -0.3418
 8310SOL    HW130892   8.684   0.083   7.012 -0.0299 -0.0534  0.0302
 8310SOL    HW230893   8.533   0.095   7.005 -0.1924 -2.5172 -2.4008
 8311SOL     OW30894   2.725   8.508   5.768  0.2945  0.3001  0.1461
 8311SOL    HW130895   2.815   8.528   5.795 -0.1699  2.1274  0.5013
 8311SOL    HW230896   2.681   8.593   5.766 -1.4033 -0.5328 -0.1414
 8312SOL     OW30897   3.109   4.900   5.112  0.4791 -0.4240  0.4710
 8312SOL    HW130898   3.072   4.976   5.157  1.1711  0.8316 -0.9805
 8312SOL    HW230899   3.035   4.863   5.063  0.2176 -0.4653  0.8958
 8313SOL     OW30900   3.156   8.868   4.798 -0.5457  0.1336 -0.5166
 8313SOL    HW130901   3.122   8.827   4.878 -0.0927  0.6729 -0.0513
 8313SOL    HW230902   3.245   8.894   4.820 -0.1600 -0.3706 -1.4300
 8314SOL     OW30903   6.605   5.789   1.926  0.1696  0.0473  0.5374
 8314SOL    HW130904   6.631   5.812   1.837 -1.5356 -0.4336 -0.1152
 8314SOL    HW230905   6.628   5.867   1.978 -1.0790  1.3568 -0.7673
 8315SOL     OW30906   1.382   4.450   7.920 -0.3036  0.0034 -0.3413
 8315SOL    HW130907   1.378   4.544   7.902 -0.9186  0.4211  1.6857
 8315SOL    HW230908   1.471   4.434   7.951  0.0496 -0.2669 -1.4488
 8316SOL     OW30909   6.010   6.198   5.112  0.0040  0.6102 -0.1502
 8316SOL    HW130910   5.981   6.146   5.186  0.8054 -0.7951 -0.7931
 8316SOL    HW230911   6.105   6.185   5.108  0.0672  1.1972 -1.0232
 8317SOL     OW30912   8.697   5.048   0.206 -0.5506 -0.1339  0.1822
 8317SOL    HW130913   8.750   5.002   0.140 -0.8680 -0.4814  0.1674
 8317SOL    HW230914   8.759   5.106   0.250  0.0569 -1.2331  0.8115
 8318SOL     OW30915   9.158   4.222   0.094 -0.3255 -0.3530  0.1634
 8318SOL    HW130916   9.210   4.293   0.132  1.4054 -1.7956  0.6523
 8318SOL    HW230917   9.223   4.156   0.071 -1.9148 -1.9340  0.0685
 8319SOL     OW30918   8.823   0.832   6.942  0.2754  0.0356 -0.2335
 8319SOL    HW130919   8.787   0.788   7.019  0.8422 -1.0904 -0.5894
 8319SOL    HW230920   8.894   0.886   6.976  2.1752 -2.3387 -0.1836
 8320SOL     OW30921   2.829   4.317   0.614  0.3091  0.1430 -0.3269
 8320SOL    HW130922   2.838   4.222   0.616  0.3697  0.1528  0.0841
 8320SOL    HW230923   2.772   4.337   0.689  0.2683  0.4274 -0.4313
 8321SOL     OW30924   5.589   6.231   5.689  0.0347 -0.0543 -0.1412
 8321SOL    HW130925   5.643   6.160   5.723  0.3565  0.5847  0.7088
 8321SOL    HW230926   5.561   6.201   5.603  0.6470 -0.9607 -0.0314
 8322SOL     OW30927   3.315   6.312   0.215 -0.1038  0.7258  0.4038
 8322SOL    HW130928   3.389   6.266   0.254 -1.5691 -0.6436  1.6969
 8322SOL    HW230929   3.322   6.295   0.122  0.8368  0.0810  0.5822
 8323SOL     OW30930   9.019   8.334   3.887 -0.3309  0.1577  0.4646
 8323SOL    HW130931   8.989   8.245   3.867  1.8607 -0.6657  0.6320
 8323SOL    HW230932   8.955   8.367   3.950 -1.0094 -1.4032  0.6481
 8324SOL     OW30933   7.488   0.746   0.704  0.4991 -0.4148 -0.0402
 8324SOL    HW130934   7.527   0.670   0.745 -1.2360 -0.7378  1.1275
 8324SOL    HW230935   7.467   0.805   0.776  0.2584  0.4112 -0.7589
 8325SOL     OW30936   9.153   8.801   7.860  0.1821 -0.1507  0.5164
 8325SOL    HW130937   9.227   8.788   7.920  1.5150 -0.8407 -1.1841
 8325SOL    HW230938   9.179   8.875   7.806  0.1297 -1.0146 -0.7484
 8326SOL     OW30939   2.058   1.588   6.828 -0.3116 -0.0330  0.4419
 8326SOL    HW130940   1.973   1.594   6.872 -0.0800 -1.5302  1.1752
 8326SOL    HW230941   2.063   1.497   6.797  0.5028  0.3764 -0.6826
 8327SOL     OW30942   6.701   4.663   0.537 -0.4365  0.1875  0.2276
 8327SOL    HW130943   6.728   4.618   0.457  1.9641 -0.1408  1.1370
 8327SOL    HW230944   6.694   4.755   0.512  3.1568  0.5776  0.1376
 8328SOL     OW30945   4.772   4.456   6.668  0.3811 -0.3763 -0.1287
 8328SOL    HW130946   4.747   4.424   6.754  0.9658 -1.5724 -0.3759
 8328SOL    HW230947   4.778   4.551   6.677 -1.5964 -0.2897  0.6020
 8329SOL     OW30948   0.791   3.806   5.750 -0.0560  0.1826 -0.1302
 8329SOL    HW130949   0.851   3.794   5.676  0.7498  1.4657  0.2870
 8329SOL    HW230950   0.847   3.813   5.826 -0.6790  1.8165  0.2196
 8330SOL     OW30951   4.775   6.244   9.337  0.4881 -0.1266  0.2566
 8330SOL    HW130952   4.817   6.314   9.387  2.0883 -1.3335  0.6740
 8330SOL    HW230953   4.772   6.170   9.398 -1.7959 -0.2749  0.0479
 8331SOL     OW30954   5.906   0.127   0.231 -0.7007  0.5605  0.0888
 8331SOL    HW130955   5.900   0.069   0.155 -2.0426  0.8742 -0.0586
 8331SOL    HW230956   5.833   0.187   0.222  1.0814  2.8209 -0.1790
 8332SOL     OW30957   5.420   5.249   5.294 -0.2513  0.3825 -0.5731
 8332SOL    HW130958   5.341   5.233   5.346 -0.0348 -0.7453 -0.5676
 8332SOL    HW230959   5.395   5.225   5.205  0.1045 -0.0415 -0.5595
 8333SOL     OW30960   4.761   2.964   8.354 -0.2271 -0.0177  0.1197
 8333SOL    HW130961   4.702   2.917   8.294  0.6604  0.5821 -1.2722
 8333SOL    HW230962   4.792   2.897   8.415 -0.1010 -0.9470 -0.9375
 8334SOL     OW30963   8.594   9.360   6.704 -0.4975  0.0116  0.5180
 8334SOL    HW130964   8.653   9.423   6.663 -2.5901  1.6365 -0.1923
 8334SOL    HW230965   8.597   9.381   6.798 -0.5717  0.6481  0.3813
 8335SOL     OW30966   7.941   1.022   8.650 -0.3038 -0.6457  0.5218
 8335SOL    HW130967   8.005   0.999   8.718  0.0893 -1.3387 -0.0630
 8335SOL    HW230968   7.910   0.937   8.618  0.3521 -0.3609 -0.9316
 8336SOL     OW30969   4.941   4.211   2.104 -0.1541  0.0917 -0.4220
 8336SOL    HW130970   4.850   4.216   2.077  0.0670 -1.8720 -1.7991
 8336SOL    HW230971   4.948   4.129   2.153  0.5813  0.9802  1.0174
 8337SOL     OW30972   9.307   0.104   2.848 -0.1957  0.2451 -0.4069
 8337SOL    HW130973   9.391   0.101   2.802  0.0452 -0.2157  0.0480
 8337SOL    HW230974   9.289   0.013   2.871 -0.7812  0.3522 -0.4298
 8338SOL     OW30975   8.709   5.855   4.897  0.0218 -0.5074  0.2742
 8338SOL    HW130976   8.642   5.922   4.878  0.5794  0.0604  0.2717
 8338SOL    HW230977   8.754   5.842   4.814  0.3729 -0.3725  0.4416
 8339SOL     OW30978   0.995   0.248   7.022  0.2711  0.1127 -0.2100
 8339SOL    HW130979   0.940   0.178   6.987 -0.3480  0.4796  0.0120
 8339SOL    HW230980   1.063   0.202   7.072 -0.7500 -0.3053  0.8358
 8340SOL     OW30981   6.268   3.434   1.554  0.2854  0.3459  0.2905
 8340SOL    HW130982   6.234   3.513   1.514  0.0839 -0.4740 -1.2213
 8340SOL    HW230983   6.328   3.465   1.622  0.4140  1.7873 -0.4546
 8341SOL     OW30984   4.622   6.982   5.625 -0.7470  0.0636 -0.3049
 8341SOL    HW130985   4.714   6.964   5.647 -0.2996  1.2016 -1.1265
 8341SOL    HW230986   4.593   7.044   5.692 -0.9249 -0.2983 -0.0436
 8342SOL     OW30987   3.735   3.173   1.584  0.0048  0.3987  0.2270
 8342SOL    HW130988   3.732   3.078   1.567  2.3847  0.2105  0.4912
 8342SOL    HW230989   3.691   3.184   1.668 -2.4781 -0.0902 -0.9156
 8343SOL     OW30990   4.653   8.626   2.879 -0.0198  0.0975  0.0535
 8343SOL    HW130991   4.738   8.609   2.839  0.1630  1.1129 -0.0243
 8343SOL    HW230992   4.589   8.613   2.809  0.2752  1.5761 -0.5315
 8344SOL     OW30993   5.190   5.309   7.456 -0.0676  0.0961 -0.2084
 8344SOL    HW130994   5.201   5.391   7.408 -0.0652  0.1043 -0.1934
 8344SOL    HW230995   5.279   5.280   7.475 -0.0703  0.1341 -0.1385
 8345SOL     OW30996   5.311   5.254   7.854 -0.2312 -1.3402 -0.3683
 8345SOL    HW130997   5.236   5.214   7.900 -1.1493 -0.6306 -1.1975
 8345SOL    HW230998   5.276   5.336   7.821  0.7262 -1.3387 -1.4017
 8346SOL     OW30999   7.993   3.054   3.109 -0.4247  0.0327  0.2429
 8346SOL    HW131000   8.089   3.058   3.114 -0.2080 -2.7294  0.1159
 8346SOL    HW231001   7.970   3.122   3.046  1.6362 -0.3188 -1.0157
 8347SOL     OW31002   3.472   1.705   8.556  0.3512 -0.3632 -0.0346
 8347SOL    HW131003   3.517   1.645   8.496  0.8321  0.1436 -0.1942
 8347SOL    HW231004   3.482   1.665   8.642 -0.4582 -1.1650 -0.2999
 8348SOL     OW31005   1.347   5.285   5.149 -0.4951  0.1114 -0.1673
 8348SOL    HW131006   1.369   5.361   5.203  0.1283  0.0947 -0.3930
 8348SOL    HW231007   1.282   5.318   5.087  0.0338  0.5611 -0.4959
 8349SOL     OW31008   1.452   0.932   0.573 -0.6274  1.0415  0.0564
 8349SOL    HW131009   1.524   0.975   0.621  0.0593  0.4658 -0.4359
 8349SOL    HW231010   1.388   1.002   0.560  0.5948  2.0429 -0.9828
 8350SOL     OW31011   3.365   2.583   1.676 -0.6681 -0.5537 -0.1789
 8350SOL    HW131012   3.368   2.490   1.655 -2.3486 -0.4215 -1.1649
 8350SOL    HW231013   3.312   2.588   1.756  0.0894 -0.4948  0.3282
 8351SOL     OW31014   0.037   1.401   8.890  0.4612 -0.2397 -0.4297
 8351SOL    HW131015   0.063   1.430   8.802  3.3311 -2.3318 -0.4331
 8351SOL    HW231016   0.061   1.308   8.892 -0.4669 -0.5038  2.2487
 8352SOL     OW31017   6.315   7.048   0.252  0.2551  0.5382 -0.5809
 8352SOL    HW131018   6.263   6.977   0.289  0.8171  1.3824  2.0930
 8352SOL    HW231019   6.389   7.005   0.210  0.5630 -0.5166  0.9439
 8353SOL     OW31020   0.734   9.314   8.194  0.4836 -0.1652  0.0664
 8353SOL    HW131021   0.703   9.358   8.273  0.6361 -0.4385  0.2814
 8353SOL    HW231022   0.793   9.377   8.153 -0.8865  0.6519 -0.7321
 8354SOL     OW31023   1.233   5.981   7.228 -0.5314 -0.1563  0.1442
 8354SOL    HW131024   1.196   5.960   7.314  0.7091  0.4982  0.8668
 8354SOL    HW231025   1.323   6.008   7.246  0.1734 -1.2100 -1.4978
 8355SOL     OW31026   2.956   2.545   8.735  0.0938 -0.0690 -0.4366
 8355SOL    HW131027   3.010   2.490   8.791 -1.4751 -0.1836  1.0453
 8355SOL    HW231028   2.970   2.634   8.768 -0.5025 -0.0851 -0.1231
 8356SOL     OW31029   5.268   6.169   0.892 -0.0909  0.5026 -0.0856
 8356SOL    HW131030   5.266   6.235   0.823 -0.0725 -0.4615 -1.0164
 8356SOL    HW231031   5.304   6.091   0.851  1.0508  0.2398  1.3184
 8357SOL     OW31032   2.875   2.597   9.315  0.2132  0.1106 -0.3102
 8357SOL    HW131033   2.870   2.648   9.234  0.7436  0.3559 -0.1923
 8357SOL    HW231034   2.908   2.512   9.286 -1.3187 -0.4183 -0.6061
 8358SOL     OW31035   0.674   4.897   7.090  0.8129 -0.1616 -0.2418
 8358SOL    HW131036   0.705   4.818   7.135 -1.6442 -1.1378 -0.0656
 8358SOL    HW231037   0.630   4.947   7.159  1.9167  1.1615 -0.4628
 8359SOL     OW31038   0.274   3.667   1.108 -0.1168  0.0364  0.0846
 8359SOL    HW131039   0.265   3.730   1.036  0.1740 -0.9507 -0.8408
 8359SOL    HW231040   0.281   3.582   1.065 -0.0836 -0.5957  1.2957
 8360SOL     OW31041   2.955   8.585   3.987  0.3881  0.5565 -0.2413
 8360SOL    HW131042   3.012   8.657   4.013  1.2086  0.1544 -0.9029
 8360SOL    HW231043   2.866   8.620   3.999  0.7425  0.9382  1.4837
 8361SOL     OW31044   1.670   6.693   8.826 -0.1607 -0.3751 -0.5216
 8361SOL    HW131045   1.585   6.734   8.813 -0.2557 -0.7897 -1.2090
 8361SOL    HW231046   1.701   6.671   8.738 -0.1374 -1.8277 -0.1718
 8362SOL     OW31047   5.503   8.010   2.364  0.0838  0.3583 -0.3147
 8362SOL    HW131048   5.568   7.946   2.392  1.0026  0.5843 -1.8411
 8362SOL    HW231049   5.515   8.018   2.270 -0.4038  2.3238 -0.2684
 8363SOL     OW31050   7.969   6.003   3.559  0.8410  0.1909 -0.2058
 8363SOL    HW131051   7.952   6.096   3.566  0.4033  0.0994 -0.0145
 8363SOL    HW231052   7.903   5.962   3.616  0.8732 -0.2437 -0.4749
 8364SOL     OW31053   1.662   4.601   7.974 -0.5254 -0.4287  0.4406
 8364SOL    HW131054   1.747   4.637   7.998 -0.6001 -0.7532  1.2331
 8364SOL    HW231055   1.662   4.513   8.012 -0.0242 -1.6218 -2.1461
 8365SOL     OW31056   8.746   4.235   5.917 -0.2928 -0.3192 -0.0017
 8365SOL    HW131057   8.830   4.258   5.877  1.3206 -1.1763  2.6905
 8365SOL    HW231058   8.696   4.316   5.915  0.8023  0.3684 -1.1335
 8366SOL     OW31059   8.181   3.517   7.668  0.2037  0.3033  0.6278
 8366SOL    HW131060   8.254   3.474   7.713 -1.3847 -1.2031  1.9350
 8366SOL    HW231061   8.202   3.509   7.575  0.2915 -2.9143  0.8136
 8367SOL     OW31062   1.417   6.678   1.878 -0.2309 -0.4927 -0.7331
 8367SOL    HW131063   1.411   6.585   1.860 -1.2382 -0.1902 -2.1679
 8367SOL    HW231064   1.342   6.697   1.935  0.4468 -0.6845  0.2437
 8368SOL     OW31065   8.786   0.869   3.519  0.4514  0.3084 -0.0332
 8368SOL    HW131066   8.753   0.870   3.429 -0.7897 -1.9650  0.3220
 8368SOL    HW231067   8.707   0.866   3.573  1.1145 -2.4344  0.9440
 8369SOL     OW31068   3.167   3.172   7.700  0.2004  0.3376 -0.7097
 8369SOL    HW131069   3.202   3.160   7.612  2.3344  0.8633 -0.0110
 8369SOL    HW231070   3.173   3.267   7.715  4.6773 -0.0188  1.6540
 8370SOL     OW31071   1.124   3.194   4.885 -0.0855  0.0249 -0.2175
 8370SOL    HW131072   1.139   3.285   4.862  0.1162  0.3033  0.9639
 8370SOL    HW231073   1.185   3.145   4.829 -0.8537  0.5135 -1.5393
 8371SOL     OW31074   0.627   1.259   7.551  0.0244  0.3911  0.3815
 8371SOL    HW131075   0.685   1.329   7.580  0.5292  0.0153  0.3090
 8371SOL    HW231076   0.548   1.269   7.604 -0.0503  1.2246  0.1240
 8372SOL     OW31077   3.577   5.975   5.744 -0.2484 -0.2263  0.1962
 8372SOL    HW131078   3.634   5.928   5.805  1.8572  0.0684 -1.4409
 8372SOL    HW231079   3.573   6.064   5.778  0.2035 -0.2653  0.3505
 8373SOL     OW31080   8.371   4.724   8.638  0.1439 -0.5978  0.2642
 8373SOL    HW131081   8.362   4.635   8.604  1.7495 -0.6678 -0.0606
 8373SOL    HW231082   8.286   4.745   8.675 -0.7380 -1.6856 -1.0592
 8374SOL     OW31083   7.092   4.482   3.671 -0.5809 -0.1272  0.4611
 8374SOL    HW131084   7.094   4.388   3.657  0.2866 -0.1287  0.5479
 8374SOL    HW231085   7.113   4.494   3.764  0.8308  0.2028  0.1295
 8375SOL     OW31086   8.465   6.457   8.595 -0.3308  0.0478  0.1592
 8375SOL    HW131087   8.539   6.517   8.583  0.9494 -1.7405 -1.4678
 8375SOL    HW231088   8.499   6.371   8.570 -2.5520 -1.1087  0.8441
 8376SOL     OW31089   5.608   7.527   3.286 -0.5300  0.2655 -0.7110
 8376SOL    HW131090   5.621   7.599   3.348 -0.9746 -0.7913  0.6474
 8376SOL    HW231091   5.660   7.455   3.322  0.1075 -0.0542 -2.1848
 8377SOL     OW31092   2.394   7.026   8.948  0.0980  0.1789  0.0002
 8377SOL    HW131093   2.385   6.998   9.039 -0.8776  0.4136 -0.0153
 8377SOL    HW231094   2.311   7.001   8.907  0.8332 -0.6842 -1.0424
 8378SOL     OW31095   7.584   5.289   1.727 -0.5156 -0.5585  0.1481
 8378SOL    HW131096   7.544   5.202   1.722 -1.2114 -0.2808  0.6870
 8378SOL    HW231097   7.592   5.317   1.636  0.7597 -1.6428 -0.1026
 8379SOL     OW31098   2.867   5.188   0.151 -0.2246 -0.0314 -0.4418
 8379SOL    HW131099   2.784   5.143   0.141 -0.6709  0.9855 -1.6488
 8379SOL    HW231100   2.878   5.198   0.246 -2.4486  1.5056 -0.2743
 8380SOL     OW31101   0.329   3.634   6.245 -0.2592 -0.0765  0.3770
 8380SOL    HW131102   0.341   3.729   6.253 -0.5859  0.0167 -0.1434
 8380SOL    HW231103   0.334   3.618   6.150 -2.3668 -0.2770  0.2610
 8381SOL     OW31104   7.666   4.836   8.988  0.0287 -0.4652  0.1023
 8381SOL    HW131105   7.621   4.917   8.965  0.9701  0.2624  0.7562
 8381SOL    HW231106   7.697   4.850   9.077 -1.6327 -2.3757  1.0671
 8382SOL     OW31107   9.369   9.341   0.217  0.1529  0.6445  0.1507
 8382SOL    HW131108   9.447   9.385   0.184 -0.0020 -0.7335 -2.3144
 8382SOL    HW231109   9.302   9.358   0.150 -0.3268 -1.9683 -0.1264
 8383SOL     OW31110   3.282   8.189   2.653  0.1686  0.4271 -0.6103
 8383SOL    HW131111   3.334   8.134   2.712  1.2551 -0.1449 -2.0237
 8383SOL    HW231112   3.317   8.169   2.566 -2.6047 -0.1406 -1.6721
 8384SOL     OW31113   2.268   5.975   6.484 -0.0677 -0.3469 -0.2703
 8384SOL    HW131114   2.240   5.990   6.575 -2.9503  1.2171 -1.2803
 8384SOL    HW231115   2.345   6.032   6.474  0.8622 -1.2142  1.3634
 8385SOL     OW31116   7.106   9.046   4.548  0.2611 -0.5976 -0.1265
 8385SOL    HW131117   7.136   8.971   4.497 -0.9136 -0.4182 -1.1217
 8385SOL    HW231118   7.106   9.014   4.639  1.6979 -1.1408 -0.2947
 8386SOL     OW31119   4.922   8.595   0.346  0.3894 -0.0282  0.1610
 8386SOL    HW131120   4.941   8.648   0.423 -1.5513 -1.3911  1.6931
 8386SOL    HW231121   4.881   8.656   0.285  0.6434  0.7840  0.7758
 8387SOL     OW31122   4.908   5.983   6.777  0.1232 -0.0188  0.2490
 8387SOL    HW131123   4.850   6.019   6.844  0.6197  0.7330  0.2892
 8387SOL    HW231124   4.992   6.027   6.791  0.2178  0.2159 -0.9177
 8388SOL     OW31125   8.787   1.022   5.106  0.1102  0.5380 -0.5495
 8388SOL    HW131126   8.745   1.108   5.103 -1.5580 -0.2004  0.3090
 8388SOL    HW231127   8.784   0.998   5.199  0.5184 -0.4758 -0.7940
 8389SOL     OW31128   3.077   0.047   8.469 -0.3195  0.0958  0.5871
 8389SOL    HW131129   3.018   0.116   8.438 -0.2366  0.4174  1.1398
 8389SOL    HW231130   3.091   0.067   8.561  3.1039  1.8441 -0.1506
 8390SOL     OW31131   6.765   6.427   7.180  0.3937 -0.0401 -0.4717
 8390SOL    HW131132   6.807   6.362   7.123  0.1539  0.4048 -1.1651
 8390SOL    HW231133   6.727   6.375   7.251  1.5552 -0.5172 -0.1697
 8391SOL     OW31134   5.128   4.936   2.078  0.2468  0.4820 -0.0587
 8391SOL    HW131135   5.198   4.876   2.101 -0.3968  0.1030  0.9800
 8391SOL    HW231136   5.114   4.921   1.984 -0.2470 -1.3842  0.2752
 8392SOL     OW31137   1.783   6.754   7.528  0.4339  0.0712 -0.1995
 8392SOL    HW131138   1.743   6.732   7.612 -1.6123  0.3685 -1.0443
 8392SOL    HW231139   1.878   6.751   7.545  0.1809 -2.9342  1.3125
 8393SOL     OW31140   6.793   0.536   0.704 -0.3494  0.2519  0.1379
 8393SOL    HW131141   6.773   0.615   0.653 -1.6783  0.3147  0.7336
 8393SOL    HW231142   6.765   0.464   0.647 -1.2497  0.3014  0.5021
 8394SOL     OW31143   8.406   8.996   2.268 -0.6954 -0.0036  0.7617
 8394SOL    HW131144   8.359   9.079   2.258  1.2814  1.1427  0.5316
 8394SOL    HW231145   8.391   8.972   2.359 -2.2821 -0.0416  0.5114
 8395SOL     OW31146   0.866   5.176   6.362 -0.1018 -0.1221  0.3776
 8395SOL    HW131147   0.812   5.145   6.289  3.8261  0.7764 -3.3301
 8395SOL    HW231148   0.887   5.266   6.339  1.3792  0.1700  2.6045
 8396SOL     OW31149   7.177   1.363   8.650  0.0044  0.1985  0.1918
 8396SOL    HW131150   7.130   1.359   8.567 -0.5985 -0.4632  0.5551
 8396SOL    HW231151   7.113   1.393   8.714  0.3175  0.1883  0.5191
 8397SOL     OW31152   2.019   5.932   0.654 -0.2681  0.2641  0.0387
 8397SOL    HW131153   2.106   5.949   0.691 -0.3033 -1.3138  0.9172
 8397SOL    HW231154   2.025   5.962   0.563  1.4571 -0.5595 -0.1601
 8398SOL     OW31155   5.108   0.859   4.504 -0.3226 -0.4517  0.6125
 8398SOL    HW131156   5.018   0.891   4.499 -0.3919 -0.7710 -0.5015
 8398SOL    HW231157   5.107   0.796   4.577 -1.1219 -0.7984  0.3193
 8399SOL     OW31158   1.949   6.026   4.703  0.5834 -0.0276  0.2900
 8399SOL    HW131159   2.011   5.953   4.713  0.2202 -0.1682  1.8908
 8399SOL    HW231160   1.868   5.993   4.742 -0.4708  0.2358 -1.5609
 8400SOL     OW31161   2.863   0.771   6.622  0.3251  0.2891 -0.4296
 8400SOL    HW131162   2.913   0.712   6.679 -0.4683 -0.4500 -0.4743
 8400SOL    HW231163   2.891   0.859   6.647  0.0827 -0.0210  1.0394
 8401SOL     OW31164   7.788   2.249   0.366  0.2056 -0.0548 -0.7923
 8401SOL    HW131165   7.731   2.183   0.326 -0.6321  0.4594 -0.4698
 8401SOL    HW231166   7.728   2.313   0.405  0.9776  1.1974 -1.5703
 8402SOL     OW31167   7.176   2.985   8.698 -0.4935 -0.2599 -0.0232
 8402SOL    HW131168   7.099   2.975   8.641  0.6136 -0.2495 -1.5801
 8402SOL    HW231169   7.247   3.007   8.638  0.7391 -0.2779  1.3850
 8403SOL     OW31170   5.347   6.279   1.692 -0.7201 -0.4140  0.9482
 8403SOL    HW131171   5.370   6.230   1.771  2.4564  1.3779  1.3134
 8403SOL    HW231172   5.314   6.363   1.724 -0.3295 -0.0380  0.3827
 8404SOL     OW31173   0.635   0.867   6.869  0.1667 -0.0286 -0.2479
 8404SOL    HW131174   0.600   0.838   6.954 -0.8335  0.2589 -0.5509
 8404SOL    HW231175   0.727   0.838   6.870 -0.5283 -2.4633 -0.1868
 8405SOL     OW31176   3.620   2.296   0.684  0.5434 -0.0950  0.2580
 8405SOL    HW131177   3.599   2.290   0.591  0.0143  0.2234  0.3535
 8405SOL    HW231178   3.670   2.216   0.702  0.2560 -0.3858 -0.1993
 8406SOL     OW31179   8.812   8.931   5.712 -0.0613 -0.3137 -0.2616
 8406SOL    HW131180   8.852   9.013   5.742  0.9443 -0.6881 -0.5569
 8406SOL    HW231181   8.820   8.934   5.617 -3.0261  0.7597 -0.5645
 8407SOL     OW31182   3.093   0.083   7.275 -0.5045 -0.5237  0.2829
 8407SOL    HW131183   3.176   0.109   7.314 -0.5072 -0.3553  0.1773
 8407SOL    HW231184   3.057   0.164   7.239 -0.9944 -0.4847  0.8487
 8408SOL     OW31185   8.272   3.759   2.073  0.5792 -0.0967 -0.3270
 8408SOL    HW131186   8.288   3.809   2.154 -0.9753  0.3055 -0.2362
 8408SOL    HW231187   8.272   3.825   2.004  0.3825 -0.2299 -0.4542
 8409SOL     OW31188   8.362   1.562   3.518 -0.4036  0.2489  0.1016
 8409SOL    HW131189   8.312   1.632   3.560 -0.0456  0.4806  0.1445
 8409SOL    HW231190   8.308   1.483   3.532 -0.2944  0.3168  1.0019
 8410SOL     OW31191   2.582   8.131   2.720  0.2616  0.0912  0.4469
 8410SOL    HW131192   2.515   8.134   2.652 -0.3401  2.1248  1.0602
 8410SOL    HW231193   2.645   8.066   2.689 -1.3388 -0.9659 -0.7483
 8411SOL     OW31194   0.280   5.239   5.703  0.1059 -0.8338  0.3924
 8411SOL    HW131195   0.333   5.304   5.750 -2.7992 -0.6115  3.7533
 8411SOL    HW231196   0.246   5.286   5.627  2.7771 -0.3470 -0.6124
 8412SOL     OW31197   8.717   0.199   0.824  0.3273 -0.0952  0.1326
 8412SOL    HW131198   8.713   0.149   0.743  0.9406  0.7934 -0.4575
 8412SOL    HW231199   8.637   0.251   0.824  0.0412 -0.5218  0.3990
 8413SOL     OW31200   5.738   1.289   0.156 -0.1234 -0.7419 -0.1232
 8413SOL    HW131201   5.736   1.279   0.061  0.1907 -1.5868 -0.0538
 8413SOL    HW231202   5.707   1.378   0.172  1.6969  0.1140 -1.1128
 8414SOL     OW31203   2.190   1.495   5.221  0.1086  0.5611  0.1540
 8414SOL    HW131204   2.281   1.482   5.247  0.1631 -0.9312 -0.6512
 8414SOL    HW231205   2.179   1.590   5.215  1.8826  0.7478 -0.6213
 8415SOL     OW31206   6.406   1.870   0.876  0.0773 -0.3416  0.3107
 8415SOL    HW131207   6.406   1.943   0.938  0.0422  0.5522 -0.7159
 8415SOL    HW231208   6.398   1.911   0.790 -0.0644 -1.5650 -0.2867
 8416SOL     OW31209   8.889   8.231   8.478 -0.2037  0.2631 -0.2966
 8416SOL    HW131210   8.935   8.147   8.487 -0.7704 -0.1881 -1.3936
 8416SOL    HW231211   8.798   8.209   8.496 -0.3775  0.6055 -0.7550
 8417SOL     OW31212   5.123   3.824   2.367  0.4386  0.5806 -0.0469
 8417SOL    HW131213   5.209   3.813   2.326  0.7532 -0.2400  0.7823
 8417SOL    HW231214   5.142   3.867   2.450  0.0010  0.7310 -0.0238
 8418SOL     OW31215   9.002   6.923   8.886  0.1726  0.2113 -0.0067
 8418SOL    HW131216   9.059   6.997   8.866 -0.0328  0.4736  0.3788
 8418SOL    HW231217   8.922   6.940   8.837  1.0329 -1.0300 -1.9819
 8419SOL     OW31218   4.393   9.128   1.795 -0.2810 -0.2158  0.5378
 8419SOL    HW131219   4.392   9.062   1.726 -0.8295 -1.3440  1.6011
 8419SOL    HW231220   4.450   9.092   1.863  0.8167  1.1875  0.4304
 8420SOL     OW31221   9.333   3.057   8.030 -0.3005 -0.1483  0.2978
 8420SOL    HW131222   9.403   2.993   8.018 -0.8049 -0.4935 -0.9705
 8420SOL    HW231223   9.376   3.142   8.021 -0.0672 -0.3589 -0.6547
 8421SOL     OW31224   4.297   9.361   6.909 -0.0697 -0.1507 -0.0477
 8421SOL    HW131225   4.280   9.298   6.839  1.2125 -1.5667  0.8512
 8421SOL    HW231226   4.296   9.309   6.989  0.9130  1.0003  0.7490
 8422SOL     OW31227   7.564   6.638   3.671 -0.1094  0.0657  0.2554
 8422SOL    HW131228   7.492   6.654   3.609  1.9722  0.6875 -2.1720
 8422SOL    HW231229   7.566   6.542   3.680 -0.1881 -0.0814 -1.0306
 8423SOL     OW31230   1.365   3.008   3.508 -0.1226 -0.1173  0.2993
 8423SOL    HW131231   1.380   3.070   3.436 -0.7879 -2.0554 -1.6230
 8423SOL    HW231232   1.447   2.957   3.513 -0.1743 -0.1581  0.7353
 8424SOL     OW31233   8.599   1.829   3.911 -0.2097 -0.1007 -0.0971
 8424SOL    HW131234   8.514   1.791   3.935 -1.3253  0.8782 -2.1838
 8424SOL    HW231235   8.634   1.771   3.845 -0.1922  0.5380 -0.6584
 8425SOL     OW31236   6.710   4.625   1.647 -0.1439 -0.5400  0.8758
 8425SOL    HW131237   6.650   4.614   1.573  0.6620  0.5301  0.0302
 8425SOL    HW231238   6.736   4.535   1.670 -1.0432 -0.9366  0.4029
 8426SOL     OW31239   6.548   2.377   0.791  0.2410  0.0229  0.1528
 8426SOL    HW131240   6.600   2.422   0.724  2.0758 -2.4608 -0.2285
 8426SOL    HW231241   6.485   2.443   0.820  1.1129  2.0142 -2.1064
 8427SOL     OW31242   4.827   0.557   4.804 -0.1260  0.1354  0.3696
 8427SOL    HW131243   4.773   0.589   4.731 -0.9135  0.6654  1.1702
 8427SOL    HW231244   4.798   0.608   4.879  1.3501  0.2772  0.8744
 8428SOL     OW31245   6.426   3.116   0.921 -0.0884  0.2459  0.2613
 8428SOL    HW131246   6.399   3.040   0.869 -2.0460  0.4659  0.8626
 8428SOL    HW231247   6.399   3.192   0.868  0.8972  0.5278  0.1398
 8429SOL     OW31248   0.539   4.653   4.400 -0.1723 -0.0745 -0.5865
 8429SOL    HW131249   0.576   4.681   4.316 -0.7132  1.4918 -0.3443
 8429SOL    HW231250   0.477   4.722   4.422 -0.4391 -0.7464  0.8438
 8430SOL     OW31251   1.231   0.421   8.965  0.5298  0.7876 -0.5149
 8430SOL    HW131252   1.198   0.418   8.875  0.2140  0.6616 -0.3931
 8430SOL    HW231253   1.321   0.390   8.958  0.2419 -0.0375 -0.6652
 8431SOL     OW31254   5.810   7.370   7.762  0.5266  0.0062  0.3776
 8431SOL    HW131255   5.746   7.380   7.692 -1.0220  1.8383  1.9195
 8431SOL    HW231256   5.894   7.394   7.723  0.2491 -1.9373 -1.5654
 8432SOL     OW31257   6.132   4.044   5.218 -0.2603 -0.4213  0.4956
 8432SOL    HW131258   6.185   4.000   5.152 -1.3416  0.4994 -1.0712
 8432SOL    HW231259   6.195   4.086   5.276  0.7802  0.9894 -1.5564
 8433SOL     OW31260   1.956   5.319   4.116 -0.1684 -0.2383  0.1774
 8433SOL    HW131261   1.904   5.238   4.116  0.6331 -0.7587  0.0042
 8433SOL    HW231262   1.914   5.374   4.050 -1.0451 -0.2903  0.6693
 8434SOL     OW31263   6.895   8.147   7.593 -0.1693 -0.2624 -0.1569
 8434SOL    HW131264   6.843   8.102   7.660  0.8684  0.5741  1.2582
 8434SOL    HW231265   6.862   8.237   7.594  1.5345  0.4123  1.1112
 8435SOL     OW31266   4.853   3.195   0.690  0.5989 -0.6699 -0.5919
 8435SOL    HW131267   4.786   3.175   0.756 -1.0826  1.2691 -1.5930
 8435SOL    HW231268   4.931   3.217   0.741  0.7208 -3.4131  0.6048
 8436SOL     OW31269   8.641   2.211   0.656  0.1423  0.4940  0.0957
 8436SOL    HW131270   8.598   2.235   0.574  0.3918  2.3236  0.4646
 8436SOL    HW231271   8.693   2.288   0.679  0.7797 -0.3262  1.5225
 8437SOL     OW31272   5.190   3.365   4.475  0.3094  0.6488  0.2918
 8437SOL    HW131273   5.194   3.424   4.551 -0.3693 -0.4660  1.2329
 8437SOL    HW231274   5.172   3.279   4.513 -1.7480  0.3355 -1.2384
 8438SOL     OW31275   8.158   4.507   4.612  0.5869  0.0271  0.0853
 8438SOL    HW131276   8.155   4.464   4.526  0.1281  1.4602 -0.6474
 8438SOL    HW231277   8.184   4.597   4.593  1.1541  0.1864  1.5369
 8439SOL     OW31278   4.328   1.810   5.001  0.0278  0.1226  0.0304
 8439SOL    HW131279   4.397   1.768   4.950 -0.5667  0.1462 -0.8102
 8439SOL    HW231280   4.369   1.830   5.085  0.0958 -2.9532  0.8384
 8440SOL     OW31281   1.181   4.683   1.634 -0.1879  0.3004 -0.6630
 8440SOL    HW131282   1.108   4.686   1.697 -0.9143  0.1068 -1.4792
 8440SOL    HW231283   1.189   4.773   1.603 -0.9398  0.0897 -1.5172
 8441SOL     OW31284   5.793   5.008   6.417 -0.0681  0.3206  0.2409
 8441SOL    HW131285   5.841   5.020   6.500 -0.3454 -0.0055  0.4479
 8441SOL    HW231286   5.704   5.037   6.437  0.0078  0.7894 -0.1052
 8442SOL     OW31287   6.049   6.123   5.599  0.1172  0.2775  0.1716
 8442SOL    HW131288   6.017   6.213   5.601 -0.0943  0.2855 -1.6684
 8442SOL    HW231289   5.981   6.072   5.643 -0.4166  0.8458  0.0222
 8443SOL     OW31290   2.098   8.704   0.566  0.1343 -0.2075 -0.5847
 8443SOL    HW131291   2.145   8.659   0.497  0.9917 -2.9412  1.6042
 8443SOL    HW231292   2.117   8.654   0.646 -3.5031  0.7104  1.0884
 8444SOL     OW31293   1.222   0.426   4.138  0.2627 -0.1505  0.2718
 8444SOL    HW131294   1.183   0.378   4.066  0.8358 -1.8422  1.0376
 8444SOL    HW231295   1.308   0.385   4.151 -0.2484 -0.6232  2.5961
 8445SOL     OW31296   0.951   2.202   8.544  0.0785  0.1856 -0.2879
 8445SOL    HW131297   0.878   2.247   8.586 -0.8277 -1.4113 -0.0749
 8445SOL    HW231298   0.984   2.264   8.479 -1.2844  1.0440 -0.1847
 8446SOL     OW31299   7.625   1.236   2.962 -0.0717  0.2543 -0.4976
 8446SOL    HW131300   7.642   1.246   2.869 -0.0214 -1.0929 -0.6653
 8446SOL    HW231301   7.691   1.290   3.005  0.5667  0.0762 -1.2295
 8447SOL     OW31302   5.710   3.017   0.459 -0.6450  0.5591  0.2559
 8447SOL    HW131303   5.758   3.008   0.541  1.1593  3.6835 -0.2952
 8447SOL    HW231304   5.630   3.065   0.482  0.0664  1.8157  0.1786
 8448SOL     OW31305   4.446   4.184   3.222 -0.2590 -0.3548 -0.4457
 8448SOL    HW131306   4.383   4.252   3.246  0.4929  1.5594 -3.2810
 8448SOL    HW231307   4.394   4.105   3.208 -1.6343  0.4811 -0.1223
 8449SOL     OW31308   3.807   1.138   6.811  0.1593 -0.1187 -0.1513
 8449SOL    HW131309   3.790   1.076   6.740  2.4447 -2.6535  1.2869
 8449SOL    HW231310   3.745   1.112   6.880 -3.4090  3.5389 -1.5700
 8450SOL     OW31311   5.569   5.483   8.588 -0.4981  0.0981  0.1666
 8450SOL    HW131312   5.645   5.426   8.591 -0.8438 -0.3372  1.7411
 8450SOL    HW231313   5.605   5.572   8.594 -0.0475 -0.0393 -0.5139
 8451SOL     OW31314   5.321   2.945   3.487 -0.2588  0.6887  0.3133
 8451SOL    HW131315   5.416   2.954   3.480 -0.3541  1.9896  0.4030
 8451SOL    HW231316   5.301   2.866   3.436  0.8255  0.6084 -0.0241
 8452SOL     OW31317   3.019   1.347   5.001  0.1389  0.2475 -0.6333
 8452SOL    HW131318   3.038   1.423   5.056  1.7084 -0.4665 -0.1297
 8452SOL    HW231319   3.031   1.272   5.060 -2.7603 -0.3872 -0.7285
 8453SOL     OW31320   0.942   5.498   3.344 -0.3980 -0.1834 -0.4715
 8453SOL    HW131321   1.032   5.492   3.311  0.1840  1.5510  0.6232
 8453SOL    HW231322   0.896   5.427   3.301  1.4625 -1.0307 -1.1924
 8454SOL     OW31323   3.872   4.945   2.011 -0.3662  0.4603  0.0753
 8454SOL    HW131324   3.782   4.923   2.035 -0.1459 -1.0056 -0.3980
 8454SOL    HW231325   3.919   4.862   2.010  0.6065  0.9839 -1.3621
 8455SOL     OW31326   2.589   5.721   5.114  0.3388 -0.3166  0.0751
 8455SOL    HW131327   2.611   5.631   5.090 -1.4459 -1.1712  1.3642
 8455SOL    HW231328   2.592   5.722   5.209  1.5119  1.3584  0.0589
 8456SOL     OW31329   5.065   8.995   1.512  0.3513 -0.4828  0.6513
 8456SOL    HW131330   5.109   8.929   1.458  1.9582  0.7218  0.4095
 8456SOL    HW231331   5.075   8.964   1.602  1.3749 -0.4369  0.5642
 8457SOL     OW31332   4.420   2.551   6.652 -0.5226  0.5743  0.0498
 8457SOL    HW131333   4.497   2.496   6.658 -1.2697 -0.4293  0.7509
 8457SOL    HW231334   4.439   2.627   6.707 -0.7317 -0.5386  1.7105
 8458SOL     OW31335   5.871   5.498   7.746  0.3406 -0.9468 -0.8633
 8458SOL    HW131336   5.785   5.539   7.741 -0.0058 -1.6105 -0.4629
 8458SOL    HW231337   5.927   5.566   7.784 -0.2920 -0.9222  0.0578
 8459SOL     OW31338   7.579   8.100   6.422 -0.1405  0.3427 -0.4887
 8459SOL    HW131339   7.512   8.034   6.400  0.4890 -0.4153 -0.1663
 8459SOL    HW231340   7.654   8.076   6.369  0.1937  0.6248 -0.1434
 8460SOL     OW31341   2.008   6.445   9.074 -0.1158 -0.0746  0.0257
 8460SOL    HW131342   1.998   6.422   9.166 -0.3855  0.8976  0.2552
 8460SOL    HW231343   2.087   6.499   9.071  0.8093 -1.4242 -0.5774
 8461SOL     OW31344   2.621   0.757   7.286  0.6961  0.1457  0.1408
 8461SOL    HW131345   2.635   0.797   7.372  0.0591  1.4086 -0.3118
 8461SOL    HW231346   2.538   0.794   7.255  0.8155 -0.4315 -0.9348
 8462SOL     OW31347   3.874   7.095   9.330  0.2039  0.3163  0.1822
 8462SOL    HW131348   3.856   7.144   9.410  1.0629  1.3943 -0.2629
 8462SOL    HW231349   3.919   7.157   9.273 -1.7539  0.0908 -1.7740
 8463SOL     OW31350   0.783   1.550   9.167  0.4091 -0.0544  0.1614
 8463SOL    HW131351   0.742   1.626   9.127 -2.0514 -1.7394 -0.7699
 8463SOL    HW231352   0.770   1.563   9.261 -1.8573 -0.2299 -0.0727
 8464SOL     OW31353   2.422   4.347   3.373  0.8764  0.7147  0.3216
 8464SOL    HW131354   2.432   4.277   3.438 -0.1830 -0.2850 -0.5443
 8464SOL    HW231355   2.376   4.305   3.300 -3.7019  3.2364  1.3938
 8465SOL     OW31356   3.812   2.844   7.632  0.0075 -0.0085 -0.0062
 8465SOL    HW131357   3.890   2.797   7.603 -0.9421 -0.2599 -2.3310
 8465SOL    HW231358   3.739   2.789   7.606 -1.1076  2.1587 -1.7993
 8466SOL     OW31359   6.822   6.545   9.080 -0.0786 -0.1346 -0.2161
 8466SOL    HW131360   6.800   6.558   9.173 -0.2800  0.5495 -0.3506
 8466SOL    HW231361   6.756   6.484   9.048 -1.6978  1.6872 -0.5460
 8467SOL     OW31362   8.904   8.671   3.311 -0.2431  0.1341 -0.6688
 8467SOL    HW131363   8.822   8.637   3.346 -0.3864  2.0226  1.0237
 8467SOL    HW231364   8.877   8.741   3.251  0.1049  1.5272  0.7538
 8468SOL     OW31365   4.429   7.635   6.941  0.3214 -0.3616 -0.2417
 8468SOL    HW131366   4.352   7.601   6.897 -0.9035 -0.1207  1.6059
 8468SOL    HW231367   4.425   7.730   6.928  0.5294 -0.3796 -0.4574
 8469SOL     OW31368   8.643   4.937   0.524 -0.1372 -0.4589  0.3485
 8469SOL    HW131369   8.662   4.914   0.616  0.2089  0.3511  0.4898
 8469SOL    HW231370   8.705   4.884   0.474 -0.9702 -1.6154  0.5210
 8470SOL     OW31371   3.576   0.465   0.994  0.1885 -0.0430 -0.2798
 8470SOL    HW131372   3.568   0.466   1.090  3.1538  0.8120  0.0497
 8470SOL    HW231373   3.493   0.428   0.964 -1.9411  2.0600  2.4665
 8471SOL     OW31374   9.218   7.668   6.634  0.2780 -0.4146 -0.0310
 8471SOL    HW131375   9.223   7.574   6.645 -0.1492 -0.4426 -0.0405
 8471SOL    HW231376   9.254   7.704   6.715 -1.5414 -0.6073  0.9150
 8472SOL     OW31377   9.186   4.558   8.914  0.0268  0.7219 -0.3354
 8472SOL    HW131378   9.157   4.504   8.988 -2.2596  0.1571 -1.5546
 8472SOL    HW231379   9.120   4.543   8.846  1.5974  1.8739 -2.2077
 8473SOL     OW31380   9.178   5.469   5.252  0.1589 -0.2065 -0.2591
 8473SOL    HW131381   9.088   5.492   5.228 -0.4067  0.5450  2.2693
 8473SOL    HW231382   9.231   5.543   5.220  0.1939 -1.3395 -3.0955
 8474SOL     OW31383   3.532   0.823   8.055 -0.2538  0.3032  0.1558
 8474SOL    HW131384   3.487   0.800   8.136 -0.5418  0.9057  0.1723
 8474SOL    HW231385   3.528   0.743   8.002 -0.0345 -0.1040  0.7426
 8475SOL     OW31386   0.823   8.911   5.395 -0.2304 -0.5456 -0.2343
 8475SOL    HW131387   0.912   8.947   5.388 -0.4691 -0.0135 -0.6821
 8475SOL    HW231388   0.788   8.918   5.306 -0.2909 -1.9139 -0.3366
 8476SOL     OW31389   8.574   0.773   5.101  0.3410 -0.7855 -0.1734
 8476SOL    HW131390   8.632   0.781   5.177 -0.9511  0.8088  0.7138
 8476SOL    HW231391   8.490   0.747   5.138 -0.5501  0.9102 -0.9011
 8477SOL     OW31392   6.895   6.284   6.229 -0.0990 -0.2286  0.0459
 8477SOL    HW131393   6.935   6.366   6.257 -0.1016 -0.5937  1.1653
 8477SOL    HW231394   6.882   6.295   6.134 -1.9774  1.8563  0.4640
 8478SOL     OW31395   1.190   4.592   4.564  0.3390  0.2228 -0.3297
 8478SOL    HW131396   1.160   4.597   4.655 -1.3864  0.0141 -0.8550
 8478SOL    HW231397   1.167   4.676   4.526  0.8353  0.2206 -0.6440
 8479SOL     OW31398   0.731   3.232   8.896 -0.0252  0.5320  0.3938
 8479SOL    HW131399   0.803   3.209   8.955  1.1748  1.7558 -0.5036
 8479SOL    HW231400   0.737   3.168   8.825 -0.1369  0.3205  0.5771
 8480SOL     OW31401   6.418   0.059   5.862  0.6984  0.2450 -0.2793
 8480SOL    HW131402   6.367  -0.022   5.860 -2.9273  2.3010 -2.7216
 8480SOL    HW231403   6.378   0.111   5.931  0.3827  1.3419 -1.2516
 8481SOL     OW31404   8.841   7.188   5.036 -0.3702 -0.1620  0.6285
 8481SOL    HW131405   8.878   7.276   5.030 -1.2977  0.2472  0.7990
 8481SOL    HW231406   8.756   7.200   5.078 -2.9005 -0.4164 -3.8178
 8482SOL     OW31407   6.618   4.656   2.329  0.3613  0.1774 -0.1587
 8482SOL    HW131408   6.672   4.652   2.408  1.6260  1.0425 -0.9452
 8482SOL    HW231409   6.627   4.569   2.289  0.6919  0.1187  0.0407
 8483SOL     OW31410   3.652   0.928   4.056  0.4018 -0.1858 -0.4465
 8483SOL    HW131411   3.730   0.899   4.102  0.6138 -2.0291 -1.8470
 8483SOL    HW231412   3.643   1.020   4.079  1.5739 -0.5535  1.6712
 8484SOL     OW31413   7.925   5.195   1.501  0.6925 -0.0299  0.2513
 8484SOL    HW131414   7.841   5.149   1.488  1.8212 -1.4139 -3.1841
 8484SOL    HW231415   7.900   5.287   1.511 -1.2860 -0.5455  0.6418
 8485SOL     OW31416   5.108   7.445   8.924 -0.2443  0.4216 -0.3681
 8485SOL    HW131417   5.171   7.404   8.865  0.0036  1.1920 -0.6492
 8485SOL    HW231418   5.152   7.524   8.955 -1.3843  1.4531 -1.2728
 8486SOL     OW31419   8.317   1.118   6.281  0.2758 -0.5816  0.3714
 8486SOL    HW131420   8.260   1.041   6.285  0.3985 -0.6072  2.4873
 8486SOL    HW231421   8.362   1.120   6.365  0.9850  1.2895  0.0075
 8487SOL     OW31422   0.201   2.059   8.210 -0.1030 -0.1532 -0.3794
 8487SOL    HW131423   0.240   2.113   8.141  0.0630 -1.5876 -1.4600
 8487SOL    HW231424   0.123   2.021   8.169  0.3455 -1.5215 -0.0190
 8488SOL     OW31425   9.198   8.403   2.304 -0.5773 -0.3637 -0.0668
 8488SOL    HW131426   9.198   8.493   2.273 -0.3350 -0.7041 -1.1158
 8488SOL    HW231427   9.249   8.404   2.384 -1.0891  0.5315  0.2628
 8489SOL     OW31428   0.241   7.237   3.757 -0.4067 -0.1002  0.1392
 8489SOL    HW131429   0.199   7.310   3.711  2.0157  0.6262 -1.1012
 8489SOL    HW231430   0.230   7.258   3.850 -3.1152 -0.2400 -0.0531
 8490SOL     OW31431   8.345   6.219   2.855 -0.3081  0.0254  0.1600
 8490SOL    HW131432   8.408   6.199   2.786  0.0042  1.2634  0.0675
 8490SOL    HW231433   8.385   6.182   2.934  0.6173  0.9264  0.1297
 8491SOL     OW31434   7.792   2.230   8.948 -0.1066  0.4163 -0.2616
 8491SOL    HW131435   7.862   2.256   8.888 -0.7831  1.5691 -0.5816
 8491SOL    HW231436   7.821   2.145   8.983  0.9669  0.3950 -1.1336
 8492SOL     OW31437   7.769   8.727   3.041  0.2699 -0.1491 -0.2625
 8492SOL    HW131438   7.807   8.749   3.126  0.0156  0.6590 -0.3476
 8492SOL    HW231439   7.676   8.748   3.050  0.1796 -0.3873 -0.6321
 8493SOL     OW31440   0.547   0.822   0.824 -0.3446 -0.5381  0.1746
 8493SOL    HW131441   0.513   0.890   0.766 -0.0882 -0.6089 -0.0641
 8493SOL    HW231442   0.590   0.760   0.765 -1.6006 -1.5342  0.2751
 8494SOL     OW31443   1.419   5.931   2.516  0.0917 -0.3883 -0.0055
 8494SOL    HW131444   1.412   5.946   2.422  0.5226 -1.8119 -0.2817
 8494SOL    HW231445   1.486   5.994   2.545  0.4644 -0.4218 -0.7745
 8495SOL     OW31446   5.822   0.504   4.347  0.0345  0.4371 -0.2845
 8495SOL    HW131447   5.794   0.421   4.308 -1.2739  0.6099  0.2262
 8495SOL    HW231448   5.779   0.505   4.433  2.8911  0.0203  1.2530
 8496SOL     OW31449   0.217   5.923   0.222 -0.4306  0.5311  0.6818
 8496SOL    HW131450   0.133   5.916   0.177  0.4450  1.1205 -1.1853
 8496SOL    HW231451   0.262   5.996   0.178  1.6964 -0.8224  0.4508
 8497SOL     OW31452   5.216   8.019   3.306  0.0165  0.3880  0.3575
 8497SOL    HW131453   5.251   7.932   3.323 -0.2001  0.0570 -0.8365
 8497SOL    HW231454   5.292   8.077   3.312 -0.0873  0.3862  2.7798
 8498SOL     OW31455   3.394   7.955   9.173 -0.6849 -0.7903  0.1406
 8498SOL    HW131456   3.342   7.905   9.235  0.2057 -1.9416 -0.0142
 8498SOL    HW231457   3.461   7.894   9.142 -0.2850  0.1483 -0.9431
 8499SOL     OW31458   1.806   4.057   4.853 -0.1099 -0.1043  0.1252
 8499SOL    HW131459   1.813   4.034   4.761 -1.2853 -1.8032  0.4216
 8499SOL    HW231460   1.721   4.101   4.860  0.8558  1.8999  0.0860
 8500SOL     OW31461   4.403   4.814   7.685 -0.0332  0.0662 -0.5824
 8500SOL    HW131462   4.409   4.845   7.595  1.7414  0.6795 -0.3035
 8500SOL    HW231463   4.345   4.877   7.728  0.3149  0.6651 -0.9642
 8501SOL     OW31464   7.243   0.322   7.969 -0.2219 -0.0057  0.4540
 8501SOL    HW131465   7.246   0.349   8.061  0.7783  0.2166  0.3751
 8501SOL    HW231466   7.321   0.268   7.958 -0.0543  0.3874 -0.3861
 8502SOL     OW31467   6.629   6.362   8.959 -0.4513  0.0719  0.0060
 8502SOL    HW131468   6.599   6.360   8.868  1.0526  0.1840 -0.5074
 8502SOL    HW231469   6.549   6.347   9.010 -0.9233 -3.1312 -1.4021
 8503SOL     OW31470   8.116   0.046   0.775  0.1725 -0.3213 -0.2054
 8503SOL    HW131471   8.211   0.047   0.789 -0.0612 -1.0313  1.9161
 8503SOL    HW231472   8.093  -0.047   0.780 -0.5600 -0.2397 -1.5883
 8504SOL     OW31473   3.059   4.309   1.921 -0.5731  0.0071  0.1110
 8504SOL    HW131474   2.998   4.323   1.848 -0.2718 -0.7454 -0.2976
 8504SOL    HW231475   3.040   4.381   1.981 -0.9818  0.5169 -0.6000
 8505SOL     OW31476   8.949   4.908   7.897  0.3981  0.1106  0.1499
 8505SOL    HW131477   8.926   4.986   7.847  0.8768 -0.2656 -0.6810
 8505SOL    HW231478   8.879   4.845   7.875  0.5632 -0.0276  0.0194
 8506SOL     OW31479   8.666   7.596   0.648  0.5920 -0.7262 -0.7884
 8506SOL    HW131480   8.630   7.605   0.560 -1.1357  0.3571 -0.0432
 8506SOL    HW231481   8.749   7.644   0.645 -0.3097  0.8689 -1.3851
 8507SOL     OW31482   6.391   4.559   3.366  0.1650 -0.0999  0.1412
 8507SOL    HW131483   6.393   4.470   3.402 -0.7503 -0.2891 -0.2234
 8507SOL    HW231484   6.478   4.594   3.383  0.2918 -0.7844  0.9987
 8508SOL     OW31485   1.186   5.426   6.886  0.3122  0.0184  0.5125
 8508SOL    HW131486   1.096   5.415   6.854 -0.1928 -0.6888  2.1046
 8508SOL    HW231487   1.217   5.337   6.902  1.2084  0.2743  0.2589
 8509SOL     OW31488   2.575   3.547   6.223 -0.4975  0.4953 -0.4176
 8509SOL    HW131489   2.536   3.609   6.162 -2.5776 -0.4623 -0.1645
 8509SOL    HW231490   2.584   3.596   6.305  0.6610  1.2780 -0.9927
 8510SOL     OW31491   6.667   5.009   7.134 -0.0372 -0.2006  0.2958
 8510SOL    HW131492   6.640   5.093   7.096 -2.8569 -0.6630  1.0906
 8510SOL    HW231493   6.652   4.946   7.064  1.9767 -0.1351 -0.2611
 8511SOL     OW31494   9.048   1.187   7.849 -0.1405 -0.5667  0.3752
 8511SOL    HW131495   9.141   1.203   7.833 -0.1553 -0.5433  0.3167
 8511SOL    HW231496   9.019   1.263   7.899 -0.0362 -0.7616  0.7349
 8512SOL     OW31497   8.174   7.049   0.895 -0.3265 -0.1822  0.7034
 8512SOL    HW131498   8.180   7.111   0.967 -2.3330 -1.0544  1.6917
 8512SOL    HW231499   8.102   7.081   0.842  0.5568 -0.0515 -0.4618
 8513SOL     OW31500   7.028   3.197   4.374 -0.1607  0.5445  0.0270
 8513SOL    HW131501   7.092   3.233   4.314 -0.8317 -0.1963 -1.1848
 8513SOL    HW231502   6.999   3.116   4.332 -1.1620  0.3618  1.0169
 8514SOL     OW31503   0.020   5.072   0.753  0.0916  0.6138  0.2536
 8514SOL    HW131504   0.005   5.017   0.676  1.2001 -1.5282  1.4849
 8514SOL    HW231505   0.056   5.153   0.717  2.4952 -1.0475 -1.4517
 8515SOL     OW31506   0.042   8.021   0.385 -0.0386  0.2206 -0.0495
 8515SOL    HW131507   0.039   8.115   0.401  1.6537  0.4383 -0.7660
 8515SOL    HW231508   0.087   8.012   0.301  3.8436 -1.2941  1.9396
 8516SOL     OW31509   3.258   4.776   9.171 -0.7438 -0.4666 -0.0188
 8516SOL    HW131510   3.262   4.872   9.163 -0.0327 -0.3289  1.6284
 8516SOL    HW231511   3.174   4.759   9.213 -0.5467 -0.5068  0.3604
 8517SOL     OW31512   4.861   5.352   8.616 -0.3372  0.3791  0.4431
 8517SOL    HW131513   4.831   5.401   8.539 -1.1108 -0.7264  0.0095
 8517SOL    HW231514   4.933   5.298   8.583  0.5921  1.2817  0.9448
 8518SOL     OW31515   0.843   7.797   6.549  0.0801  0.0894  0.0936
 8518SOL    HW131516   0.751   7.770   6.548  0.0983 -0.0423 -2.0390
 8518SOL    HW231517   0.881   7.747   6.622 -1.1778 -1.1410 -0.0475
 8519SOL     OW31518   8.912   1.842   2.444 -0.6762  0.1024 -0.8416
 8519SOL    HW131519   8.832   1.843   2.496  0.4100 -0.5781  0.9577
 8519SOL    HW231520   8.960   1.919   2.473 -0.1681 -0.1392 -1.0263
 8520SOL     OW31521   1.207   0.332   3.370 -0.0720  0.0824 -0.0193
 8520SOL    HW131522   1.287   0.378   3.345 -0.7785  0.2784 -2.1166
 8520SOL    HW231523   1.232   0.281   3.447  1.9006  0.6012 -0.2592
 8521SOL     OW31524   1.071   2.569   3.763 -0.2726  0.0262  0.3474
 8521SOL    HW131525   1.068   2.498   3.827  1.0979  0.6873  1.1897
 8521SOL    HW231526   1.081   2.525   3.679 -1.7023 -0.8453  0.6029
 8522SOL     OW31527   7.063   8.099   8.558  0.2976  0.2178 -0.3695
 8522SOL    HW131528   7.114   8.021   8.578 -0.1988 -0.5130 -1.8622
 8522SOL    HW231529   6.995   8.101   8.625 -0.7032 -1.5774 -1.2887
 8523SOL     OW31530   1.357   5.262   3.884  0.4754  0.8960 -0.3535
 8523SOL    HW131531   1.417   5.187   3.889  2.0748  2.2005  1.5214
 8523SOL    HW231532   1.280   5.234   3.934 -0.2541 -0.5248 -2.1572
 8524SOL     OW31533   7.970   9.045   0.360 -0.7460 -0.4454  0.0355
 8524SOL    HW131534   8.036   9.030   0.428  0.8808  0.1587 -1.3396
 8524SOL    HW231535   7.984   9.135   0.331 -2.0584 -0.3690 -0.4479
 8525SOL     OW31536   6.422   5.687   4.227  0.2558 -0.2003  0.3863
 8525SOL    HW131537   6.512   5.658   4.211  1.0412 -0.0050  3.6862
 8525SOL    HW231538   6.422   5.780   4.206  0.8288 -0.2031  0.3621
 8526SOL     OW31539   8.805   6.624   3.334  0.0634 -0.1168  0.5043
 8526SOL    HW131540   8.855   6.705   3.341 -0.5526  0.3482 -0.3008
 8526SOL    HW231541   8.861   6.566   3.282 -0.7152  0.8375 -1.4942
 8527SOL     OW31542   0.069   2.842   5.067  0.1884  0.3842  0.5955
 8527SOL    HW131543   0.095   2.889   5.146  2.1175  0.7703 -0.2019
 8527SOL    HW231544   0.135   2.772   5.059  1.1153  1.4208 -1.5660
 8528SOL     OW31545   3.597   1.737   0.558  0.0476 -0.6111  0.1999
 8528SOL    HW131546   3.645   1.809   0.598  0.4251 -1.0727  0.5895
 8528SOL    HW231547   3.556   1.776   0.481 -1.0214  0.3995  1.2192
 8529SOL     OW31548   4.077   5.262   9.244  0.5734 -0.0636  0.1346
 8529SOL    HW131549   4.136   5.187   9.249  1.0461  0.3753  3.3102
 8529SOL    HW231550   4.129   5.332   9.206  1.5350 -0.2115  1.1229
 8530SOL     OW31551   1.997   2.076   3.728  0.3912 -0.3456  0.1284
 8530SOL    HW131552   2.065   2.011   3.743  1.4709  0.1221 -2.2694
 8530SOL    HW231553   2.041   2.160   3.743 -0.0460 -0.0745 -0.1065
 8531SOL     OW31554   7.371   7.061   4.676  0.7684 -0.1810  0.3467
 8531SOL    HW131555   7.322   7.056   4.593 -0.3688 -0.2506  1.0018
 8531SOL    HW231556   7.463   7.067   4.649  0.3904  0.2183 -0.9252
 8532SOL     OW31557   8.861   5.945   7.078  0.4243  0.0640  0.2158
 8532SOL    HW131558   8.929   5.891   7.039  1.0682  0.5980  0.5609
 8532SOL    HW231559   8.857   6.023   7.023 -1.0002 -0.6167 -0.6975
 8533SOL     OW31560   4.841   1.956   1.622 -0.0048  0.1496  0.2752
 8533SOL    HW131561   4.911   1.970   1.557 -0.6868  1.0375 -0.2954
 8533SOL    HW231562   4.782   1.893   1.581 -0.5353  0.8523 -0.0698
 8534SOL     OW31563   0.763   6.681   4.686  0.2114 -0.1180 -0.6763
 8534SOL    HW131564   0.676   6.687   4.724 -0.1382 -5.3488  0.0636
 8534SOL    HW231565   0.756   6.723   4.601 -2.5020  1.0678  0.0400
 8535SOL     OW31566   8.931   6.851   2.246  0.3261  0.5136  0.0622
 8535SOL    HW131567   8.895   6.782   2.301 -1.6020  1.1105 -0.3745
 8535SOL    HW231568   8.855   6.903   2.219  1.7959  3.6039  1.4078
 8536SOL     OW31569   5.675   8.909   1.464  0.5353  0.5792  0.2313
 8536SOL    HW131570   5.753   8.963   1.456  1.1933 -0.5048 -1.2316
 8536SOL    HW231571   5.612   8.949   1.404  0.3781  0.7702  0.5221
 8537SOL     OW31572   3.205   9.016   4.379  0.0901  0.4171  0.1291
 8537SOL    HW131573   3.279   9.000   4.321  0.3784  1.9298  0.0442
 8537SOL    HW231574   3.244   9.039   4.463 -0.3132 -0.1893  0.4980
 8538SOL     OW31575   5.412   1.471   7.943  0.1128 -0.0917  0.5557
 8538SOL    HW131576   5.477   1.520   7.992  1.2916 -1.6851  0.6439
 8538SOL    HW231577   5.395   1.393   7.995 -0.6984 -0.4722 -0.2345
 8539SOL     OW31578   6.036   4.023   3.062 -0.5461  0.4743 -0.6294
 8539SOL    HW131579   6.027   4.098   3.120 -1.4289 -0.1462  0.0607
 8539SOL    HW231580   5.983   4.045   2.985 -1.1111  0.4078 -0.2631
 8540SOL     OW31581   3.307   1.471   1.718 -0.1438  0.2866 -0.1568
 8540SOL    HW131582   3.304   1.563   1.745  0.9287 -0.2445  1.9623
 8540SOL    HW231583   3.395   1.442   1.740 -0.8373 -1.5629  0.3404
 8541SOL     OW31584   3.200   1.805   0.818 -0.1853  0.3688  0.1052
 8541SOL    HW131585   3.277   1.861   0.805  0.9160 -1.0054  0.4046
 8541SOL    HW231586   3.146   1.852   0.880  1.4799  0.4174  1.5977
 8542SOL     OW31587   3.462   5.287   6.127  0.5013 -0.2759  0.4164
 8542SOL    HW131588   3.475   5.378   6.100 -0.2619 -0.3607 -0.2917
 8542SOL    HW231589   3.376   5.286   6.169  1.5528 -0.2071  2.7065
 8543SOL     OW31590   0.132   8.795   7.946  0.3228  0.3097  0.0173
 8543SOL    HW131591   0.081   8.849   8.006 -0.9746 -0.7576 -0.0926
 8543SOL    HW231592   0.161   8.856   7.877 -0.3653  1.0310  0.3600
 8544SOL     OW31593   8.159   3.330   9.119  0.3229  0.0899 -0.3186
 8544SOL    HW131594   8.147   3.344   9.025  1.9247  0.3949 -0.5053
 8544SOL    HW231595   8.130   3.412   9.159  1.6002  0.7601 -0.7298
 8545SOL     OW31596   7.340   6.011   8.907 -0.5982 -0.9822  0.4009
 8545SOL    HW131597   7.394   6.032   8.983  0.0017  0.8548 -0.4847
 8545SOL    HW231598   7.305   6.095   8.877 -0.2422 -1.5407 -1.7807
 8546SOL     OW31599   9.113   0.268   2.727  0.0850  0.4584  0.2011
 8546SOL    HW131600   9.175   0.258   2.799  1.1007 -3.0831 -0.9984
 8546SOL    HW231601   9.162   0.316   2.660  1.0251 -0.8561 -0.0930
 8547SOL     OW31602   3.222   8.107   7.172  0.2509  0.3362 -0.1981
 8547SOL    HW131603   3.281   8.069   7.107 -1.6055 -0.4938 -1.4907
 8547SOL    HW231604   3.212   8.039   7.239 -0.1911 -0.0144 -0.6160
 8548SOL     OW31605   4.786   3.294   5.678 -0.5246  0.0371 -0.2924
 8548SOL    HW131606   4.787   3.334   5.765 -0.0367  1.2508 -0.8323
 8548SOL    HW231607   4.877   3.269   5.662 -0.8067 -1.2560  0.0014
 8549SOL     OW31608   5.941   3.288   2.687  0.5222  0.4984 -0.0153
 8549SOL    HW131609   5.862   3.279   2.741  0.1121 -0.2122 -0.7192
 8549SOL    HW231610   5.985   3.204   2.696  1.0293  0.7749  0.1015
 8550SOL     OW31611   8.900   2.655   3.233  0.3976 -0.4681 -0.1549
 8550SOL    HW131612   8.861   2.656   3.146 -0.1860  0.3468  0.1057
 8550SOL    HW231613   8.827   2.638   3.292  0.8271 -1.2379  0.1622
 8551SOL     OW31614   4.424   6.839   0.741  0.5101  0.1878 -0.5282
 8551SOL    HW131615   4.390   6.753   0.718 -0.7824  0.9076 -1.3747
 8551SOL    HW231616   4.502   6.820   0.793  0.2462 -1.4881 -0.6901
 8552SOL     OW31617   2.467   8.480   7.896  0.5464  0.2028  0.2157
 8552SOL    HW131618   2.472   8.387   7.877 -2.0125  0.2200 -0.9800
 8552SOL    HW231619   2.376   8.494   7.923  0.8446  2.3742  0.2812
 8553SOL     OW31620   2.186   1.417   1.139 -0.2529 -0.2833  0.0019
 8553SOL    HW131621   2.115   1.362   1.172 -0.3185 -1.0643 -1.3748
 8553SOL    HW231622   2.240   1.435   1.216 -0.6719 -1.6124  0.6398
 8554SOL     OW31623   0.933   7.449   6.464 -0.1937  0.1126  0.0676
 8554SOL    HW131624   1.000   7.384   6.485 -0.8397 -1.0483 -1.3007
 8554SOL    HW231625   0.853   7.399   6.452 -0.6071  1.0589 -1.5019
 8555SOL     OW31626   3.275   2.980   3.035  0.4006  0.2779 -0.0084
 8555SOL    HW131627   3.362   2.974   2.997  0.6164  0.1440  0.4915
 8555SOL    HW231628   3.290   2.980   3.130 -0.1036  0.8232  0.0823
 8556SOL     OW31629   8.005   1.090   6.074 -0.2379  0.2164 -0.3075
 8556SOL    HW131630   8.028   1.070   6.165 -1.0616  1.3348  0.1853
 8556SOL    HW231631   7.939   1.024   6.051 -1.3561  0.9824  0.5529
 8557SOL     OW31632   6.722   0.363   0.513 -0.3560 -0.1462  0.9504
 8557SOL    HW131633   6.661   0.289   0.514  0.8249 -1.1394  1.4696
 8557SOL    HW231634   6.713   0.400   0.425 -2.2805  0.2439  1.2644
 8558SOL     OW31635   7.158   4.718   8.104 -0.2635  0.1046  0.9470
 8558SOL    HW131636   7.066   4.708   8.128 -1.1113  1.1765 -1.5392
 8558SOL    HW231637   7.185   4.801   8.144 -0.6092  0.1616  1.0606
 8559SOL     OW31638   8.470   2.001   2.819 -0.0410 -0.1352 -0.5357
 8559SOL    HW131639   8.528   2.018   2.744  0.8295 -1.7392 -0.2578
 8559SOL    HW231640   8.395   1.955   2.781 -0.4210  0.5490 -0.6480
 8560SOL     OW31641   0.565   2.298   0.669  0.2129  0.1951  0.1381
 8560SOL    HW131642   0.533   2.386   0.649 -0.7451 -0.1368  0.1720
 8560SOL    HW231643   0.660   2.305   0.659 -0.0377  0.3965 -3.1771
 8561SOL     OW31644   8.046   6.218   1.960  0.5067 -0.6954  0.4506
 8561SOL    HW131645   7.971   6.215   1.901 -0.6961  0.7339  1.8147
 8561SOL    HW231646   8.047   6.132   2.002 -0.4900 -0.6669  0.5504
 8562SOL     OW31647   1.810   1.657   4.733 -0.0085 -0.1139 -0.2098
 8562SOL    HW131648   1.894   1.629   4.769  0.6617  0.7038 -1.1086
 8562SOL    HW231649   1.768   1.704   4.805 -0.0326 -1.1339  0.4725
 8563SOL     OW31650   8.544   4.750   0.940 -0.1105 -0.4683  0.3194
 8563SOL    HW131651   8.475   4.687   0.920 -0.0156 -1.0168  1.6361
 8563SOL    HW231652   8.622   4.713   0.899  0.0652 -1.5382  1.5506
 8564SOL     OW31653   9.012   8.581   7.728  0.4849  0.0662  0.3943
 8564SOL    HW131654   9.034   8.665   7.769  0.3985  0.1347  0.2982
 8564SOL    HW231655   9.079   8.520   7.762  0.3069  0.0795  0.7811
 8565SOL     OW31656   1.899   7.024   9.274  0.1737 -0.4704 -0.3039
 8565SOL    HW131657   1.990   7.054   9.279  0.0402  0.5365 -2.6087
 8565SOL    HW231658   1.905   6.938   9.232  0.1643 -1.3908  1.4872
 8566SOL     OW31659   3.805   3.798   3.567 -0.6122  0.0642 -0.3763
 8566SOL    HW131660   3.712   3.788   3.547 -0.3359 -1.3153 -1.0743
 8566SOL    HW231661   3.826   3.888   3.541 -2.0175  0.8429  1.0068
 8567SOL     OW31662   0.126   1.883   4.930  0.7979 -0.6596 -0.6011
 8567SOL    HW131663   0.073   1.815   4.889  0.0796  0.6556 -1.9646
 8567SOL    HW231664   0.066   1.926   4.992  0.6741 -0.0760 -1.1165
 8568SOL     OW31665   4.664   2.163   9.352 -0.1279 -0.4539 -0.4575
 8568SOL    HW131666   4.686   2.087   9.299  0.3042 -0.2408 -0.5899
 8568SOL    HW231667   4.622   2.224   9.291  1.2988  0.2211 -0.8163
 8569SOL     OW31668   7.242   0.639   3.610  0.3304  0.2033 -0.0937
 8569SOL    HW131669   7.182   0.580   3.565 -0.4464 -0.5494  1.7903
 8569SOL    HW231670   7.329   0.608   3.586 -0.0664 -1.3746  0.3554
 8570SOL     OW31671   8.744   0.981   1.902 -0.0022 -0.6539  0.8845
 8570SOL    HW131672   8.660   0.947   1.870 -0.9295  0.7321  1.7608
 8570SOL    HW231673   8.793   1.001   1.822 -1.2840  0.3555  0.3184
 8571SOL     OW31674   7.954   7.289   7.815  0.0235 -0.1087  0.0299
 8571SOL    HW131675   7.938   7.357   7.750  0.3407  0.5135  0.5900
 8571SOL    HW231676   7.968   7.336   7.897 -0.1006 -0.8642  0.5048
 8572SOL     OW31677   2.884   2.799   9.145  0.2302  0.0323  0.1968
 8572SOL    HW131678   2.949   2.846   9.091  1.9898 -0.9789  1.3306
 8572SOL    HW231679   2.915   2.811   9.235 -1.1540 -0.5345  0.7771
 8573SOL     OW31680   3.500   6.236   5.816 -0.2740  0.1968 -0.0047
 8573SOL    HW131681   3.489   6.249   5.910 -2.1432  1.1911 -0.3084
 8573SOL    HW231682   3.564   6.302   5.790 -0.2863  0.3953  0.4584
 8574SOL     OW31683   3.652   2.470   2.254  0.7169 -0.0883 -0.2077
 8574SOL    HW131684   3.735   2.496   2.295 -0.4289  1.0876  1.5328
 8574SOL    HW231685   3.608   2.418   2.321 -1.1740  1.7901  0.1147
 8575SOL     OW31686   7.717   3.900   3.320  0.0324 -0.5874  0.0176
 8575SOL    HW131687   7.638   3.944   3.289  1.2174  1.3254 -0.5350
 8575SOL    HW231688   7.695   3.868   3.407 -1.2447  0.1949  0.0015
 8576SOL     OW31689   5.088   5.765   5.555  0.0635 -0.6535 -0.0927
 8576SOL    HW131690   5.138   5.700   5.506 -0.8622 -0.7038 -1.0046
 8576SOL    HW231691   5.102   5.741   5.646  2.2593 -0.2414 -0.2562
 8577SOL     OW31692   4.573   7.857   3.639 -0.0156  0.0997 -0.3821
 8577SOL    HW131693   4.637   7.824   3.575  0.7837 -1.7834  1.2771
 8577SOL    HW231694   4.507   7.787   3.644 -0.0646  0.2122  0.8055
 8578SOL     OW31695   6.971   6.648   5.316 -0.1332  0.4177  0.0209
 8578SOL    HW131696   6.933   6.561   5.329 -0.9163  0.6977 -0.3468
 8578SOL    HW231697   6.911   6.692   5.256  0.1649  1.2754  0.3342
 8579SOL     OW31698   5.417   8.495   0.470  0.0922 -0.3146 -0.2892
 8579SOL    HW131699   5.387   8.404   0.473  2.5478 -1.1766  1.0654
 8579SOL    HW231700   5.508   8.491   0.499  0.0251  2.6959  0.6812
 8580SOL     OW31701   4.302   0.233   0.171  0.1164 -0.3479  0.3422
 8580SOL    HW131702   4.210   0.237   0.145 -0.0988  0.0274  1.1346
 8580SOL    HW231703   4.301   0.187   0.255  0.7905 -1.4685 -0.2417
 8581SOL     OW31704   9.317   6.642   1.236 -0.2210  0.2445 -0.1146
 8581SOL    HW131705   9.299   6.621   1.328 -0.5117 -2.2662 -0.6553
 8581SOL    HW231706   9.387   6.706   1.239 -1.0703  1.1759  1.8660
 8582SOL     OW31707   8.530   3.904   3.599  0.4691 -0.2306  0.1580
 8582SOL    HW131708   8.581   3.913   3.519  0.9886  0.0695  0.5142
 8582SOL    HW231709   8.440   3.889   3.569  0.8569 -1.3592 -0.4821
 8583SOL     OW31710   1.362   6.921   2.290  0.2890  0.5107  0.2181
 8583SOL    HW131711   1.279   6.873   2.291  0.4207  0.2023 -1.4385
 8583SOL    HW231712   1.419   6.872   2.350 -0.2425 -0.1660  0.1768
 8584SOL     OW31713   5.848   0.156   3.150 -0.3352  0.4862 -0.6286
 8584SOL    HW131714   5.786   0.147   3.077 -1.2379  0.3676  0.1328
 8584SOL    HW231715   5.857   0.251   3.161 -0.9489  0.5142 -0.2902
 8585SOL     OW31716   7.021   0.793   5.808 -0.0344 -0.4211 -0.1666
 8585SOL    HW131717   6.939   0.773   5.854 -0.4795 -0.0844 -0.8008
 8585SOL    HW231718   7.056   0.870   5.853  0.1394 -0.7939  0.3499
 8586SOL     OW31719   7.769   5.343   0.892  0.0266  0.2400 -0.0151
 8586SOL    HW131720   7.860   5.314   0.880 -0.1426  0.7390 -3.2998
 8586SOL    HW231721   7.717   5.265   0.876 -0.1821  0.1197  1.1687
 8587SOL     OW31722   1.389   8.028   1.252  0.1698 -0.4017 -0.9079
 8587SOL    HW131723   1.375   8.107   1.200  1.2085 -0.2472 -0.9866
 8587SOL    HW231724   1.312   8.022   1.309  0.8492  1.6662  0.3675
 8588SOL     OW31725   4.160   3.757   2.670 -0.3475  0.0540 -0.2224
 8588SOL    HW131726   4.242   3.719   2.637 -0.5027 -0.4346 -0.0630
 8588SOL    HW231727   4.188   3.827   2.729 -0.0335 -0.2244 -0.0345
 8589SOL     OW31728   7.667   9.074   7.938 -0.0573  0.1892 -0.1454
 8589SOL    HW131729   7.704   9.109   7.857  0.7236  1.5593  0.7698
 8589SOL    HW231730   7.667   8.979   7.926 -0.1638  0.3783 -1.8231
 8590SOL     OW31731   4.848   7.929   6.245 -0.3071  0.3648  0.7290
 8590SOL    HW131732   4.788   7.866   6.285  1.2345 -1.3373  0.5245
 8590SOL    HW231733   4.887   7.880   6.172 -0.9344  2.4338 -1.0969
 8591SOL     OW31734   9.307   7.264   8.980  0.1974 -0.4623 -0.0069
 8591SOL    HW131735   9.302   7.236   9.071 -0.2209 -1.3709 -0.3011
 8591SOL    HW231736   9.286   7.357   8.982 -2.6195 -1.0387  0.5358
 8592SOL     OW31737   2.263   9.232   1.810  0.1775  0.3614 -0.2883
 8592SOL    HW131738   2.274   9.314   1.859  1.1470 -0.2614  0.5670
 8592SOL    HW231739   2.221   9.259   1.728  1.7921  1.9424 -0.6652
 8593SOL     OW31740   7.657   6.263   1.969 -0.3732  0.0769  0.4064
 8593SOL    HW131741   7.579   6.210   1.956  0.9269 -1.6559 -0.8008
 8593SOL    HW231742   7.706   6.218   2.038 -0.4858  1.2504  1.2936
 8594SOL     OW31743   4.955   4.301   2.747  0.1261  0.0587  0.1189
 8594SOL    HW131744   4.966   4.209   2.723  0.9832 -0.0347  0.8001
 8594SOL    HW231745   4.879   4.331   2.697  0.2143 -0.8525 -0.5708
 8595SOL     OW31746   8.241   1.855   1.863 -0.5309 -0.1200  0.3006
 8595SOL    HW131747   8.176   1.805   1.913 -0.6638 -0.2054  0.0425
 8595SOL    HW231748   8.227   1.829   1.772  1.2700 -1.7821  0.4309
 8596SOL     OW31749   6.416   3.414   6.773 -0.5747 -0.1951 -0.6103
 8596SOL    HW131750   6.387   3.492   6.821 -0.2942 -1.0907  1.1105
 8596SOL    HW231751   6.506   3.435   6.747 -1.0992  0.7372 -1.7801
 8597SOL     OW31752   8.217   7.811   6.893 -0.3525 -0.4574  0.0358
 8597SOL    HW131753   8.290   7.844   6.840 -0.9641  1.4764  0.3186
 8597SOL    HW231754   8.249   7.815   6.983 -0.7336  0.3185  0.1526
 8598SOL     OW31755   2.165   3.906   8.047 -0.1775  0.0885 -0.2976
 8598SOL    HW131756   2.253   3.918   8.012  0.4378  0.6866  1.3550
 8598SOL    HW231757   2.137   3.995   8.071 -2.0107  0.2030 -2.4567
 8599SOL     OW31758   8.742   4.388   0.063 -0.3311  0.5773  0.4049
 8599SOL    HW131759   8.760   4.476   0.096 -0.4647  0.3322  1.1411
 8599SOL    HW231760   8.659   4.364   0.102 -1.0908  0.7257 -1.0360
 8600SOL     OW31761   7.098   7.680   6.433 -0.1465 -0.6229 -0.4480
 8600SOL    HW131762   7.101   7.731   6.514 -2.0790 -0.1895 -0.5916
 8600SOL    HW231763   7.158   7.725   6.374  0.5795 -0.4003  0.4358
 8601SOL     OW31764   2.428   0.190   7.997 -0.3012  0.1120  0.0556
 8601SOL    HW131765   2.447   0.109   7.949 -0.6497  0.8212 -1.3544
 8601SOL    HW231766   2.505   0.205   8.052  1.7361  0.9932 -2.7637
 8602SOL     OW31767   8.534   8.991   6.977  0.4799 -0.5260  0.6053
 8602SOL    HW131768   8.532   9.024   7.066 -0.0543 -2.4214  1.3497
 8602SOL    HW231769   8.601   9.043   6.933  0.9041  0.3013  2.1640
 8603SOL     OW31770   3.202   7.356   2.976 -0.2065  0.0316 -0.2334
 8603SOL    HW131771   3.153   7.403   2.908  1.0204  1.3870 -0.2429
 8603SOL    HW231772   3.253   7.291   2.928  0.9224  1.2186 -0.6962
 8604SOL     OW31773   4.342   5.660   7.798 -0.5163 -0.5594  0.4950
 8604SOL    HW131774   4.394   5.584   7.771 -1.1806 -0.4334 -1.2555
 8604SOL    HW231775   4.360   5.727   7.732  1.9289  1.7789  3.2154
 8605SOL     OW31776   6.721   4.496   0.746  0.1379  0.0988  0.4762
 8605SOL    HW131777   6.699   4.565   0.683  1.0113  0.1096  0.1650
 8605SOL    HW231778   6.638   4.474   0.787 -0.4719  0.0611 -0.7174
 8606SOL     OW31779   1.290   7.017   2.747 -0.1046 -0.0897  0.3227
 8606SOL    HW131780   1.281   7.048   2.657  1.4048 -2.2135 -0.6370
 8606SOL    HW231781   1.302   7.097   2.799 -0.3578  1.1422 -1.4296
 8607SOL     OW31782   0.730   1.312   5.763 -0.0061  0.2569  0.3052
 8607SOL    HW131783   0.810   1.345   5.803 -0.1027  0.1044  0.6244
 8607SOL    HW231784   0.659   1.345   5.818 -0.1168 -0.2555  0.4762
 8608SOL     OW31785   0.216   3.919   6.355  0.5448 -0.4396  0.0998
 8608SOL    HW131786   0.150   3.945   6.291 -1.1247 -1.3948  1.3340
 8608SOL    HW231787   0.296   3.908   6.304 -0.5090 -0.3581 -1.6728
 8609SOL     OW31788   5.194   4.819   7.005  0.1842 -0.0801 -0.1172
 8609SOL    HW131789   5.155   4.873   6.935 -0.0023  0.4183  0.3648
 8609SOL    HW231790   5.230   4.883   7.067  2.0033 -0.5378 -0.6595
 8610SOL     OW31791   6.434   3.557   3.582  0.2743  0.0615 -0.2588
 8610SOL    HW131792   6.489   3.498   3.635  0.4636 -0.7326 -1.3043
 8610SOL    HW231793   6.446   3.526   3.492 -2.5244 -0.7043 -0.4709
 8611SOL     OW31794   0.252   4.323   8.262  0.3756 -0.8541 -0.1004
 8611SOL    HW131795   0.192   4.270   8.314  0.7400 -0.1827  1.0465
 8611SOL    HW231796   0.321   4.347   8.323  0.9448 -0.2236 -0.9678
 8612SOL     OW31797   3.463   3.202   7.233  0.0963 -0.1277 -0.5101
 8612SOL    HW131798   3.474   3.284   7.281  0.2145  0.5050 -1.5860
 8612SOL    HW231799   3.547   3.157   7.244  0.3595  0.3146 -0.6802
 8613SOL     OW31800   0.945   8.526   5.101  0.0683  0.0960  0.5467
 8613SOL    HW131801   0.957   8.571   5.184  0.5162  0.6376  0.1932
 8613SOL    HW231802   0.851   8.532   5.083  0.1308  0.9139  0.4863
 8614SOL     OW31803   3.319   6.154   1.650  0.0849 -0.2547 -0.2898
 8614SOL    HW131804   3.381   6.216   1.687 -0.3378 -0.5929  1.0289
 8614SOL    HW231805   3.281   6.109   1.726  0.0230 -1.7774 -1.1729
 8615SOL     OW31806   2.602   0.700   3.089  0.2510 -0.0344 -0.1349
 8615SOL    HW131807   2.664   0.722   3.019  0.3651  0.2306  0.0467
 8615SOL    HW231808   2.598   0.604   3.088  2.9439 -0.2847  1.7568
 8616SOL     OW31809   4.426   3.280   6.983  0.5619  0.0478 -0.2311
 8616SOL    HW131810   4.474   3.233   6.915  1.5842  1.9715 -0.9226
 8616SOL    HW231811   4.336   3.248   6.976  0.9840 -0.9901 -1.3566
 8617SOL     OW31812   7.649   2.106   8.030 -0.2852  0.3648  0.5748
 8617SOL    HW131813   7.745   2.108   8.025 -0.2749 -0.4842  0.2612
 8617SOL    HW231814   7.630   2.060   8.111 -0.4202 -0.3147  0.1649
 8618SOL     OW31815   6.364   3.269   8.831 -0.3225  0.1192  0.2488
 8618SOL    HW131816   6.322   3.183   8.828  0.6510 -0.3624  0.3171
 8618SOL    HW231817   6.349   3.300   8.921 -1.2709  0.3395  0.0287
 8619SOL     OW31818   3.380   4.199   5.534 -0.1319  0.0967 -0.2269
 8619SOL    HW131819   3.403   4.218   5.443 -0.2870 -0.7560 -0.4514
 8619SOL    HW231820   3.303   4.253   5.550  0.4271  0.9494 -0.3035
 8620SOL     OW31821   3.076   5.129   9.173 -0.2517 -0.0888  0.2519
 8620SOL    HW131822   2.982   5.147   9.166 -0.3710 -0.9663 -0.5210
 8620SOL    HW231823   3.117   5.216   9.166 -0.9294  0.1534 -1.0460
 8621SOL     OW31824   1.490   4.363   0.133 -0.6149  0.2468  0.0208
 8621SOL    HW131825   1.413   4.405   0.174 -0.5544  0.3179  0.0617
 8621SOL    HW231826   1.453   4.308   0.064 -0.6774  0.6128 -0.2428
 8622SOL     OW31827   2.472   9.097   8.163  0.6311 -0.2588  0.3915
 8622SOL    HW131828   2.540   9.159   8.188  0.8108  1.1596 -2.9974
 8622SOL    HW231829   2.413   9.094   8.239  2.6033  1.1376  2.0868
 8623SOL     OW31830   6.537   0.222   8.498  0.2011 -0.3181 -0.2853
 8623SOL    HW131831   6.490   0.180   8.426 -1.8069  0.6499  0.3762
 8623SOL    HW231832   6.586   0.152   8.540 -1.5574 -1.6519 -0.3418
 8624SOL     OW31833   9.172   6.254   4.789 -0.3448 -0.2409 -0.1811
 8624SOL    HW131834   9.124   6.294   4.717  0.9516 -0.1635 -1.0311
 8624SOL    HW231835   9.216   6.178   4.750  0.4236 -0.1698  0.5104
 8625SOL     OW31836   5.135   4.305   8.354  0.4681 -0.0151  0.0334
 8625SOL    HW131837   5.042   4.327   8.341  0.2315 -1.1098 -0.2111
 8625SOL    HW231838   5.182   4.370   8.301 -0.1784  0.2011 -0.2911
 8626SOL     OW31839   4.781   3.913   1.659  0.4321 -0.1947  0.2487
 8626SOL    HW131840   4.817   3.966   1.730 -1.0889 -0.5231  1.3239
 8626SOL    HW231841   4.730   3.974   1.607 -0.8679 -0.4671  1.1689
 8627SOL     OW31842   4.476   9.255   2.514 -0.2739 -0.8694  0.1055
 8627SOL    HW131843   4.401   9.229   2.568  1.1539  0.0835  2.7436
 8627SOL    HW231844   4.441   9.262   2.425 -3.8940  1.6724  1.4813
 8628SOL     OW31845   4.421   3.484   2.802 -0.3735 -0.2925 -0.0237
 8628SOL    HW131846   4.408   3.418   2.734 -1.6699 -0.1271  0.0272
 8628SOL    HW231847   4.513   3.509   2.795 -0.0094 -1.6897 -0.4113
 8629SOL     OW31848   0.798   8.993   8.095 -0.4407  0.3276  0.1536
 8629SOL    HW131849   0.770   8.905   8.118 -0.8721  0.8746  1.8430
 8629SOL    HW231850   0.718   9.045   8.099  0.1094  1.1276  0.9036
 8630SOL     OW31851   0.409   3.302   7.899 -0.0313 -0.3790  0.4480
 8630SOL    HW131852   0.495   3.263   7.880 -1.2613 -3.2064  0.0827
 8630SOL    HW231853   0.397   3.369   7.832  2.3695  1.0236  1.2933
 8631SOL     OW31854   0.203   0.574   0.993 -0.0630  0.0412 -0.0304
 8631SOL    HW131855   0.173   0.656   1.033 -1.6571 -0.8440  0.7185
 8631SOL    HW231856   0.201   0.591   0.899  1.6824  1.4939  0.1459
 8632SOL     OW31857   6.603   4.451   4.164  0.5851 -0.4430  0.1338
 8632SOL    HW131858   6.637   4.447   4.075  0.2215 -1.9920  0.0426
 8632SOL    HW231859   6.668   4.503   4.212  1.7538 -1.1513 -0.6262
 8633SOL     OW31860   3.374   9.319   6.812  0.2622  0.3934  0.0920
 8633SOL    HW131861   3.304   9.258   6.789 -1.0163  1.4497  1.0587
 8633SOL    HW231862   3.366   9.390   6.748  1.5912 -0.2819 -0.8798
 8634SOL     OW31863   5.131   0.809   8.042 -0.3727 -1.6955 -0.4156
 8634SOL    HW131864   5.117   0.761   7.960 -0.2815 -1.1607 -0.7449
 8634SOL    HW231865   5.085   0.892   8.031  2.8299  0.1378 -1.5324
 8635SOL     OW31866   1.458   1.041   1.082 -0.4235  0.0466  0.1121
 8635SOL    HW131867   1.504   0.958   1.088 -1.1384 -0.3284  0.5329
 8635SOL    HW231868   1.523   1.107   1.106  0.0862 -0.4051 -0.0167
 8636SOL     OW31869   7.167   3.490   7.338 -0.2299 -0.0067  0.7000
 8636SOL    HW131870   7.148   3.519   7.249 -0.1623 -0.1915  0.6228
 8636SOL    HW231871   7.087   3.447   7.367 -0.3651  0.3503  0.8526
 8637SOL     OW31872   4.263   8.612   8.405  0.3152  1.0237  0.2313
 8637SOL    HW131873   4.327   8.683   8.407  0.5307  0.9054 -1.5104
 8637SOL    HW231874   4.296   8.552   8.339  0.0729 -0.6723  1.5736
 8638SOL     OW31875   0.030   4.902   5.966 -0.0123 -0.0089  0.1504
 8638SOL    HW131876  -0.049   4.861   6.002  0.1182 -1.7270 -1.3638
 8638SOL    HW231877   0.005   4.993   5.951 -1.5126 -0.3626  0.3076
 8639SOL     OW31878   7.418   5.877   0.768 -0.3328 -0.1657  0.4988
 8639SOL    HW131879   7.444   5.800   0.717 -0.5934  0.5223 -0.7192
 8639SOL    HW231880   7.328   5.894   0.742 -0.9910 -0.6677  2.3335
 8640SOL     OW31881   0.171   1.031   4.773  0.0334  0.3664  0.2386
 8640SOL    HW131882   0.077   1.045   4.764 -0.1199  0.4209  1.7266
 8640SOL    HW231883   0.208   1.119   4.779  0.0365  0.3261  0.8660
 8641SOL     OW31884   3.560   5.979   6.294  0.6565 -0.2326 -0.0318
 8641SOL    HW131885   3.512   5.898   6.307 -2.1640  1.2132 -0.5351
 8641SOL    HW231886   3.646   5.963   6.332  0.2993 -3.4802 -0.3277
 8642SOL     OW31887   7.485   4.264   0.398  0.1087  0.0675  0.1751
 8642SOL    HW131888   7.421   4.195   0.383 -2.4104  2.2244  0.1894
 8642SOL    HW231889   7.513   4.252   0.489  0.5655 -1.5400 -0.1571
 8643SOL     OW31890   2.832   2.022   5.512  0.8585 -0.0313  0.5919
 8643SOL    HW131891   2.793   2.069   5.585 -0.9901 -0.5960  0.0025
 8643SOL    HW231892   2.787   1.938   5.509  1.5457 -0.3958 -0.6265
 8644SOL     OW31893   0.693   5.721   3.212 -0.2473 -0.1643 -0.0378
 8644SOL    HW131894   0.680   5.636   3.171 -0.9833  0.8812 -2.0848
 8644SOL    HW231895   0.766   5.760   3.163 -0.2597  0.5900  0.5287
 8645SOL     OW31896   7.841   0.304   5.116  0.0041  0.2658  0.1262
 8645SOL    HW131897   7.759   0.262   5.092  1.1959 -1.1414 -1.7840
 8645SOL    HW231898   7.899   0.232   5.140 -0.0617  1.3726  4.4305
 8646SOL     OW31899   5.563   4.621   1.350  0.4684  0.0693  0.2751
 8646SOL    HW131900   5.564   4.717   1.344 -0.2173  0.0467 -0.3399
 8646SOL    HW231901   5.628   4.593   1.285 -0.9581  0.0740 -1.2305
 8647SOL     OW31902   3.009   0.481   8.842 -0.3902  0.6647  0.3425
 8647SOL    HW131903   2.989   0.402   8.892 -0.3719  0.4176 -0.0316
 8647SOL    HW231904   2.973   0.552   8.894  1.2032  0.6028  1.5952
 8648SOL     OW31905   6.581   1.386   3.777 -0.4128 -0.2888 -0.9395
 8648SOL    HW131906   6.648   1.329   3.815 -0.8356 -0.2511 -0.1289
 8648SOL    HW231907   6.519   1.401   3.848 -0.1749  1.4138 -1.0347
 8649SOL     OW31908   4.755   0.956   9.086 -0.0342 -0.1078 -0.0412
 8649SOL    HW131909   4.850   0.966   9.078  0.3965 -2.7572  0.6393
 8649SOL    HW231910   4.720   1.044   9.073  2.4936  0.9244 -0.4358
 8650SOL     OW31911   8.482   1.913   5.423  0.5524 -0.2153  0.3444
 8650SOL    HW131912   8.565   1.899   5.376  1.1332 -0.7298  1.4748
 8650SOL    HW231913   8.426   1.842   5.393  0.6873 -0.1590 -0.0551
 8651SOL     OW31914   0.139   5.542   3.221 -0.7431  0.1651 -0.5556
 8651SOL    HW131915   0.069   5.565   3.282 -1.7603 -0.5327 -1.4387
 8651SOL    HW231916   0.208   5.504   3.277 -0.6724  1.6329  0.4270
 8652SOL     OW31917   2.582   6.627   3.953 -0.0636  0.1402 -0.3588
 8652SOL    HW131918   2.665   6.583   3.967  0.0910  0.3395 -0.6475
 8652SOL    HW231919   2.572   6.631   3.858  1.0558  2.8201 -0.4284
 8653SOL     OW31920   0.959   3.446   8.022  0.3286 -0.2189 -0.4276
 8653SOL    HW131921   0.888   3.385   8.002 -0.6064  0.7827 -0.3003
 8653SOL    HW231922   0.964   3.446   8.118  1.7614 -1.6419 -0.4607
 8654SOL     OW31923   2.009   1.806   5.063 -0.0081  0.2544 -0.6293
 8654SOL    HW131924   1.915   1.803   5.078 -0.1084  4.4071  0.5365
 8654SOL    HW231925   2.026   1.893   5.027  3.4510 -0.2054 -0.5150
 8655SOL     OW31926   3.170   8.343   8.050 -0.7897 -0.3484 -0.0174
 8655SOL    HW131927   3.117   8.412   8.091 -0.2739 -1.6167  3.0274
 8655SOL    HW231928   3.240   8.391   8.005 -1.1367  1.1428  0.9503
 8656SOL     OW31929   0.889   3.277   7.001 -0.1376  0.1103 -0.2215
 8656SOL    HW131930   0.890   3.368   7.029  0.5356  0.3693 -1.0562
 8656SOL    HW231931   0.806   3.268   6.953 -0.8870 -0.1134  1.0701
 8657SOL     OW31932   2.388   2.466   8.949  0.8260 -0.0200 -0.1132
 8657SOL    HW131933   2.298   2.450   8.922  1.1465 -2.3387  0.0534
 8657SOL    HW231934   2.381   2.540   9.010 -1.1045 -0.8022  0.6997
 8658SOL     OW31935   7.398   7.613   7.287  0.3513  0.6851  0.1409
 8658SOL    HW131936   7.335   7.685   7.278 -0.4564 -0.0876 -0.5818
 8658SOL    HW231937   7.376   7.573   7.371 -1.8196 -1.1025 -1.1687
 8659SOL     OW31938   3.472   8.619   4.307 -0.1992 -0.2890 -0.2166
 8659SOL    HW131939   3.464   8.705   4.267 -1.2592 -0.0235  0.5248
 8659SOL    HW231940   3.542   8.628   4.371  0.9190 -0.4873 -1.3612
 8660SOL     OW31941   8.611   3.786   2.047  0.2444 -0.1414  0.0849
 8660SOL    HW131942   8.595   3.692   2.049 -2.3689  0.1657 -1.6902
 8660SOL    HW231943   8.672   3.799   1.975  1.0759 -0.4838  0.7083
 8661SOL     OW31944   9.205   0.162   1.977  0.1845 -0.7915  0.3703
 8661SOL    HW131945   9.281   0.175   1.921 -1.6435  0.1450 -2.0669
 8661SOL    HW231946   9.177   0.072   1.958 -0.1222 -0.6553  0.1671
 8662SOL     OW31947   8.743   7.001   2.116  0.5919  0.5881 -0.5889
 8662SOL    HW131948   8.681   6.957   2.059  0.6713 -1.3852  0.7464
 8662SOL    HW231949   8.729   7.095   2.100 -4.3267  0.4586  1.1704
 8663SOL     OW31950   5.937   5.979   0.232 -0.4599 -0.4851  0.1620
 8663SOL    HW131951   5.896   6.046   0.177 -1.4096 -1.3879 -0.2728
 8663SOL    HW231952   5.905   5.996   0.320  0.5643  0.5824  0.3521
 8664SOL     OW31953   5.723   1.115   4.577  0.2437 -0.2807  0.6372
 8664SOL    HW131954   5.724   1.075   4.490  1.7347  0.0254  0.4803
 8664SOL    HW231955   5.779   1.192   4.568  1.0286 -0.6528  2.0413
 8665SOL     OW31956   3.471   7.410   2.502  0.1301  0.2170  0.3737
 8665SOL    HW131957   3.565   7.419   2.515  0.2590  2.0957 -1.3055
 8665SOL    HW231958   3.457   7.439   2.411 -2.3627  2.9941  1.4743
 8666SOL     OW31959   7.453   2.523   6.166  0.3116  0.1138  0.4944
 8666SOL    HW131960   7.488   2.442   6.130  1.1743  0.2375  1.0325
 8666SOL    HW231961   7.521   2.555   6.224 -0.4127  0.7316  1.0289
 8667SOL     OW31962   1.565   2.723   2.679  0.0657 -0.4635 -0.4765
 8667SOL    HW131963   1.550   2.774   2.599 -2.0030  0.5906  0.5078
 8667SOL    HW231964   1.654   2.746   2.706 -0.3149  1.5599 -0.8175
 8668SOL     OW31965   2.089   3.719   0.022 -0.2237 -0.0326 -0.4314
 8668SOL    HW131966   2.022   3.739  -0.043 -1.6370 -1.3984  0.5505
 8668SOL    HW231967   2.080   3.788   0.088 -0.6401 -0.1883 -0.3229
 8669SOL     OW31968   5.089   6.696   7.154 -0.3995  0.2216 -0.2180
 8669SOL    HW131969   5.032   6.772   7.145 -0.1399  0.3722 -0.6437
 8669SOL    HW231970   5.159   6.711   7.090  1.7269  1.4399  2.2102
 8670SOL     OW31971   0.599   6.088   4.431  0.1691 -0.3894  0.1919
 8670SOL    HW131972   0.607   6.117   4.340 -1.7781 -0.6722 -0.1185
 8670SOL    HW231973   0.557   6.162   4.476 -0.9365 -1.0796  0.3329
 8671SOL     OW31974   9.195   0.784   4.545  0.0422 -0.5782 -0.1718
 8671SOL    HW131975   9.141   0.863   4.546 -1.3117 -1.4622  0.6495
 8671SOL    HW231976   9.173   0.741   4.463 -1.6327 -1.6390  0.7883
 8672SOL     OW31977   0.059   7.493   9.289  0.1018  0.2387  0.3798
 8672SOL    HW131978   0.106   7.525   9.212 -1.4405  2.3872  0.2416
 8672SOL    HW231979   0.121   7.434   9.332  0.6281 -2.0793 -3.0994
 8673SOL     OW31980   8.037   2.126   8.722 -0.1506 -0.4017  0.0016
 8673SOL    HW131981   7.955   2.132   8.674  0.1569  0.1992 -0.4690
 8673SOL    HW231982   8.067   2.036   8.706 -0.5452 -0.5166 -0.1086
 8674SOL     OW31983   8.411   0.028   0.644 -0.8622  0.6147  0.0122
 8674SOL    HW131984   8.408   0.095   0.576 -1.4522 -0.5838 -1.1802
 8674SOL    HW231985   8.466  -0.041   0.608 -2.4496 -0.7344  0.0618
 8675SOL     OW31986   4.998   2.055   8.215  0.2756  0.1650  0.0825
 8675SOL    HW131987   4.982   1.962   8.224 -0.6698  0.2755 -0.3824
 8675SOL    HW231988   5.049   2.078   8.292 -1.3945 -0.3093  1.3757
 8676SOL     OW31989   4.776   0.298   5.505 -0.4808  0.1306 -0.8368
 8676SOL    HW131990   4.704   0.275   5.447  0.5608 -1.2338 -1.6688
 8676SOL    HW231991   4.855   0.271   5.457  0.4950  0.1898  0.6615
 8677SOL     OW31992   8.565   4.152   2.055  1.1167  0.0015 -0.1587
 8677SOL    HW131993   8.638   4.144   2.116  1.2597 -0.7452 -0.4139
 8677SOL    HW231994   8.525   4.065   2.053 -0.5793  0.6826  0.9323
 8678SOL     OW31995   6.995   1.608   4.494 -0.1813  0.0243  0.0564
 8678SOL    HW131996   6.962   1.569   4.413  0.3902  1.5829 -0.9536
 8678SOL    HW231997   6.917   1.625   4.547 -0.5652 -0.8520 -0.2130
 8679SOL     OW31998   9.057   2.771   7.041 -0.3052  0.0309  0.0722
 8679SOL    HW131999   8.973   2.815   7.026 -0.6595 -0.1451  1.4488
 8679SOL    HW232000   9.052   2.739   7.131  1.1502 -0.1986  0.0945
 8680SOL     OW32001   1.924   1.813   0.517 -0.1378  0.2914  0.1715
 8680SOL    HW132002   2.012   1.782   0.495 -0.4914 -1.5945  1.1818
 8680SOL    HW232003   1.929   1.834   0.610 -1.1366 -1.4789  0.6695
 8681SOL     OW32004   6.101   3.948   0.433  0.3764  0.2308 -0.2417
 8681SOL    HW132005   6.165   4.019   0.422 -1.6586  2.0223 -1.3740
 8681SOL    HW232006   6.046   3.977   0.506  0.6316 -1.1433  0.5273
 8682SOL     OW32007   7.790   8.057   6.071 -0.3257 -0.2499  0.0213
 8682SOL    HW132008   7.776   8.142   6.111 -3.5823 -0.5098 -0.2750
 8682SOL    HW232009   7.802   7.997   6.145 -1.4384 -0.0133  0.4028
 8683SOL     OW32010   9.272   7.805   7.475  0.1272  0.5277  0.3875
 8683SOL    HW132011   9.306   7.744   7.540 -1.2612 -1.5463 -0.7244
 8683SOL    HW232012   9.325   7.789   7.397 -0.8167  0.0895 -0.1739
 8684SOL     OW32013   1.144   5.268   8.387 -0.3132  0.0973  0.1248
 8684SOL    HW132014   1.058   5.301   8.360 -0.4336  0.5238  0.9732
 8684SOL    HW232015   1.207   5.324   8.341 -0.5018  0.3203  0.1358
 8685SOL     OW32016   4.549   6.767   6.958  0.1242 -0.0232  0.1309
 8685SOL    HW132017   4.607   6.841   6.937 -0.2126  0.0756 -0.4689
 8685SOL    HW232018   4.582   6.735   7.042  2.0669 -0.9707 -0.9287
 8686SOL     OW32019   5.233   6.123   2.048  0.1047 -0.0893 -0.5356
 8686SOL    HW132020   5.320   6.111   2.011 -0.4196 -1.4622 -1.3875
 8686SOL    HW232021   5.173   6.100   1.977 -0.9748  1.3616 -0.1433
 8687SOL     OW32022   2.906   7.273   8.969  0.3638  0.4318 -0.4287
 8687SOL    HW132023   2.989   7.304   9.005 -0.6920  1.4582  1.2848
 8687SOL    HW232024   2.862   7.352   8.938 -1.8859  0.6941  2.9529
 8688SOL     OW32025   2.377   7.302   2.935 -0.3559  0.3622 -0.5907
 8688SOL    HW132026   2.360   7.208   2.924 -1.4920  0.4985 -0.1233
 8688SOL    HW232027   2.469   7.307   2.961 -0.8054 -0.7873  1.3767
 8689SOL     OW32028   2.264   5.549   6.747  0.4200 -0.1196  0.7830
 8689SOL    HW132029   2.355   5.545   6.777  0.5291  0.1934  0.4956
 8689SOL    HW232030   2.216   5.495   6.809  0.5633  0.9120  1.8112
 8690SOL     OW32031   1.424   9.002   8.316 -0.0822  0.3269 -0.3147
 8690SOL    HW132032   1.437   8.911   8.287  2.1044  0.6107 -0.4199
 8690SOL    HW232033   1.350   9.033   8.264 -0.6136 -1.2600 -0.5677
 8691SOL     OW32034   4.587   9.209   0.756 -0.7206 -0.1689  0.6601
 8691SOL    HW132035   4.542   9.162   0.826 -0.8660  1.3828  1.6484
 8691SOL    HW232036   4.679   9.185   0.767 -1.1737 -3.6354 -1.5902
 8692SOL     OW32037   2.565   1.661   1.076 -0.3745 -0.5435 -0.4052
 8692SOL    HW132038   2.514   1.637   0.999  0.1453 -1.7148 -0.4152
 8692SOL    HW232039   2.627   1.589   1.086 -0.2123 -0.2389  0.9081
 8693SOL     OW32040   9.279   1.572   6.346  0.3287 -0.2623 -0.3176
 8693SOL    HW132041   9.314   1.509   6.283 -0.7952 -0.9321 -0.3042
 8693SOL    HW232042   9.329   1.652   6.330  0.6389 -0.6666 -1.4872
 8694SOL     OW32043   1.261   7.325   7.965  0.0566 -0.0418 -0.7856
 8694SOL    HW132044   1.308   7.350   7.885  0.6544 -2.4834 -1.2841
 8694SOL    HW232045   1.291   7.236   7.984 -2.6783 -0.8880  0.1665
 8695SOL     OW32046   0.133   2.986   5.295 -0.1040  0.3944  0.0298
 8695SOL    HW132047   0.091   2.993   5.381  2.1002 -1.4655  1.3763
 8695SOL    HW232048   0.226   3.004   5.313  0.3636  0.2266 -2.0313
 8696SOL     OW32049   7.005   5.865   9.322 -0.6690 -0.3121  0.1203
 8696SOL    HW132050   7.003   5.790   9.262  0.5587 -1.0676  0.9575
 8696SOL    HW232051   6.942   5.843   9.390 -0.4550 -0.5107  0.2588
 8697SOL     OW32052   8.323   0.935   3.198  0.0740 -0.0124 -0.2591
 8697SOL    HW132053   8.418   0.947   3.196  0.1198 -0.3803 -0.2098
 8697SOL    HW232054   8.288   1.023   3.181  0.4211  0.1319 -0.2337
 8698SOL     OW32055   2.886   6.619   0.945  0.2571 -0.0114  0.0450
 8698SOL    HW132056   2.898   6.546   1.005  0.4899 -0.8099 -0.9476
 8698SOL    HW232057   2.974   6.646   0.921  0.1672  0.3808  0.1507
 8699SOL     OW32058   5.072   8.787   8.696 -0.2599 -0.1282  0.5646
 8699SOL    HW132059   5.088   8.730   8.771  0.3314 -1.0466 -0.2265
 8699SOL    HW232060   5.146   8.848   8.696  0.4142 -0.9187  0.0365
 8700SOL     OW32061   2.101   2.365   2.281 -0.1376  0.1280  0.4995
 8700SOL    HW132062   2.054   2.434   2.233 -1.2010 -0.0069  1.3184
 8700SOL    HW232063   2.085   2.384   2.373  1.0081 -0.2313  0.7917
 8701SOL     OW32064   3.055   6.599   9.054  0.2347 -0.7876  0.2644
 8701SOL    HW132065   2.965   6.601   9.021  0.5604 -2.0872 -0.8138
 8701SOL    HW232066   3.048   6.626   9.145 -0.6637  3.4238 -0.8507
 8702SOL     OW32067   0.789   4.121   4.268  0.5914 -0.1957 -0.7385
 8702SOL    HW132068   0.721   4.125   4.335  0.8008  0.5612 -0.5582
 8702SOL    HW232069   0.834   4.205   4.275  1.5506 -0.6887 -0.8547
 8703SOL     OW32070   8.596   2.567   1.376  0.5622 -0.3897  0.5488
 8703SOL    HW132071   8.506   2.561   1.344  0.3980  0.1703  0.8974
 8703SOL    HW232072   8.633   2.480   1.361 -0.1613 -0.7376  0.7851
 8704SOL     OW32073   0.911   7.861   0.458  0.1383  0.0228 -0.3242
 8704SOL    HW132074   0.885   7.769   0.458  2.2037 -0.6241 -0.5763
 8704SOL    HW232075   0.972   7.868   0.384  1.7467  1.0176  1.0283
 8705SOL     OW32076   3.644   9.098   8.009 -0.4694  0.0089 -0.1461
 8705SOL    HW132077   3.660   9.057   7.923  0.2415  1.3918 -0.6982
 8705SOL    HW232078   3.708   9.057   8.067  2.6649  2.6028 -1.4424
 8706SOL     OW32079   4.649   3.486   7.353  0.2833  0.6778 -0.2108
 8706SOL    HW132080   4.624   3.466   7.263 -0.0700  0.2284 -0.0190
 8706SOL    HW232081   4.569   3.521   7.392  0.2058  0.1125  0.1479
 8707SOL     OW32082   5.966   2.723   9.352  0.6648 -0.0803 -0.1493
 8707SOL    HW132083   5.986   2.643   9.401 -0.9273  0.7906  2.0608
 8707SOL    HW232084   6.018   2.715   9.272 -0.6419 -4.0957 -0.8470
 8708SOL     OW32085   8.914   4.684   9.224  0.4897 -0.1781 -0.5524
 8708SOL    HW132086   8.994   4.697   9.173  2.1410 -0.4752  1.7748
 8708SOL    HW232087   8.871   4.609   9.183  0.6968  0.8170 -2.6604
 8709SOL     OW32088   2.166   5.490   8.202  0.2465  0.0961  0.0055
 8709SOL    HW132089   2.098   5.472   8.266 -0.4577 -0.8456 -0.9692
 8709SOL    HW232090   2.158   5.420   8.138  0.5458  1.2959 -1.4196
 8710SOL     OW32091   1.117   2.923   3.639  0.0911 -0.1082  0.1675
 8710SOL    HW132092   1.144   2.873   3.716  0.4682 -0.1214  0.0306
 8710SOL    HW232093   1.197   2.968   3.612  0.2815 -1.0917 -0.9700
 8711SOL     OW32094   8.934   8.695   9.201  0.2373 -0.0386 -0.0492
 8711SOL    HW132095   8.941   8.691   9.106 -3.2409  1.0471 -0.4987
 8711SOL    HW232096   8.920   8.787   9.221  2.2124 -0.0542  1.7149
 8712SOL     OW32097   2.818   3.664   0.150 -0.6781 -0.3133  0.7909
 8712SOL    HW132098   2.840   3.722   0.078 -1.4967 -0.4537  0.4079
 8712SOL    HW232099   2.764   3.718   0.209 -1.7096 -0.7412  0.2757
 8713SOL     OW32100   6.380   0.453   0.810 -0.3119  0.1599 -0.0885
 8713SOL    HW132101   6.410   0.459   0.720 -0.9964 -0.0441 -0.3381
 8713SOL    HW232102   6.310   0.518   0.816  1.1691  1.7606  0.9159
 8714SOL     OW32103   3.856   0.127   8.475 -0.2819 -0.2257  0.7841
 8714SOL    HW132104   3.940   0.097   8.509  0.7974 -1.9799 -2.8832
 8714SOL    HW232105   3.803   0.048   8.470 -1.5321  0.5502  1.3710
 8715SOL     OW32106   4.199   5.121   0.868 -0.4553 -0.5142 -0.9800
 8715SOL    HW132107   4.114   5.164   0.864 -0.5269 -0.5912 -0.4223
 8715SOL    HW232108   4.258   5.181   0.823 -0.0303  1.4932  1.9864
 8716SOL     OW32109   4.627   4.027   2.345 -0.2479  0.4291  0.2160
 8716SOL    HW132110   4.632   4.069   2.430 -1.0151 -1.8078  1.4439
 8716SOL    HW232111   4.590   4.094   2.287 -1.6269  1.3663  2.0876
 8717SOL     OW32112   9.016   3.478   4.492  0.8909 -0.2556 -0.2024
 8717SOL    HW132113   9.051   3.449   4.408 -0.7898  1.1640 -1.4815
 8717SOL    HW232114   9.012   3.398   4.545  2.0836 -1.1695 -1.4139
 8718SOL     OW32115   0.738   4.657   4.151  0.0630  0.7943 -0.0830
 8718SOL    HW132116   0.783   4.635   4.069  0.2701  2.2080 -0.3788
 8718SOL    HW232117   0.806   4.653   4.218 -0.4623 -2.2215  0.4191
 8719SOL     OW32118   4.251   5.562   0.802 -0.1266 -0.3222  0.7480
 8719SOL    HW132119   4.308   5.628   0.843 -0.4085 -0.7505  1.8596
 8719SOL    HW232120   4.302   5.481   0.806  0.7883  0.0242 -1.8342
 8720SOL     OW32121   3.086   0.196   2.895 -0.1108 -0.5246  0.5956
 8720SOL    HW132122   3.076   0.105   2.869 -0.8786 -0.6113  1.1403
 8720SOL    HW232123   2.997   0.224   2.918  0.0770  0.4326  0.1985
 8721SOL     OW32124   8.275   9.012   0.848 -0.5076  0.3345 -0.7566
 8721SOL    HW132125   8.370   9.002   0.852 -0.0770  3.5831  0.6282
 8721SOL    HW232126   8.242   8.958   0.920  0.9055  2.9532  2.1249
 8722SOL     OW32127   8.939   7.336   1.148  0.0551  0.3519  0.2698
 8722SOL    HW132128   8.985   7.348   1.232  0.0926 -0.0415  0.3062
 8722SOL    HW232129   8.920   7.425   1.119  1.1841  0.5470  0.0704
 8723SOL     OW32130   6.066   3.212   4.301 -0.0445  0.4391  0.4412
 8723SOL    HW132131   6.048   3.296   4.342 -0.4078  0.2335  0.7165
 8723SOL    HW232132   6.159   3.196   4.318 -0.6193 -0.5893  3.0161
 8724SOL     OW32133   6.524   0.728   2.435 -0.1177  0.0542  0.7245
 8724SOL    HW132134   6.479   0.786   2.496  1.5648  0.7327  1.3805
 8724SOL    HW232135   6.590   0.684   2.488  0.5918 -0.2358 -0.3718
 8725SOL     OW32136   1.101   2.128   1.120 -0.3118 -0.0996 -0.4691
 8725SOL    HW132137   1.094   2.047   1.169 -1.4484  1.2885  1.8069
 8725SOL    HW232138   1.105   2.197   1.186  1.7008  1.6971 -2.2632
 8726SOL     OW32139   1.994   0.698   1.743 -0.3235  0.3677 -0.2980
 8726SOL    HW132140   2.086   0.682   1.722  0.2228  1.7709  0.8620
 8726SOL    HW232141   1.969   0.770   1.686 -0.8551 -0.2720 -0.8993
 8727SOL     OW32142   6.750   8.522   2.821 -0.0268  0.1515  0.0271
 8727SOL    HW132143   6.677   8.501   2.763  0.5226  1.0378 -1.0219
 8727SOL    HW232144   6.827   8.488   2.775  0.2561 -0.6545  1.0604
 8728SOL     OW32145   2.835   4.728   7.562 -0.1891 -0.2255  0.1776
 8728SOL    HW132146   2.829   4.639   7.597 -0.2273  0.0221  0.8093
 8728SOL    HW232147   2.899   4.721   7.491  0.0884 -0.6799  0.4684
 8729SOL     OW32148   2.872   8.152   2.314  0.0866 -0.2244  0.3259
 8729SOL    HW132149   2.933   8.213   2.273  1.7417 -1.5331  0.7485
 8729SOL    HW232150   2.863   8.183   2.404  2.0431 -1.3454  0.9564
 8730SOL     OW32151   6.822   0.655   1.812 -0.5312 -0.7096 -0.4827
 8730SOL    HW132152   6.896   0.670   1.752 -1.7129 -1.1733 -2.1300
 8730SOL    HW232153   6.799   0.742   1.844  1.6121 -0.6821  1.2599
 8731SOL     OW32154   8.512   4.052   2.908  0.3048 -0.2114 -0.1185
 8731SOL    HW132155   8.560   4.083   2.985  0.3442  1.6980 -0.8517
 8731SOL    HW232156   8.581   4.040   2.842 -0.1486  3.8809 -1.6152
 8732SOL     OW32157   5.884   2.519   5.761 -0.6793  0.2755 -0.2649
 8732SOL    HW132158   5.907   2.490   5.849 -0.4252 -0.6818 -0.6441
 8732SOL    HW232159   5.951   2.584   5.739  0.7987 -1.3522 -0.7491
 8733SOL     OW32160   2.478   6.089   2.373 -0.3965 -0.2766  0.5955
 8733SOL    HW132161   2.443   6.170   2.335 -1.0703 -0.6407  0.4223
 8733SOL    HW232162   2.527   6.048   2.302 -2.6816 -1.5734 -0.3317
 8734SOL     OW32163   1.688   5.820   7.137  0.2865 -0.7597 -0.0360
 8734SOL    HW132164   1.613   5.786   7.088 -0.1200  0.6739 -0.4574
 8734SOL    HW232165   1.751   5.845   7.070 -1.2402  3.5474 -0.1870
 8735SOL     OW32166   1.028   6.125   6.930  0.7362  0.0094  0.1420
 8735SOL    HW132167   0.962   6.061   6.958  0.7581  0.1891  0.6184
 8735SOL    HW232168   1.073   6.149   7.011 -1.1128  2.7588  0.4921
 8736SOL     OW32169   7.212   5.176   2.914  0.1913 -0.3781  0.1197
 8736SOL    HW132170   7.195   5.244   2.979  0.1538 -0.9134  0.6791
 8736SOL    HW232171   7.153   5.196   2.842  1.2194  1.0392 -0.3653
 8737SOL     OW32172   8.759   0.533   3.050 -0.0379  0.0211  0.5089
 8737SOL    HW132173   8.804   0.461   3.006  1.2439  0.5716  0.8536
 8737SOL    HW232174   8.745   0.598   2.981 -0.9607 -0.4366  0.2527
 8738SOL     OW32175   4.230   0.004   1.337  0.4407  0.3298  0.1401
 8738SOL    HW132176   4.309  -0.046   1.357  0.2700 -0.7374 -1.5516
 8738SOL    HW232177   4.172  -0.012   1.411  1.1360 -0.4084  0.5419
 8739SOL     OW32178   0.350   2.959   6.434 -0.1481 -0.7268 -0.2027
 8739SOL    HW132179   0.292   3.034   6.430  2.1986  1.1631 -1.1166
 8739SOL    HW232180   0.381   2.947   6.344  2.3795 -0.3383  0.5397
 8740SOL     OW32181   7.314   6.471   0.298 -0.0056 -0.0299  0.6584
 8740SOL    HW132182   7.326   6.388   0.251 -0.5762  0.3993 -0.2815
 8740SOL    HW232183   7.302   6.445   0.389  0.2147 -0.9549  0.4412
 8741SOL     OW32184   6.393   2.103   3.185 -0.0087  0.1009 -0.1361
 8741SOL    HW132185   6.318   2.140   3.137 -0.2471  1.4750  1.2019
 8741SOL    HW232186   6.354   2.037   3.242 -0.1499  0.4170  0.1442
 8742SOL     OW32187   1.866   5.434   0.521  1.0861 -0.3302  0.1087
 8742SOL    HW132188   1.825   5.348   0.535  0.3347 -0.0569 -0.3730
 8742SOL    HW232189   1.881   5.438   0.426 -0.6311  0.8414 -0.1360
 8743SOL     OW32190   8.868   5.859   4.672  0.0630  0.0868  0.4921
 8743SOL    HW132191   8.927   5.789   4.701 -0.6870 -0.3675  0.9546
 8743SOL    HW232192   8.849   5.838   4.580  1.7338  1.0375 -0.1284
 8744SOL     OW32193   8.196   6.778   4.929  0.1204 -0.1702 -0.1396
 8744SOL    HW132194   8.277   6.824   4.905 -0.8703  0.9720 -1.4539
 8744SOL    HW232195   8.149   6.840   4.984 -0.8732  0.1255 -1.2764
 8745SOL     OW32196   4.180   3.501   7.896  0.6594 -0.1875  0.4421
 8745SOL    HW132197   4.251   3.564   7.884  1.5347 -1.0949  0.7190
 8745SOL    HW232198   4.224   3.422   7.929 -0.2050 -1.4413 -1.2871
 8746SOL     OW32199   5.636   0.739   2.989  0.1104  0.3296  0.0322
 8746SOL    HW132200   5.720   0.696   2.975  0.8655  0.9119  2.2623
 8746SOL    HW232201   5.571   0.672   2.967  1.2272 -1.1322  0.9633
 8747SOL     OW32202   2.796   7.960   3.877 -0.0900  0.4766 -0.3684
 8747SOL    HW132203   2.729   7.964   3.808  0.9313 -0.6846 -1.4816
 8747SOL    HW232204   2.747   7.944   3.957 -1.1257 -1.2850 -1.2787
 8748SOL     OW32205   5.675   0.986   3.067  0.0473 -0.5257  0.0485
 8748SOL    HW132206   5.638   0.913   3.018  0.4767 -0.5431 -0.2591
 8748SOL    HW232207   5.754   0.950   3.108 -0.6484 -0.6979  1.3138
 8749SOL     OW32208   1.384   7.825   4.233 -0.2917 -0.3351 -0.1345
 8749SOL    HW132209   1.436   7.834   4.313  0.8777  0.1382 -0.9193
 8749SOL    HW232210   1.317   7.893   4.239 -0.2694 -0.3653  0.4806
 8750SOL     OW32211   9.159   2.750   1.512  0.0722  0.0837 -0.0995
 8750SOL    HW132212   9.121   2.833   1.540  1.3183  0.5934  0.1418
 8750SOL    HW232213   9.087   2.687   1.519 -0.1093  0.4816  2.7363
 8751SOL     OW32214   4.078   7.647   0.540 -0.3729  0.1079  0.3598
 8751SOL    HW132215   4.060   7.566   0.587 -0.9474 -0.9368 -1.5637
 8751SOL    HW232216   4.116   7.619   0.457 -1.1992  1.7686 -0.6308
 8752SOL     OW32217   3.180   0.242   6.203 -0.1732  0.2405  0.4943
 8752SOL    HW132218   3.092   0.217   6.172  0.1852 -1.3294  0.6480
 8752SOL    HW232219   3.165   0.320   6.255 -1.7984 -1.0444  2.0911
 8753SOL     OW32220   4.255   8.215   3.075 -0.1998 -0.0549  0.1545
 8753SOL    HW132221   4.332   8.235   3.022 -0.1771 -0.3232  0.0865
 8753SOL    HW232222   4.288   8.215   3.165 -0.3246  0.8254  0.2103
 8754SOL     OW32223   8.985   2.418   7.312 -0.0534 -0.3052  0.5023
 8754SOL    HW132224   8.984   2.348   7.247 -2.6884  0.3387 -0.2514
 8754SOL    HW232225   8.911   2.400   7.369  0.2218  0.9576  1.3164
 8755SOL     OW32226   8.392   9.289   0.901 -0.0713  0.1431 -0.4918
 8755SOL    HW132227   8.355   9.207   0.868 -0.2103 -0.1427  0.3439
 8755SOL    HW232228   8.420   9.336   0.823  1.9384 -1.6007 -0.9178
 8756SOL     OW32229   8.747   4.635   2.262  0.2930  0.8502  0.1944
 8756SOL    HW132230   8.778   4.694   2.194  2.7759  1.7300  1.9184
 8756SOL    HW232231   8.702   4.564   2.215  0.5564  2.1685 -2.1864
 8757SOL     OW32232   6.796   6.506   6.483 -0.2418 -0.9585  0.0383
 8757SOL    HW132233   6.874   6.562   6.491 -0.1845 -0.9869 -0.2887
 8757SOL    HW232234   6.789   6.490   6.389 -1.0537 -0.3807 -0.0038
 8758SOL     OW32235   0.477   5.060   1.566  0.9396  0.2410 -0.0426
 8758SOL    HW132236   0.384   5.051   1.548  0.9020  1.5285 -0.6698
 8758SOL    HW232237   0.510   4.971   1.575  0.2661 -0.4166 -3.0939
 8759SOL     OW32238   5.067   4.160   8.736 -0.6757 -0.3145 -0.2764
 8759SOL    HW132239   5.065   4.143   8.642  0.3570 -0.4164 -0.2870
 8759SOL    HW232240   5.116   4.242   8.746  0.3164 -0.9405  0.2366
 8760SOL     OW32241   9.160   6.215   6.555  0.3252  0.2638 -0.2371
 8760SOL    HW132242   9.106   6.289   6.529  0.2248  0.1010 -0.5039
 8760SOL    HW232243   9.204   6.189   6.474 -1.2827 -1.3257 -0.6693
 8761SOL     OW32244   5.308   2.326   3.880 -0.2254 -0.5881  0.1503
 8761SOL    HW132245   5.281   2.399   3.824  2.0186  0.1939 -0.0100
 8761SOL    HW232246   5.388   2.357   3.922 -1.3597 -1.4738  3.2081
 8762SOL     OW32247   2.062   2.097   1.632 -0.4059 -0.0967  0.1409
 8762SOL    HW132248   2.059   2.117   1.538 -0.8783  0.0611  0.1835
 8762SOL    HW232249   2.087   2.005   1.636 -1.5872 -0.4493 -0.1928
 8763SOL     OW32250   8.461   0.226   2.348 -0.4862  0.4084  0.1688
 8763SOL    HW132251   8.509   0.281   2.409 -0.9404  1.1452 -0.1133
 8763SOL    HW232252   8.452   0.141   2.392  3.0147 -0.5595 -0.6608
 8764SOL     OW32253   5.620   1.719   3.407  0.0009  0.7720  0.0037
 8764SOL    HW132254   5.655   1.750   3.323  1.8874 -0.2009  0.3856
 8764SOL    HW232255   5.628   1.795   3.465 -0.2467  1.1083 -0.3962
 8765SOL     OW32256   5.166   0.528   5.201  0.5028 -0.3376 -0.3816
 8765SOL    HW132257   5.254   0.524   5.239 -0.2337 -0.6479  1.3328
 8765SOL    HW232258   5.152   0.621   5.182  0.7212 -0.1190  0.5077
 8766SOL     OW32259   3.487   0.052   2.959  0.1689 -0.2638  0.0547
 8766SOL    HW132260   3.426   0.062   3.032  0.0224 -1.2919  0.0850
 8766SOL    HW232261   3.440   0.086   2.883 -0.8367 -1.8930 -0.1011
 8767SOL     OW32262   8.098   1.441   2.278  0.2342 -0.1527 -0.2786
 8767SOL    HW132263   8.145   1.395   2.348  1.2715 -1.7488 -1.9406
 8767SOL    HW232264   8.007   1.417   2.290  0.2731  0.1979  0.9275
 8768SOL     OW32265   0.341   6.133   0.019  0.0069 -0.3986  0.3071
 8768SOL    HW132266   0.326   6.160  -0.071  1.2975 -1.6125 -0.3138
 8768SOL    HW232267   0.411   6.191   0.051 -3.1844  2.8692  2.0163
 8769SOL     OW32268   6.526   1.494   6.000  0.2439 -0.1901  0.4874
 8769SOL    HW132269   6.581   1.572   6.006  1.4957 -0.9933 -0.0287
 8769SOL    HW232270   6.540   1.462   5.910 -1.0073 -0.4780  0.3753
 8770SOL     OW32271   3.272   6.527   3.036  0.2846  0.3426 -0.2080
 8770SOL    HW132272   3.244   6.613   3.066 -0.4405 -0.8997  3.1534
 8770SOL    HW232273   3.366   6.525   3.054  0.0634  0.0354  1.0820
 8771SOL     OW32274   7.423   5.373   8.052  0.5888 -0.3827 -0.5316
 8771SOL    HW132275   7.475   5.444   8.013  0.3893 -0.8082 -1.6184
 8771SOL    HW232276   7.474   5.294   8.033 -1.0919 -0.9986 -2.9327
 8772SOL     OW32277   3.580   2.835   8.829 -0.0228  0.2441 -0.1169
 8772SOL    HW132278   3.658   2.883   8.803 -0.1910  0.8271  0.4163
 8772SOL    HW232279   3.565   2.860   8.920  0.1409 -1.1868  0.3292
 8773SOL     OW32280   5.148   1.766   4.514  0.1447  0.5043  0.5679
 8773SOL    HW132281   5.155   1.763   4.418  0.8790 -0.9931  0.6425
 8773SOL    HW232282   5.160   1.676   4.542 -1.5992  0.6469  2.0067
 8774SOL     OW32283   6.984   1.965   4.540 -0.3759  0.1443 -0.3404
 8774SOL    HW132284   7.052   1.906   4.508  0.9686  1.0050  0.7912
 8774SOL    HW232285   6.927   1.980   4.465  1.4549  0.4388 -1.7373
 8775SOL     OW32286   9.244   4.437   4.647 -0.2042  0.3072 -0.3744
 8775SOL    HW132287   9.251   4.388   4.565  0.5738 -1.3350  0.6306
 8775SOL    HW232288   9.151   4.437   4.668 -0.1359 -1.7340  0.1400
 8776SOL     OW32289   8.505   1.652   1.987  0.4075 -0.5327  0.0472
 8776SOL    HW132290   8.462   1.685   1.908 -1.6670  0.4034  1.4613
 8776SOL    HW232291   8.455   1.573   2.010 -1.0095  0.8224  1.9774
 8777SOL     OW32292   5.265   0.503   1.513  0.1561 -0.3099 -0.4123
 8777SOL    HW132293   5.293   0.590   1.483  0.6969 -0.3312  0.0047
 8777SOL    HW232294   5.286   0.503   1.607 -1.2749 -0.3227 -0.0584
 8778SOL     OW32295   7.691   0.817   5.593  0.1874  0.0095  0.2528
 8778SOL    HW132296   7.681   0.909   5.571  1.2498  0.4765  1.6047
 8778SOL    HW232297   7.654   0.770   5.518  1.6469  1.5031 -1.4862
 8779SOL     OW32298   5.281   3.728   0.547  0.5031  0.1693 -0.0713
 8779SOL    HW132299   5.225   3.653   0.566  0.9076 -0.3429 -0.8432
 8779SOL    HW232300   5.241   3.769   0.470  0.9305  0.0687 -0.3492
 8780SOL     OW32301   1.984   7.568   7.839  0.2869 -0.3127  0.5852
 8780SOL    HW132302   1.959   7.476   7.836 -0.4513 -0.1676  1.7152
 8780SOL    HW232303   1.969   7.600   7.750 -0.2685 -1.0740  0.3946
 8781SOL     OW32304   3.410   0.278   6.761 -0.1496  0.2638 -0.8133
 8781SOL    HW132305   3.415   0.372   6.749  0.6640  0.2410 -0.7358
 8781SOL    HW232306   3.351   0.247   6.692 -2.3049  1.0783  0.5727
 8782SOL     OW32307   3.118   8.996   6.175 -0.1622 -0.3755  0.0019
 8782SOL    HW132308   3.130   9.091   6.166 -2.9071 -0.0917 -2.0327
 8782SOL    HW232309   3.156   8.975   6.260  1.6162  2.3154 -0.0003
 8783SOL     OW32310   1.068   4.269   1.838 -0.3985 -0.3877 -0.3831
 8783SOL    HW132311   1.160   4.252   1.816 -0.3816  1.9539 -2.7370
 8783SOL    HW232312   1.027   4.183   1.842  2.0526 -1.5813  1.8234
 8784SOL     OW32313   3.368   2.764   2.118 -0.0817  0.1589 -0.9185
 8784SOL    HW132314   3.305   2.829   2.148  0.1031  0.9206 -2.0982
 8784SOL    HW232315   3.451   2.791   2.157 -0.2958 -0.2786 -0.1524
 8785SOL     OW32316   1.532   2.402   4.463 -0.2692  0.3489 -0.2704
 8785SOL    HW132317   1.447   2.360   4.448  0.3232 -0.7635 -0.6114
 8785SOL    HW232318   1.544   2.459   4.387 -0.2845 -0.2099 -0.6953
 8786SOL     OW32319   8.520   5.057   1.602 -0.1903 -0.2487  0.1446
 8786SOL    HW132320   8.505   5.045   1.696 -1.3139 -1.8199 -0.1947
 8786SOL    HW232321   8.490   4.975   1.563  2.0170 -0.3896 -1.4222
 8787SOL     OW32322   4.418   6.833   2.169 -0.5275 -0.4847  0.0733
 8787SOL    HW132323   4.487   6.780   2.130  1.2677  2.1133 -0.5235
 8787SOL    HW232324   4.437   6.832   2.263  0.0083 -0.2000 -0.0316
 8788SOL     OW32325   2.738   3.475   0.903 -0.0092  0.3536  0.1907
 8788SOL    HW132326   2.661   3.496   0.851  1.1001  2.2285 -0.8132
 8788SOL    HW232327   2.757   3.383   0.883 -1.0505  0.3374 -0.7864
 8789SOL     OW32328   7.095   6.000   8.758  0.2576  0.5146  0.1604
 8789SOL    HW132329   7.012   6.017   8.713  1.0222 -0.0324 -1.5509
 8789SOL    HW232330   7.087   6.047   8.841 -1.6880  0.6072 -0.0155
 8790SOL     OW32331   4.320   8.454   1.148  0.3129  0.1748  0.2925
 8790SOL    HW132332   4.360   8.456   1.236 -1.7171  1.2813  1.2654
 8790SOL    HW232333   4.266   8.375   1.148 -1.2181  1.1840  0.8113
 8791SOL     OW32334   5.187   1.329   2.955  0.1901  0.8635  0.5555
 8791SOL    HW132335   5.240   1.313   2.877  0.6834  1.5784  0.7302
 8791SOL    HW232336   5.249   1.366   3.019 -0.1507  0.0713  1.3680
 8792SOL     OW32337   6.656   4.925   2.369  0.4039  0.3073  0.2348
 8792SOL    HW132338   6.624   4.836   2.357 -1.4699  0.7228  1.5969
 8792SOL    HW232339   6.679   4.929   2.462  1.9206  0.8322 -0.1408
 8793SOL     OW32340   6.339   4.902   8.466 -0.3607  0.6051 -0.2855
 8793SOL    HW132341   6.418   4.909   8.519 -0.2081  0.7521 -0.5288
 8793SOL    HW232342   6.366   4.853   8.388  0.2825  3.2066 -1.8314
 8794SOL     OW32343   2.573   8.259   2.959  0.7690  0.1761  0.0811
 8794SOL    HW132344   2.554   8.350   2.935 -0.9248 -0.1684  0.0343
 8794SOL    HW232345   2.569   8.211   2.877 -1.7857 -0.4711  0.5130
 8795SOL     OW32346   7.342   5.437   8.320 -0.3495 -0.1172  1.0555
 8795SOL    HW132347   7.388   5.412   8.239 -0.0956 -1.8456  1.6840
 8795SOL    HW232348   7.381   5.521   8.344 -0.1743  0.2574 -0.4139
 8796SOL     OW32349   9.340   2.908   0.459  0.2778 -0.2804  0.1804
 8796SOL    HW132350   9.393   2.891   0.536  1.2290  0.4421 -0.2857
 8796SOL    HW232351   9.360   2.836   0.399  0.8253  0.0326 -0.0265
 8797SOL     OW32352   2.758   9.306   5.374  0.2736  0.5501  0.3030
 8797SOL    HW132353   2.748   9.212   5.361 -1.9379  0.9344 -1.4597
 8797SOL    HW232354   2.813   9.314   5.451  1.2530 -2.1747 -0.0072
 8798SOL     OW32355   1.126   4.014   9.163 -0.1953 -0.3160  0.3226
 8798SOL    HW132356   1.039   4.041   9.192 -0.5395 -0.4265 -0.5698
 8798SOL    HW232357   1.174   4.095   9.149  0.0662 -0.2605  1.4111
 8799SOL     OW32358   5.007   7.252   5.786 -0.2673  0.0682 -0.2833
 8799SOL    HW132359   5.067   7.253   5.712  1.2220  1.6577  0.8410
 8799SOL    HW232360   4.920   7.265   5.747  0.5577  1.7482 -1.7316
 8800SOL     OW32361   4.530   4.597   1.913  0.1268  0.7121 -0.5380
 8800SOL    HW132362   4.568   4.586   1.826 -1.9726  0.6983 -1.5132
 8800SOL    HW232363   4.580   4.669   1.952  0.8359  0.9901 -1.9136
 8801SOL     OW32364   5.376   1.616   2.569  0.2931  0.4441  0.0353
 8801SOL    HW132365   5.309   1.684   2.564 -0.2369 -0.0599  0.2138
 8801SOL    HW232366   5.434   1.645   2.640 -0.5819  0.1429  0.9041
 8802SOL     OW32367   3.233   1.287   7.770 -0.3951 -0.0172 -0.0277
 8802SOL    HW132368   3.189   1.206   7.746 -0.2785  0.0333 -0.4245
 8802SOL    HW232369   3.287   1.264   7.845  0.1417 -0.4704 -0.5477
 8803SOL     OW32370   1.592   0.798   1.121 -0.1256  0.5173 -0.0261
 8803SOL    HW132371   1.593   0.706   1.092 -1.1585  0.3739  0.3864
 8803SOL    HW232372   1.681   0.812   1.154  0.1187 -0.2610 -0.3031
 8804SOL     OW32373   1.495   0.447   3.603 -0.2284 -0.0714  0.2146
 8804SOL    HW132374   1.493   0.414   3.693 -2.6798 -0.7859 -0.0322
 8804SOL    HW232375   1.497   0.368   3.549 -2.4187  0.1940 -0.3479
 8805SOL     OW32376   5.142   6.994   7.792 -0.1826 -0.0811  0.3692
 8805SOL    HW132377   5.085   7.053   7.742 -1.1285 -2.2687 -1.2594
 8805SOL    HW232378   5.231   7.019   7.766 -0.4655  1.4871  0.7782
 8806SOL     OW32379   5.390   7.222   1.492  0.0410 -0.1136 -1.0626
 8806SOL    HW132380   5.346   7.150   1.448  1.8164 -0.6388 -2.0772
 8806SOL    HW232381   5.412   7.283   1.422 -0.4428  0.9010 -0.3637
 8807SOL     OW32382   6.840   2.078   4.744 -0.0080 -0.0214  0.0026
 8807SOL    HW132383   6.879   2.162   4.768 -0.8025 -0.3724  2.8443
 8807SOL    HW232384   6.899   2.043   4.678  1.6855  1.6851  0.5081
 8808SOL     OW32385   6.952   4.929   5.731 -0.2616 -0.0585 -0.0014
 8808SOL    HW132386   6.982   4.952   5.819 -1.3082 -0.4368  0.4732
 8808SOL    HW232387   6.971   5.007   5.679 -0.4901  0.5384  0.7745
 8809SOL     OW32388   6.261   5.441   2.301  0.3600  0.4703  0.0126
 8809SOL    HW132389   6.224   5.518   2.259  2.1208  1.6533  0.5045
 8809SOL    HW232390   6.313   5.398   2.232  0.0628  0.1943 -0.0412
 8810SOL     OW32391   0.608   3.964   1.558  0.3764  0.5958  0.3615
 8810SOL    HW132392   0.664   4.034   1.591 -1.3702  1.3510  1.8441
 8810SOL    HW232393   0.595   3.986   1.466  1.0003  1.4092  0.4535
 8811SOL     OW32394   6.255   1.383   2.208 -0.3603 -0.0347  0.1597
 8811SOL    HW132395   6.160   1.371   2.197 -0.6362  0.9588  1.3099
 8811SOL    HW232396   6.281   1.438   2.134 -1.0074  1.1352  0.7820
 8812SOL     OW32397   5.530   0.897   9.011 -0.0940 -0.3524  0.3037
 8812SOL    HW132398   5.594   0.922   9.078 -0.1446 -1.5950  0.8438
 8812SOL    HW232399   5.530   0.801   9.013 -0.0499 -0.4181 -1.5381
 8813SOL     OW32400   0.580   4.159   4.458 -0.0938  0.2142 -0.3127
 8813SOL    HW132401   0.523   4.181   4.385 -0.3030  0.4983 -0.0620
 8813SOL    HW232402   0.528   4.175   4.536 -0.8887 -2.7368 -0.0942
 8814SOL     OW32403   6.067   5.334   7.356 -0.5646  0.0336  0.5871
 8814SOL    HW132404   6.013   5.316   7.433 -0.1398 -0.3567  0.7938
 8814SOL    HW232405   6.043   5.423   7.330 -0.7406  0.1463  1.1388
 8815SOL     OW32406   7.748   7.770   3.967  0.3695 -0.4368  0.8393
 8815SOL    HW132407   7.824   7.732   3.924  1.2482  0.8234  1.2437
 8815SOL    HW232408   7.754   7.742   4.058  0.2102 -0.5395  0.8194
 8816SOL     OW32409   0.192   4.870   4.788 -0.0345  0.0803 -0.4380
 8816SOL    HW132410   0.174   4.950   4.738 -1.8942  0.3314  0.5401
 8816SOL    HW232411   0.188   4.898   4.880 -0.4524 -1.0691 -0.0844
 8817SOL     OW32412   0.271   5.204   1.041 -0.1769 -0.2696 -0.2971
 8817SOL    HW132413   0.286   5.138   0.974 -0.4015 -0.5787 -0.0465
 8817SOL    HW232414   0.297   5.287   1.000  0.8510 -0.6024 -0.3498
 8818SOL     OW32415   8.229   5.687   2.512 -0.3595 -0.7777 -0.1437
 8818SOL    HW132416   8.147   5.661   2.555  0.4373 -1.2802  1.1350
 8818SOL    HW232417   8.296   5.675   2.579  0.4944  1.7538 -0.4590
 8819SOL     OW32418   5.140   1.711   1.947 -0.2122  0.0861 -0.2517
 8819SOL    HW132419   5.077   1.753   2.006 -0.9062 -0.1377 -0.8174
 8819SOL    HW232420   5.122   1.749   1.861  2.1231  1.9087 -0.0502
 8820SOL     OW32421   6.434   8.106   6.122 -0.0512 -0.6532 -0.0233
 8820SOL    HW132422   6.416   8.047   6.049 -0.4697  0.4202 -0.8094
 8820SOL    HW232423   6.348   8.134   6.153  0.1404 -0.4449  0.3332
 8821SOL     OW32424   7.473   9.060   1.291  0.1458  0.0459 -0.7149
 8821SOL    HW132425   7.535   9.046   1.220 -0.8149  2.0556 -2.0530
 8821SOL    HW232426   7.527   9.087   1.365  1.0017  0.0399 -1.3228
 8822SOL     OW32427   7.861   0.043   6.553 -0.4613 -0.1035 -0.2917
 8822SOL    HW132428   7.786   0.013   6.502 -0.3324 -1.7745  0.4326
 8822SOL    HW232429   7.824   0.073   6.635 -0.5909  1.8676 -1.0224
 8823SOL     OW32430   5.507   2.980   4.954 -0.0797 -0.6151 -0.1765
 8823SOL    HW132431   5.601   2.993   4.956 -0.2705  0.7534  1.5170
 8823SOL    HW232432   5.492   2.904   5.010 -0.0352 -0.5465 -0.0731
 8824SOL     OW32433   2.181   5.817   8.958 -0.2097  0.0197 -0.3098
 8824SOL    HW132434   2.248   5.868   9.005  0.0532 -0.9494  0.3891
 8824SOL    HW232435   2.152   5.876   8.888  0.9888  0.6613 -0.2984
 8825SOL     OW32436   9.188   1.991   2.449  0.4773 -0.9965 -0.0615
 8825SOL    HW132437   9.184   1.971   2.355 -0.0189 -0.4753 -0.1556
 8825SOL    HW232438   9.230   1.914   2.488  3.1174 -0.1856 -1.0371
 8826SOL     OW32439   4.728   4.731   2.056  0.5722 -0.3672 -0.2494
 8826SOL    HW132440   4.793   4.743   1.988  1.6914 -0.1957  0.8210
 8826SOL    HW232441   4.778   4.714   2.136 -0.7172 -3.1596  0.0977
 8827SOL     OW32442   0.206   6.812   0.845  0.2613 -0.4665 -0.0301
 8827SOL    HW132443   0.127   6.862   0.826 -0.4573 -1.9752 -1.1880
 8827SOL    HW232444   0.190   6.725   0.808  0.8523 -2.0940  3.2235
 8828SOL     OW32445   5.416   8.517   5.942  0.3753 -0.1917 -0.2120
 8828SOL    HW132446   5.494   8.555   5.902  1.7149 -2.8498 -0.3735
 8828SOL    HW232447   5.441   8.426   5.960 -1.7340 -0.3537  2.4396
 8829SOL     OW32448   8.554   3.608   1.008 -0.0128 -0.0786  0.3370
 8829SOL    HW132449   8.572   3.515   0.994  2.2509  0.5830 -1.7395
 8829SOL    HW232450   8.637   3.645   1.036 -0.1963  1.7393 -1.3409
 8830SOL     OW32451   6.825   2.063   1.216  0.5965  0.2084  0.2874
 8830SOL    HW132452   6.839   1.985   1.269  1.4657  0.7015  0.8141
 8830SOL    HW232453   6.790   2.031   1.133  1.6195 -0.8183  0.2283
 8831SOL     OW32454   3.581   1.902   7.193 -0.4487 -0.2604 -0.1476
 8831SOL    HW132455   3.491   1.932   7.182 -1.2470 -2.0004  1.0095
 8831SOL    HW232456   3.625   1.972   7.241 -1.9139 -0.3987  1.5042
 8832SOL     OW32457   8.927   4.697   4.842  0.1040  0.2598 -0.4183
 8832SOL    HW132458   8.893   4.778   4.879 -0.9909  0.0853 -0.9898
 8832SOL    HW232459   8.895   4.628   4.900  1.4658  0.2649  0.3578
 8833SOL     OW32460   2.561   4.122   8.812 -0.5472 -0.6910 -0.4022
 8833SOL    HW132461   2.590   4.155   8.727 -1.9955 -1.0115 -1.0508
 8833SOL    HW232462   2.641   4.094   8.856  0.1877 -0.8764 -1.8166
 8834SOL     OW32463   5.646   3.240   2.828  0.9188  0.3288  0.3552
 8834SOL    HW132464   5.590   3.318   2.831  1.4393  0.8091 -1.3622
 8834SOL    HW232465   5.672   3.225   2.919  0.5513  1.9666  0.7546
 8835SOL     OW32466   7.414   4.041   2.573 -0.1222 -0.4714  0.7895
 8835SOL    HW132467   7.500   4.030   2.613  0.3555  1.1803  0.2944
 8835SOL    HW232468   7.410   3.974   2.505  0.1822 -1.4654  1.7157
 8836SOL     OW32469   2.216   6.028   5.862  0.3760 -0.0774 -0.1556
 8836SOL    HW132470   2.147   6.068   5.809  0.2185  1.6440  1.2653
 8836SOL    HW232471   2.171   5.963   5.916  0.4819 -1.5766 -1.7724
 8837SOL     OW32472   5.246   2.649   3.984 -0.1999 -0.0784 -0.1210
 8837SOL    HW132473   5.208   2.717   4.040  0.4782 -0.6875  1.1251
 8837SOL    HW232474   5.176   2.626   3.923  0.2686  3.4813 -2.3045
 8838SOL     OW32475   4.302   3.272   8.005  0.5434  0.1390  0.2998
 8838SOL    HW132476   4.362   3.228   7.945  0.5471  0.9090 -0.2768
 8838SOL    HW232477   4.240   3.204   8.031 -0.2197  0.0766 -1.5633
 8839SOL     OW32478   8.781   6.698   4.115  0.7238  0.0017 -0.3222
 8839SOL    HW132479   8.783   6.664   4.025  0.8469 -0.7842 -0.0244
 8839SOL    HW232480   8.727   6.777   4.109  0.2655 -0.3540 -0.9800
 8840SOL     OW32481   7.122   5.625   6.784  0.0783 -0.3036 -0.3854
 8840SOL    HW132482   7.168   5.709   6.790 -0.7648  0.2541 -1.3066
 8840SOL    HW232483   7.030   5.649   6.769 -0.7729 -1.3543  2.5163
 8841SOL     OW32484   1.742   5.114   8.027  0.2910 -0.2283  0.1527
 8841SOL    HW132485   1.707   5.025   8.029  0.4059 -0.2695  0.3792
 8841SOL    HW232486   1.686   5.164   8.086  1.9125 -0.7873  2.2960
 8842SOL     OW32487   3.171   1.005   0.005  0.2192 -0.1294  0.7933
 8842SOL    HW132488   3.102   1.024   0.069  2.0581 -1.0120  3.1875
 8842SOL    HW232489   3.234   1.077   0.015  1.4204 -1.2143  1.3684
 8843SOL     OW32490   4.681   4.139   6.578 -0.2471 -0.1918 -0.1229
 8843SOL    HW132491   4.694   4.168   6.668  0.1644  0.3914 -0.3636
 8843SOL    HW232492   4.683   4.220   6.526 -2.0864 -0.3447 -0.4875
 8844SOL     OW32493   0.589   2.087   2.998  0.1738  0.3932 -0.1964
 8844SOL    HW132494   0.532   2.105   3.072  0.2210  1.8128 -0.4825
 8844SOL    HW232495   0.607   1.993   3.004 -0.5748  0.3080  1.0373
 8845SOL     OW32496   5.506   5.100   1.908  0.0668 -0.0355 -0.3847
 8845SOL    HW132497   5.498   5.007   1.885 -1.3755 -0.6353  2.1586
 8845SOL    HW232498   5.415   5.130   1.915  0.3835  0.4705  2.6055
 8846SOL     OW32499   3.377   2.748   8.185  0.3829 -0.1244 -0.4276
 8846SOL    HW132500   3.423   2.824   8.149 -0.3863  0.3672 -0.3912
 8846SOL    HW232501   3.429   2.721   8.261  1.9005 -1.0164 -1.7035
 8847SOL     OW32502   6.342   1.793   0.108 -0.1341 -0.0424 -0.6980
 8847SOL    HW132503   6.288   1.714   0.108 -0.1292 -0.0697 -1.9936
 8847SOL    HW232504   6.280   1.864   0.090 -0.3186  0.4335  1.4481
 8848SOL     OW32505   2.797   5.425   8.310  0.0985  0.0250  0.4060
 8848SOL    HW132506   2.782   5.378   8.228 -0.7909  0.9811 -0.0146
 8848SOL    HW232507   2.873   5.481   8.292 -0.1527  0.3024  0.1915
 8849SOL     OW32508   2.916   9.026   7.282  0.1962 -0.3736  0.5161
 8849SOL    HW132509   2.878   9.044   7.368  0.3635  0.8366  0.3414
 8849SOL    HW232510   3.000   9.071   7.282  0.1164 -0.2042 -0.3581
 8850SOL     OW32511   4.346   1.340   0.245  0.3630  0.0386  0.3855
 8850SOL    HW132512   4.426   1.293   0.270 -0.0207 -0.4266  0.7510
 8850SOL    HW232513   4.275   1.286   0.278 -0.0876  0.9751  1.0143
 8851SOL     OW32514   7.609   0.423   2.539  0.5673 -0.1109 -0.2866
 8851SOL    HW132515   7.667   0.382   2.604 -0.4848 -0.5465  0.4066
 8851SOL    HW232516   7.579   0.503   2.582  0.7814  0.1929 -0.7045
 8852SOL     OW32517   1.182   8.279   4.560 -0.5295 -0.9386  0.3662
 8852SOL    HW132518   1.204   8.324   4.641  2.1101 -0.7756 -0.3437
 8852SOL    HW232519   1.232   8.197   4.564 -0.0020 -0.7194 -1.2794
 8853SOL     OW32520   0.172   0.360   0.742  0.3446 -0.2631 -0.8555
 8853SOL    HW132521   0.218   0.300   0.801  1.0745  2.1933  1.2620
 8853SOL    HW232522   0.079   0.343   0.758  0.4876  0.9592  1.8878
 8854SOL     OW32523   8.007   1.336   7.372  0.1440 -0.0169 -0.0536
 8854SOL    HW132524   8.030   1.321   7.280  1.9251 -0.4882  0.4254
 8854SOL    HW232525   7.952   1.262   7.396  0.8823 -0.6829 -0.3658
 8855SOL     OW32526   1.645   7.633   2.196 -0.3754 -0.2746 -0.0813
 8855SOL    HW132527   1.716   7.616   2.257 -0.3762  2.0795  0.7107
 8855SOL    HW232528   1.681   7.697   2.134 -0.8024 -1.5838 -1.7652
 8856SOL     OW32529   6.228   2.189   7.637 -0.2964 -0.3971  0.3211
 8856SOL    HW132530   6.218   2.132   7.714 -0.3512 -1.1297 -0.2107
 8856SOL    HW232531   6.231   2.128   7.563 -2.3222  0.3763 -0.4641
 8857SOL     OW32532   6.655   1.483   0.683  0.3284  0.1925  0.5631
 8857SOL    HW132533   6.592   1.519   0.745 -1.2790  0.0807 -0.9279
 8857SOL    HW232534   6.718   1.436   0.737 -1.1256 -0.0797  2.0956
 8858SOL     OW32535   4.801   8.483   6.297 -0.2296  0.2762  0.2307
 8858SOL    HW132536   4.840   8.401   6.326  0.3981  0.5323  0.1343
 8858SOL    HW232537   4.720   8.457   6.253 -0.0742 -0.2856  0.2690
 8859SOL     OW32538   5.456   2.159   5.355 -0.8349 -0.1637 -0.7074
 8859SOL    HW132539   5.404   2.195   5.283  0.4307  0.4401 -1.3544
 8859SOL    HW232540   5.534   2.122   5.313  0.3784  1.0212  0.3924
 8860SOL     OW32541   8.442   3.391   3.240 -0.1532 -0.0959 -0.1505
 8860SOL    HW132542   8.460   3.325   3.307  1.9264  0.4186 -0.1479
 8860SOL    HW232543   8.468   3.474   3.280 -0.3525  0.4182 -1.0638
 8861SOL     OW32544   1.431   6.769   2.504  0.2877 -0.2746 -0.3685
 8861SOL    HW132545   1.406   6.677   2.513  3.2691 -1.2356 -0.8143
 8861SOL    HW232546   1.425   6.804   2.593 -1.0423 -0.8014 -0.2241
 8862SOL     OW32547   7.843   3.085   6.497  0.4730  0.1858  0.5546
 8862SOL    HW132548   7.761   3.085   6.447  1.0945 -3.0772 -0.7357
 8862SOL    HW232549   7.896   3.153   6.455  0.5172 -1.5971 -2.6643
 8863SOL     OW32550   6.285   9.329   8.095  0.0373 -0.1642 -0.5212
 8863SOL    HW132551   6.341   9.252   8.105 -0.3751 -0.3296  0.6471
 8863SOL    HW232552   6.294   9.353   8.003  0.3561 -1.4727 -0.8559
 8864SOL     OW32553   3.560   5.517   5.663 -0.0962 -0.4039 -0.0575
 8864SOL    HW132554   3.511   5.599   5.665 -0.5814 -0.6962  1.2175
 8864SOL    HW232555   3.652   5.543   5.671 -0.1853  0.0535 -0.4998
 8865SOL     OW32556   7.781   0.486   2.793 -0.3335 -0.0104  0.6016
 8865SOL    HW132557   7.864   0.515   2.830 -0.6374  1.2417  0.3428
 8865SOL    HW232558   7.714   0.528   2.847 -0.7821  0.4302 -0.2731
 8866SOL     OW32559   5.185   3.954   6.163 -0.7043 -0.1802 -0.6887
 8866SOL    HW132560   5.196   4.010   6.086 -1.5831  0.4603 -0.3590
 8866SOL    HW232561   5.252   3.886   6.152  2.6833  2.6543  0.5164
 8867SOL     OW32562   3.279   2.557   7.022  0.2155  0.1762  0.1351
 8867SOL    HW132563   3.291   2.570   6.928  1.6801  1.5643  0.4931
 8867SOL    HW232564   3.313   2.636   7.063 -0.7934 -0.2106  1.8421
 8868SOL     OW32565   3.674   1.185   2.138 -0.3660 -0.2715 -0.0305
 8868SOL    HW132566   3.627   1.107   2.109  1.1701 -1.5508  0.7373
 8868SOL    HW232567   3.611   1.256   2.130 -1.8676 -1.6149 -0.6086
 8869SOL     OW32568   2.797   4.923   1.533 -0.3878 -0.6602 -0.2176
 8869SOL    HW132569   2.785   5.017   1.520  0.3232 -0.6938 -1.2570
 8869SOL    HW232570   2.709   4.890   1.549 -0.4484  0.4544  2.3922
 8870SOL     OW32571   6.682   8.532   6.542  0.4846  0.0759  0.2270
 8870SOL    HW132572   6.755   8.586   6.571  0.5495  0.0958  0.0270
 8870SOL    HW232573   6.648   8.492   6.622 -0.6127  1.7030  0.6119
 8871SOL     OW32574   5.792   5.671   0.002 -0.2135 -0.4533  0.2363
 8871SOL    HW132575   5.700   5.691   0.023 -0.2860  1.3656 -1.5593
 8871SOL    HW232576   5.836   5.672   0.087 -1.6964 -0.5636  1.0434
 8872SOL     OW32577   3.919   8.347   5.885  0.3282  0.2656  0.2017
 8872SOL    HW132578   3.845   8.362   5.943  0.5016  2.4392 -0.0739
 8872SOL    HW232579   3.880   8.324   5.801  0.0759 -2.7621  1.0151
 8873SOL     OW32580   4.717   0.739   0.088 -0.3071  0.0850 -0.6304
 8873SOL    HW132581   4.790   0.799   0.072 -0.6993  1.3338  1.8118
 8873SOL    HW232582   4.752   0.675   0.150 -0.6647 -0.6719 -1.1882
 8874SOL     OW32583   0.378   0.589   3.114  0.2914  0.2710 -0.0105
 8874SOL    HW132584   0.321   0.644   3.167  0.3104  0.8437 -0.5709
 8874SOL    HW232585   0.467   0.610   3.143  0.2816  0.2905  0.0051
 8875SOL     OW32586   6.388   6.774   5.679 -0.4156  0.1377  0.0240
 8875SOL    HW132587   6.426   6.791   5.765  0.9023 -0.0114 -0.5105
 8875SOL    HW232588   6.455   6.803   5.617 -1.1566 -0.1854 -0.9500
 8876SOL     OW32589   9.245   2.620   6.907  0.1827  0.7312  0.2610
 8876SOL    HW132590   9.175   2.659   6.960  0.1950  0.0025  0.8250
 8876SOL    HW232591   9.287   2.695   6.865 -2.5534  1.0561 -2.2144
 8877SOL     OW32592   2.934   8.661   3.645 -0.1161 -0.0415  0.5071
 8877SOL    HW132593   2.884   8.588   3.608 -0.8852 -0.2661  1.9281
 8877SOL    HW232594   2.873   8.735   3.644  0.7033  0.6541 -1.0524
 8878SOL     OW32595   2.891   2.657   8.148 -0.2632 -0.0352  0.2326
 8878SOL    HW132596   2.917   2.573   8.187  0.4962  0.1451  0.1314
 8878SOL    HW232597   2.796   2.660   8.160 -0.0382  0.1566  2.4084
 8879SOL     OW32598   9.290   8.873   4.007 -0.3004  0.0335  0.4483
 8879SOL    HW132599   9.314   8.874   4.100  1.6957  1.2610 -0.0450
 8879SOL    HW232600   9.328   8.792   3.973  1.5409  1.0032  0.1054
 8880SOL     OW32601   6.900   8.028   9.345 -0.1300 -0.7530  0.4142
 8880SOL    HW132602   6.979   7.975   9.330 -0.2436 -1.1406  1.1312
 8880SOL    HW232603   6.849   7.977   9.408 -1.9186 -1.4892 -1.5092
 8881SOL     OW32604   2.258   5.711   1.577  0.1059 -0.0198  0.3599
 8881SOL    HW132605   2.173   5.669   1.590 -0.2230  0.5645  0.1635
 8881SOL    HW232606   2.246   5.765   1.498  0.6707  0.0313  0.3057
 8882SOL     OW32607   4.035   8.582   5.642 -0.3270 -0.0518  0.7412
 8882SOL    HW132608   3.963   8.520   5.634 -1.2981  0.9687  1.1891
 8882SOL    HW232609   4.019   8.647   5.574 -1.1552  1.4160  2.2500
 8883SOL     OW32610   4.178   0.313   1.924 -0.1678 -0.0935 -0.4885
 8883SOL    HW132611   4.100   0.259   1.936 -0.5395  0.0120 -2.2758
 8883SOL    HW232612   4.245   0.252   1.895 -0.6132  0.3670 -2.6034
 8884SOL     OW32613   8.675   8.447   0.975  0.1844  0.5140 -0.2683
 8884SOL    HW132614   8.660   8.472   0.884  3.5181  1.6996 -0.6405
 8884SOL    HW232615   8.628   8.514   1.025 -0.7366  0.5324 -1.1261
 8885SOL     OW32616   5.771   7.538   0.027  0.2349  0.0153  0.3065
 8885SOL    HW132617   5.860   7.570   0.012  0.3884 -0.3647  0.3904
 8885SOL    HW232618   5.718   7.585  -0.037  0.5604 -0.0469 -0.0160
 8886SOL     OW32619   0.513   7.961   4.550  0.2091 -0.0726 -0.0921
 8886SOL    HW132620   0.596   7.942   4.507  1.3075  1.0023  1.4235
 8886SOL    HW232621   0.489   8.049   4.519 -0.5829 -0.5199 -0.8018
 8887SOL     OW32622   1.031   4.256   4.838  0.0481 -0.4242  0.4467
 8887SOL    HW132623   0.981   4.331   4.871 -0.1051 -0.5934  0.6022
 8887SOL    HW232624   1.121   4.288   4.832 -0.0938 -0.0899  0.0774
 8888SOL     OW32625   4.875   7.676   4.548 -0.1312 -0.6752 -0.2441
 8888SOL    HW132626   4.848   7.724   4.469  1.8270  0.9857  0.0277
 8888SOL    HW232627   4.820   7.598   4.547 -3.2803  1.3348 -0.9039
 8889SOL     OW32628   0.802   6.716   2.944 -0.8058  0.0674  0.2829
 8889SOL    HW132629   0.768   6.655   2.879 -0.8703  2.2619 -1.8836
 8889SOL    HW232630   0.863   6.663   2.996 -1.1936 -1.9335 -1.1560
 8890SOL     OW32631   2.033   6.223   3.821  0.3615  0.4001 -0.4040
 8890SOL    HW132632   2.091   6.220   3.897 -1.2286  0.3100  0.8780
 8890SOL    HW232633   1.994   6.136   3.817  2.0022 -0.3256 -2.7059
 8891SOL     OW32634   1.248   5.168   6.933 -0.3073 -0.0754 -0.2880
 8891SOL    HW132635   1.220   5.118   7.009  1.0564  0.8395  0.8869
 8891SOL    HW232636   1.338   5.139   6.917  0.0560  1.0368 -0.3784
 8892SOL     OW32637   8.351   7.875   1.231  0.1196 -0.4091 -0.0151
 8892SOL    HW132638   8.351   7.795   1.283  1.6133 -0.0464  0.5961
 8892SOL    HW232639   8.269   7.873   1.183 -0.5560 -1.5508  1.1492
 8893SOL     OW32640   4.213   3.742   1.377  0.1034  0.4416 -0.1257
 8893SOL    HW132641   4.282   3.747   1.311  0.6446  0.2925  0.4229
 8893SOL    HW232642   4.161   3.665   1.352 -0.4615  1.1037 -1.0958
 8894SOL     OW32643   3.818   1.943   9.001  0.6773 -0.0891 -0.6276
 8894SOL    HW132644   3.874   1.865   9.007  1.3108  0.3977 -0.1157
 8894SOL    HW232645   3.748   1.927   9.065  0.2337 -0.6819 -1.2435
 8895SOL     OW32646   7.611   4.774   4.622  0.1262 -0.0246  0.2170
 8895SOL    HW132647   7.598   4.854   4.572 -0.6022  0.3604  0.9985
 8895SOL    HW232648   7.585   4.797   4.711  0.5137 -0.9522  0.5785
 8896SOL     OW32649   1.027   0.540   5.787 -0.2437 -0.2620  0.2065
 8896SOL    HW132650   0.980   0.571   5.865  0.3067 -1.6128  1.1025
 8896SOL    HW232651   0.967   0.478   5.747 -0.9066  1.0989 -1.0004
 8897SOL     OW32652   4.339   5.497   5.476 -0.2596 -0.5534  0.3031
 8897SOL    HW132653   4.302   5.538   5.398  0.0453  0.2339  0.5647
 8897SOL    HW232654   4.429   5.475   5.452  0.7151  2.0915  1.2272
 8898SOL     OW32655   4.124   0.123   1.105 -0.2720  0.5458  0.6856
 8898SOL    HW132656   4.150   0.083   1.188 -1.2421  0.2472  0.8619
 8898SOL    HW232657   4.172   0.073   1.039 -1.6149 -1.1276  0.8824
 8899SOL     OW32658   7.934   4.944   3.598  0.5016 -0.5021 -0.1595
 8899SOL    HW132659   8.009   4.977   3.549 -0.8747  2.5555 -0.3871
 8899SOL    HW232660   7.862   4.944   3.534 -0.5940  0.5134  1.0357
 8900SOL     OW32661   0.659   2.140   7.654  0.2510 -0.2978  0.5997
 8900SOL    HW132662   0.581   2.147   7.709 -0.5783 -0.8589 -0.4611
 8900SOL    HW232663   0.707   2.064   7.688 -1.0740 -1.6402 -0.3948
 8901SOL     OW32664   8.603   9.287   2.273 -0.2033 -0.4321 -0.3368
 8901SOL    HW132665   8.573   9.324   2.356 -1.9590 -0.0052 -1.1083
 8901SOL    HW232666   8.639   9.201   2.297  1.0061  0.4327  1.0666
 8902SOL     OW32667   5.314   3.701   6.158  0.5199 -0.2439 -0.3938
 8902SOL    HW132668   5.332   3.705   6.252 -0.7006 -0.5960 -0.1185
 8902SOL    HW232669   5.223   3.671   6.153 -0.3597  2.4018 -1.6158
 8903SOL     OW32670   0.615   4.168   8.172 -0.1554 -0.0299 -0.0313
 8903SOL    HW132671   0.694   4.210   8.206 -1.3714  0.5120  2.3070
 8903SOL    HW232672   0.626   4.171   8.077  2.4742  0.2897  0.2110
 8904SOL     OW32673   0.092   8.870   4.280  0.4609  0.2668  0.2027
 8904SOL    HW132674   0.177   8.837   4.255 -0.3301 -1.4201 -0.3782
 8904SOL    HW232675   0.111   8.943   4.339  2.2949 -1.4574  1.8697
 8905SOL     OW32676   0.353   2.333   4.420  0.3876  0.5560 -0.2264
 8905SOL    HW132677   0.279   2.323   4.360  1.2183  0.5082 -1.2593
 8905SOL    HW232678   0.422   2.277   4.384  0.5848 -0.2568  1.3179
 8906SOL     OW32679   1.525   0.317   8.040 -0.3210 -0.4133  0.4950
 8906SOL    HW132680   1.466   0.271   8.100 -0.6140  0.5586  0.9752
 8906SOL    HW232681   1.562   0.387   8.092  0.6066 -0.4865 -0.0532
 8907SOL     OW32682   2.327   3.332   4.207  0.3236 -0.5644  0.8654
 8907SOL    HW132683   2.236   3.340   4.178  0.6859 -1.6683 -0.6538
 8907SOL    HW232684   2.345   3.238   4.206  1.4642 -0.3711  1.2591
 8908SOL     OW32685   8.137   2.241   5.089  0.1669 -0.3698  0.2730
 8908SOL    HW132686   8.223   2.258   5.128 -0.1058  0.8438  0.3800
 8908SOL    HW232687   8.096   2.177   5.147  0.1746  0.6434  1.4288
 8909SOL     OW32688   8.686   1.482   1.216  0.2484 -0.2429  0.3891
 8909SOL    HW132689   8.645   1.568   1.228 -0.2866 -0.5992  1.2122
 8909SOL    HW232690   8.615   1.419   1.230  1.1951 -0.9141  2.6842
 8910SOL     OW32691   8.142   5.634   3.743  0.0881 -0.0474 -0.8212
 8910SOL    HW132692   8.092   5.715   3.736  0.7591  0.3811 -0.7628
 8910SOL    HW232693   8.078   5.568   3.772 -1.0710 -0.1667 -3.4131
 8911SOL     OW32694   0.326   5.468   3.385  0.0286 -0.3387  0.0311
 8911SOL    HW132695   0.391   5.538   3.381  0.8667 -1.1440 -0.9576
 8911SOL    HW232696   0.366   5.402   3.441 -0.2757 -0.5100  0.0495
 8912SOL     OW32697   8.362   8.676   4.681 -0.5207 -0.5273 -0.1606
 8912SOL    HW132698   8.271   8.658   4.662 -0.8205  1.0942 -0.4505
 8912SOL    HW232699   8.377   8.637   4.767 -1.7794  0.0519  0.3453
 8913SOL     OW32700   5.752   4.337   3.858  0.1424 -0.2197  0.6604
 8913SOL    HW132701   5.811   4.379   3.920  0.3070 -0.4337  0.6517
 8913SOL    HW232702   5.683   4.298   3.912 -0.1175  0.2273  0.6543
 8914SOL     OW32703   3.924   7.721   0.883 -0.3087  0.1433 -0.7358
 8914SOL    HW132704   4.018   7.734   0.879 -0.2641  0.5195  0.8080
 8914SOL    HW232705   3.902   7.678   0.801  1.0882  0.7307 -1.4527
 8915SOL     OW32706   1.021   2.153   3.040  0.1047 -0.0279 -0.1047
 8915SOL    HW132707   1.059   2.065   3.031  0.3597 -0.1130  1.5186
 8915SOL    HW232708   1.062   2.189   3.119 -1.3744  0.8216  0.3197
 8916SOL     OW32709   2.193   5.565   0.188 -0.4528  0.5321 -0.0576
 8916SOL    HW132710   2.228   5.506   0.254  2.8378 -0.0093 -2.0330
 8916SOL    HW232711   2.188   5.650   0.231 -0.1925 -0.1623  1.3845
 8917SOL     OW32712   2.314   0.392   6.402  0.4573  0.3706  0.5461
 8917SOL    HW132713   2.298   0.299   6.422  0.7777  0.1520 -0.1680
 8917SOL    HW232714   2.228   0.433   6.413  0.2410 -0.0703  0.5609
 8918SOL     OW32715   3.287   6.166   4.904 -0.4766 -0.6719  0.5429
 8918SOL    HW132716   3.323   6.143   4.819 -0.1187  0.9484  0.2223
 8918SOL    HW232717   3.195   6.185   4.887 -0.0992  0.9969  0.2285
 8919SOL     OW32718   6.469   2.307   3.897 -0.1836 -0.1499 -0.6030
 8919SOL    HW132719   6.472   2.242   3.966  0.5861 -0.7075 -1.1516
 8919SOL    HW232720   6.549   2.358   3.908  0.9757 -1.5129 -2.2741
 8920SOL     OW32721   6.951   7.554   4.011 -0.2148 -1.1262  0.1525
 8920SOL    HW132722   7.023   7.598   3.966  0.6963 -0.5316  2.0741
 8920SOL    HW232723   6.980   7.463   4.021 -0.0584 -1.0654  0.2566
 8921SOL     OW32724   7.019   7.263   2.422 -0.3493  0.0815 -0.1319
 8921SOL    HW132725   6.925   7.247   2.428 -0.1937 -0.3370  1.6439
 8921SOL    HW232726   7.028   7.357   2.435 -0.4316 -0.0936  1.3400
 8922SOL     OW32727   5.659   1.470   9.022  0.3387 -0.0492  0.1955
 8922SOL    HW132728   5.585   1.490   8.965  0.1112  0.2110  0.5778
 8922SOL    HW232729   5.733   1.517   8.983  0.0798  0.5221  0.3832
 8923SOL     OW32730   8.923   8.469   2.783 -0.2683 -0.3349 -0.0976
 8923SOL    HW132731   8.976   8.402   2.739 -0.1702  0.0052 -0.5077
 8923SOL    HW232732   8.861   8.420   2.836  0.4092 -0.7481  0.3297
 8924SOL     OW32733   7.025   7.272   3.075 -0.0103  0.3967 -0.4186
 8924SOL    HW132734   6.929   7.269   3.072  0.0312 -0.5677 -1.1141
 8924SOL    HW232735   7.050   7.300   2.987  0.3326  1.5261  0.0193
 8925SOL     OW32736   0.218   6.633   9.068 -0.0112 -0.3638  0.2363
 8925SOL    HW132737   0.161   6.566   9.106 -0.7002  0.6522  1.0594
 8925SOL    HW232738   0.185   6.715   9.104  1.7080  0.3055  0.3802
 8926SOL     OW32739   3.367   9.356   3.498  0.5494 -0.2204 -0.2835
 8926SOL    HW132740   3.392   9.408   3.575  1.0961 -0.4071 -0.3345
 8926SOL    HW232741   3.410   9.272   3.511  1.1708 -0.0375 -1.1081
 8927SOL     OW32742   8.204   7.367   7.569  0.1261  1.0907 -0.2133
 8927SOL    HW132743   8.268   7.297   7.574 -0.4793  0.6029  1.3352
 8927SOL    HW232744   8.256   7.447   7.555  0.8890  0.4749 -0.9863
 8928SOL     OW32745   4.840   1.198   9.267 -0.2353 -0.1127 -0.3638
 8928SOL    HW132746   4.835   1.266   9.200  1.1637 -0.9185 -1.3278
 8928SOL    HW232747   4.918   1.219   9.318 -0.3188 -0.4772 -0.0776
 8929SOL     OW32748   8.149   7.831   4.418 -0.4793 -0.4407 -0.1838
 8929SOL    HW132749   8.238   7.800   4.402 -0.4369 -1.0619  1.1388
 8929SOL    HW232750   8.093   7.764   4.380 -0.4045  0.0951 -1.2816
 8930SOL     OW32751   3.125   3.468   5.230 -0.9130 -0.1518  0.0384
 8930SOL    HW132752   3.135   3.535   5.162 -0.1157 -1.1631 -0.8580
 8930SOL    HW232753   3.102   3.518   5.308  0.2088  1.2329 -0.4718
 8931SOL     OW32754   5.975   7.867   5.322  0.1678 -0.2663  0.2761
 8931SOL    HW132755   5.939   7.950   5.352  0.3438  0.0673 -0.4263
 8931SOL    HW232756   5.976   7.812   5.400 -0.4464  0.2161  0.6321
 8932SOL     OW32757   2.780   4.685   8.559  0.1764  0.5572 -0.6159
 8932SOL    HW132758   2.715   4.671   8.490 -0.2985 -0.3843  0.0089
 8932SOL    HW232759   2.856   4.635   8.530 -0.1376 -0.1105 -0.3116
 8933SOL     OW32760   0.180   5.438   5.476 -0.0245 -0.0090  0.3491
 8933SOL    HW132761   0.120   5.469   5.544  0.2947  1.0083  0.1964
 8933SOL    HW232762   0.154   5.486   5.397  1.2294  0.7727  0.3810
 8934SOL     OW32763   6.754   5.394   0.388  0.0060  0.4440  0.1916
 8934SOL    HW132764   6.805   5.405   0.468 -0.5353  0.1857  0.5791
 8934SOL    HW232765   6.771   5.474   0.338  2.1719 -0.3845 -0.5129
 8935SOL     OW32766   6.611   2.712   7.111 -0.9359 -0.7751  0.2960
 8935SOL    HW132767   6.605   2.717   7.206  1.9900 -0.0050  0.5479
 8935SOL    HW232768   6.525   2.740   7.080 -1.4001  0.8093  2.7049
 8936SOL     OW32769   3.572   4.735   9.011 -0.2016  0.8079 -0.1043
 8936SOL    HW132770   3.538   4.657   8.967  1.3790  0.7282 -1.2533
 8936SOL    HW232771   3.501   4.762   9.069 -1.8997  0.1963 -1.7995
 8937SOL     OW32772   8.569   4.838   8.056 -0.5454 -0.2240 -0.4459
 8937SOL    HW132773   8.545   4.881   8.139  1.0904  1.6334 -0.8528
 8937SOL    HW232774   8.546   4.902   7.989  3.2425  0.8215 -0.9964
 8938SOL     OW32775   0.058   4.709   3.283  0.3174  0.1692  0.0413
 8938SOL    HW132776   0.065   4.682   3.374 -0.8484  0.8951  0.3778
 8938SOL    HW232777   0.030   4.630   3.236  0.0825  0.0026  0.4592
 8939SOL     OW32778   9.255   7.223   7.999  0.4054  0.4628 -0.0922
 8939SOL    HW132779   9.228   7.183   8.082 -0.2135  2.0513  0.5039
 8939SOL    HW232780   9.173   7.242   7.953  0.6619  1.3570 -0.2012
 8940SOL     OW32781   7.034   3.892   7.029 -0.0964 -0.4133 -0.6643
 8940SOL    HW132782   6.951   3.845   7.018 -1.6465  1.4764  1.7200
 8940SOL    HW232783   7.017   3.978   6.990  1.9312 -1.0019 -3.0459
 8941SOL     OW32784   7.551   1.801   8.367 -0.0079 -0.1604 -0.2760
 8941SOL    HW132785   7.525   1.837   8.282 -2.0509 -1.7692 -0.4039
 8941SOL    HW232786   7.602   1.723   8.346 -0.0898 -0.2859 -0.0181
 8942SOL     OW32787   6.292   3.842   5.696  0.0976 -0.2213  0.2287
 8942SOL    HW132788   6.318   3.862   5.606 -1.2135 -1.5902 -0.4973
 8942SOL    HW232789   6.314   3.749   5.708 -2.3205 -0.8418  0.3038
 8943SOL     OW32790   8.072   2.714   2.005 -0.4072  0.0635 -0.0458
 8943SOL    HW132791   7.982   2.722   1.973 -0.1514 -2.2709 -1.5922
 8943SOL    HW232792   8.122   2.777   1.952 -0.6173 -1.0554 -1.6401
 8944SOL     OW32793   0.986   4.570   7.738  0.0015  0.5140 -0.1342
 8944SOL    HW132794   0.994   4.556   7.832  0.0742  1.0241 -0.0642
 8944SOL    HW232795   1.077   4.570   7.706 -0.0402 -0.1351 -0.2811
 8945SOL     OW32796   5.656   6.355   8.388  0.0198 -0.8448  0.0218
 8945SOL    HW132797   5.679   6.264   8.404 -1.1296 -1.1683 -0.0300
 8945SOL    HW232798   5.646   6.361   8.292  0.2334 -0.6333  0.0137
 8946SOL     OW32799   6.479   1.239   4.738 -0.2313  0.4566 -0.2876
 8946SOL    HW132800   6.474   1.262   4.831 -0.8509 -1.9372  0.3611
 8946SOL    HW232801   6.490   1.322   4.692 -1.2064  1.8279  1.8276
 8947SOL     OW32802   5.293   0.200   8.960 -0.0766  0.4443  0.2920
 8947SOL    HW132803   5.226   0.156   9.012 -0.0433  0.9717  0.7914
 8947SOL    HW232804   5.340   0.129   8.915 -0.9958  0.0774 -0.1050
 8948SOL     OW32805   7.160   0.994   5.978  0.3954  0.3913 -0.2695
 8948SOL    HW132806   7.111   1.009   6.059 -0.1695  3.2857 -1.0319
 8948SOL    HW232807   7.203   1.078   5.960 -1.7086  0.8750 -4.3345
 8949SOL     OW32808   7.234   0.985   1.872 -0.0431 -0.0940 -0.1471
 8949SOL    HW132809   7.160   0.941   1.914  1.7365 -2.1085  1.1119
 8949SOL    HW232810   7.249   1.063   1.926 -0.5407 -0.3044  0.3035
 8950SOL     OW32811   3.514   3.436   7.726 -0.5996 -0.3057  0.4912
 8950SOL    HW132812   3.420   3.432   7.741 -0.8000  0.4273 -0.4745
 8950SOL    HW232813   3.538   3.526   7.749 -0.3582 -0.1264 -0.4424
 8951SOL     OW32814   1.168   7.099   4.070  0.1083  0.1823  0.5209
 8951SOL    HW132815   1.204   7.178   4.111  0.1908  0.5895 -0.3317
 8951SOL    HW232816   1.222   7.084   3.993 -1.2049  0.5195 -0.5093
 8952SOL     OW32817   4.163   4.964   2.985 -0.5651 -0.0249  0.3960
 8952SOL    HW132818   4.184   4.876   3.018  1.6401  0.1809 -0.3256
 8952SOL    HW232819   4.136   4.949   2.894  1.8544  0.1600 -0.4216
 8953SOL     OW32820   3.911   1.828   1.813 -0.2147 -0.4264  0.2511
 8953SOL    HW132821   3.822   1.838   1.845  0.1262 -3.0478  2.3262
 8953SOL    HW232822   3.904   1.771   1.737 -0.3577 -0.2425  0.1279
 8954SOL     OW32823   4.842   2.061   4.046 -0.7629 -0.2875  0.3024
 8954SOL    HW132824   4.872   1.975   4.078  0.6684  0.2221  0.3998
 8954SOL    HW232825   4.811   2.044   3.957  0.5557 -0.7343 -0.0924
 8955SOL     OW32826   7.807   8.930   4.337 -0.3289 -0.1780 -0.2631
 8955SOL    HW132827   7.857   8.943   4.257 -2.1518 -0.9939 -1.6226
 8955SOL    HW232828   7.827   9.006   4.391  1.8376 -0.1789 -0.9821
 8956SOL     OW32829   3.866   9.194   3.957  0.1259 -0.1796  0.1018
 8956SOL    HW132830   3.948   9.242   3.945  0.1627  0.4174  2.1934
 8956SOL    HW232831   3.878   9.113   3.909  1.2018  0.6769 -1.1579
 8957SOL     OW32832   9.350   7.529   1.087 -0.4266 -0.7566  0.1574
 8957SOL    HW132833   9.292   7.582   1.033  0.4824 -1.3869 -1.4970
 8957SOL    HW232834   9.341   7.440   1.053  1.7904 -0.8084 -0.4398
 8958SOL     OW32835   0.912   1.013   8.230  0.6495 -0.0344 -0.3077
 8958SOL    HW132836   0.887   1.104   8.219 -0.2325 -0.3488 -1.0032
 8958SOL    HW232837   0.853   0.980   8.299  0.4437 -0.2685 -0.5904
 8959SOL     OW32838   2.657   5.764   4.548  0.1662 -0.0722  0.3603
 8959SOL    HW132839   2.728   5.700   4.558  1.3074  1.2628  1.2357
 8959SOL    HW232840   2.594   5.721   4.490  1.6858 -1.3226 -0.4532
 8960SOL     OW32841   2.273   5.507   4.209 -0.3036 -0.0862 -0.6193
 8960SOL    HW132842   2.225   5.484   4.129  1.0736 -0.5169 -1.3613
 8960SOL    HW232843   2.328   5.582   4.183 -0.6167  0.4525  0.2319
 8961SOL     OW32844   0.335   7.557   4.207 -0.2228  0.6197 -0.0995
 8961SOL    HW132845   0.351   7.554   4.301 -0.4010 -0.8726 -0.0920
 8961SOL    HW232846   0.248   7.598   4.199 -1.3066 -1.3990  0.5737
 8962SOL     OW32847   9.260   8.993   7.665 -0.1133  0.6228 -0.1584
 8962SOL    HW132848   9.350   8.993   7.700 -0.1549  0.0567 -0.0465
 8962SOL    HW232849   9.262   8.929   7.594 -0.8807 -0.7860  1.0387
 8963SOL     OW32850   4.490   4.209   5.039 -0.1859 -0.5587  0.0274
 8963SOL    HW132851   4.550   4.284   5.033 -0.7939 -0.0818 -0.2303
 8963SOL    HW232852   4.479   4.179   4.949  0.1255 -1.0153  0.1419
 8964SOL     OW32853   3.368   7.764   7.630 -0.3887  0.4580  0.1008
 8964SOL    HW132854   3.426   7.840   7.635  0.1567  0.0658 -0.2061
 8964SOL    HW232855   3.427   7.689   7.622 -0.9375  0.0525 -0.2355
 8965SOL     OW32856   2.592   9.020   1.354 -0.7073 -0.5156  0.2041
 8965SOL    HW132857   2.617   8.933   1.323  0.9648  0.2601 -0.7920
 8965SOL    HW232858   2.585   9.072   1.275 -0.9457  0.4315  0.8343
 8966SOL     OW32859   3.551   2.406   8.318  0.4837 -0.6119 -0.3767
 8966SOL    HW132860   3.473   2.352   8.321 -0.1822  0.3367  0.3593
 8966SOL    HW232861   3.616   2.359   8.370 -0.0223 -0.8002  0.0873
 8967SOL     OW32862   3.362   4.117   5.174  0.1298 -0.9865 -0.1677
 8967SOL    HW132863   3.393   4.108   5.084 -1.3993  2.0824 -1.1438
 8967SOL    HW232864   3.298   4.188   5.170  0.4790 -0.2841  3.4583
 8968SOL     OW32865   7.037   0.341   8.791 -0.3135  0.0418  0.3208
 8968SOL    HW132866   7.085   0.271   8.835  0.6203  0.4154 -0.0830
 8968SOL    HW232867   7.000   0.300   8.713 -0.3963 -0.1781  0.4765
 8969SOL     OW32868   5.664   8.398   7.534 -0.0212  0.9326 -0.5627
 8969SOL    HW132869   5.692   8.375   7.622 -2.0587  1.7306  0.3639
 8969SOL    HW232870   5.639   8.314   7.494  1.1064  0.5423 -0.4809
 8970SOL     OW32871   0.427   7.042   1.361 -0.5395  0.1638  0.2953
 8970SOL    HW132872   0.506   7.086   1.394 -0.4019 -0.4331  0.7647
 8970SOL    HW232873   0.378   7.112   1.318  1.2194  0.2001 -1.8511
 8971SOL     OW32874   9.239   2.471   1.022 -0.0298  0.0153  0.2292
 8971SOL    HW132875   9.176   2.527   1.066  0.3232  0.2373  0.4609
 8971SOL    HW232876   9.260   2.403   1.085  1.2249  0.8951  0.8023
 8972SOL     OW32877   6.157   7.790   0.011  0.2121 -0.0535  0.2455
 8972SOL    HW132878   6.227   7.744   0.057 -0.2078  0.6329  1.6470
 8972SOL    HW232879   6.200   7.867  -0.026  0.5123 -0.4923 -0.3269
 8973SOL     OW32880   2.271   9.144   7.973 -0.6820  0.2312 -0.2555
 8973SOL    HW132881   2.319   9.207   8.028  0.3619 -0.6028 -0.1765
 8973SOL    HW232882   2.337   9.110   7.913 -1.0396 -1.3648  0.2091
 8974SOL     OW32883   2.240   0.286   8.707 -0.1487 -0.3269  0.0925
 8974SOL    HW132884   2.170   0.312   8.647 -1.6193 -2.1110  0.9180
 8974SOL    HW232885   2.228   0.191   8.717  0.7795 -0.2637  2.2933
 8975SOL     OW32886   1.643   7.236   6.478  0.5459  0.6709 -0.0324
 8975SOL    HW132887   1.557   7.201   6.501 -0.1530  0.7856 -2.2343
 8975SOL    HW232888   1.704   7.163   6.493 -0.3746 -0.3681 -1.2302
 8976SOL     OW32889   4.313   5.279   7.739 -1.0428  0.0510  0.2306
 8976SOL    HW132890   4.329   5.185   7.745 -1.6346 -0.1442 -0.8935
 8976SOL    HW232891   4.291   5.293   7.647  0.5902  1.5574  0.0342
 8977SOL     OW32892   0.285   2.800   7.513  0.4933  0.2705 -0.0920
 8977SOL    HW132893   0.271   2.717   7.559  0.5708  0.7003  0.7138
 8977SOL    HW232894   0.258   2.781   7.423 -1.1318 -0.1604  0.4485
 8978SOL     OW32895   3.003   1.470   2.004  0.5144 -0.0059  0.4095
 8978SOL    HW132896   2.941   1.400   1.983  1.2942 -0.7786  0.5940
 8978SOL    HW232897   2.991   1.534   1.934  0.5827 -0.8668 -0.4198
 8979SOL     OW32898   2.201   8.255   1.744 -0.8995 -0.1190 -0.0741
 8979SOL    HW132899   2.248   8.258   1.661 -1.9637 -0.5016 -0.7119
 8979SOL    HW232900   2.234   8.330   1.793  1.6348 -1.3244  0.2401
 8980SOL     OW32901   5.045   0.141   6.776 -0.1123  0.1645  0.2276
 8980SOL    HW132902   5.112   0.191   6.822 -0.4338 -0.0009  0.8805
 8980SOL    HW232903   4.980   0.119   6.843  0.1766 -1.4023  0.0310
 8981SOL     OW32904   8.473   4.387   8.036 -0.0668  0.1489  0.1716
 8981SOL    HW132905   8.420   4.329   7.980 -1.7120  3.2724 -1.7809
 8981SOL    HW232906   8.560   4.385   7.995 -0.7080  0.7472 -1.3092
 8982SOL     OW32907   9.220   8.509   3.515  0.3181  0.2104 -0.7031
 8982SOL    HW132908   9.239   8.438   3.455  0.8316  0.4831 -0.8676
 8982SOL    HW232909   9.306   8.540   3.545  0.1201  0.9854 -0.9005
 8983SOL     OW32910   8.738   6.276   0.609 -0.5436  0.0344 -0.5613
 8983SOL    HW132911   8.833   6.284   0.604 -0.4498 -1.2832 -1.3983
 8983SOL    HW232912   8.708   6.359   0.645  1.1249 -0.4506  2.2096
 8984SOL     OW32913   6.950   1.542   8.387 -0.0523  0.1454  0.3118
 8984SOL    HW132914   6.964   1.450   8.410 -0.9912 -0.4584 -1.3812
 8984SOL    HW232915   6.855   1.552   8.390  0.0334  1.0086  0.2517
 8985SOL     OW32916   9.371   8.725   3.307 -0.4265 -0.0456  0.1994
 8985SOL    HW132917   9.425   8.651   3.335 -0.2609 -0.8104 -1.9478
 8985SOL    HW232918   9.286   8.685   3.287 -0.5311  0.4432 -0.3522
 8986SOL     OW32919   9.120   3.330   4.235  0.5255 -0.0793 -0.1968
 8986SOL    HW132920   9.195   3.291   4.279  0.6740 -0.6333 -0.9172
 8986SOL    HW232921   9.059   3.257   4.223 -0.9203  0.6884  1.9421
 8987SOL     OW32922   4.194   8.111   1.012  0.1541  0.0691  0.0928
 8987SOL    HW132923   4.259   8.112   1.082  0.7802  2.2567 -0.4419
 8987SOL    HW232924   4.195   8.021   0.980 -0.6835 -1.2065  3.3151
 8988SOL     OW32925   7.606   7.190   3.725  0.4204 -0.3370  0.2414
 8988SOL    HW132926   7.657   7.118   3.688 -0.4372  0.1503 -2.0510
 8988SOL    HW232927   7.649   7.269   3.694  0.7213  0.1662  1.8478
 8989SOL     OW32928   8.216   8.660   6.049 -0.2268  0.2752 -0.1781
 8989SOL    HW132929   8.230   8.650   6.143  1.1832 -0.7441 -0.4685
 8989SOL    HW232930   8.158   8.587   6.026 -0.9021  0.7620 -0.0446
 8990SOL     OW32931   2.669   7.123   1.508  0.4493  0.3550  0.7026
 8990SOL    HW132932   2.712   7.175   1.440  0.1484 -1.8870 -1.3644
 8990SOL    HW232933   2.731   7.054   1.529 -0.5412 -0.6190  0.5708
 8991SOL     OW32934   1.974   7.340   7.645 -0.0295  0.0468 -0.3291
 8991SOL    HW132935   2.036   7.393   7.594 -0.7427  0.4544 -0.7903
 8991SOL    HW232936   2.028   7.271   7.683  0.8882  0.9377  0.0615
 8992SOL     OW32937   8.119   7.719   4.083 -0.3816  0.1463  0.0015
 8992SOL    HW132938   8.207   7.713   4.046  0.4078 -1.6758  1.9830
 8992SOL    HW232939   8.091   7.809   4.063  2.1397  0.9771 -0.1949
 8993SOL     OW32940   6.716   9.005   5.392  1.0331  0.3411 -0.0955
 8993SOL    HW132941   6.683   9.090   5.362  0.1114 -0.1469 -0.4830
 8993SOL    HW232942   6.638   8.951   5.401  1.5090 -0.1796  1.1043
 8994SOL     OW32943   5.090   5.753   8.215 -0.6778  0.5643 -0.2399
 8994SOL    HW132944   5.057   5.698   8.144 -0.5403 -0.4421  0.4495
 8994SOL    HW232945   5.185   5.751   8.205 -0.6314 -0.0160  0.2801
 8995SOL     OW32946   7.491   7.868   0.021 -0.1564 -0.1269  0.0643
 8995SOL    HW132947   7.420   7.902  -0.033 -0.9114 -0.0088  1.1128
 8995SOL    HW232948   7.472   7.774   0.030  0.5854 -0.3721 -0.7911
 8996SOL     OW32949   4.567   3.610   3.964 -0.2746  0.2787  0.1388
 8996SOL    HW132950   4.612   3.534   3.927  2.4462  0.9093  1.8598
 8996SOL    HW232951   4.610   3.685   3.923 -1.7931  0.9598 -0.2838
 8997SOL     OW32952   1.832   4.762   3.931 -0.2189  0.1337 -0.2280
 8997SOL    HW132953   1.741   4.769   3.901 -0.3719  0.2878  0.2597
 8997SOL    HW232954   1.825   4.734   4.022  0.2233  0.1407 -0.1898
 8998SOL     OW32955   4.973   2.529   8.506  0.4274 -0.2127 -0.4314
 8998SOL    HW132956   4.893   2.501   8.461 -0.0962  0.1589  0.2659
 8998SOL    HW232957   5.013   2.448   8.536 -0.5347 -0.3173  0.6420
 8999SOL     OW32958   3.532   8.383   3.000  0.0569 -0.2253 -0.1331
 8999SOL    HW132959   3.563   8.293   3.014 -0.3530 -0.4844 -0.8273
 8999SOL    HW232960   3.450   8.388   3.048  0.0206 -0.2582 -0.1917
 9000SOL     OW32961   6.100   4.328   8.444  0.0336 -0.3357 -0.1032
 9000SOL    HW132962   6.126   4.416   8.417  0.7525 -0.0988  1.2892
 9000SOL    HW232963   6.005   4.328   8.435 -0.2671  1.4427  2.2402
 9001SOL     OW32964   3.669   8.329   6.329  0.5686  0.2899 -0.0685
 9001SOL    HW132965   3.657   8.390   6.402  0.7061  0.4263 -0.1585
 9001SOL    HW232966   3.757   8.348   6.297 -0.2078  1.6074 -1.5326
 9002SOL     OW32967   6.632   2.064   2.986 -0.0648 -0.4211  0.2623
 9002SOL    HW132968   6.648   1.970   2.998 -0.5019 -0.4067  1.0098
 9002SOL    HW232969   6.608   2.096   3.073  1.5660  0.7083  0.3426
 9003SOL     OW32970   8.024   8.307   4.538 -0.1063  0.2913  0.3504
 9003SOL    HW132971   7.948   8.360   4.516 -0.1301  0.0394 -0.1741
 9003SOL    HW232972   8.021   8.234   4.476 -0.7206 -0.9508  1.7791
 9004SOL     OW32973   9.338   5.321   3.157 -0.0116  0.0425 -0.0909
 9004SOL    HW132974   9.393   5.396   3.177  0.1379 -0.1672  0.2977
 9004SOL    HW232975   9.390   5.245   3.184  0.6564 -0.3352 -2.2960
 9005SOL     OW32976   7.888   8.757   0.536  0.0592  0.3847  0.1896
 9005SOL    HW132977   7.911   8.667   0.514  2.5205  1.2830 -1.2640
 9005SOL    HW232978   7.961   8.789   0.588  0.2362  2.1025 -1.0003
 9006SOL     OW32979   9.181   3.257   6.183 -0.5183  0.4839  0.5129
 9006SOL    HW132980   9.260   3.282   6.135 -0.4528 -0.5121  0.0655
 9006SOL    HW232981   9.212   3.202   6.255 -0.8435 -0.7674 -0.2561
 9007SOL     OW32982   4.485   6.496   3.387  0.5567  0.0983  0.1916
 9007SOL    HW132983   4.556   6.451   3.342  0.1845 -0.2624 -0.0485
 9007SOL    HW232984   4.423   6.519   3.317  0.3184  0.1758  0.4271
 9008SOL     OW32985   8.532   6.349   5.010 -0.0641 -0.5552  0.0470
 9008SOL    HW132986   8.581   6.360   5.092 -1.6569  1.0311  0.8571
 9008SOL    HW232987   8.552   6.427   4.960 -0.7450 -0.5082 -0.1598
 9009SOL     OW32988   9.028   6.239   0.523 -0.3402  0.2073  0.0424
 9009SOL    HW132989   9.023   6.217   0.430  0.8346  0.8362 -0.1984
 9009SOL    HW232990   9.040   6.155   0.567  0.1580 -0.0095 -0.4882
 9010SOL     OW32991   9.115   3.285   8.620 -0.2518 -0.3708  0.2169
 9010SOL    HW132992   9.039   3.294   8.677 -0.5908 -1.2551 -0.0768
 9010SOL    HW232993   9.118   3.367   8.570 -0.4399  0.0639  0.9138
 9011SOL     OW32994   5.126   0.237   4.908  0.4128 -0.1486 -0.4058
 9011SOL    HW132995   5.132   0.321   4.954 -1.8886 -0.1492 -0.0020
 9011SOL    HW232996   5.080   0.180   4.969  0.3236 -1.1638 -1.3940
 9012SOL     OW32997   3.850   8.710   3.909  0.3900  0.6889 -0.3067
 9012SOL    HW132998   3.845   8.763   3.989  0.2067  0.0679  0.1120
 9012SOL    HW232999   3.913   8.755   3.853  0.7058  1.0091  0.2940
 9013SOL     OW33000   0.025   7.418   5.837  0.7795  0.0465  0.5422
 9013SOL    HW133001  -0.027   7.455   5.908  0.2176  0.4301 -0.0586
 9013SOL    HW233002   0.101   7.380   5.880  0.9575  1.1818  1.2528
 9014SOL     OW33003   7.199   8.347   5.346  0.6179 -0.1054  0.2354
 9014SOL    HW133004   7.178   8.258   5.374  0.3969 -0.1289  0.0071
 9014SOL    HW233005   7.256   8.336   5.270 -1.7230 -0.1477 -1.6698
 9015SOL     OW33006   8.702   5.738   8.606  0.2825 -0.0335 -0.0559
 9015SOL    HW133007   8.661   5.653   8.589  0.8961 -0.5611  0.9992
 9015SOL    HW233008   8.712   5.778   8.519  1.6334 -1.8141 -0.7664
 9016SOL     OW33009   6.434   8.597   3.421  0.4173 -0.1274  0.4668
 9016SOL    HW133010   6.410   8.687   3.441 -0.4436  0.0171 -1.0429
 9016SOL    HW233011   6.356   8.560   3.379  0.2834 -1.9976  2.1772
 9017SOL     OW33012   7.225   8.425   8.807 -0.5487  0.2712  0.2843
 9017SOL    HW133013   7.214   8.387   8.894 -0.2866 -0.1236  0.1488
 9017SOL    HW233014   7.274   8.359   8.758 -0.4624  0.6030 -0.0840
 9018SOL     OW33015   0.001   3.623   7.837 -0.9326  0.3070 -0.4772
 9018SOL    HW133016   0.023   3.569   7.760 -1.1906  0.6536 -0.7975
 9018SOL    HW233017  -0.048   3.697   7.801 -2.1478 -0.1629  0.1656
 9019SOL     OW33018   8.456   9.352   9.216 -0.2611  0.0966  0.1625
 9019SOL    HW133019   8.497   9.288   9.157 -1.1694  0.4546 -0.8955
 9019SOL    HW233020   8.453   9.307   9.301 -1.9313 -1.7922 -0.7987
 9020SOL     OW33021   5.397   4.778   8.544 -0.3123 -0.1070 -0.1309
 9020SOL    HW133022   5.451   4.763   8.466 -1.3900  1.9829 -1.3660
 9020SOL    HW233023   5.363   4.867   8.533  0.0986  0.5786  3.1341
 9021SOL     OW33024   4.852   3.676   1.504 -0.1294 -0.0961  0.1521
 9021SOL    HW133025   4.811   3.742   1.561 -0.4961 -0.9275  0.8788
 9021SOL    HW233026   4.925   3.722   1.463 -0.6951  0.9111  0.2374
 9022SOL     OW33027   2.601   1.686   8.976 -0.0742  0.0270  0.1329
 9022SOL    HW133028   2.671   1.680   8.911 -0.3481 -0.1463 -0.1507
 9022SOL    HW233029   2.628   1.625   9.045 -0.1540 -0.3690 -0.1784
 9023SOL     OW33030   7.168   4.276   2.591  0.4630  0.0186  0.5938
 9023SOL    HW133031   7.079   4.256   2.564  1.1283 -0.0960 -1.7443
 9023SOL    HW233032   7.219   4.199   2.565  1.6103  1.0545 -0.3617
 9024SOL     OW33033   2.211   5.863   2.782  0.9051 -0.5343  0.0503
 9024SOL    HW133034   2.282   5.817   2.737  0.5186 -0.5461 -0.5511
 9024SOL    HW233035   2.229   5.849   2.875  2.1891  0.2173 -0.0630
 9025SOL     OW33036   5.413   0.111   3.426 -0.6636  0.1635  0.2967
 9025SOL    HW133037   5.407   0.035   3.369 -0.7434  0.1389  0.3384
 9025SOL    HW233038   5.324   0.148   3.427 -0.7409 -0.0297  0.6754
 9026SOL     OW33039   7.970   3.819   6.387  0.2317 -0.9640  0.4154
 9026SOL    HW133040   7.922   3.890   6.429  0.4313  0.0225 -0.9788
 9026SOL    HW233041   8.054   3.858   6.361 -0.6876 -0.8779 -2.8000
 9027SOL     OW33042   6.979   0.265   6.433 -0.6544  0.2440  0.3061
 9027SOL    HW133043   6.965   0.224   6.519 -0.3229  0.6288  0.5499
 9027SOL    HW233044   7.064   0.307   6.440 -0.9737  0.9541  0.0619
 9028SOL     OW33045   1.189   3.427   6.153  0.1896 -0.4280  0.6801
 9028SOL    HW133046   1.109   3.433   6.205  0.2532  0.5795  0.6895
 9028SOL    HW233047   1.192   3.336   6.124 -0.4867 -0.7057  1.4232
 9029SOL     OW33048   4.490   6.315   5.162 -0.0187  0.1289  0.4056
 9029SOL    HW133049   4.439   6.237   5.186 -0.3375  0.6829  1.5834
 9029SOL    HW233050   4.581   6.287   5.170 -0.1301 -0.2521  0.3716
 9030SOL     OW33051   6.937   2.096   5.067 -0.5410  0.2560  0.0890
 9030SOL    HW133052   6.931   2.009   5.028 -0.9305  0.6982 -0.8625
 9030SOL    HW233053   6.999   2.085   5.139  1.3633 -0.2751 -1.5446
 9031SOL     OW33054   3.452   5.149   6.896  0.3561 -0.5581  0.2400
 9031SOL    HW133055   3.506   5.201   6.837 -0.6748  2.0547  1.4364
 9031SOL    HW233056   3.369   5.139   6.849  0.3789 -0.6383  0.2177
 9032SOL     OW33057   0.743   3.169   0.687  0.1694  0.1777 -0.0724
 9032SOL    HW133058   0.663   3.203   0.648 -0.1898 -0.1248  0.3874
 9032SOL    HW233059   0.794   3.246   0.712 -0.2062  0.3738  0.0881
 9033SOL     OW33060   0.737   1.665   7.792 -1.2132  0.2585  0.2448
 9033SOL    HW133061   0.671   1.729   7.765 -2.0617 -0.8641 -0.4147
 9033SOL    HW233062   0.775   1.634   7.710 -2.1086 -1.4003  0.4163
 9034SOL     OW33063   0.351   5.416   0.916 -0.5372  0.4839 -0.5005
 9034SOL    HW133064   0.383   5.479   0.981 -1.2002  0.4828 -0.1601
 9034SOL    HW233065   0.332   5.468   0.838  1.8697  0.2595 -1.3212
 9035SOL     OW33066   1.649   8.225   2.767 -0.2240 -0.1728  0.4129
 9035SOL    HW133067   1.690   8.223   2.854  1.8312  0.9000 -0.4635
 9035SOL    HW233068   1.613   8.313   2.759  1.4490  0.4661 -0.5678
 9036SOL     OW33069   8.986   2.795   7.809 -0.6478  0.2491 -0.5457
 9036SOL    HW133070   8.913   2.853   7.833 -0.3627  0.2377  0.4163
 9036SOL    HW233071   8.955   2.708   7.833  0.2125  0.4050  1.2498
 9037SOL     OW33072   6.426   4.467   8.724  0.4419  0.2162 -0.7243
 9037SOL    HW133073   6.333   4.444   8.726  0.9772 -2.7687 -2.9547
 9037SOL    HW233074   6.463   4.425   8.802  0.0704  0.8636 -0.1848
 9038SOL     OW33075   1.165   6.728   7.352  0.2169 -0.2474 -0.7102
 9038SOL    HW133076   1.153   6.702   7.444 -0.8584  0.1396 -0.7243
 9038SOL    HW233077   1.096   6.682   7.305  1.8351 -1.8507 -1.6368
 9039SOL     OW33078   0.358   2.767   0.852 -0.0217  0.1063 -0.7677
 9039SOL    HW133079   0.355   2.757   0.947  3.0737  0.7025 -0.5288
 9039SOL    HW233080   0.391   2.856   0.838  0.8979 -0.4496 -2.3664
 9040SOL     OW33081   5.333   0.412   7.574  0.6614  0.4632 -0.3989
 9040SOL    HW133082   5.289   0.335   7.610  3.3829 -0.5474  1.0028
 9040SOL    HW233083   5.419   0.380   7.546  1.1400  2.6343 -1.6366
 9041SOL     OW33084   4.687   3.454   1.490  0.5120 -0.3285  0.2496
 9041SOL    HW133085   4.764   3.510   1.503  0.2052 -0.0949  1.0957
 9041SOL    HW233086   4.679   3.404   1.571  0.2798 -0.9933 -0.1702
 9042SOL     OW33087   8.504   4.814   4.348 -0.1657  0.3827 -0.6924
 9042SOL    HW133088   8.505   4.722   4.323  0.9074  0.1842  0.0296
 9042SOL    HW233089   8.585   4.827   4.397 -0.6434  1.5411 -0.1592
 9043SOL     OW33090   9.091   5.742   6.991 -0.6631 -0.3580 -0.0725
 9043SOL    HW133091   9.174   5.705   6.960  0.5230  0.1899  2.2258
 9043SOL    HW233092   9.091   5.724   7.085 -2.6114  0.7452  0.1862
 9044SOL     OW33093   7.509   9.191   2.465  0.5936 -0.1388  0.1505
 9044SOL    HW133094   7.437   9.129   2.474 -0.8682  1.5941  0.8967
 9044SOL    HW233095   7.572   9.165   2.533 -0.2093 -0.5498  0.7501
 9045SOL     OW33096   1.554   5.386   0.219 -1.0060  0.3004  0.3549
 9045SOL    HW133097   1.592   5.467   0.254 -1.5797  0.8385 -0.2467
 9045SOL    HW233098   1.615   5.359   0.150 -0.6343  0.0223  0.7833
 9046SOL     OW33099   5.015   7.823   5.422 -0.1138  0.6047  0.1311
 9046SOL    HW133100   5.015   7.804   5.516  0.7952  2.2919  0.5097
 9046SOL    HW233101   5.034   7.739   5.381  1.6031  0.2150  1.5759
 9047SOL     OW33102   7.691   9.028   1.087  0.4936  0.0647  0.7392
 9047SOL    HW133103   7.715   9.042   0.996 -1.7038 -0.2411  0.0352
 9047SOL    HW233104   7.731   8.944   1.110 -0.0114 -0.5213 -0.4105
 9048SOL     OW33105   6.901   4.886   3.926 -0.6481 -0.0488  0.1445
 9048SOL    HW133106   6.849   4.874   4.006  0.7049 -0.9325  0.9223
 9048SOL    HW233107   6.986   4.918   3.957  1.2836 -4.0264 -0.4734
 9049SOL     OW33108   8.360   4.903   8.362 -0.3126 -0.2897 -0.8083
 9049SOL    HW133109   8.407   4.948   8.433 -3.1721 -1.4846  2.1116
 9049SOL    HW233110   8.406   4.820   8.351 -1.4378 -1.4231  1.9549
 9050SOL     OW33111   8.468   6.957   8.204 -0.0508 -0.4065  0.0266
 9050SOL    HW133112   8.475   7.044   8.166  0.8414 -0.1811  0.6638
 9050SOL    HW233113   8.375   6.945   8.222 -0.1774  0.3982 -0.0815
 9051SOL     OW33114   2.502   8.524   2.063  0.1713 -0.1390 -0.2119
 9051SOL    HW133115   2.476   8.616   2.052 -0.5688 -0.4869 -1.5738
 9051SOL    HW233116   2.434   8.486   2.119 -1.3011 -0.5842 -2.2144
 9052SOL     OW33117   4.601   4.425   8.533 -0.3320 -0.0628 -0.0023
 9052SOL    HW133118   4.650   4.506   8.516  1.2431 -1.2022 -1.2000
 9052SOL    HW233119   4.540   4.448   8.603  0.8419  1.8688  0.4597
 9053SOL     OW33120   8.987   4.654   1.605 -1.0758  0.4670 -0.7926
 9053SOL    HW133121   8.923   4.685   1.669 -0.7313  0.7868 -0.5977
 9053SOL    HW233122   9.070   4.652   1.653 -0.9454  0.0107 -1.0301
 9054SOL     OW33123   0.587   6.106   1.758  0.1140 -0.1019  0.0952
 9054SOL    HW133124   0.624   6.188   1.725  0.6638 -0.0218  0.8942
 9054SOL    HW233125   0.495   6.126   1.774  0.6849  1.0017  2.3076
 9055SOL     OW33126   6.000   9.207   2.064  0.2492  0.5773  0.1146
 9055SOL    HW133127   5.909   9.201   2.093  0.4596 -0.3317  0.6417
 9055SOL    HW233128   6.034   9.285   2.106 -0.4656  1.2933 -0.6100
 9056SOL     OW33129   3.735   5.034   8.259  0.4652 -0.2583 -0.1234
 9056SOL    HW133130   3.826   5.013   8.279  0.1162 -2.1797 -0.3924
 9056SOL    HW233131   3.722   5.122   8.295  2.3675 -0.0141  0.0452
 9057SOL     OW33132   1.266   0.111   1.840 -0.1578 -0.5430  0.1455
 9057SOL    HW133133   1.289   0.018   1.831  0.8039 -0.1652 -1.5502
 9057SOL    HW233134   1.203   0.127   1.770  0.1278  0.2311  0.0616
 9058SOL     OW33135   3.059   7.753   1.341  0.3854 -0.2918  0.3728
 9058SOL    HW133136   3.019   7.667   1.357 -0.8708  0.3071  0.5427
 9058SOL    HW233137   3.117   7.767   1.416 -0.0833 -0.5942  0.7910
 9059SOL     OW33138   0.436   9.078   5.944  0.6953 -0.5517  0.3741
 9059SOL    HW133139   0.452   9.032   5.861 -0.6575 -0.5556  0.0849
 9059SOL    HW233140   0.391   9.014   5.998 -3.2148  0.8970 -0.7984
 9060SOL     OW33141   7.184   0.614   8.784  0.0291  0.0202 -0.7257
 9060SOL    HW133142   7.153   0.612   8.693 -1.6119 -1.2193 -0.1999
 9060SOL    HW233143   7.263   0.561   8.783  0.1275  0.1702 -1.4718
 9061SOL     OW33144   5.851   4.858   8.818  0.6641 -0.6271  0.1854
 9061SOL    HW133145   5.910   4.934   8.818  0.0004 -0.0739  1.7429
 9061SOL    HW233146   5.910   4.782   8.817  1.3411 -0.1144 -0.7906
 9062SOL     OW33147   8.888   5.347   8.659 -0.4012  0.1972 -0.6191
 9062SOL    HW133148   8.980   5.322   8.672  0.0568  1.6415 -0.8987
 9062SOL    HW233149   8.846   5.267   8.628  0.6838 -0.5870 -0.1349
 9063SOL     OW33150   3.994   0.590   2.115  0.4807 -0.3281  0.0180
 9063SOL    HW133151   3.906   0.568   2.084 -0.4499  1.0913  1.4778
 9063SOL    HW233152   4.041   0.619   2.037 -0.3354 -1.1499 -0.7866
 9064SOL     OW33153   4.940   6.978   3.407  0.1850 -0.1383 -0.0121
 9064SOL    HW133154   5.019   6.973   3.352  1.0492  0.4314  1.1261
 9064SOL    HW233155   4.960   6.923   3.482  0.1859  1.3304  1.0934
 9065SOL     OW33156   3.319   6.867   3.439 -0.2672  0.9808 -0.3337
 9065SOL    HW133157   3.349   6.787   3.481  1.1138  1.3632 -0.5325
 9065SOL    HW233158   3.274   6.838   3.359  0.0754  0.3966 -0.3141
 9066SOL     OW33159   0.906   3.332   5.068  0.5080  0.0597  0.2524
 9066SOL    HW133160   0.895   3.377   4.984 -0.3645  0.8692  0.7773
 9066SOL    HW233161   0.818   3.300   5.089  0.7654 -0.3078  0.7623
 9067SOL     OW33162   7.135   7.337   1.698 -0.0547  0.1586 -0.4063
 9067SOL    HW133163   7.091   7.260   1.735  1.4776  0.1540  1.5390
 9067SOL    HW233164   7.200   7.301   1.639  0.4706 -0.0426  0.2867
 9068SOL     OW33165   2.694   2.756   6.702  0.7731  0.2516  0.0484
 9068SOL    HW133166   2.783   2.771   6.671  1.0217  0.4102  0.8033
 9068SOL    HW233167   2.658   2.690   6.643  2.2490 -1.6881  1.1951
 9069SOL     OW33168   2.277   4.905   4.537 -0.2717 -0.6621 -0.2503
 9069SOL    HW133169   2.238   4.825   4.500 -0.7378 -0.0553 -1.0901
 9069SOL    HW233170   2.302   4.880   4.626 -1.6458 -1.3711 -0.0425
 9070SOL     OW33171   3.817   6.653   8.896 -0.5077 -0.8153 -0.0370
 9070SOL    HW133172   3.782   6.585   8.953  0.5206  0.4019  2.1879
 9070SOL    HW233173   3.747   6.719   8.893 -0.3626 -0.6445  0.2711
 9071SOL     OW33174   0.952   3.672   8.293 -0.0936  0.3017  0.0450
 9071SOL    HW133175   0.938   3.738   8.224  0.3649 -0.3273 -0.6705
 9071SOL    HW233176   0.951   3.722   8.374 -1.0153  1.0178 -0.3825
 9072SOL     OW33177   6.052   3.036   7.619  0.1167 -0.2010  0.1481
 9072SOL    HW133178   6.012   3.046   7.533  0.0563  0.5075  0.2568
 9072SOL    HW233179   6.000   3.092   7.677 -0.0625 -0.9449  0.7191
 9073SOL     OW33180   1.893   0.606   4.585 -0.3378 -0.1105 -0.1238
 9073SOL    HW133181   1.891   0.535   4.649  1.1450  0.1231  0.2295
 9073SOL    HW233182   1.973   0.589   4.534 -0.9889  0.2418 -1.2945
 9074SOL     OW33183   1.172   0.801   2.124 -0.8986 -0.3384  0.3482
 9074SOL    HW133184   1.191   0.739   2.054  1.7006 -0.0270  0.6639
 9074SOL    HW233185   1.184   0.887   2.084  0.5581 -0.1536  1.1128
 9075SOL     OW33186   7.552   6.725   6.516  0.3338  0.2103  0.4552
 9075SOL    HW133187   7.626   6.754   6.569 -0.5237  2.0133  0.7458
 9075SOL    HW233188   7.570   6.761   6.429  0.4883 -0.5750  0.1568
 9076SOL     OW33189   4.196   6.403   5.361  0.7547 -0.0793 -0.0692
 9076SOL    HW133190   4.115   6.354   5.375  1.7702 -1.6471  0.6653
 9076SOL    HW233191   4.246   6.350   5.298  1.6775  0.2717  0.3469
 9077SOL     OW33192   0.635   6.251   6.786  0.1681  0.0603  0.4212
 9077SOL    HW133193   0.723   6.247   6.748  0.2349  1.4387  0.4042
 9077SOL    HW233194   0.635   6.331   6.839 -1.4287  0.7185 -0.5080
 9078SOL     OW33195   1.004   3.989   1.877  0.4413  0.1690  0.1459
 9078SOL    HW133196   1.045   3.944   1.803  1.1186 -0.7339  1.0437
 9078SOL    HW233197   1.076   4.003   1.939 -0.2916  0.0428  1.0447
 9079SOL     OW33198   0.509   4.038   1.303  0.1293 -0.1707  0.0354
 9079SOL    HW133199   0.439   4.102   1.287  0.3896  0.5786  1.6933
 9079SOL    HW233200   0.551   4.028   1.218 -2.1618 -0.8873 -1.1057
 9080SOL     OW33201   4.701   3.806   3.846 -0.0063  0.3011 -0.7641
 9080SOL    HW133202   4.767   3.774   3.908 -0.9940  0.9033  0.6546
 9080SOL    HW233203   4.736   3.784   3.760  2.4620  1.3576 -0.1098
 9081SOL     OW33204   8.230   3.823   8.445  0.3789  0.2510 -0.0636
 9081SOL    HW133205   8.284   3.841   8.522 -0.8908 -1.4005  1.2997
 9081SOL    HW233206   8.266   3.742   8.408 -1.6884 -1.4844  1.4954
 9082SOL     OW33207   4.136   4.264   8.698 -0.0681  0.2240  0.0179
 9082SOL    HW133208   4.199   4.244   8.628  1.2848  0.4890  1.1085
 9082SOL    HW233209   4.166   4.211   8.772 -1.0368  0.5002  0.6159
 9083SOL     OW33210   7.168   0.416   2.823  0.1431  0.7866  0.7442
 9083SOL    HW133211   7.188   0.404   2.916  0.0386  0.5384  0.7360
 9083SOL    HW233212   7.072   0.417   2.819  0.1453  0.4744  0.5996
 9084SOL     OW33213   6.098   4.318   1.122  0.3750  0.0794  0.4111
 9084SOL    HW133214   6.104   4.406   1.158 -0.4435  0.1934  0.3018
 9084SOL    HW233215   6.109   4.329   1.028 -1.1520  0.2716  0.2266
 9085SOL     OW33216   3.496   7.834   3.191  0.0537  0.2658 -0.1196
 9085SOL    HW133217   3.451   7.866   3.269 -0.6051 -0.0779 -0.3599
 9085SOL    HW233218   3.560   7.771   3.225 -2.3577 -2.3153 -0.0699
 9086SOL     OW33219   0.856   7.329   4.691 -0.5431  0.6461  0.2166
 9086SOL    HW133220   0.794   7.307   4.760  0.1213  0.8439  0.8905
 9086SOL    HW233221   0.942   7.318   4.732 -0.0799 -0.9721 -1.0982
 9087SOL     OW33222   4.386   7.042   2.001  0.3288 -0.1181 -0.3232
 9087SOL    HW133223   4.391   6.972   2.067  0.4455  1.5808  1.5817
 9087SOL    HW233224   4.345   7.001   1.925 -1.3607 -1.8108  1.3911
 9088SOL     OW33225   9.069   5.521   2.613  0.4707 -0.8341  0.1764
 9088SOL    HW133226   9.136   5.499   2.548  0.9185 -4.2576  1.6016
 9088SOL    HW233227   8.986   5.496   2.571  0.4789 -0.3404 -0.1322
 9089SOL     OW33228   9.155   4.482   5.637 -0.2327 -0.5040  0.2939
 9089SOL    HW133229   9.087   4.540   5.672 -0.0451  0.0999 -0.3148
 9089SOL    HW233230   9.234   4.536   5.635  0.0167 -0.8764 -0.0042
 9090SOL     OW33231   0.466   7.879   4.198  0.5068 -0.2355  0.4802
 9090SOL    HW133232   0.379   7.883   4.238 -0.3849 -0.4745 -1.3179
 9090SOL    HW233233   0.497   7.791   4.219  0.6651  0.1115  1.7791
 9091SOL     OW33234   7.498   2.393   7.682  0.1632 -0.2586 -0.4925
 9091SOL    HW133235   7.531   2.303   7.673 -0.5049 -0.6506  0.6882
 9091SOL    HW233236   7.404   2.386   7.664 -0.3109 -0.2327  1.6045
 9092SOL     OW33237   2.803   5.897   5.152 -0.0067 -0.1865  0.6239
 9092SOL    HW133238   2.804   5.931   5.242 -1.3241 -0.6247  0.8334
 9092SOL    HW233239   2.714   5.862   5.141  0.3137 -0.6499 -0.6649
 9093SOL     OW33240   1.741   7.357   5.426 -0.2659  0.1639  0.1059
 9093SOL    HW133241   1.685   7.344   5.502 -1.3063  3.1412  0.0002
 9093SOL    HW233242   1.813   7.412   5.459  0.7760 -0.7998 -0.4991
 9094SOL     OW33243   2.830   4.233   3.918 -0.2031  0.1866  0.6532
 9094SOL    HW133244   2.858   4.279   3.840  0.9747 -2.3353 -0.5408
 9094SOL    HW233245   2.737   4.254   3.927 -0.5448 -0.0174 -1.8760
 9095SOL     OW33246   6.140   6.061   2.721  0.2852  0.7038 -0.0198
 9095SOL    HW133247   6.114   6.147   2.754  1.0401  0.1257  2.2715
 9095SOL    HW233248   6.161   6.075   2.629 -0.0340  2.8600  0.1964
 9096SOL     OW33249   9.186   1.421   3.797 -0.1404  0.0649 -0.5592
 9096SOL    HW133250   9.162   1.329   3.791  0.6086 -0.2058  0.3551
 9096SOL    HW233251   9.190   1.450   3.706 -0.8731 -0.6629 -0.8389
 9097SOL     OW33252   3.975   4.942   4.407  0.1798 -0.8149 -0.4126
 9097SOL    HW133253   3.901   4.989   4.367  0.2971 -1.3299 -1.2596
 9097SOL    HW233254   3.951   4.935   4.500 -0.4998 -0.3435 -0.5400
 9098SOL     OW33255   9.021   0.450   6.255  0.3197  0.0461 -0.0164
 9098SOL    HW133256   9.073   0.443   6.175  0.7548  3.0303 -0.0905
 9098SOL    HW233257   8.943   0.499   6.230  0.3135  0.7645  1.2970
 9099SOL     OW33258   9.053   9.036   8.027  0.0888 -0.7887 -0.5192
 9099SOL    HW133259   9.007   8.955   8.005 -1.9576  0.3890 -0.8792
 9099SOL    HW233260   9.031   9.096   7.956  1.0469  0.2755  0.0542
 9100SOL     OW33261   9.261   6.430   1.799 -0.3044 -0.1857 -0.3642
 9100SOL    HW133262   9.267   6.481   1.880  0.7757 -0.1420 -0.4610
 9100SOL    HW233263   9.192   6.474   1.749  0.5553  1.1635 -0.4155
 9101SOL     OW33264   0.503   1.811   0.693  0.4388  0.4818 -0.0110
 9101SOL    HW133265   0.502   1.735   0.752 -2.0305 -1.1237 -1.8755
 9101SOL    HW233266   0.431   1.866   0.724 -0.6411 -0.1979 -1.1822
 9102SOL     OW33267   3.739   4.088   5.682  0.0132 -0.0133  0.0002
 9102SOL    HW133268   3.704   4.172   5.655  0.9547  0.0712 -1.0161
 9102SOL    HW233269   3.705   4.075   5.771 -0.1368  1.4342  0.1708
 9103SOL     OW33270   4.495   2.692   0.325  0.3484 -0.0226  0.3866
 9103SOL    HW133271   4.552   2.634   0.275 -1.3654 -1.1834 -0.3073
 9103SOL    HW233272   4.409   2.682   0.285 -0.2533  2.1227  1.0196
 9104SOL     OW33273   1.527   6.057   7.594  0.4080 -0.1008 -0.2301
 9104SOL    HW133274   1.562   6.128   7.540  1.9834  1.2703  2.3709
 9104SOL    HW233275   1.601   6.031   7.649 -0.8111 -2.1503  0.5439
 9105SOL     OW33276   9.035   5.260   3.375 -0.0995 -0.0851  0.1677
 9105SOL    HW133277   9.112   5.249   3.430 -0.6878 -0.3601  0.9594
 9105SOL    HW233278   8.975   5.314   3.428 -0.0700  0.9646 -0.8220
 9106SOL     OW33279   0.452   0.611   9.100 -0.2335 -0.0714 -0.2134
 9106SOL    HW133280   0.384   0.612   9.033 -1.1977  0.3323  0.7493
 9106SOL    HW233281   0.499   0.529   9.085 -1.7571 -0.9992 -0.0863
 9107SOL     OW33282   6.990   4.162   4.686  0.0255  0.0389 -0.4660
 9107SOL    HW133283   6.902   4.200   4.692  1.1214  3.1131 -1.5332
 9107SOL    HW233284   7.040   4.210   4.753  1.0051 -1.3972 -0.1330
 9108SOL     OW33285   5.137   5.674   7.558  0.6633  0.7372  0.2818
 9108SOL    HW133286   5.047   5.688   7.589 -0.2065  0.3165 -1.8558
 9108SOL    HW233287   5.126   5.635   7.471  2.9350 -0.0746  0.2960
 9109SOL     OW33288   6.571   0.226   8.134 -0.0822  0.9030 -0.1754
 9109SOL    HW133289   6.643   0.229   8.197  0.6354 -1.5521 -0.7434
 9109SOL    HW233290   6.614   0.231   8.049 -0.3291 -2.0075 -0.5691
 9110SOL     OW33291   3.828   8.289   8.888  0.7949 -0.0839  0.1765
 9110SOL    HW133292   3.810   8.321   8.800  0.8210 -2.7428 -0.9000
 9110SOL    HW233293   3.791   8.356   8.946 -0.7570  0.9435 -1.8531
 9111SOL     OW33294   4.201   5.258   6.758  0.0394 -0.0158 -0.2539
 9111SOL    HW133295   4.140   5.228   6.826  1.6398 -0.1492  1.1931
 9111SOL    HW233296   4.188   5.197   6.686 -0.8636 -0.6248  0.3929
 9112SOL     OW33297   5.652   6.146   2.899 -0.3590 -0.1663 -0.4175
 9112SOL    HW133298   5.629   6.234   2.870  0.4571  0.2207  0.0501
 9112SOL    HW233299   5.653   6.152   2.995  3.0111  0.3035 -0.3323
 9113SOL     OW33300   2.512   5.729   1.693 -0.5245 -0.0748 -0.0046
 9113SOL    HW133301   2.423   5.708   1.665 -0.2636  0.5216 -1.3724
 9113SOL    HW233302   2.552   5.771   1.616 -0.0295  2.4998  1.5219
 9114SOL     OW33303   4.578   4.018   9.184  0.3602  0.4259 -0.4606
 9114SOL    HW133304   4.659   3.971   9.203 -0.1691  0.0363  0.8878
 9114SOL    HW233305   4.528   3.960   9.127  1.3225  0.9831 -1.9339
 9115SOL     OW33306   6.163   6.272   3.447  0.1955  0.0249 -0.6180
 9115SOL    HW133307   6.072   6.271   3.416  0.1008  1.7726 -0.5113
 9115SOL    HW233308   6.167   6.201   3.511 -1.0719 -0.1585 -0.7079
 9116SOL     OW33309   1.000   2.782   0.323 -0.3721  0.2021 -0.2745
 9116SOL    HW133310   0.911   2.783   0.288 -0.5459  2.3447  0.1098
 9116SOL    HW233311   0.991   2.820   0.411  0.8826  0.2127 -0.1422
 9117SOL     OW33312   2.904   5.343   8.540 -0.0731  0.5651  0.0653
 9117SOL    HW133313   2.995   5.350   8.512 -0.2054 -0.1753 -0.5715
 9117SOL    HW233314   2.853   5.359   8.461 -0.4765 -0.2031  0.1562
 9118SOL     OW33315   1.110   6.736   6.992  0.7207 -0.3994  0.2403
 9118SOL    HW133316   1.199   6.725   6.960  0.3810 -1.4863 -0.3891
 9118SOL    HW233317   1.095   6.830   6.990  1.0650 -0.3446 -1.8994
 9119SOL     OW33318   8.982   9.032   4.997 -0.2975  0.6532  0.6415
 9119SOL    HW133319   8.993   8.937   4.985  1.8575  1.1957 -3.2470
 9119SOL    HW233320   9.029   9.051   5.078  1.4027 -1.3255  0.2136
 9120SOL     OW33321   3.042   2.238   4.397 -0.4515 -0.1385 -0.0467
 9120SOL    HW133322   3.118   2.228   4.454 -1.0745 -1.3514  0.6056
 9120SOL    HW233323   3.003   2.151   4.394 -1.5791  0.3732 -0.7112
 9121SOL     OW33324   3.998   5.825   7.749 -0.1632  0.0764 -0.1933
 9121SOL    HW133325   3.995   5.739   7.792  0.3464 -0.9553 -2.1014
 9121SOL    HW233326   4.028   5.806   7.660  0.6260  2.3230 -0.4722
 9122SOL     OW33327   1.529   7.069   9.147  0.2577  0.1589 -0.2147
 9122SOL    HW133328   1.567   7.044   9.063  0.2991  0.1603 -0.1964
 9122SOL    HW233329   1.484   7.152   9.129  0.2171  0.1297 -0.2489
 9123SOL     OW33330   2.287   6.123   0.142  0.6507 -0.3289 -0.2832
 9123SOL    HW133331   2.199   6.150   0.168  0.4812 -1.9354  0.9724
 9123SOL    HW233332   2.332   6.204   0.121 -0.7848  0.6177  0.1676
 9124SOL     OW33333   5.225   5.250   1.491  0.0298 -0.4574 -0.4496
 9124SOL    HW133334   5.311   5.272   1.527 -1.1601 -0.2637  2.5777
 9124SOL    HW233335   5.216   5.156   1.507 -0.5335 -0.3591 -0.1743
 9125SOL     OW33336   2.172   8.931   6.500  0.5243 -0.0088 -0.0241
 9125SOL    HW133337   2.142   9.017   6.530 -0.7304  0.6395 -2.8714
 9125SOL    HW233338   2.261   8.946   6.469  1.2344 -0.3470  1.7068
 9126SOL     OW33339   5.458   8.978   9.053 -0.1733  0.1078 -0.1772
 9126SOL    HW133340   5.369   8.989   9.020 -0.4067 -1.3486 -0.1004
 9126SOL    HW233341   5.464   8.885   9.075  1.2654  0.2506  0.1214
 9127SOL     OW33342   2.390   0.764   7.731  0.2134 -0.0787 -0.1440
 9127SOL    HW133343   2.335   0.783   7.807 -0.2221  0.6051 -0.6119
 9127SOL    HW233344   2.480   0.766   7.765 -0.0106 -0.5178  0.4896
 9128SOL     OW33345   5.660   8.540   2.297  0.5213 -0.3991  0.5195
 9128SOL    HW133346   5.661   8.484   2.220  0.9981  1.9114 -1.2673
 9128SOL    HW233347   5.697   8.623   2.267  1.0300  0.5167  3.3342
 9129SOL     OW33348   5.933   8.110   6.119 -0.0036  0.2025  0.3370
 9129SOL    HW133349   5.907   8.060   6.042  1.4643 -1.5072  0.8669
 9129SOL    HW233350   5.900   8.060   6.193  0.4969  0.6260  0.8618
 9130SOL     OW33351   2.522   0.695   5.467  0.0676 -0.4939 -0.4417
 9130SOL    HW133352   2.439   0.680   5.512 -0.6694 -1.0837 -1.9603
 9130SOL    HW233353   2.576   0.619   5.491  0.2084 -0.0986  0.5619
 9131SOL     OW33354   7.955   8.293   5.344 -0.1310  0.1250  0.2635
 9131SOL    HW133355   7.997   8.249   5.418  1.4140  1.4520  0.2204
 9131SOL    HW233356   8.022   8.298   5.277 -0.4811  1.8625 -0.0000
 9132SOL     OW33357   1.025   8.481   8.459 -0.3784  0.0777 -0.0782
 9132SOL    HW133358   1.078   8.412   8.418  0.3838 -0.6300  1.9416
 9132SOL    HW233359   1.085   8.525   8.518 -1.8924 -0.5065  2.0191
 9133SOL     OW33360   5.234   5.039   2.931 -0.0151 -0.0504 -0.2699
 9133SOL    HW133361   5.206   5.098   2.861  1.2668  0.2679 -0.5509
 9133SOL    HW233362   5.323   5.012   2.906  0.5252  0.1529  1.2688
 9134SOL     OW33363   7.978   8.063   7.702 -0.1899  0.5508 -0.2220
 9134SOL    HW133364   7.987   8.156   7.722  0.4880  0.7027 -1.1365
 9134SOL    HW233365   7.887   8.042   7.722 -0.1673  1.2464  0.6403
 9135SOL     OW33366   4.078   3.679   4.540  0.1684  0.1038  0.1872
 9135SOL    HW133367   4.100   3.772   4.541 -0.9049  0.4083 -1.4838
 9135SOL    HW233368   3.987   3.675   4.570 -0.3756 -0.1937 -1.4228
 9136SOL     OW33369   2.338   1.268   2.464 -0.6496  0.2328  0.3208
 9136SOL    HW133370   2.396   1.317   2.406 -0.6667 -1.5509 -1.3032
 9136SOL    HW233371   2.256   1.260   2.415 -0.7675 -1.0653  0.6760
 9137SOL     OW33372   2.089   8.688   4.255 -0.5475 -0.6123  0.3614
 9137SOL    HW133373   2.159   8.700   4.319 -0.4180 -0.4762  0.1938
 9137SOL    HW233374   2.023   8.635   4.301 -0.4467 -0.5302  0.6012
 9138SOL     OW33375   6.225   3.030   8.718 -0.1701  0.1419 -0.0412
 9138SOL    HW133376   6.291   2.964   8.697 -1.8786 -1.9300  0.7019
 9138SOL    HW233377   6.184   3.051   8.634  1.6485  1.8016 -0.5832
 9139SOL     OW33378   0.209   1.604   5.490  0.2120  0.1751  0.5434
 9139SOL    HW133379   0.228   1.520   5.531  1.4957  0.2689  0.1941
 9139SOL    HW233380   0.113   1.607   5.483  0.1723 -1.8565 -0.6792
 9140SOL     OW33381   2.768   9.102   3.193  0.5554  0.0186  0.3836
 9140SOL    HW133382   2.790   9.148   3.112 -0.8416  2.9965  1.5399
 9140SOL    HW233383   2.852   9.070   3.226  1.0726 -1.9503 -2.5153
 9141SOL     OW33384   1.036   3.606   0.531  0.1534 -0.2699 -0.1157
 9141SOL    HW133385   1.004   3.551   0.603  2.1028 -2.8533 -1.0815
 9141SOL    HW233386   0.959   3.617   0.474 -0.8264 -0.1092  1.1777
 9142SOL     OW33387   5.991   8.418   7.256  0.1783  0.0334  0.2120
 9142SOL    HW133388   5.976   8.387   7.346  1.0173 -1.1838 -0.0407
 9142SOL    HW233389   6.081   8.392   7.237 -0.0246  0.1848 -1.0174
 9143SOL     OW33390   0.828   5.368   3.864 -0.6702 -0.1944  0.2793
 9143SOL    HW133391   0.764   5.370   3.793 -1.5180 -1.0625  0.9857
 9143SOL    HW233392   0.838   5.275   3.884 -1.4478  0.0808  2.1376
 9144SOL     OW33393   8.851   1.676   5.341 -0.0082  0.0001  0.1380
 9144SOL    HW133394   8.911   1.743   5.374 -2.2839  1.6018  1.2873
 9144SOL    HW233395   8.821   1.629   5.419  0.4682 -1.4499 -0.5173
 9145SOL     OW33396   1.953   9.335   0.060  0.3421  0.7030 -0.2122
 9145SOL    HW133397   2.042   9.372   0.059 -0.3064  2.4217 -2.0010
 9145SOL    HW233398   1.904   9.391   0.120  0.5853 -0.6661  1.3128
 9146SOL     OW33399   3.432   3.109   0.660  0.0895 -0.0147  0.5054
 9146SOL    HW133400   3.423   3.194   0.701 -0.6965 -0.1140  0.5492
 9146SOL    HW233401   3.345   3.089   0.626  0.5196 -0.3072 -0.4787
 9147SOL     OW33402   7.104   6.738   7.135 -0.1310  0.1941 -0.2616
 9147SOL    HW133403   7.140   6.712   7.050 -0.9471  0.2191 -0.6245
 9147SOL    HW233404   7.082   6.656   7.178 -0.6083  0.2028 -0.4781
 9148SOL     OW33405   7.913   8.645   6.073  0.1526 -0.0767  0.7084
 9148SOL    HW133406   7.969   8.570   6.055  1.7532  1.2849 -0.2636
 9148SOL    HW233407   7.924   8.662   6.167  1.8671  0.4945  0.4407
 9149SOL     OW33408   0.570   0.876   6.618  0.4491 -0.0654 -0.4487
 9149SOL    HW133409   0.539   0.959   6.581 -1.4956 -1.0724 -1.2377
 9149SOL    HW233410   0.564   0.888   6.713  1.0577  0.9865 -0.5315
 9150SOL     OW33411   1.040   3.521   1.795  0.7013  0.5344  0.0304
 9150SOL    HW133412   1.002   3.577   1.726  0.4511  1.6503  1.0374
 9150SOL    HW233413   0.984   3.537   1.871  2.0498  0.7345  1.0107
 9151SOL     OW33414   2.628   2.593   8.470 -0.2851 -0.5242 -0.4938
 9151SOL    HW133415   2.592   2.636   8.547  3.1528  2.1044 -0.1049
 9151SOL    HW233416   2.566   2.612   8.400 -1.5681  0.3427  0.8322
 9152SOL     OW33417   1.354   6.611   6.856  0.3651 -0.7170 -0.2541
 9152SOL    HW133418   1.291   6.561   6.805 -0.0660 -2.7670  2.0846
 9152SOL    HW233419   1.389   6.548   6.920  3.0484  0.9318  0.0826
 9153SOL     OW33420   8.410   2.618   6.945 -0.2035 -0.1549  0.5799
 9153SOL    HW133421   8.446   2.679   6.881 -0.5075  0.0896  0.6350
 9153SOL    HW233422   8.484   2.566   6.974 -0.5863 -2.9547 -2.7874
 9154SOL     OW33423   2.112   4.965   4.936  0.3212 -0.5833 -0.4854
 9154SOL    HW133424   2.088   4.981   5.027  0.7997 -1.1155 -0.2683
 9154SOL    HW233425   2.031   4.934   4.895  0.5694 -2.2365  0.2150
 9155SOL     OW33426   4.912   0.511   1.365  0.7149  0.1378 -0.0699
 9155SOL    HW133427   4.825   0.548   1.355  0.7216  0.0960 -0.2806
 9155SOL    HW233428   4.915   0.439   1.302  0.7079 -0.2091  0.3181
 9156SOL     OW33429   8.361   0.119   0.120 -0.1455  0.6519  0.1740
 9156SOL    HW133430   8.357   0.029   0.089 -0.9833  0.9040 -0.4840
 9156SOL    HW233431   8.452   0.146   0.106  0.3405 -0.3586  1.1967
 9157SOL     OW33432   0.001   4.097   4.666 -0.0440  0.2894 -0.2149
 9157SOL    HW133433   0.080   4.134   4.705 -0.3705  0.6809  0.0864
 9157SOL    HW233434   0.028   4.071   4.578  0.9086 -1.3251  0.4977
 9158SOL     OW33435   7.473   1.361   3.731  0.1100  0.3189 -0.3241
 9158SOL    HW133436   7.456   1.455   3.738 -1.4855  0.0568 -0.1079
 9158SOL    HW233437   7.450   1.339   3.641  0.2559  0.0932 -0.3069
 9159SOL     OW33438   0.209   1.502   1.099  0.2042  0.1940 -0.3713
 9159SOL    HW133439   0.126   1.482   1.057  0.3306 -4.3639  0.9510
 9159SOL    HW233440   0.186   1.521   1.190  0.4864  1.6014 -0.5765
 9160SOL     OW33441   4.253   3.498   8.726 -0.0301 -0.0695 -0.0760
 9160SOL    HW133442   4.232   3.469   8.638 -0.4525  0.5046 -0.1662
 9160SOL    HW233443   4.349   3.502   8.728 -0.0233 -0.0462 -0.5166
 9161SOL     OW33444   2.535   8.217   4.058 -0.4924 -0.1145 -0.5084
 9161SOL    HW133445   2.539   8.122   4.043  2.0633  0.0167 -1.1090
 9161SOL    HW233446   2.532   8.255   3.971  0.0628  0.3899 -0.3084
 9162SOL     OW33447   2.391   3.325   1.937  0.1169  0.1913 -0.3928
 9162SOL    HW133448   2.298   3.339   1.921  0.5350  1.0713 -2.4354
 9162SOL    HW233449   2.400   3.230   1.948 -1.0455  0.1334  0.1469
 9163SOL     OW33450   8.811   2.078   7.055 -0.1515  0.2577 -0.0773
 9163SOL    HW133451   8.782   2.109   6.970 -2.0546 -0.3131  0.3096
 9163SOL    HW233452   8.848   1.992   7.038 -0.5330  0.1443 -0.3482
 9164SOL     OW33453   9.109   4.692   4.290  0.2059 -0.2863  0.0054
 9164SOL    HW133454   9.094   4.776   4.333 -0.6429 -0.6075  0.3658
 9164SOL    HW233455   9.192   4.662   4.325 -0.0548 -0.1328  0.7698
 9165SOL     OW33456   1.018   7.500   0.822 -0.4620  0.3967 -0.0871
 9165SOL    HW133457   0.973   7.574   0.862 -1.1136 -0.2478  0.4056
 9165SOL    HW233458   1.073   7.539   0.754  2.2990  1.7779  2.7240
 9166SOL     OW33459   1.799   7.438   4.075 -0.0761 -0.5610  0.3100
 9166SOL    HW133460   1.708   7.458   4.050  0.0033 -0.6835 -0.0813
 9166SOL    HW233461   1.842   7.524   4.078 -0.3045 -0.4626  0.9040
 9167SOL     OW33462   0.327   3.438   8.821  0.7798  0.2343 -0.4203
 9167SOL    HW133463   0.404   3.483   8.786  1.1779  0.8978  1.2366
 9167SOL    HW233464   0.253   3.481   8.779  1.2572 -0.3517 -1.9659
 9168SOL     OW33465   4.377   5.174   2.471  0.3093  0.4987  0.5422
 9168SOL    HW133466   4.357   5.098   2.525  0.2480  0.7099  0.8179
 9168SOL    HW233467   4.471   5.188   2.483  0.6188 -0.3784 -0.6049
 9169SOL     OW33468   4.934   7.342   1.171  0.3249  0.0082 -0.3701
 9169SOL    HW133469   4.934   7.315   1.079  0.3899 -2.8961  0.3782
 9169SOL    HW233470   4.841   7.344   1.195  0.3592 -2.7888  0.3274
 9170SOL     OW33471   7.077   4.217   8.093  0.2036 -0.3854 -0.0083
 9170SOL    HW133472   7.109   4.133   8.060  1.0142 -0.3481  0.6421
 9170SOL    HW233473   7.051   4.265   8.014 -0.2983 -1.2478 -0.3767
 9171SOL     OW33474   1.181   3.517   5.399  0.3591  0.5741  0.1269
 9171SOL    HW133475   1.186   3.610   5.377  1.5360  0.3270 -0.7485
 9171SOL    HW233476   1.257   3.478   5.356 -1.5683 -1.2539 -1.8854
 9172SOL     OW33477   4.011   6.124   2.900 -0.4146  0.1959 -0.1621
 9172SOL    HW133478   4.069   6.074   2.958 -0.0352 -0.5308 -1.1382
 9172SOL    HW233479   3.936   6.067   2.885  0.2649 -0.3547 -1.7096
 9173SOL     OW33480   8.467   6.757   4.727  0.3032 -0.6588  0.0650
 9173SOL    HW133481   8.450   6.804   4.808 -1.3415  0.2993 -0.7931
 9173SOL    HW233482   8.540   6.805   4.687 -0.1552  0.0595  0.0694
 9174SOL     OW33483   0.789   2.767   5.302  0.8678 -0.3522  0.1441
 9174SOL    HW133484   0.853   2.818   5.351  0.0508  0.6422  0.2003
 9174SOL    HW233485   0.791   2.680   5.343  1.4843 -0.0553  0.7621
 9175SOL     OW33486   9.202   5.511   3.643 -0.3416  0.2779  0.5995
 9175SOL    HW133487   9.172   5.431   3.600 -4.0804  1.0798  1.3895
 9175SOL    HW233488   9.126   5.569   3.643  1.7668  3.3164  1.4085
 9176SOL     OW33489   1.260   4.126   5.274 -0.5193 -0.1062 -0.1261
 9176SOL    HW133490   1.207   4.068   5.219 -1.2550 -0.8813  1.3398
 9176SOL    HW233491   1.198   4.193   5.304  0.1186  0.9350 -1.0473
 9177SOL     OW33492   2.339   0.134   5.663  0.0403 -0.3649 -0.2438
 9177SOL    HW133493   2.326   0.093   5.748 -0.1652 -2.1243 -1.0727
 9177SOL    HW233494   2.413   0.193   5.675 -0.5272  0.0682  1.3397
 9178SOL     OW33495   8.990   5.840   8.902 -0.2047  0.4831  0.5418
 9178SOL    HW133496   9.043   5.802   8.832 -1.6473 -0.8062  0.1068
 9178SOL    HW233497   8.935   5.905   8.859 -0.4786  0.2992  0.6090
 9179SOL     OW33498   6.316   3.279   5.673  0.1461 -0.4968  0.3202
 9179SOL    HW133499   6.280   3.281   5.761  0.6051 -0.1221  0.5067
 9179SOL    HW233500   6.318   3.370   5.645  1.5493 -0.4265  0.5784
 9180SOL     OW33501   3.734   4.001   1.268 -0.0701 -0.4871 -0.4903
 9180SOL    HW133502   3.755   3.939   1.338  0.6749 -0.5282 -0.7466
 9180SOL    HW233503   3.657   3.965   1.226  0.4879 -1.3568 -0.7785
 9181SOL     OW33504   8.957   3.080   7.030  0.9999 -0.0601  0.4971
 9181SOL    HW133505   8.920   3.064   7.117 -0.6599  1.3526  0.1055
 9181SOL    HW233506   8.904   3.027   6.971  1.0540  0.2403  0.1741
 9182SOL     OW33507   4.574   6.477   0.723 -0.2915 -0.5719  0.6565
 9182SOL    HW133508   4.614   6.409   0.670 -0.6919 -0.5303  0.2962
 9182SOL    HW233509   4.642   6.543   0.733 -0.9092  0.5402 -1.7924
 9183SOL     OW33510   4.110   7.615   4.511  0.7178 -0.3159  0.7086
 9183SOL    HW133511   4.016   7.615   4.531  0.3030  1.9839 -0.8398
 9183SOL    HW233512   4.127   7.530   4.471 -1.2711  0.0929 -1.1654
 9184SOL     OW33513   6.975   4.384   1.429  0.3091 -0.2550 -0.2851
 9184SOL    HW133514   6.894   4.418   1.390 -0.9612 -1.0461  1.5243
 9184SOL    HW233515   6.982   4.295   1.395  1.0834  0.2005 -1.3560
 9185SOL     OW33516   3.555   1.847   5.395  0.2126 -0.3572  0.0880
 9185SOL    HW133517   3.529   1.768   5.349  0.2426  0.1825 -0.8718
 9185SOL    HW233518   3.650   1.852   5.384 -0.0730  1.3258 -2.4065
 9186SOL     OW33519   2.287   5.812   8.149 -0.6245 -0.2667  0.4457
 9186SOL    HW133520   2.223   5.783   8.214  0.2908 -0.4502  1.2825
 9186SOL    HW233521   2.291   5.907   8.159 -1.1558 -0.1927  0.0131
 9187SOL     OW33522   7.559   1.562   1.796  0.3718 -0.0923 -0.0321
 9187SOL    HW133523   7.545   1.592   1.886  0.9081 -1.1852  0.4253
 9187SOL    HW233524   7.527   1.472   1.795  2.6302 -0.9438 -0.2742
 9188SOL     OW33525   5.563   0.196   3.179  0.0252 -0.2195 -0.1661
 9188SOL    HW133526   5.554   0.255   3.254 -1.0538  0.2694 -0.6611
 9188SOL    HW233527   5.590   0.253   3.107 -2.2480 -0.0404 -0.9670
 9189SOL     OW33528   6.681   5.074   2.021 -0.1894  0.6013  0.5329
 9189SOL    HW133529   6.721   5.083   2.107 -2.0392  1.5120  1.3414
 9189SOL    HW233530   6.672   5.164   1.989  0.7061  0.2744 -0.7693
 9190SOL     OW33531   2.738   2.981   7.796 -0.5560  0.0298  0.0528
 9190SOL    HW133532   2.815   2.958   7.848 -0.7682 -1.7681 -0.3623
 9190SOL    HW233533   2.758   3.068   7.760  0.0421  0.8469  2.2092
 9191SOL     OW33534   2.900   0.671   7.735  0.1315  0.2020 -0.5696
 9191SOL    HW133535   2.871   0.646   7.647 -0.4548 -0.0374 -0.3140
 9191SOL    HW233536   2.929   0.589   7.775 -1.8109 -0.1315  0.2756
 9192SOL     OW33537   2.829   6.019   3.450  0.1846  0.1152 -0.2806
 9192SOL    HW133538   2.822   5.996   3.357 -0.3541  1.0472 -0.4949
 9192SOL    HW233539   2.740   6.007   3.484  0.5767 -1.1319  0.3607
 9193SOL     OW33540   3.597   8.068   6.292  0.2491  0.4277 -0.0260
 9193SOL    HW133541   3.609   8.157   6.325 -0.0604  0.7233 -0.6794
 9193SOL    HW233542   3.540   8.026   6.356  1.5737  0.2204  1.0620
 9194SOL     OW33543   0.458   2.395   7.859 -0.4053 -0.2871 -0.0079
 9194SOL    HW133544   0.471   2.426   7.770 -1.0342 -0.6959 -0.2475
 9194SOL    HW233545   0.545   2.366   7.887  0.4967  2.7438  0.6803
 9195SOL     OW33546   1.824   1.992   1.082 -0.1002  0.1362  0.1836
 9195SOL    HW133547   1.788   2.048   1.151  1.5362  1.7258 -0.1750
 9195SOL    HW233548   1.919   1.998   1.094  0.1670 -0.7868 -1.2716
 9196SOL     OW33549   0.969   6.079   1.365  0.4385 -0.1288  0.2974
 9196SOL    HW133550   0.929   6.159   1.399 -0.7471 -1.1150  1.3175
 9196SOL    HW233551   1.043   6.110   1.312 -0.0375  1.6312  0.5887
 9197SOL     OW33552   8.062   1.201   4.315 -0.1622  0.2856  0.0948
 9197SOL    HW133553   8.043   1.130   4.254  0.2087 -0.5466  0.9305
 9197SOL    HW233554   7.994   1.266   4.299 -1.5306 -1.0156  0.4925
 9198SOL     OW33555   8.429   7.738   0.139  0.1592  0.3171  0.2072
 9198SOL    HW133556   8.341   7.739   0.177  0.5050  1.2181  1.0221
 9198SOL    HW233557   8.417   7.702   0.051 -0.7163 -1.5709  1.0224
 9199SOL     OW33558   6.782   5.973   2.178  0.0906 -0.3445  0.1476
 9199SOL    HW133559   6.711   5.977   2.241  2.1945 -0.9713  2.7262
 9199SOL    HW233560   6.813   5.883   2.182  1.2943  0.0030 -0.6199
 9200SOL     OW33561   1.974   4.296   4.274  0.3413 -0.0649  0.7171
 9200SOL    HW133562   1.889   4.253   4.264  0.7902 -0.4883 -2.0073
 9200SOL    HW233563   2.002   4.272   4.362 -0.1043 -4.2860 -0.0639
 9201SOL     OW33564   3.894   3.375   6.336  0.3317  0.4068 -0.0858
 9201SOL    HW133565   3.887   3.280   6.335 -2.6778  0.5464 -0.3067
 9201SOL    HW233566   3.865   3.401   6.423 -0.7042  1.1888 -0.6426
 9202SOL     OW33567   9.300   3.453   3.108 -0.0585 -0.1347  0.4871
 9202SOL    HW133568   9.355   3.413   3.041  0.3714  0.4205  0.4971
 9202SOL    HW233569   9.226   3.489   3.060  0.2689  0.2984  0.2931
 9203SOL     OW33570   0.871   5.946   7.603  0.3319  0.8114 -0.3337
 9203SOL    HW133571   0.947   5.937   7.661  0.0697 -0.2014 -0.1291
 9203SOL    HW233572   0.803   5.893   7.645 -0.5194  1.7629 -0.4758
 9204SOL     OW33573   4.353   9.117   7.511 -0.0540 -0.2763 -0.4761
 9204SOL    HW133574   4.418   9.119   7.581 -1.5580 -0.4247  0.9858
 9204SOL    HW233575   4.338   9.024   7.494  0.1871 -0.2418 -0.9086
 9205SOL     OW33576   1.421   5.438   4.834 -0.1040  0.3105 -0.0254
 9205SOL    HW133577   1.383   5.351   4.828  1.3930 -0.2896 -1.6414
 9205SOL    HW233578   1.346   5.497   4.846 -1.1688 -1.1293  0.6163
 9206SOL     OW33579   1.449   5.745   0.965 -0.2469  0.2504  0.3542
 9206SOL    HW133580   1.356   5.757   0.944 -0.1261 -0.3304 -0.5921
 9206SOL    HW233581   1.454   5.657   1.004 -0.0012 -0.0215 -0.2742
 9207SOL     OW33582   7.073   5.398   1.543  0.3084  0.1279  0.2211
 9207SOL    HW133583   7.012   5.405   1.615  0.6429  0.9848  0.4397
 9207SOL    HW233584   7.054   5.475   1.488  0.4513 -0.1939 -0.2885
 9208SOL     OW33585   1.517   4.216   1.369  0.1256 -0.3688  0.3474
 9208SOL    HW133586   1.499   4.277   1.297 -0.6625 -0.2810  0.6071
 9208SOL    HW233587   1.601   4.245   1.404 -0.4031  0.8181  0.6928
 9209SOL     OW33588   4.419   7.757   0.687  0.4381 -0.3316  0.0468
 9209SOL    HW133589   4.429   7.663   0.672  0.4114 -0.7001  2.1011
 9209SOL    HW233590   4.504   7.785   0.719 -0.0849 -0.0676  1.2635
 9210SOL     OW33591   8.629   0.398   3.945 -0.0139 -0.5586  0.1792
 9210SOL    HW133592   8.552   0.439   3.903  1.3002 -0.7033 -2.5969
 9210SOL    HW233593   8.603   0.307   3.959 -0.0522 -0.8871 -1.7583
 9211SOL     OW33594   3.723   5.814   9.149  0.2819 -0.7532  0.2593
 9211SOL    HW133595   3.681   5.771   9.074  1.3407  1.5975 -1.8121
 9211SOL    HW233596   3.816   5.816   9.127  0.7722 -0.8221  2.1196
 9212SOL     OW33597   7.343   2.462   3.816 -0.5764  0.0137  0.0074
 9212SOL    HW133598   7.249   2.476   3.828 -0.8039 -0.9535 -0.5038
 9212SOL    HW233599   7.367   2.523   3.746 -0.9152  0.0007 -0.1253
 9213SOL     OW33600   1.697   6.976   5.697 -0.1746 -0.2688  0.3691
 9213SOL    HW133601   1.662   6.888   5.715  0.5116 -0.4294  0.9449
 9213SOL    HW233602   1.770   6.960   5.637 -0.5009 -0.0190 -0.1002
 9214SOL     OW33603   7.512   1.653   5.309 -0.3621  0.3149  0.2982
 9214SOL    HW133604   7.554   1.603   5.239 -0.0083 -1.3279  1.6214
 9214SOL    HW233605   7.583   1.669   5.372 -0.8699  0.9867  0.7120
 9215SOL     OW33606   5.313   2.118   1.152  1.0238 -0.2732  0.3402
 9215SOL    HW133607   5.256   2.140   1.078  0.4873 -0.4784  0.6963
 9215SOL    HW233608   5.275   2.164   1.227  3.5175  2.9375 -0.0962
 9216SOL     OW33609   2.660   7.273   8.600 -0.4154 -0.3080 -0.0639
 9216SOL    HW133610   2.659   7.347   8.540 -0.3847  1.5357  2.1058
 9216SOL    HW233611   2.577   7.278   8.646  0.1838 -0.7709  1.1013
 9217SOL     OW33612   4.836   6.038   5.555 -0.3471 -0.3190  0.4852
 9217SOL    HW133613   4.757   5.990   5.530  0.0057 -0.3619 -0.5628
 9217SOL    HW233614   4.903   6.010   5.492  0.1468  0.7596  0.5076
 9218SOL     OW33615   1.502   3.603   2.973  0.0178 -0.0863  0.1400
 9218SOL    HW133616   1.462   3.631   2.891 -2.2611 -0.2276  1.1215
 9218SOL    HW233617   1.479   3.672   3.036  0.6982 -0.5574  0.9298
 9219SOL     OW33618   0.406   0.430   0.143  0.1591  0.0578 -0.1153
 9219SOL    HW133619   0.457   0.355   0.113 -0.4729 -0.5177  0.2260
 9219SOL    HW233620   0.347   0.450   0.070  2.0899  1.9217 -1.2923
 9220SOL     OW33621   8.999   8.748   4.914  0.6007  0.0503  0.3768
 9220SOL    HW133622   8.936   8.721   4.981  1.1916 -1.4103  0.3671
 9220SOL    HW233623   8.950   8.745   4.832  0.2393  0.5501  0.5668
 9221SOL     OW33624   6.764   7.807   0.092  0.0083  0.7144 -0.3635
 9221SOL    HW133625   6.802   7.752   0.160 -2.6373  0.6136  1.1929
 9221SOL    HW233626   6.778   7.759   0.011  0.5219 -0.6980  0.5340
 9222SOL     OW33627   7.180   3.208   1.998 -0.2827  0.3061 -0.1037
 9222SOL    HW133628   7.182   3.301   1.974  0.1924  0.8496  1.8997
 9222SOL    HW233629   7.210   3.206   2.088 -1.3596 -1.7059  0.2561
 9223SOL     OW33630   5.785   5.786   6.790 -0.0855 -0.0377  0.4141
 9223SOL    HW133631   5.724   5.849   6.752 -0.4451  0.0334  1.0929
 9223SOL    HW233632   5.854   5.777   6.725 -1.7793 -1.5998 -1.2741
 9224SOL     OW33633   0.287   2.717   8.979  0.2258 -0.1448  0.5301
 9224SOL    HW133634   0.272   2.627   9.007  0.2729 -0.2191  0.3191
 9224SOL    HW233635   0.371   2.740   9.019  0.4962 -0.3929  0.1102
 9225SOL     OW33636   4.134   5.283   1.148 -0.6900  0.4677  0.4556
 9225SOL    HW133637   4.109   5.196   1.181  1.7521 -2.1737 -3.7338
 9225SOL    HW233638   4.077   5.297   1.072  0.4184  1.4352 -0.2428
 9226SOL     OW33639   7.114   2.415   2.330 -0.2318  0.1741 -0.1731
 9226SOL    HW133640   7.158   2.500   2.328  0.3067 -0.1047 -1.8102
 9226SOL    HW233641   7.023   2.434   2.306  0.0529  0.2275 -1.2720
 9227SOL     OW33642   6.777   9.309   1.006  0.1588 -0.3927 -0.3832
 9227SOL    HW133643   6.700   9.313   0.949  0.5870  0.5396 -0.9207
 9227SOL    HW233644   6.772   9.389   1.058  0.9658 -0.1440 -0.6871
 9228SOL     OW33645   7.509   1.745   6.327  0.0342  0.1254 -0.4530
 9228SOL    HW133646   7.526   1.839   6.319  1.6539 -0.1207 -0.2319
 9228SOL    HW233647   7.456   1.737   6.406 -0.6212  0.8983 -0.8019
 9229SOL     OW33648   0.358   9.112   9.260  0.0745  0.3676 -0.2151
 9229SOL    HW133649   0.274   9.074   9.235  0.2351  0.0877 -0.3378
 9229SOL    HW233650   0.421   9.071   9.201  0.3218  0.4419 -0.0052
 9230SOL     OW33651   2.386   6.891   8.385  0.8249 -0.6650  0.2171
 9230SOL    HW133652   2.467   6.941   8.398 -0.1987  2.2497 -2.9357
 9230SOL    HW233653   2.321   6.935   8.440 -0.0392  1.6802 -2.4384
 9231SOL     OW33654   4.932   5.905   2.208  0.4274 -0.1555 -0.3050
 9231SOL    HW133655   4.917   5.888   2.115  0.3452  1.1788 -0.5425
 9231SOL    HW233656   4.890   5.831   2.253  1.0374 -1.1669 -1.3335
 9232SOL     OW33657   0.687   2.907   0.786  0.1850  0.1197 -0.3614
 9232SOL    HW133658   0.744   2.983   0.794  0.1645  0.2288 -1.2153
 9232SOL    HW233659   0.599   2.940   0.805  0.1671  0.3285 -0.7972
 9233SOL     OW33660   7.244   9.013   2.219  0.0881  0.3569  0.2286
 9233SOL    HW133661   7.177   8.984   2.158 -1.3609 -0.6886  2.1972
 9233SOL    HW233662   7.261   8.937   2.275  1.0046  1.3842  1.4264
 9234SOL     OW33663   1.266   4.563   3.828 -0.4071 -0.0873 -0.2989
 9234SOL    HW133664   1.263   4.471   3.802 -2.4594  0.0040 -0.5380
 9234SOL    HW233665   1.264   4.561   3.923 -0.1868 -0.2949 -0.2979
 9235SOL     OW33666   7.370   7.493   5.207  0.0021  0.6073 -0.0808
 9235SOL    HW133667   7.411   7.485   5.293  1.1766 -1.0376 -0.7418
 9235SOL    HW233668   7.299   7.429   5.208 -0.6900  1.3621  0.0293
 9236SOL     OW33669   7.824   3.109   4.671 -0.2308 -0.3403 -0.1341
 9236SOL    HW133670   7.916   3.083   4.669 -0.6197 -1.9391  0.7787
 9236SOL    HW233671   7.797   3.112   4.579  0.6303 -0.1916 -0.3890
 9237SOL     OW33672   2.444   6.799   6.778 -0.2105  0.4055 -0.5014
 9237SOL    HW133673   2.350   6.805   6.761 -0.2817 -0.2630 -0.3677
 9237SOL    HW233674   2.473   6.722   6.729 -0.0196 -0.2880  0.6538
 9238SOL     OW33675   4.469   4.634   3.245  0.8455 -0.3452 -0.3738
 9238SOL    HW133676   4.415   4.672   3.314  0.3442  2.7434 -2.2733
 9238SOL    HW233677   4.439   4.543   3.240 -1.2280  0.1353  1.4388
 9239SOL     OW33678   5.966   6.999   1.691  0.4229 -0.0062  0.5935
 9239SOL    HW133679   5.912   7.075   1.714 -1.4896 -0.5269 -1.8251
 9239SOL    HW233680   5.910   6.924   1.710  0.4334 -0.5900 -1.5189
 9240SOL     OW33681   2.727   5.749   1.914 -1.0253  0.2815  0.0340
 9240SOL    HW133682   2.676   5.830   1.924 -0.2732  1.2080 -2.6317
 9240SOL    HW233683   2.666   5.687   1.874 -0.7360  0.6478 -1.0123
 9241SOL     OW33684   8.876   6.128   7.453 -0.1734 -0.4868  0.2671
 9241SOL    HW133685   8.915   6.048   7.418  1.8525  0.2002  0.7811
 9241SOL    HW233686   8.789   6.132   7.414  0.2683 -2.1208 -0.9916
 9242SOL     OW33687   2.573   8.912   7.290  0.0390 -0.2847 -0.6802
 9242SOL    HW133688   2.537   8.902   7.379  0.1693 -0.2426 -0.6218
 9242SOL    HW233689   2.667   8.922   7.304  0.3366 -2.3237 -0.9614
 9243SOL     OW33690   5.037   4.908   8.633 -0.0407  0.1383  0.4764
 9243SOL    HW133691   5.044   4.918   8.538  0.9342 -0.1189  0.5179
 9243SOL    HW233692   4.959   4.959   8.656  0.3062  1.0629 -0.3263
 9244SOL     OW33693   4.526   3.389   4.658  0.2761  0.2044 -0.0049
 9244SOL    HW133694   4.537   3.443   4.736  0.2073 -1.1993  0.9912
 9244SOL    HW233695   4.460   3.435   4.606 -0.1951  0.7738  1.0861
 9245SOL     OW33696   3.601   5.893   2.644  0.2673  0.0255  0.3170
 9245SOL    HW133697   3.518   5.849   2.625  0.2904 -0.6444  1.7174
 9245SOL    HW233698   3.653   5.881   2.564 -0.7195 -0.1388 -0.3156
 9246SOL     OW33699   6.946   8.750   6.977  0.5355  0.0987  0.0102
 9246SOL    HW133700   6.995   8.711   6.905  0.5234  1.1796 -0.6200
 9246SOL    HW233701   6.981   8.710   7.056  0.6100 -1.0455 -0.5927
 9247SOL     OW33702   5.030   6.366   9.007  0.2191  0.2215 -0.6973
 9247SOL    HW133703   4.939   6.376   9.035  0.5537  0.9318  0.2065
 9247SOL    HW233704   5.039   6.427   8.933 -0.4011 -0.9210 -1.7593
 9248SOL     OW33705   2.340   8.336   1.524 -0.9738  0.4594 -0.3274
 9248SOL    HW133706   2.347   8.288   1.442 -1.0068  1.0723 -0.6953
 9248SOL    HW233707   2.377   8.422   1.505  1.7275 -0.2949  1.0953
 9249SOL     OW33708   1.395   8.393   7.267 -0.0435  0.1491 -0.5616
 9249SOL    HW133709   1.304   8.371   7.288  0.3735 -1.2184 -0.1619
 9249SOL    HW233710   1.391   8.487   7.247 -1.1257  0.7046  1.8312
 9250SOL     OW33711   0.961   8.096   7.429 -0.5806 -0.2625  0.2149
 9250SOL    HW133712   0.889   8.151   7.459 -1.6123 -2.5337  2.2463
 9250SOL    HW233713   0.930   8.056   7.349 -1.9788 -1.7945  1.4609
 9251SOL     OW33714   7.370   2.005   6.122  0.0061 -0.0874  0.0254
 9251SOL    HW133715   7.383   2.070   6.191 -1.3563 -0.9949  1.2041
 9251SOL    HW233716   7.456   1.997   6.080  0.4364  1.7376  0.4836
 9252SOL     OW33717   8.825   9.323   6.288 -0.1113  0.5463  0.1223
 9252SOL    HW133718   8.825   9.372   6.371  1.9508 -1.1549  1.2267
 9252SOL    HW233719   8.832   9.391   6.220  1.6687  1.8889  1.5319
 9253SOL     OW33720   5.100   9.001   3.842 -0.1586 -0.2379 -0.5183
 9253SOL    HW133721   5.069   8.982   3.753  0.5754 -1.0853 -0.6116
 9253SOL    HW233722   5.190   8.969   3.843 -0.5306 -1.3366  0.8861
 9254SOL     OW33723   1.038   3.003   1.092 -0.0058  0.4571  0.1559
 9254SOL    HW133724   1.037   3.081   1.036 -1.1846  0.3580  0.0022
 9254SOL    HW233725   0.963   3.014   1.150 -0.0708 -0.4633  0.2685
 9255SOL     OW33726   1.824   7.816   6.172 -0.3821 -0.7507  0.3403
 9255SOL    HW133727   1.814   7.817   6.077  0.2672 -0.7568  0.2650
 9255SOL    HW233728   1.833   7.723   6.194  2.5258 -0.6376  0.0341
 9256SOL     OW33729   5.355   5.233   9.063  0.4475  0.3214 -0.7094
 9256SOL    HW133730   5.388   5.317   9.095  0.9599 -0.1747  0.0971
 9256SOL    HW233731   5.433   5.185   9.036  0.1240  0.2444 -1.5379
 9257SOL     OW33732   3.294   9.366   8.308  0.1839 -0.1905 -0.1277
 9257SOL    HW133733   3.223   9.373   8.372 -0.2625 -0.5014 -0.5850
 9257SOL    HW233734   3.308   9.272   8.297 -0.8926 -0.2046 -1.7244
 9258SOL     OW33735   2.233   4.641   4.516  0.7159  0.2433 -0.1229
 9258SOL    HW133736   2.263   4.570   4.459  0.9550  0.1502  0.1173
 9258SOL    HW233737   2.222   4.600   4.602 -2.7831 -0.3939 -0.7559
 9259SOL     OW33738   2.353   6.638   7.826 -0.6010  0.2201 -0.1626
 9259SOL    HW133739   2.366   6.732   7.839  0.8469  0.0787 -0.4148
 9259SOL    HW233740   2.283   6.633   7.760  1.2848  1.2534 -2.4119
 9260SOL     OW33741   5.623   6.742   3.448  0.6629 -0.2460  0.0797
 9260SOL    HW133742   5.674   6.691   3.386  0.2141 -0.2214 -0.3155
 9260SOL    HW233743   5.610   6.684   3.523  0.1063 -0.7466 -0.3887
 9261SOL     OW33744   7.878   4.531   7.263 -0.5531  0.4892 -0.2304
 9261SOL    HW133745   7.865   4.499   7.353 -2.1908 -0.4016 -0.7471
 9261SOL    HW233746   7.927   4.613   7.274  2.2646 -1.2347  1.2531
 9262SOL     OW33747   8.056   5.478   0.070 -0.2342 -0.1849  0.1507
 9262SOL    HW133748   8.106   5.542   0.019  0.0013 -0.6077 -0.1591
 9262SOL    HW233749   7.968   5.515   0.076 -0.2551 -0.1098 -0.5300
 9263SOL     OW33750   0.324   8.725   1.417  0.2194 -0.6289 -0.3206
 9263SOL    HW133751   0.365   8.710   1.332  0.8434 -1.9654  0.1999
 9263SOL    HW233752   0.332   8.642   1.463 -1.2204 -0.2958  0.5953
 9264SOL     OW33753   0.174   3.754   1.356  0.0155 -0.0497  0.0977
 9264SOL    HW133754   0.214   3.722   1.275 -0.2002  0.4783 -0.2228
 9264SOL    HW233755   0.228   3.716   1.425 -0.8613 -1.9675 -0.2129
 9265SOL     OW33756   2.894   3.080   1.808 -0.2292  0.8015  0.0184
 9265SOL    HW133757   2.906   3.023   1.732 -1.7855  1.3119 -0.6558
 9265SOL    HW233758   2.813   3.128   1.789 -0.0710  1.7178  1.5188
 9266SOL     OW33759   0.715   1.609   5.461  0.3589 -0.6198 -0.2144
 9266SOL    HW133760   0.652   1.609   5.533 -0.5030  0.7935 -0.9156
 9266SOL    HW233761   0.786   1.665   5.492  0.4744 -0.8392 -0.0786
 9267SOL     OW33762   4.693   8.727   9.227 -0.2827  0.4227 -0.0001
 9267SOL    HW133763   4.733   8.703   9.311  1.2595 -1.5179 -1.2059
 9267SOL    HW233764   4.639   8.652   9.204  0.5982  0.2056 -1.4874
 9268SOL     OW33765   2.121   2.176   0.337  0.1362 -0.0784  0.3295
 9268SOL    HW133766   2.151   2.104   0.282  0.9633  0.9664 -0.6427
 9268SOL    HW233767   2.201   2.225   0.358 -0.2620 -0.0283  1.8606
 9269SOL     OW33768   7.114   8.833   6.243 -0.3789 -0.2692 -0.4722
 9269SOL    HW133769   7.038   8.815   6.299 -0.6281 -2.2855 -1.3839
 9269SOL    HW233770   7.078   8.882   6.169 -0.2735  1.2462  0.4470
 9270SOL     OW33771   6.382   1.266   0.229  0.1735 -0.0363 -0.2558
 9270SOL    HW133772   6.349   1.178   0.247  1.6093 -1.1434 -2.5688
 9270SOL    HW233773   6.425   1.292   0.311 -1.3795 -0.8821  0.8981
 9271SOL     OW33774   3.006   6.557   8.437 -0.1289 -0.1333 -0.1907
 9271SOL    HW133775   2.947   6.632   8.444 -0.0519 -0.1214  0.3466
 9271SOL    HW233776   3.019   6.545   8.343  0.4987  1.0161 -0.2606
 9272SOL     OW33777   1.184   3.962   5.920  0.3174 -0.5822  0.0970
 9272SOL    HW133778   1.254   3.984   5.859 -1.5660  0.7257 -1.7737
 9272SOL    HW233779   1.210   3.879   5.958  3.0247  0.0411 -0.1996
 9273SOL     OW33780   0.432   1.205   7.014 -0.0126 -0.2638  0.3134
 9273SOL    HW133781   0.380   1.244   7.085 -0.1631  0.1089  0.0012
 9273SOL    HW233782   0.489   1.275   6.984 -1.7505  0.4120 -1.6784
 9274SOL     OW33783   3.956   7.139   8.609  0.0918  0.0197  0.0169
 9274SOL    HW133784   3.928   7.110   8.696 -0.2329  1.2797  0.3612
 9274SOL    HW233785   3.893   7.100   8.549  0.3534 -0.9089  0.3360
 9275SOL     OW33786   7.382   4.487   5.295 -0.5911 -0.3517  0.3700
 9275SOL    HW133787   7.315   4.546   5.330  0.6066  1.9749 -1.0029
 9275SOL    HW233788   7.464   4.520   5.331  0.3769  0.4275 -2.3466
 9276SOL     OW33789   2.364   4.314   5.658  0.1490  0.1707  0.5234
 9276SOL    HW133790   2.281   4.362   5.654 -0.7409 -1.3799 -1.0091
 9276SOL    HW233791   2.421   4.359   5.597 -0.5928 -0.5205 -0.7134
 9277SOL     OW33792   0.510   8.591   2.250 -0.0914  0.8395  0.1739
 9277SOL    HW133793   0.443   8.652   2.282  1.3096  2.3797  0.2939
 9277SOL    HW233794   0.516   8.609   2.157 -1.7509 -1.2720 -0.4375
 9278SOL     OW33795   5.095   5.133   7.998 -1.0665 -0.1807  0.4780
 9278SOL    HW133796   5.104   5.111   8.091  0.2362 -0.0332  0.3991
 9278SOL    HW233797   5.004   5.110   7.977 -0.2678 -4.4045  0.7148
 9279SOL     OW33798   3.688   1.741   3.696 -0.3776 -0.2272  0.0209
 9279SOL    HW133799   3.777   1.771   3.678 -1.6005  3.0163 -1.3787
 9279SOL    HW233800   3.682   1.738   3.792  0.9873  0.3148  0.1436
 9280SOL     OW33801   2.340   4.764   1.088 -0.1248 -0.4147 -0.2917
 9280SOL    HW133802   2.268   4.821   1.116  0.6630  0.0232  0.9343
 9280SOL    HW233803   2.353   4.704   1.161  1.7700  0.5354  0.2235
 9281SOL     OW33804   0.422   7.503   9.150  0.0613  0.5837 -0.1079
 9281SOL    HW133805   0.461   7.481   9.066  1.0421 -0.2121  0.5322
 9281SOL    HW233806   0.419   7.420   9.197  0.2662  1.1585  0.9442
 9282SOL     OW33807   8.664   3.629   4.028  0.4677 -0.2471  0.1072
 9282SOL    HW133808   8.747   3.591   3.999  0.1901  0.3841 -1.6850
 9282SOL    HW233809   8.610   3.629   3.949 -1.0231 -0.0800  1.1011
 9283SOL     OW33810   8.025   9.197   6.596  0.2020  0.0503 -0.1693
 9283SOL    HW133811   8.096   9.225   6.537  1.5689 -2.2038  0.2995
 9283SOL    HW233812   7.965   9.272   6.598  1.6990  1.3935 -1.9312
 9284SOL     OW33813   4.789   7.578   5.560 -0.0183  0.9014 -0.3376
 9284SOL    HW133814   4.867   7.580   5.615  1.7146  1.7054 -2.6685
 9284SOL    HW233815   4.811   7.518   5.489 -1.4686  1.2542 -1.1236
 9285SOL     OW33816   8.678   7.413   0.865  0.6176  0.2470 -0.7593
 9285SOL    HW133817   8.685   7.486   0.803 -2.5949 -0.1936 -1.8129
 9285SOL    HW233818   8.663   7.336   0.810 -2.8181 -0.0901  0.4043
 9286SOL     OW33819   0.282   7.067   7.814  0.2490  0.1699  0.2842
 9286SOL    HW133820   0.291   7.059   7.909  2.4802  0.5894  0.1615
 9286SOL    HW233821   0.219   7.137   7.802 -0.5567 -0.3303  1.4432
 9287SOL     OW33822   7.145   9.098   7.606  0.0157  0.6918 -0.2685
 9287SOL    HW133823   7.240   9.104   7.603 -0.0252  1.5236 -0.0149
 9287SOL    HW233824   7.119   9.158   7.676 -0.6808  0.3001 -0.1811
 9288SOL     OW33825   1.367   2.541   8.338  0.0607  0.1172 -0.3778
 9288SOL    HW133826   1.422   2.490   8.398  3.1836  2.0523 -1.3280
 9288SOL    HW233827   1.384   2.503   8.252 -0.0278  0.7945 -0.7011
 9289SOL     OW33828   0.562   0.317   7.636  0.1572 -0.2077 -0.1439
 9289SOL    HW133829   0.601   0.253   7.576 -0.9893  0.3520 -1.5370
 9289SOL    HW233830   0.626   0.388   7.640  0.9288 -0.9208  0.5270
 9290SOL     OW33831   5.313   6.783   5.685 -0.7915  0.0993  0.0855
 9290SOL    HW133832   5.230   6.763   5.728 -0.0515 -0.9042  1.1317
 9290SOL    HW233833   5.329   6.709   5.627  0.6208 -1.0805  1.8855
 9291SOL     OW33834   5.579   1.748   6.507 -0.0595  0.6673 -0.5425
 9291SOL    HW133835   5.521   1.790   6.444 -0.5394 -0.3558 -0.8139
 9291SOL    HW233836   5.537   1.762   6.592 -1.0440 -0.5779 -0.8014
 9292SOL     OW33837   3.364   8.007   6.058 -0.1414  0.1027  0.3527
 9292SOL    HW133838   3.406   8.049   6.134 -0.0622  0.5764  0.0493
 9292SOL    HW233839   3.408   7.922   6.051  0.6456  0.5199  0.1470
 9293SOL     OW33840   7.683   9.039   8.356  0.3015  0.2535 -0.1257
 9293SOL    HW133841   7.591   9.064   8.347 -0.3561 -1.6346  0.7881
 9293SOL    HW233842   7.681   8.957   8.406  2.3725 -0.7961 -1.6067
 9294SOL     OW33843   8.707   8.647   4.783  0.2869 -0.2555  0.0873
 9294SOL    HW133844   8.681   8.609   4.699 -0.4848 -1.0049  0.6540
 9294SOL    HW233845   8.658   8.730   4.787 -1.0277 -1.0297  0.5495
 9295SOL     OW33846   5.891   7.274   5.397 -0.1995  0.1477  0.2420
 9295SOL    HW133847   5.960   7.268   5.464  1.9897  1.1222 -1.7847
 9295SOL    HW233848   5.830   7.204   5.419  1.6455 -1.0320  1.9266
 9296SOL     OW33849   5.608   2.829   0.042 -0.5030 -0.9962  0.0743
 9296SOL    HW133850   5.617   2.887  -0.033 -0.6224 -3.3785 -1.9199
 9296SOL    HW233851   5.667   2.865   0.108  2.3808 -0.7091 -2.4555
 9297SOL     OW33852   1.070   2.549   0.962  0.4193 -0.2580  0.2958
 9297SOL    HW133853   1.096   2.457   0.956  0.0724 -0.3202 -0.3000
 9297SOL    HW233854   1.002   2.559   0.896  0.9587  0.6076 -0.1370
 9298SOL     OW33855   5.117   0.258   8.539  0.7114  0.0900  0.0160
 9298SOL    HW133856   5.131   0.349   8.563 -1.0968  0.9270 -1.8112
 9298SOL    HW233857   5.204   0.222   8.526  1.6566  0.6101  3.7392
 9299SOL     OW33858   4.451   0.414   4.708  0.1868  0.5000  0.1479
 9299SOL    HW133859   4.362   0.416   4.671  0.0352 -0.3501  0.4471
 9299SOL    HW233860   4.501   0.362   4.646 -0.1469 -1.2225  1.2703
 9300SOL     OW33861   5.409   4.461   4.242 -0.0640 -0.1223  0.4308
 9300SOL    HW133862   5.380   4.463   4.334  0.2666 -0.1685  0.5384
 9300SOL    HW233863   5.357   4.391   4.202 -1.0428  0.6614  0.2926
 9301SOL     OW33864   7.962   7.416   0.883 -0.1802  0.0221 -0.2932
 9301SOL    HW133865   7.874   7.449   0.904 -1.5512 -4.3808  2.4868
 9301SOL    HW233866   8.018   7.453   0.951 -0.3182  1.1851 -0.7975
 9302SOL     OW33867   0.426   2.250   5.717 -0.4976  0.4166  0.3493
 9302SOL    HW133868   0.378   2.310   5.659  0.0078 -0.3190 -0.8781
 9302SOL    HW233869   0.359   2.189   5.748 -0.4553 -0.5263 -1.2582
 9303SOL     OW33870   5.317   8.357   6.917  0.2700  0.4154  0.1591
 9303SOL    HW133871   5.260   8.284   6.941 -0.4260 -0.0076 -2.4251
 9303SOL    HW233872   5.381   8.363   6.988 -1.9466 -0.2001  2.3218
 9304SOL     OW33873   0.552   2.374   4.037 -0.8349  0.0891  0.1981
 9304SOL    HW133874   0.622   2.378   4.102 -1.4365  0.8868  0.8152
 9304SOL    HW233875   0.598   2.382   3.953  0.0688 -2.1019  0.4009
 9305SOL     OW33876   1.746   5.209   7.533 -0.4607  0.2306  0.0301
 9305SOL    HW133877   1.714   5.219   7.623 -1.1287  0.8168 -0.2672
 9305SOL    HW233878   1.813   5.278   7.525 -0.2538  0.0451  0.1378
 9306SOL     OW33879   1.343   2.034   2.930 -0.1689 -0.1015  0.5117
 9306SOL    HW133880   1.404   2.107   2.921 -0.6514  0.2018 -0.3910
 9306SOL    HW233881   1.321   2.033   3.023 -1.1480  1.7416  0.3470
 9307SOL     OW33882   1.860   8.089   2.274 -0.1696  0.5234 -0.2337
 9307SOL    HW133883   1.837   8.044   2.193  0.5981  0.8337 -0.6342
 9307SOL    HW233884   1.926   8.154   2.248  0.7566  0.0273  0.7765
 9308SOL     OW33885   7.474   3.210   6.555 -0.4500 -0.1346  0.3796
 9308SOL    HW133886   7.380   3.231   6.555 -1.0153 -2.0328 -2.6366
 9308SOL    HW233887   7.513   3.275   6.497 -0.4323 -1.0316 -0.6397
 9309SOL     OW33888   5.790   3.773   3.850 -0.7453 -0.4893  0.0056
 9309SOL    HW133889   5.697   3.764   3.834 -0.5236 -2.8535 -0.2828
 9309SOL    HW233890   5.802   3.744   3.941 -0.4730  1.4726  0.6449
 9310SOL     OW33891   8.707   4.624   7.005  0.0025  0.4550  0.2117
 9310SOL    HW133892   8.647   4.634   6.931  1.4914 -0.7649 -1.2386
 9310SOL    HW233893   8.678   4.690   7.068 -1.8076  1.0173 -1.1126
 9311SOL     OW33894   1.163   8.106   6.472  0.1515 -0.0515  0.5645
 9311SOL    HW133895   1.087   8.139   6.424  0.7750 -2.2157 -2.2130
 9311SOL    HW233896   1.185   8.024   6.427  3.3688 -0.1271  2.0281
 9312SOL     OW33897   2.062   7.846   7.828 -0.2277 -0.3046 -0.9370
 9312SOL    HW133898   2.154   7.865   7.844 -0.8191  0.1391  2.6723
 9312SOL    HW233899   2.052   7.753   7.850 -0.8055 -0.1217 -0.4046
 9313SOL     OW33900   4.621   4.858   3.515 -0.0088 -0.3907  0.7039
 9313SOL    HW133901   4.653   4.934   3.468  2.3437 -1.1881  0.8840
 9313SOL    HW233902   4.526   4.870   3.518 -0.0817  0.6553 -2.4679
 9314SOL     OW33903   0.626   0.227   7.906 -0.1622  0.3004 -0.5187
 9314SOL    HW133904   0.566   0.153   7.918  0.6376 -0.7611 -2.5462
 9314SOL    HW233905   0.602   0.263   7.821  0.6412  1.2578 -0.3498
 9315SOL     OW33906   3.100   5.526   8.331 -0.3931  0.2311  1.1357
 9315SOL    HW133907   3.176   5.502   8.279 -1.2841  0.7228 -0.4668
 9315SOL    HW233908   3.130   5.523   8.422  1.5074  0.3904  0.5351
 9316SOL     OW33909   1.042   4.469   5.806  0.6119  0.0501 -0.2839
 9316SOL    HW133910   1.034   4.390   5.859 -0.5714  1.1100  1.1850
 9316SOL    HW233911   1.034   4.438   5.715 -0.4142 -1.4275  0.2827
 9317SOL     OW33912   5.562   4.092   4.658  0.2559  0.3551  0.2736
 9317SOL    HW133913   5.577   3.997   4.658 -0.8986  0.1513 -0.4928
 9317SOL    HW233914   5.628   4.127   4.718  0.5959 -0.9515  0.6914
 9318SOL     OW33915   3.525   5.980   1.504  0.2856 -0.0995  0.1758
 9318SOL    HW133916   3.446   6.023   1.538  0.0377 -1.3012  1.1946
 9318SOL    HW233917   3.585   5.978   1.578  0.2509 -1.5606  0.1859
 9319SOL     OW33918   4.370   3.617   5.438 -0.0266 -0.2830  0.6701
 9319SOL    HW133919   4.445   3.560   5.424  0.8985  0.7267  1.2807
 9319SOL    HW233920   4.407   3.696   5.479 -1.0997  1.1234 -0.9115
 9320SOL     OW33921   3.947   3.897   8.532  0.1770 -0.2041  0.3609
 9320SOL    HW133922   4.021   3.844   8.501  1.2308  0.9472  0.7852
 9320SOL    HW233923   3.897   3.838   8.588  0.9727 -0.9194  0.3498
 9321SOL     OW33924   1.814   4.715   4.584 -0.4364  0.1586  0.2136
 9321SOL    HW133925   1.873   4.685   4.514 -0.4653 -1.0803  0.6972
 9321SOL    HW233926   1.764   4.637   4.607 -2.5871  1.2729 -0.4589
 9322SOL     OW33927   4.157   8.667   1.041 -0.3178  0.0655 -0.2565
 9322SOL    HW133928   4.152   8.572   1.030  2.9783 -0.1007 -1.6848
 9322SOL    HW233929   4.209   8.680   1.120 -0.1045  0.6469 -0.4831
 9323SOL     OW33930   2.866   2.044   9.183  0.1680 -0.3030 -0.2738
 9323SOL    HW133931   2.940   2.102   9.166  1.8124 -2.3803 -0.7347
 9323SOL    HW233932   2.885   2.004   9.268 -0.7630 -0.4009 -0.0939
 9324SOL     OW33933   5.558   3.837   8.427  0.3907  0.4206 -0.1523
 9324SOL    HW133934   5.500   3.817   8.354 -0.5104 -0.0686  0.6636
 9324SOL    HW233935   5.498   3.861   8.499  1.1667 -0.2859  0.7638
 9325SOL     OW33936   6.467   2.414   5.421 -0.2217  0.5217 -0.5944
 9325SOL    HW133937   6.508   2.470   5.355 -0.9166  3.3529  1.1981
 9325SOL    HW233938   6.382   2.455   5.438  0.7205  1.2715  3.4550
 9326SOL     OW33939   3.685   1.980   0.963  0.0965  0.4369  0.2171
 9326SOL    HW133940   3.628   1.907   0.987  1.4193 -0.0874  1.9781
 9326SOL    HW233941   3.626   2.047   0.929 -1.1303 -1.5334 -1.7675
 9327SOL     OW33942   0.713   5.989   8.999  0.0649  0.0055  0.5510
 9327SOL    HW133943   0.780   5.938   9.045  1.2552  1.4396  0.4579
 9327SOL    HW233944   0.649   5.923   8.971  0.3708 -1.1650  2.3969
 9328SOL     OW33945   4.498   9.130   7.741  0.0144  0.3482  0.6055
 9328SOL    HW133946   4.580   9.141   7.790 -0.7758 -2.0696  2.6386
 9328SOL    HW233947   4.432   9.116   7.808 -1.7873  0.4377 -1.0760
 9329SOL     OW33948   4.316   6.878   8.778 -0.4944 -0.2383  0.5239
 9329SOL    HW133949   4.316   6.973   8.765  0.2969 -0.3474 -0.3198
 9329SOL    HW233950   4.229   6.860   8.813 -2.1051  0.3610 -2.7646
 9330SOL     OW33951   9.203   9.000   1.707 -0.4006 -0.3570 -0.6710
 9330SOL    HW133952   9.168   8.996   1.618 -1.7434 -0.0847 -0.1794
 9330SOL    HW233953   9.148   8.940   1.757 -0.6575  0.6457  0.2871
 9331SOL     OW33954   4.629   9.199   4.071  0.1849 -0.2104  0.3181
 9331SOL    HW133955   4.642   9.281   4.118  0.9855  0.1989 -0.6061
 9331SOL    HW233956   4.534   9.190   4.064  0.0974  0.9450 -0.0960
 9332SOL     OW33957   6.303   8.699   2.386  0.2068 -0.6519 -0.3100
 9332SOL    HW133958   6.275   8.790   2.388  1.0390 -0.4018  1.0359
 9332SOL    HW233959   6.392   8.700   2.422 -1.2064 -2.4388  3.7064
 9333SOL     OW33960   3.871   8.657   0.726  0.0002 -0.2746  0.1756
 9333SOL    HW133961   3.934   8.725   0.702 -0.1732 -0.1907 -0.0390
 9333SOL    HW233962   3.788   8.687   0.692 -0.3761  0.1208  1.3870
 9334SOL     OW33963   0.631   2.741   5.746  0.3384  0.0700  0.1262
 9334SOL    HW133964   0.641   2.797   5.669 -2.0233  2.7247  1.5681
 9334SOL    HW233965   0.539   2.747   5.769  0.8396 -1.0242  2.8664
 9335SOL     OW33966   5.573   3.565   1.022 -0.2332  0.1075 -0.0676
 9335SOL    HW133967   5.571   3.621   1.100 -1.7890 -1.7210  1.3092
 9335SOL    HW233968   5.645   3.599   0.970  0.7523  1.5408  2.0754
 9336SOL     OW33969   5.130   7.476   3.280 -0.1166 -0.6972 -0.0848
 9336SOL    HW133970   5.096   7.462   3.191 -0.5220 -0.2748  0.0016
 9336SOL    HW233971   5.223   7.454   3.274  0.3383  1.2928 -1.1105
 9337SOL     OW33972   6.802   2.193   4.439 -0.1145 -0.2382  0.5595
 9337SOL    HW133973   6.711   2.208   4.410  0.3177  1.6656  0.0413
 9337SOL    HW233974   6.818   2.260   4.505  1.0814 -0.1945  0.2514
 9338SOL     OW33975   1.736   1.915   5.407 -0.5948  0.4531 -0.0300
 9338SOL    HW133976   1.791   1.850   5.363 -0.2819  1.6241 -1.4644
 9338SOL    HW233977   1.782   1.937   5.487  0.5274  0.6691 -0.7199
 9339SOL     OW33978   0.088   7.637   3.196  0.1729 -0.5005 -0.7681
 9339SOL    HW133979   0.090   7.711   3.256  0.9019 -0.7187 -0.5049
 9339SOL    HW233980   0.013   7.654   3.139 -0.2117 -0.0213 -0.1388
 9340SOL     OW33981   5.696   6.432   8.648  0.1985  0.0343 -0.4076
 9340SOL    HW133982   5.689   6.428   8.552  1.5209  1.0295 -0.5909
 9340SOL    HW233983   5.709   6.525   8.666 -2.3570  0.1811  0.9662
 9341SOL     OW33984   5.259   3.480   8.258  0.8959 -0.0750 -1.0470
 9341SOL    HW133985   5.246   3.564   8.214 -0.1530 -0.1506 -0.9223
 9341SOL    HW233986   5.302   3.502   8.341 -1.5507  0.6737  0.1215
 9342SOL     OW33987   1.898   5.326   6.763  0.1144  1.0113 -0.6038
 9342SOL    HW133988   1.878   5.375   6.684 -0.1329  0.2955 -0.9955
 9342SOL    HW233989   1.839   5.362   6.829 -0.5688  0.7640 -1.0689
 9343SOL     OW33990   8.337   4.984   2.328  0.3323 -0.3305 -0.9879
 9343SOL    HW133991   8.278   4.920   2.368  0.4171 -0.8265 -1.6402
 9343SOL    HW233992   8.290   5.016   2.252 -0.8214  2.3486  0.6968
 9344SOL     OW33993   0.540   6.360   7.890 -0.1779  0.1023  1.2885
 9344SOL    HW133994   0.627   6.384   7.919 -0.6550  1.2999  1.7898
 9344SOL    HW233995   0.485   6.434   7.914 -0.9354  0.4140 -1.1342
 9345SOL     OW33996   2.054   7.942   5.276  0.0867 -0.1479 -0.1957
 9345SOL    HW133997   2.127   7.909   5.225  0.5801  0.6809 -0.0267
 9345SOL    HW233998   2.017   8.013   5.224 -0.0806 -0.0120  0.1051
 9346SOL     OW33999   1.515   4.666   6.217 -0.0299 -0.5754 -0.1363
 9346SOL    HW134000   1.604   4.632   6.222  0.0148 -0.3958  0.3167
 9346SOL    HW234001   1.473   4.615   6.148 -0.1442 -1.9315  0.9077
 9347SOL     OW34002   4.234   6.507   4.555 -0.3696  0.0083 -0.5985
 9347SOL    HW134003   4.264   6.596   4.540 -0.3378  0.3566  1.2978
 9347SOL    HW234004   4.237   6.496   4.650 -0.9044 -1.8301 -0.7487
 9348SOL     OW34005   7.515   3.044   0.981 -0.4175 -0.5916 -0.6277
 9348SOL    HW134006   7.595   2.998   0.956  0.5037  1.1857 -1.0521
 9348SOL    HW234007   7.523   3.055   1.076  0.1119  0.0508 -0.7403
 9349SOL     OW34008   2.337   8.784   9.083  0.1257 -0.1551  0.4387
 9349SOL    HW134009   2.374   8.864   9.121  0.0168  0.3015 -0.3971
 9349SOL    HW234010   2.244   8.788   9.104 -0.0770  0.4991 -0.5600
 9350SOL     OW34011   1.565   4.374   3.804  0.1543  0.6817  0.3943
 9350SOL    HW134012   1.624   4.370   3.880 -0.6398  2.6590  1.1863
 9350SOL    HW234013   1.487   4.327   3.832 -0.0870  1.2979  0.7783
 9351SOL     OW34014   2.285   8.761   1.019  0.1093  0.4019 -0.3904
 9351SOL    HW134015   2.376   8.790   1.015  0.4836 -0.4645  1.1822
 9351SOL    HW234016   2.268   8.746   1.112 -0.1691 -3.7947 -0.9096
 9352SOL     OW34017   5.117   8.131   1.480  0.7091 -0.4271 -0.4565
 9352SOL    HW134018   5.063   8.053   1.464  1.1123 -1.0974  1.2664
 9352SOL    HW234019   5.140   8.125   1.572  1.2946  1.4156 -0.4596
 9353SOL     OW34020   4.198   7.420   7.310 -0.2453  0.0910  0.0122
 9353SOL    HW134021   4.145   7.353   7.351 -2.0043  0.7015 -1.1291
 9353SOL    HW234022   4.208   7.391   7.219 -0.7451  1.1771 -0.4103
 9354SOL     OW34023   0.707   8.333   5.302  0.2584  0.4089 -0.1446
 9354SOL    HW134024   0.717   8.270   5.373  1.7719  0.0867 -0.5846
 9354SOL    HW234025   0.727   8.282   5.223  0.3879  1.1752 -0.6168
 9355SOL     OW34026   6.388   3.826   8.792 -0.3340 -0.1987 -0.0601
 9355SOL    HW134027   6.378   3.774   8.872  0.5622 -1.2965 -0.6462
 9355SOL    HW234028   6.323   3.790   8.732 -0.4137  0.0499 -0.1250
 9356SOL     OW34029   6.590   3.432   3.741  0.3376  0.2345 -0.3270
 9356SOL    HW134030   6.648   3.426   3.817  1.0165  1.0729 -0.7705
 9356SOL    HW234031   6.645   3.409   3.666 -0.3855 -0.8323 -0.5591
 9357SOL     OW34032   0.767   1.563   1.417 -0.2164  0.3164  0.0187
 9357SOL    HW134033   0.727   1.601   1.495  1.0548  0.6155  0.5580
 9357SOL    HW234034   0.693   1.539   1.360 -1.1814  5.4898 -1.3554
 9358SOL     OW34035   2.346   0.559   5.620 -0.4740  0.1359 -0.1111
 9358SOL    HW134036   2.270   0.515   5.581  0.1544 -0.8742 -0.2280
 9358SOL    HW234037   2.403   0.488   5.649 -0.3917  0.8835  1.6363
 9359SOL     OW34038   5.419   1.471   0.010 -0.4584  0.2095 -0.2841
 9359SOL    HW134039   5.433   1.565  -0.000  0.6289  0.1194  0.2408
 9359SOL    HW234040   5.491   1.442   0.066  0.2616 -1.2514 -1.8855
 9360SOL     OW34041   7.990   2.224   1.379 -0.5863 -0.2008 -0.1106
 9360SOL    HW134042   7.913   2.274   1.406 -1.0858 -0.0914 -1.6449
 9360SOL    HW234043   8.057   2.290   1.364 -0.1297 -0.3079  1.3712
 9361SOL     OW34044   2.019   8.168   3.919 -0.4248 -0.4730  0.4198
 9361SOL    HW134045   2.104   8.153   3.959 -0.0488 -1.0519 -0.5445
 9361SOL    HW234046   1.956   8.148   3.988  0.2120  0.0866  1.1848
 9362SOL     OW34047   2.433   6.796   0.515  0.3403  0.0230 -1.0647
 9362SOL    HW134048   2.520   6.763   0.495  1.0483  2.0579 -1.6080
 9362SOL    HW234049   2.429   6.798   0.610 -0.1705 -2.5834 -0.9766
 9363SOL     OW34050   6.628   6.265   4.879 -0.2321  0.3641 -0.0339
 9363SOL    HW134051   6.650   6.217   4.959  0.1532 -0.1647 -0.4530
 9363SOL    HW234052   6.697   6.242   4.817 -1.3768 -0.4947 -1.0296
 9364SOL     OW34053   3.544   3.158   3.651 -0.0803 -0.2373  0.1006
 9364SOL    HW134054   3.474   3.166   3.586 -0.1296 -0.5931  0.1061
 9364SOL    HW234055   3.601   3.089   3.616 -0.1304 -0.4629  0.4551
 9365SOL     OW34056   8.036   2.054   5.283  0.4761  0.1364  0.6908
 9365SOL    HW134057   7.941   2.046   5.274  0.6051  0.5430 -1.7768
 9365SOL    HW234058   8.055   2.019   5.370 -1.7358 -1.6303  0.5589
 9366SOL     OW34059   2.934   0.720   0.305  0.1770 -0.6530  0.1545
 9366SOL    HW134060   2.915   0.808   0.339  0.6927 -0.1632 -0.7745
 9366SOL    HW234061   2.987   0.678   0.374  0.4739 -0.0016  0.3335
 9367SOL     OW34062   5.626   5.570   5.791  0.2600 -0.3361  0.1847
 9367SOL    HW134063   5.698   5.627   5.818  1.2558 -1.5122  0.0683
 9367SOL    HW234064   5.668   5.498   5.743 -0.7366 -2.1615  1.8970
 9368SOL     OW34065   7.546   7.953   4.820  0.1687 -0.0034  0.2324
 9368SOL    HW134066   7.522   7.882   4.760 -0.0322 -0.0880  0.4121
 9368SOL    HW234067   7.600   7.910   4.887 -0.9033 -0.2071  0.9781
 9369SOL     OW34068   9.105   2.156   8.676 -0.6230  0.2853  0.1932
 9369SOL    HW134069   9.126   2.083   8.619 -1.9430 -0.7322  0.9542
 9369SOL    HW234070   9.060   2.116   8.750  0.2752  1.6595  1.5515
 9370SOL     OW34071   3.666   0.450   4.640  0.0094 -0.5772  0.1896
 9370SOL    HW134072   3.756   0.475   4.659 -0.4788  1.4627  0.0269
 9370SOL    HW234073   3.660   0.359   4.668  1.8621 -0.4804  1.0247
 9371SOL     OW34074   2.107   4.240   3.434  0.1037 -0.4028  0.3781
 9371SOL    HW134075   2.098   4.333   3.411 -2.9713 -0.5675  0.4141
 9371SOL    HW234076   2.119   4.196   3.350  1.9709  0.0176  0.3919
 9372SOL     OW34077   0.329   2.575   3.835 -0.5323  0.5744  0.1559
 9372SOL    HW134078   0.361   2.570   3.745 -0.5479  0.8926  0.1327
 9372SOL    HW234079   0.405   2.599   3.887 -0.4304 -0.0090  0.2868
 9373SOL     OW34080   8.109   1.981   7.407  0.2261  0.5983  0.4324
 9373SOL    HW134081   8.103   1.923   7.331  0.5024  0.6338  0.3845
 9373SOL    HW234082   8.106   2.069   7.370  1.3531  0.6211  0.3836
 9374SOL     OW34083   2.004   4.981   5.731  0.2907  0.0691  0.3536
 9374SOL    HW134084   1.992   4.902   5.677 -0.1541 -0.0326  0.5943
 9374SOL    HW234085   1.924   4.986   5.783  0.8483 -0.0118  1.2374
 9375SOL     OW34086   6.576   0.807   5.417 -0.0857 -0.0055  0.1525
 9375SOL    HW134087   6.544   0.896   5.403 -0.6765 -0.3427 -0.7743
 9375SOL    HW234088   6.610   0.807   5.507 -0.8552  0.9174  0.4597
 9376SOL     OW34089   0.362   7.944   9.264 -0.8268  0.1315  0.0126
 9376SOL    HW134090   0.449   7.984   9.256 -1.1135  0.8874  0.5014
 9376SOL    HW234091   0.376   7.868   9.320 -0.8519  1.6605  2.2606
 9377SOL     OW34092   5.682   1.488   1.174 -0.3626 -0.0935 -0.5120
 9377SOL    HW134093   5.747   1.438   1.224 -1.6375  0.3323  1.7283
 9377SOL    HW234094   5.724   1.573   1.159  0.1864 -0.3587 -0.5111
 9378SOL     OW34095   0.269   1.911   0.981  0.2546 -0.0417 -0.0357
 9378SOL    HW134096   0.349   1.899   1.032  0.7137  0.1604 -0.6857
 9378SOL    HW234097   0.294   1.974   0.913 -0.5819  0.3483  0.0208
 9379SOL     OW34098   5.603   1.975   3.571 -0.5186 -0.4006 -0.0844
 9379SOL    HW134099   5.526   1.957   3.625  1.1657  1.9172  3.5338
 9379SOL    HW234100   5.575   2.043   3.510 -1.1228  1.6025  2.2577
 9380SOL     OW34101   6.290   0.007   7.828 -0.4712 -0.1456 -0.1691
 9380SOL    HW134102   6.264   0.096   7.804 -0.9448 -0.3658 -0.4942
 9380SOL    HW234103   6.353  -0.018   7.760  0.3735  0.2758  0.4452
 9381SOL     OW34104   0.829   8.389   9.067  0.3784  0.5259  0.3887
 9381SOL    HW134105   0.883   8.396   9.145  0.9154 -0.0656  0.0801
 9381SOL    HW234106   0.741   8.374   9.100  1.0892 -3.5527  0.9676
 9382SOL     OW34107   3.785   8.973   6.699 -0.0781 -0.0362 -0.4910
 9382SOL    HW134108   3.737   9.038   6.751 -0.1849 -0.4506 -0.0722
 9382SOL    HW234109   3.852   8.939   6.758 -1.2961 -1.7767 -0.0455
 9383SOL     OW34110   4.440   7.667   3.288 -0.1582  0.0999 -0.2013
 9383SOL    HW134111   4.513   7.719   3.252 -0.4016  0.0269 -0.8191
 9383SOL    HW234112   4.362   7.717   3.266 -0.3357 -0.0947 -0.0215
 9384SOL     OW34113   5.386   3.586   6.498  0.0839 -0.0488  0.2461
 9384SOL    HW134114   5.343   3.523   6.440  0.8137  0.7687 -1.2319
 9384SOL    HW234115   5.344   3.670   6.478  2.1494  0.7447 -1.1276
 9385SOL     OW34116   0.458   5.323   9.150 -0.2276 -0.2916 -0.4219
 9385SOL    HW134117   0.421   5.401   9.194  0.2613  0.7260 -1.7598
 9385SOL    HW234118   0.539   5.354   9.111  1.0983 -2.0258  0.8035
 9386SOL     OW34119   6.690   2.833   0.545  0.2340 -0.2960  0.3830
 9386SOL    HW134120   6.694   2.761   0.481  1.0642 -0.2820  0.4106
 9386SOL    HW234121   6.605   2.875   0.529  0.8202  0.2961 -1.3499
 9387SOL     OW34122   7.860   0.817   7.781 -0.2521 -0.7132  0.4927
 9387SOL    HW134123   7.898   0.845   7.864  0.1996  0.6054 -0.1302
 9387SOL    HW234124   7.775   0.861   7.777  0.2302  0.2112 -0.2477
 9388SOL     OW34125   8.662   0.601   0.744  0.3067 -0.0959 -0.1446
 9388SOL    HW134126   8.684   0.618   0.836 -0.2407 -2.0390  0.3808
 9388SOL    HW234127   8.747   0.591   0.701  0.5668 -0.5656  0.4513
 9389SOL     OW34128   5.593   7.879   8.915 -0.0057 -0.0634  0.2892
 9389SOL    HW134129   5.682   7.853   8.890  0.3605  0.4370  1.0396
 9389SOL    HW234130   5.562   7.807   8.970 -0.3550 -0.5920 -0.5829
 9390SOL     OW34131   1.045   1.440   3.641 -0.1145  1.0042 -0.4843
 9390SOL    HW134132   1.026   1.348   3.660  1.0777  1.1006  1.5290
 9390SOL    HW234133   1.060   1.443   3.547 -0.6974 -0.7569 -0.6676
 9391SOL     OW34134   4.389   1.804   4.554  0.1554 -0.2051 -0.0639
 9391SOL    HW134135   4.471   1.763   4.583 -0.2145 -0.2552  0.9530
 9391SOL    HW234136   4.342   1.734   4.510  1.1223  0.1036 -1.6847
 9392SOL     OW34137   5.353   3.429   0.189 -0.6110 -0.2726 -0.2384
 9392SOL    HW134138   5.413   3.365   0.226  0.3379 -0.9805 -2.7761
 9392SOL    HW234139   5.404   3.510   0.184 -0.8816 -0.0587  0.3522
 9393SOL     OW34140   5.503   7.204   1.173 -0.1501  0.4445 -0.2269
 9393SOL    HW134141   5.570   7.244   1.230  1.6264 -1.0414 -1.1636
 9393SOL    HW234142   5.531   7.226   1.084 -1.4574  0.5646 -0.6269
 9394SOL     OW34143   1.245   9.229   4.951  0.5279  0.1493  0.2196
 9394SOL    HW134144   1.163   9.186   4.929  0.6202 -0.7004  1.4635
 9394SOL    HW234145   1.270   9.275   4.871  0.1996 -1.7602 -1.0515
 9395SOL     OW34146   8.267   6.415   1.535  0.1329  0.6303 -0.1945
 9395SOL    HW134147   8.287   6.420   1.628 -0.7291 -0.0040  0.0342
 9395SOL    HW234148   8.321   6.484   1.496  2.3901 -0.6738  0.4098
 9396SOL     OW34149   0.638   7.507   8.064 -0.0064 -0.0707 -0.3876
 9396SOL    HW134150   0.702   7.575   8.087 -0.7491  0.3078  0.6648
 9396SOL    HW234151   0.691   7.429   8.046  0.7222 -0.3198  2.3608
 9397SOL     OW34152   3.584   7.104   3.623  0.9689 -0.0658  0.0976
 9397SOL    HW134153   3.596   7.171   3.556 -1.5948  0.3843 -0.0241
 9397SOL    HW234154   3.489   7.099   3.634  1.2585 -1.1421  2.6971
 9398SOL     OW34155   0.013   8.773   9.038  0.2010  0.4836  0.4055
 9398SOL    HW134156   0.068   8.734   8.969  0.4423 -0.7800  1.2594
 9398SOL    HW234157  -0.071   8.728   9.029  0.5531 -0.4426  1.5505
 9399SOL     OW34158   3.322   7.144   1.491  0.0333 -0.1433 -0.3183
 9399SOL    HW134159   3.311   7.206   1.564 -2.3287  1.3475 -1.8118
 9399SOL    HW234160   3.269   7.068   1.516  0.6519 -0.3798  0.2845
 9400SOL     OW34161   7.391   0.048   5.285 -0.2526 -0.0730 -0.3892
 9400SOL    HW134162   7.458   0.093   5.338 -0.3462 -1.3834  0.9040
 9400SOL    HW234163   7.324   0.114   5.270  0.0719  0.5113  0.6249
 9401SOL     OW34164   3.662   0.081   7.476  0.7508 -0.0996 -0.2706
 9401SOL    HW134165   3.705   0.019   7.536  1.0774  0.0698 -0.3247
 9401SOL    HW234166   3.608   0.026   7.420  1.3316 -0.3843 -0.5692
 9402SOL     OW34167   3.187   3.201   8.015  0.1421 -0.1413  0.2568
 9402SOL    HW134168   3.147   3.171   7.934 -2.3771 -0.2484  1.4671
 9402SOL    HW234169   3.203   3.121   8.065  1.1294 -0.0308  0.1359
 9403SOL     OW34170   5.722   4.110   1.652  0.3521 -0.1718 -0.0864
 9403SOL    HW134171   5.784   4.135   1.720  0.5307  1.3148 -0.7648
 9403SOL    HW234172   5.636   4.130   1.689  0.3133 -1.2311  0.4397
 9404SOL     OW34173   1.308   4.181   2.321 -0.3325 -0.4458 -0.3387
 9404SOL    HW134174   1.218   4.215   2.321 -0.3259 -0.4039  0.5320
 9404SOL    HW234175   1.361   4.251   2.283 -0.2425  0.7833  1.8763
 9405SOL     OW34176   5.893   0.860   3.184 -0.0995  0.1098 -0.2262
 9405SOL    HW134177   5.849   0.829   3.263 -0.5969 -0.0230 -0.5473
 9405SOL    HW234178   5.946   0.934   3.213  2.0208 -1.6654  0.7863
 9406SOL     OW34179   8.151   3.514   6.896 -0.4575 -0.4836  0.3423
 9406SOL    HW134180   8.170   3.421   6.903 -3.3070 -1.3213 -1.3370
 9406SOL    HW234181   8.056   3.518   6.885 -0.2086  2.4606 -1.7986
 9407SOL     OW34182   1.287   8.410   3.328 -0.5263 -0.0580 -0.3070
 9407SOL    HW134183   1.275   8.374   3.416  2.9134 -1.8986 -0.4218
 9407SOL    HW234184   1.225   8.362   3.274  0.0184 -1.7987  0.5301
 9408SOL     OW34185   1.632   3.246   6.872 -0.4738  0.1933 -0.1426
 9408SOL    HW134186   1.675   3.197   6.942  0.5746  2.1473  0.6491
 9408SOL    HW234187   1.544   3.208   6.867 -0.0546 -1.0312  1.1348
 9409SOL     OW34188   1.722   7.325   7.588  0.8778 -0.1105 -0.1080
 9409SOL    HW134189   1.712   7.396   7.525 -0.1718 -1.5417 -1.6598
 9409SOL    HW234190   1.816   7.321   7.604  1.3950 -0.5469 -2.7279
 9410SOL     OW34191   3.521   6.029   7.121 -0.3033 -0.3747 -0.2523
 9410SOL    HW134192   3.519   6.044   7.216  1.2136  1.8348 -0.4786
 9410SOL    HW234193   3.433   6.053   7.091 -0.4288  0.1344  0.4802
 9411SOL     OW34194   3.881   0.836   1.916 -0.3245 -0.4143  0.1549
 9411SOL    HW134195   3.798   0.880   1.898  0.3101  0.9344  0.3783
 9411SOL    HW234196   3.914   0.879   1.994  1.5468  0.5139 -1.0782
 9412SOL     OW34197   2.989   5.181   1.131 -0.1651  0.1226 -0.1307
 9412SOL    HW134198   2.931   5.257   1.136  0.6553  0.6761  2.1238
 9412SOL    HW234199   2.979   5.138   1.216  2.3516  0.0020  0.1637
 9413SOL     OW34200   2.070   4.608   3.894 -0.2346  0.5418 -0.4801
 9413SOL    HW134201   2.082   4.552   3.970 -1.4008 -3.2255 -2.7879
 9413SOL    HW234202   1.994   4.662   3.916 -0.9171 -0.8750  0.8554
 9414SOL     OW34203   0.388   4.306   2.549  0.4061 -0.2820 -0.3592
 9414SOL    HW134204   0.330   4.322   2.624  0.7077  0.8175 -0.3448
 9414SOL    HW234205   0.330   4.307   2.473  0.1050 -1.3571 -0.1575
 9415SOL     OW34206   2.041   7.617   8.578  0.5206  0.0927  0.0791
 9415SOL    HW134207   2.129   7.582   8.590  0.4420 -0.0998  0.1007
 9415SOL    HW234208   2.025   7.609   8.484 -0.0262 -1.2278  0.2534
 9416SOL     OW34209   6.963   6.913   1.610  0.3778  0.1357 -0.4457
 9416SOL    HW134210   6.897   6.960   1.660 -1.8840 -0.6373 -2.5142
 9416SOL    HW234211   6.988   6.839   1.666  2.3477  2.3909  1.8960
 9417SOL     OW34212   2.815   7.952   1.912  0.6835 -0.0819 -0.2028
 9417SOL    HW134213   2.764   7.982   1.987 -0.0670 -0.6919 -0.4521
 9417SOL    HW234214   2.898   7.998   1.920  0.0853  0.9593  0.1956
 9418SOL     OW34215   1.674   6.218   1.856  0.8506  0.1901 -0.5281
 9418SOL    HW134216   1.768   6.219   1.873  1.4671  2.9912 -3.1476
 9418SOL    HW234217   1.651   6.311   1.848 -2.7785 -0.2073  2.5830
 9419SOL     OW34218   7.469   8.766   0.149 -0.1843 -0.3944 -0.2227
 9419SOL    HW134219   7.395   8.826   0.155  0.7405  0.7061  0.8265
 9419SOL    HW234220   7.536   8.815   0.101  0.3010 -0.8988 -0.0720
 9420SOL     OW34221   4.939   6.523   2.173 -0.0996  0.1168 -0.3341
 9420SOL    HW134222   4.944   6.598   2.114 -0.8958 -0.6430 -1.4341
 9420SOL    HW234223   4.947   6.447   2.115  0.8460 -0.6528  0.7692
 9421SOL     OW34224   7.941   2.013   1.073 -0.5277 -0.2291  0.4972
 9421SOL    HW134225   7.872   2.079   1.085 -0.8765 -0.2623 -1.1023
 9421SOL    HW234226   7.905   1.953   1.008  0.5784 -0.8877  0.4743
 9422SOL     OW34227   8.539   0.327   4.326 -0.1749 -0.0988 -0.1001
 9422SOL    HW134228   8.594   0.384   4.273  0.8484  1.7792  2.7469
 9422SOL    HW234229   8.541   0.243   4.281  1.7150  0.9996 -2.2549
 9423SOL     OW34230   7.430   6.648   5.762 -0.0455 -0.0486 -0.0036
 9423SOL    HW134231   7.358   6.607   5.714 -0.0612 -1.5156  1.1902
 9423SOL    HW234232   7.407   6.636   5.854  0.7505  1.2838  0.3931
 9424SOL     OW34233   1.988   2.432   1.974  0.1177  0.0334  0.3059
 9424SOL    HW134234   1.984   2.493   2.048 -0.8311  0.2778  0.0573
 9424SOL    HW234235   2.082   2.412   1.965  0.2064 -0.5202  1.9938
 9425SOL     OW34236   7.050   4.752   1.785 -0.4822  0.0287  0.5449
 9425SOL    HW134237   7.110   4.681   1.763 -0.6819 -0.1905  0.7016
 9425SOL    HW234238   7.017   4.729   1.871  0.9153  1.2883  1.4690
 9426SOL     OW34239   0.833   1.551   8.024  0.0769 -0.2248 -0.3094
 9426SOL    HW134240   0.879   1.634   8.014 -0.3478 -0.1495 -1.7710
 9426SOL    HW234241   0.761   1.555   7.962 -1.6249 -0.5642  1.5338
 9427SOL     OW34242   0.916   3.235   1.953  0.1413 -0.1548  0.1923
 9427SOL    HW134243   0.862   3.306   1.988 -1.2265 -0.4120 -1.3001
 9427SOL    HW234244   1.004   3.252   1.988 -0.1559  2.2229 -0.0657
 9428SOL     OW34245   6.651   0.087   4.269  0.2247 -0.5684  0.1092
 9428SOL    HW134246   6.637   0.010   4.324  1.2260 -1.4383 -0.8072
 9428SOL    HW234247   6.692   0.151   4.328 -1.0680 -0.5062  1.0056
 9429SOL     OW34248   6.738   1.295   7.251  0.0154 -0.4653 -0.3629
 9429SOL    HW134249   6.729   1.200   7.256  1.8717 -0.6366  0.7534
 9429SOL    HW234250   6.800   1.309   7.179 -0.4572 -0.0723 -0.6997
 9430SOL     OW34251   5.062   2.631   1.497  0.4735 -0.3802 -0.0017
 9430SOL    HW134252   5.007   2.708   1.510 -0.8347 -1.4236  0.8970
 9430SOL    HW234253   5.148   2.666   1.475 -0.2038  1.3179 -0.0504
 9431SOL     OW34254   1.303   1.257   2.867 -0.2188  0.0291 -0.4835
 9431SOL    HW134255   1.256   1.331   2.905 -1.0524 -0.5611 -0.3300
 9431SOL    HW234256   1.321   1.284   2.777  0.4149  0.8294 -0.1231
 9432SOL     OW34257   4.212   8.096   3.810  0.1100 -0.0416 -0.0891
 9432SOL    HW134258   4.157   8.174   3.821 -0.1709 -0.3845  1.0089
 9432SOL    HW234259   4.190   8.040   3.884  1.9218 -0.1983  0.3747
 9433SOL     OW34260   2.809   4.723   4.200 -0.0175 -0.3811 -0.4965
 9433SOL    HW134261   2.850   4.637   4.189  1.0467  0.1063 -0.5249
 9433SOL    HW234262   2.841   4.754   4.284 -1.5518 -0.6075  0.2010
 9434SOL     OW34263   0.417   8.484   3.083  0.0510  0.0310  0.6910
 9434SOL    HW134264   0.387   8.417   3.022  1.7767 -0.6520  0.5345
 9434SOL    HW234265   0.355   8.482   3.155 -0.5718 -0.9142  0.1403
 9435SOL     OW34266   4.336   8.729   0.614 -0.5180 -0.4405 -0.8991
 9435SOL    HW134267   4.374   8.648   0.648 -0.9556  0.1304  1.0792
 9435SOL    HW234268   4.334   8.788   0.690 -0.5260  1.3083 -2.2026
 9436SOL     OW34269   6.836   3.850   0.159  0.6662 -0.0611  0.0030
 9436SOL    HW134270   6.779   3.804   0.219 -0.8331  0.5320 -0.9073
 9436SOL    HW234271   6.820   3.943   0.176  2.5801  0.1576  0.8355
 9437SOL     OW34272   1.440   5.206   0.378 -0.4228  0.3032 -0.0207
 9437SOL    HW134273   1.459   5.273   0.313 -1.6116 -1.1356 -1.9951
 9437SOL    HW234274   1.522   5.194   0.426 -0.0225  2.6820 -0.0006
 9438SOL     OW34275   1.576   0.143   7.834  0.3164  0.1210 -0.5245
 9438SOL    HW134276   1.571   0.212   7.900  0.0911  0.7614 -1.1857
 9438SOL    HW234277   1.498   0.090   7.847 -0.4582  1.0678 -1.1411
 9439SOL     OW34278   5.001   0.937   3.849 -0.0040 -0.4707  0.1363
 9439SOL    HW134279   5.046   0.869   3.898  0.2287  0.1290  0.7666
 9439SOL    HW234280   5.068   1.003   3.831  0.3805 -1.4438 -2.5469
 9440SOL     OW34281   4.867   1.454   2.791 -0.5760 -0.3268 -0.2222
 9440SOL    HW134282   4.856   1.546   2.767  0.6924 -0.1713 -0.2402
 9440SOL    HW234283   4.942   1.424   2.741 -0.8030 -1.3055  0.0009
 9441SOL     OW34284   7.967   4.410   2.209 -0.1794  0.1053  0.5052
 9441SOL    HW134285   7.998   4.497   2.183  2.5696 -0.9206 -0.0431
 9441SOL    HW234286   7.986   4.404   2.302  1.4849 -0.5267  0.1675
 9442SOL     OW34287   5.140   5.631   5.797 -0.2640  0.3535  0.1878
 9442SOL    HW134288   5.075   5.612   5.865 -0.2397 -0.4919 -0.0117
 9442SOL    HW234289   5.224   5.611   5.838 -0.2843 -0.6637 -0.2520
 9443SOL     OW34290   3.234   6.747   1.209 -0.8549 -0.1447 -0.0025
 9443SOL    HW134291   3.182   6.790   1.141 -1.1102 -1.1714 -0.4748
 9443SOL    HW234292   3.322   6.783   1.198 -0.9697 -0.0417 -0.6557
 9444SOL     OW34293   7.918   2.531   3.500  0.1865 -0.2804 -0.2636
 9444SOL    HW134294   7.959   2.567   3.421  0.3846  0.9577  0.3828
 9444SOL    HW234295   7.947   2.440   3.502  1.4002  0.0758 -0.8112
 9445SOL     OW34296   1.290   8.281   3.843 -0.4766  1.0262 -0.7352
 9445SOL    HW134297   1.297   8.203   3.787 -0.5682  0.2318  0.3347
 9445SOL    HW234298   1.254   8.348   3.785  2.3439  1.1786 -2.5198
 9446SOL     OW34299   0.093   3.325   7.209 -0.5581  0.2615 -0.0126
 9446SOL    HW134300   0.102   3.275   7.127  0.6447  1.3348 -0.5779
 9446SOL    HW234301   0.176   3.311   7.254 -0.0842  1.9315 -0.3072
 9447SOL     OW34302   0.436   3.575   3.493 -0.0229  0.3763  0.0442
 9447SOL    HW134303   0.496   3.519   3.443 -0.5332  0.7934 -1.0734
 9447SOL    HW234304   0.367   3.515   3.523 -0.1538  0.2571 -0.4762
 9448SOL     OW34305   0.279   8.834   6.016  0.0662  0.3694  0.6072
 9448SOL    HW134306   0.287   8.886   6.096 -1.5103  0.2484  0.8894
 9448SOL    HW234307   0.221   8.761   6.042  3.1095 -2.2822  0.5869
 9449SOL     OW34308   7.790   1.481   5.953  0.1769 -0.2580  0.8003
 9449SOL    HW134309   7.878   1.462   5.986  0.5729  0.8996  0.4499
 9449SOL    HW234310   7.751   1.538   6.020 -0.4894 -1.1358  1.1772
 9450SOL     OW34311   3.676   5.681   5.391 -0.2538 -0.6755 -0.3872
 9450SOL    HW134312   3.754   5.688   5.335  0.9883 -1.3659  1.1752
 9450SOL    HW234313   3.656   5.772   5.415 -0.2608 -0.4495 -1.2131
 9451SOL     OW34314   5.938   6.700   5.010 -0.2694 -0.0885 -0.0537
 9451SOL    HW134315   5.945   6.690   4.915 -1.2775  2.0399 -0.3972
 9451SOL    HW234316   5.845   6.687   5.029 -0.3679  1.1349  0.3924
 9452SOL     OW34317   6.973   5.252   6.973 -0.4651  0.1611 -0.7570
 9452SOL    HW134318   7.047   5.311   6.958  0.2543 -0.7016 -0.6442
 9452SOL    HW234319   6.997   5.201   7.050 -1.3567  0.1412 -0.4768
 9453SOL     OW34320   2.067   7.318   5.610 -0.2893  0.6170 -0.3647
 9453SOL    HW134321   2.153   7.316   5.652 -0.0146  0.0478 -0.9301
 9453SOL    HW234322   2.053   7.409   5.586 -0.2803  0.8835  0.6016
 9454SOL     OW34323   4.944   1.399   0.889  0.3554 -0.2482  0.2874
 9454SOL    HW134324   4.923   1.356   0.806 -1.8950  2.4655 -0.6855
 9454SOL    HW234325   5.004   1.338   0.932 -1.2897 -3.5293 -1.6393
 9455SOL     OW34326   6.795   2.490   6.477 -0.5149  0.2862  0.2127
 9455SOL    HW134327   6.812   2.583   6.485  0.7430 -0.0285  1.4547
 9455SOL    HW234328   6.700   2.482   6.489 -0.4332  1.2522  1.7645
 9456SOL     OW34329   8.178   9.241   2.669  0.0767 -0.3584 -0.0291
 9456SOL    HW134330   8.117   9.177   2.632 -0.4694  1.0837 -1.7384
 9456SOL    HW234331   8.135   9.325   2.658  2.2597  0.7026 -1.0918
 9457SOL     OW34332   4.771   0.147   1.821  0.5781  0.6022  0.2412
 9457SOL    HW134333   4.773   0.243   1.827  1.9021  0.5556  0.9663
 9457SOL    HW234334   4.811   0.128   1.736  0.5072  0.6849  0.1886
 9458SOL     OW34335   8.401   2.848   4.187  0.4108  0.0475  0.5584
 9458SOL    HW134336   8.409   2.896   4.269  0.7160  1.1100 -0.0656
 9458SOL    HW234337   8.491   2.835   4.158  0.2870  0.3985  0.0003
 9459SOL     OW34338   1.092   7.368   4.431  0.4826  0.2174 -0.6707
 9459SOL    HW134339   1.078   7.284   4.474  1.4316  1.3033  1.9720
 9459SOL    HW234340   1.016   7.421   4.456  0.8638  0.7638 -0.6613
 9460SOL     OW34341   0.893   4.037   5.324 -0.0882 -0.0126 -0.4230
 9460SOL    HW134342   0.939   4.120   5.308 -0.3026  0.0832 -0.5424
 9460SOL    HW234343   0.801   4.058   5.311 -0.0725 -0.5069 -1.4709
 9461SOL     OW34344   4.474   1.537   2.539 -0.1564 -0.0397 -0.8296
 9461SOL    HW134345   4.516   1.618   2.510  0.1436  0.2672  0.3830
 9461SOL    HW234346   4.546   1.475   2.550 -0.4702 -0.7643 -2.5727
 9462SOL     OW34347   7.638   0.421   5.894 -0.4014 -0.2236 -0.4290
 9462SOL    HW134348   7.711   0.371   5.857 -1.2331 -0.7552 -1.3742
 9462SOL    HW234349   7.584   0.444   5.819 -0.9296  0.6488  0.2011
 9463SOL     OW34350   1.475   9.050   3.376 -0.2982  0.1244  0.5473
 9463SOL    HW134351   1.517   8.966   3.393  0.9502  0.8822  1.3618
 9463SOL    HW234352   1.401   9.053   3.437 -1.8801 -1.3825 -1.1560
 9464SOL     OW34353   5.691   0.218   4.890 -0.7703 -0.0343 -0.0493
 9464SOL    HW134354   5.644   0.150   4.938  1.3152 -1.4001  0.1980
 9464SOL    HW234355   5.695   0.292   4.951 -0.5177 -0.7703  0.8562
 9465SOL     OW34356   8.115   1.346   4.676  0.1402 -0.4634 -0.0637
 9465SOL    HW134357   8.179   1.283   4.711  0.4628 -1.8522 -2.8829
 9465SOL    HW234358   8.035   1.295   4.666 -0.4676  0.3885  0.3580
 9466SOL     OW34359   3.350   3.276   3.089 -0.3317  0.4598  0.4283
 9466SOL    HW134360   3.353   3.360   3.043  0.8226  0.3631  0.3162
 9466SOL    HW234361   3.300   3.220   3.030  1.6120  0.1712 -1.0522
 9467SOL     OW34362   3.330   5.297   7.584  0.1056  0.6482  0.4669
 9467SOL    HW134363   3.416   5.299   7.627  0.6381  0.0075 -0.5349
 9467SOL    HW234364   3.278   5.360   7.633  1.2089  1.1997  0.9707
 9468SOL     OW34365   5.172   6.370   5.458  0.1002 -0.8298 -0.4240
 9468SOL    HW134366   5.157   6.302   5.394 -0.2664  0.1088 -1.3585
 9468SOL    HW234367   5.085   6.405   5.478  0.2313 -0.9489  0.4095
 9469SOL     OW34368   9.207   3.898   3.785  0.2461  0.3622 -0.8472
 9469SOL    HW134369   9.241   3.972   3.834 -1.7950  1.6325 -1.2462
 9469SOL    HW234370   9.137   3.863   3.841 -1.8964  1.6347 -2.5836
 9470SOL     OW34371   1.490   6.055   6.099  0.2257  0.1688  0.5965
 9470SOL    HW134372   1.564   6.006   6.135  1.7263  3.2950  2.0914
 9470SOL    HW234373   1.509   6.063   6.005  0.4294 -1.1622  0.5020
 9471SOL     OW34374   9.107   9.197   8.967  0.3498  0.1630 -0.0750
 9471SOL    HW134375   9.179   9.134   8.976  1.3540  1.5196  2.2580
 9471SOL    HW234376   9.079   9.188   8.876  2.8034 -1.1331 -0.8049
 9472SOL     OW34377   7.647   6.828   5.709  0.0322 -0.6025 -0.1942
 9472SOL    HW134378   7.637   6.829   5.614 -1.2893  3.1703 -0.2041
 9472SOL    HW234379   7.571   6.779   5.740  1.1354 -2.9813 -0.9886
 9473SOL     OW34380   6.246   2.805   5.213  0.2781 -0.2828  0.2091
 9473SOL    HW134381   6.283   2.819   5.300  1.2968 -0.1747 -0.2273
 9473SOL    HW234382   6.157   2.841   5.218  0.6259  0.4911  0.9496
 9474SOL     OW34383   0.908   3.645   6.798 -0.1057 -0.0372  0.0339
 9474SOL    HW134384   0.854   3.683   6.867  0.6080  0.4533  0.3427
 9474SOL    HW234385   0.998   3.666   6.824  0.2306 -0.7563 -0.5065
 9475SOL     OW34386   7.463   4.308   3.516  0.6304 -0.2457 -0.4460
 9475SOL    HW134387   7.488   4.220   3.487  0.0682 -0.3611 -0.5855
 9475SOL    HW234388   7.523   4.327   3.589  0.4904 -0.9093 -0.1475
 9476SOL     OW34389   5.476   1.726   1.025  0.1601 -0.0990 -0.2406
 9476SOL    HW134390   5.394   1.763   0.993 -0.3746 -0.5692  0.5350
 9476SOL    HW234391   5.493   1.774   1.107 -0.4035 -1.3362  0.6337
 9477SOL     OW34392   1.019   5.991   4.964 -0.0497 -0.1661 -0.1939
 9477SOL    HW134393   0.984   6.034   4.886  1.7503  2.0893  0.1399
 9477SOL    HW234394   1.002   6.052   5.035 -1.0438 -1.8835  1.1145
 9478SOL     OW34395   7.003   6.198   4.560  0.2083 -0.0080 -0.0982
 9478SOL    HW134396   7.001   6.124   4.500 -0.3220 -1.4031  1.5340
 9478SOL    HW234397   7.096   6.213   4.577  0.3731  0.5400 -1.3722
 9479SOL     OW34398   0.543   6.936   4.360  0.3508 -0.2513  0.1716
 9479SOL    HW134399   0.450   6.941   4.383 -0.2717 -1.5566 -1.7896
 9479SOL    HW234400   0.543   6.931   4.264  2.4137 -1.0544  0.1759
 9480SOL     OW34401   8.253   8.356   0.397  0.3368 -0.0579  0.0417
 9480SOL    HW134402   8.255   8.272   0.443 -0.8451 -1.2186 -1.8902
 9480SOL    HW234403   8.303   8.340   0.317  1.6011  1.6509  0.4208
 9481SOL     OW34404   4.509   1.412   1.112  0.1929  0.1387 -0.0336
 9481SOL    HW134405   4.421   1.375   1.109  0.7105 -1.1974  0.3323
 9481SOL    HW234406   4.515   1.467   1.034 -0.7548 -0.2482 -0.3921
 9482SOL     OW34407   1.240   5.508   5.614  0.2541 -0.2019 -0.1597
 9482SOL    HW134408   1.221   5.419   5.584  1.6387 -0.2706 -0.9208
 9482SOL    HW234409   1.321   5.499   5.663  0.5128  0.6726 -0.4192
 9483SOL     OW34410   6.703   7.650   3.904 -0.4982 -0.0162  0.2404
 9483SOL    HW134411   6.790   7.688   3.892  0.3644 -1.4438  1.6568
 9483SOL    HW234412   6.695   7.636   3.998 -2.9960  1.6524  0.3716
 9484SOL     OW34413   4.884   0.118   8.519 -0.0923  0.1085 -0.0519
 9484SOL    HW134414   4.962   0.173   8.527 -0.0094 -0.0142 -0.0010
 9484SOL    HW234415   4.907   0.055   8.451 -0.2531  0.2477 -0.2346
 9485SOL     OW34416   4.290   3.242   9.003  0.1206  0.3412 -0.0226
 9485SOL    HW134417   4.195   3.247   9.016  0.1231  0.6425 -0.1193
 9485SOL    HW234418   4.302   3.262   8.910  0.2071 -0.5448 -0.2145
 9486SOL     OW34419   4.345   5.776   4.217  0.1536 -0.2239  0.2655
 9486SOL    HW134420   4.394   5.789   4.298  0.4292 -1.0873  0.2433
 9486SOL    HW234421   4.297   5.694   4.230 -0.3840  0.0133 -0.1616
 9487SOL     OW34422   3.731   8.843   8.642 -0.1213 -0.0029 -0.2046
 9487SOL    HW134423   3.826   8.836   8.646 -0.1144 -0.0355 -0.4559
 9487SOL    HW234424   3.711   8.926   8.686 -0.0795 -0.6897  1.1884
 9488SOL     OW34425   9.195   8.220   9.333 -0.9408 -0.3948 -0.0507
 9488SOL    HW134426   9.228   8.293   9.281 -1.3066 -0.7842 -0.8353
 9488SOL    HW234427   9.265   8.155   9.331 -1.2566 -0.7166 -0.6830
 9489SOL     OW34428   8.436   7.787   7.423  0.3234 -0.5478 -0.0232
 9489SOL    HW134429   8.488   7.709   7.408  4.1071  1.4906  1.1391
 9489SOL    HW234430   8.473   7.826   7.502 -0.4981  3.0068 -1.2037
 9490SOL     OW34431   1.543   8.171   3.173  0.0789 -0.2817  0.0887
 9490SOL    HW134432   1.449   8.167   3.155  0.0254 -0.2713  0.3599
 9490SOL    HW234433   1.580   8.098   3.124 -0.1048 -0.4392  0.1832
 9491SOL     OW34434   5.958   8.842   6.896 -0.1712  0.3658 -0.6088
 9491SOL    HW134435   5.979   8.918   6.951  0.7820 -0.4788  0.2406
 9491SOL    HW234436   6.003   8.860   6.814  0.1414  0.6791 -0.3746
 9492SOL     OW34437   5.777   6.494   0.990 -0.3432 -0.6276  0.2625
 9492SOL    HW134438   5.713   6.563   1.007 -1.4159 -1.4954 -0.1498
 9492SOL    HW234439   5.729   6.428   0.941  1.2802 -0.5573 -1.5915
 9493SOL     OW34440   7.124   9.077   1.013  0.1282  0.3204 -0.2363
 9493SOL    HW134441   7.154   8.988   1.033 -1.9747 -0.2846  0.4500
 9493SOL    HW234442   7.164   9.096   0.928  0.8505 -1.1710 -0.2742
 9494SOL     OW34443   6.594   3.762   4.195  0.2275  0.9054  0.2159
 9494SOL    HW134444   6.587   3.813   4.275  0.9507  0.0331  0.8615
 9494SOL    HW234445   6.689   3.756   4.179  0.0669  1.9408 -1.2876
 9495SOL     OW34446   1.170   0.093   3.260  0.8402  0.2650 -0.2526
 9495SOL    HW134447   1.195   0.057   3.345 -0.1956 -0.0102 -0.0554
 9495SOL    HW234448   1.142   0.183   3.280 -2.3602 -0.7202  0.2445
 9496SOL     OW34449   7.891   1.800   6.081  0.0773  0.0937  0.5256
 9496SOL    HW134450   7.905   1.832   5.992  1.0223 -2.3065 -0.2586
 9496SOL    HW234451   7.798   1.779   6.085  0.0465  0.1455  0.0908
 9497SOL     OW34452   8.573   6.521   4.265  0.0846 -0.2676  0.4443
 9497SOL    HW134453   8.651   6.573   4.248  0.5756 -1.6362 -1.8449
 9497SOL    HW234454   8.568   6.516   4.361  0.7453  2.7889  0.7316
 9498SOL     OW34455   8.294   3.242   4.097  0.0876  0.3913  0.2467
 9498SOL    HW134456   8.309   3.328   4.137  0.8274  0.3632  0.0472
 9498SOL    HW234457   8.262   3.262   4.009  1.6465  0.5024 -0.3312
 9499SOL     OW34458   4.243   5.605   5.243 -0.1828 -0.0366  0.1598
 9499SOL    HW134459   4.157   5.646   5.241  0.1545  0.6810 -0.4049
 9499SOL    HW234460   4.293   5.651   5.176  0.4694 -0.8307  0.0812
 9500SOL     OW34461   5.500   8.621   6.950 -0.0356 -0.7848 -0.0774
 9500SOL    HW134462   5.567   8.684   6.923 -0.3212 -0.1350  0.6695
 9500SOL    HW234463   5.547   8.539   6.964  0.6415 -0.2933  0.6024
 9501SOL     OW34464   5.218   3.688   4.092  0.1540 -0.2872 -0.1839
 9501SOL    HW134465   5.249   3.660   4.006 -0.2039 -0.6470 -0.2017
 9501SOL    HW234466   5.198   3.607   4.138 -0.6007 -0.0791 -0.1199
 9502SOL     OW34467   4.904   5.382   2.362  0.2414  0.4718  0.3967
 9502SOL    HW134468   4.810   5.400   2.360  0.3385  1.0926  1.0689
 9502SOL    HW234469   4.911   5.287   2.354 -0.5640  0.1332  2.8663
 9503SOL     OW34470   8.043   0.945   5.159  0.1655 -0.0648 -0.3640
 9503SOL    HW134471   7.987   0.875   5.193  0.3296  0.0208  0.0917
 9503SOL    HW234472   7.983   1.005   5.115 -0.1091  0.0563  0.1678
 9504SOL     OW34473   6.799   0.400   4.492  0.2393  0.2487 -0.0633
 9504SOL    HW134474   6.892   0.414   4.472  0.9372 -0.3201  2.4892
 9504SOL    HW234475   6.753   0.456   4.429  2.2489  0.1138 -1.7742
 9505SOL     OW34476   0.771   8.687   5.524  0.2049  0.3298  0.0099
 9505SOL    HW134477   0.797   8.776   5.499 -3.2655  1.4659 -0.0463
 9505SOL    HW234478   0.721   8.654   5.449 -1.5505 -0.2451  1.3606
 9506SOL     OW34479   4.185   6.399   5.912  1.2256 -0.6655 -0.0129
 9506SOL    HW134480   4.189   6.493   5.891  1.6615 -0.7258 -0.1934
 9506SOL    HW234481   4.239   6.390   5.990  0.1368 -0.5550  0.7834
 9507SOL     OW34482   8.944   8.935   0.335  0.5441  0.2326 -0.6385
 9507SOL    HW134483   9.029   8.968   0.363  1.5907 -0.5409 -2.6919
 9507SOL    HW234484   8.960   8.896   0.250 -1.3849 -2.1829 -0.0168
 9508SOL     OW34485   2.149   7.454   0.993  0.1578  0.0238 -0.4307
 9508SOL    HW134486   2.222   7.468   0.934 -0.6053  0.7629 -1.2259
 9508SOL    HW234487   2.130   7.360   0.987  2.0663 -0.5158  1.0487
 9509SOL     OW34488   2.094   7.147   5.997 -0.6513  0.4495 -0.3431
 9509SOL    HW134489   2.029   7.123   5.931 -1.3231 -0.8512  0.7385
 9509SOL    HW234490   2.137   7.065   6.019  1.2260  1.2601 -0.8639
 9510SOL     OW34491   0.578   5.798   5.522 -0.4264  0.3245 -0.0828
 9510SOL    HW134492   0.582   5.706   5.550 -1.7540  0.9465  2.5127
 9510SOL    HW234493   0.656   5.810   5.469  0.2756 -2.0704  0.2727
 9511SOL     OW34494   4.771   9.260   1.566 -0.2641  0.1973  0.6839
 9511SOL    HW134495   4.822   9.339   1.552  0.2127  0.2910  2.6367
 9511SOL    HW234496   4.775   9.213   1.482  2.1571  0.6899  0.4523
 9512SOL     OW34497   0.306   3.902   5.708  0.1670  0.1008 -0.5911
 9512SOL    HW134498   0.360   3.833   5.670 -0.4396 -0.7391  0.0320
 9512SOL    HW234499   0.272   3.950   5.633  0.3532 -0.4681 -1.0475
 9513SOL     OW34500   4.348   8.328   1.928  0.0939  0.3215  0.4169
 9513SOL    HW134501   4.435   8.328   1.887  0.5841 -1.5888  1.3854
 9513SOL    HW234502   4.293   8.375   1.865  0.7936 -2.4328 -2.5532
 9514SOL     OW34503   6.076   5.605   7.270  0.0771  0.4229  0.4902
 9514SOL    HW134504   6.088   5.644   7.184 -1.9234 -0.8574 -0.4435
 9514SOL    HW234505   6.039   5.675   7.324  1.1626  1.1769  0.2803
 9515SOL     OW34506   1.320   6.802   5.574 -0.2578 -0.2250 -0.0290
 9515SOL    HW134507   1.314   6.845   5.489  0.0779  0.1320  0.1220
 9515SOL    HW234508   1.242   6.832   5.621 -0.1481  0.0334 -0.0092
 9516SOL     OW34509   6.641   3.359   5.827  0.2337 -0.8277 -0.2172
 9516SOL    HW134510   6.627   3.308   5.747  1.9587  0.8182 -1.6495
 9516SOL    HW234511   6.697   3.303   5.881 -0.0672 -1.5279 -0.6139
 9517SOL     OW34512   6.507   6.885   6.770  0.2678 -0.0482 -0.4165
 9517SOL    HW134513   6.490   6.822   6.840  0.1920 -0.0263 -0.4150
 9517SOL    HW234514   6.552   6.833   6.702  3.2304  0.5607  0.9043
 9518SOL     OW34515   2.249   6.068   8.939  0.1564 -0.3418  0.5682
 9518SOL    HW134516   2.175   6.125   8.915 -0.2126 -0.1614  2.0300
 9518SOL    HW234517   2.282   6.105   9.021  1.7653 -0.5410  0.0479
 9519SOL     OW34518   3.046   3.476   0.265 -0.3919 -0.2148 -0.2750
 9519SOL    HW134519   3.067   3.559   0.222 -1.0543  1.1687  1.8693
 9519SOL    HW234520   2.955   3.460   0.243 -0.6908  0.4214  0.4360
 9520SOL     OW34521   1.320   8.837   0.240  0.5792 -0.3700 -0.6133
 9520SOL    HW134522   1.379   8.870   0.173 -0.3142  0.4704 -1.0095
 9520SOL    HW234523   1.308   8.745   0.218  0.5231 -0.1684 -1.4414
 9521SOL     OW34524   2.817   7.410   0.127  0.0112  0.2131  0.4712
 9521SOL    HW134525   2.750   7.373   0.185  0.1835  0.7220  1.0051
 9521SOL    HW234526   2.776   7.411   0.040 -0.3820 -0.2213  0.6484
 9522SOL     OW34527   3.408   8.829   3.203 -0.3979  0.1306 -0.2559
 9522SOL    HW134528   3.410   8.795   3.114 -0.9057  1.6603 -0.8873
 9522SOL    HW234529   3.499   8.823   3.234 -0.1871 -0.2334 -0.9495
 9523SOL     OW34530   0.078   6.599   8.695 -0.0370 -0.5959 -0.6571
 9523SOL    HW134531   0.030   6.543   8.634  0.3982 -0.1238 -1.4418
 9523SOL    HW234532   0.068   6.555   8.780  0.9151 -2.2938 -1.3679
 9524SOL     OW34533   2.413   8.931   5.421  0.0116 -0.1637  0.0464
 9524SOL    HW134534   2.393   8.916   5.328 -2.4162  0.5599  0.3799
 9524SOL    HW234535   2.488   8.990   5.419 -2.1239  2.8317 -1.6817
 9525SOL     OW34536   8.339   0.416   2.056 -0.2486  0.1118 -0.1820
 9525SOL    HW134537   8.264   0.384   2.006 -0.6056  2.2554 -1.1557
 9525SOL    HW234538   8.396   0.340   2.064 -1.8685 -1.2263 -0.6502
 9526SOL     OW34539   0.128   8.667   8.789 -0.3665  0.0424  0.2105
 9526SOL    HW134540   0.186   8.682   8.714  1.1855 -3.0996  0.6512
 9526SOL    HW234541   0.040   8.668   8.751  0.2499  0.3174 -1.2970
 9527SOL     OW34542   5.707   8.268   6.236  0.2273 -0.4772  0.8669
 9527SOL    HW134543   5.788   8.256   6.186  0.8373 -2.7989  2.2522
 9527SOL    HW234544   5.642   8.294   6.171  1.7228 -0.0640 -0.5419
 9528SOL     OW34545   6.164   8.156   3.279 -0.0792 -0.7574  0.0279
 9528SOL    HW134546   6.245   8.166   3.328 -0.5264  0.6609  0.5313
 9528SOL    HW234547   6.098   8.133   3.345 -0.0155 -2.4576 -0.4530
 9529SOL     OW34548   2.746   7.794   8.220  0.3983  0.5252 -0.0509
 9529SOL    HW134549   2.800   7.862   8.260  1.0142 -0.7603  1.4481
 9529SOL    HW234550   2.766   7.715   8.271 -1.2436 -0.4915 -0.8829
 9530SOL     OW34551   8.635   0.901   6.218  0.4320 -0.1359 -0.4354
 9530SOL    HW134552   8.575   0.964   6.177  1.1140  0.4009 -0.6302
 9530SOL    HW234553   8.663   0.944   6.299 -0.0313 -0.7079  0.0278
 9531SOL     OW34554   2.580   5.904   4.101 -0.0209  0.6174 -0.4283
 9531SOL    HW134555   2.634   5.867   4.171  1.0268 -0.8831 -1.9700
 9531SOL    HW234556   2.576   5.835   4.035 -3.1489  0.9892 -0.7717
 9532SOL     OW34557   1.932   1.770   8.816  0.1922 -0.5224  0.6500
 9532SOL    HW134558   1.863   1.769   8.883 -3.7458 -0.0875 -2.9934
 9532SOL    HW234559   1.928   1.857   8.778  0.4358 -1.5118 -1.8178
 9533SOL     OW34560   4.624   2.616   7.069 -0.1229  0.3599 -0.0955
 9533SOL    HW134561   4.601   2.693   7.122 -1.3060  0.2655 -0.4309
 9533SOL    HW234562   4.596   2.541   7.121 -0.9421  0.2521 -0.6638
 9534SOL     OW34563   3.315   2.807   4.755  0.2629 -0.1546 -0.4489
 9534SOL    HW134564   3.245   2.805   4.820  0.2152  1.1906 -0.4328
 9534SOL    HW234565   3.393   2.779   4.803 -0.0095 -0.3549 -0.1200
 9535SOL     OW34566   0.902   7.990   6.328  0.0039  0.0042 -0.4849
 9535SOL    HW134567   0.915   7.958   6.239  0.3525  0.2213 -0.5178
 9535SOL    HW234568   0.902   7.912   6.383 -0.8977 -0.1850 -0.7498
 9536SOL     OW34569   7.929   0.771   8.326  0.0544  0.0157 -0.3020
 9536SOL    HW134570   8.009   0.720   8.310  0.5554  0.3672  0.9442
 9536SOL    HW234571   7.868   0.709   8.365  0.3797  0.1665  0.4617
 9537SOL     OW34572   7.448   7.234   6.899  0.0279 -0.3565 -0.1634
 9537SOL    HW134573   7.436   7.329   6.903 -0.7892 -0.3526 -1.9463
 9537SOL    HW234574   7.489   7.212   6.983 -1.7511  1.2746  1.2387
 9538SOL     OW34575   6.946   0.271   4.240  0.2608 -0.0249  0.0993
 9538SOL    HW134576   6.923   0.255   4.331 -1.7854 -0.8139 -0.4803
 9538SOL    HW234577   6.883   0.336   4.210 -0.2837 -1.0838 -1.1853
 9539SOL     OW34578   8.716   7.222   2.924  0.3203  0.6047 -0.3820
 9539SOL    HW134579   8.806   7.193   2.917 -0.0773 -1.7386  2.2548
 9539SOL    HW234580   8.683   7.180   3.004 -3.0376  1.5283 -1.0954
 9540SOL     OW34581   1.903   5.222   5.059 -0.1596 -0.1910 -0.5104
 9540SOL    HW134582   1.826   5.180   5.021  1.1695 -0.0453 -3.6489
 9540SOL    HW234583   1.903   5.310   5.022  1.9909 -0.5077 -1.4133
 9541SOL     OW34584   5.657   3.416   1.241  0.2915 -0.4935 -0.0661
 9541SOL    HW134585   5.589   3.442   1.179 -0.5829 -0.1363  1.0045
 9541SOL    HW234586   5.650   3.480   1.312  1.6751 -0.5291  0.1227
 9542SOL     OW34587   2.991   4.839   2.744  0.5522 -0.2367  0.1727
 9542SOL    HW134588   3.063   4.890   2.705 -0.2606  0.0696 -0.9861
 9542SOL    HW234589   3.035   4.766   2.788  1.5979  0.0785 -0.3067
 9543SOL     OW34590   6.046   0.454   0.341 -0.2873 -0.3017 -0.1419
 9543SOL    HW134591   5.987   0.435   0.268 -0.2481 -0.0419 -0.2409
 9543SOL    HW234592   6.052   0.549   0.343  0.1047 -0.3252 -0.1135
 9544SOL     OW34593   6.800   5.574   6.697  0.2209 -0.1564 -0.1556
 9544SOL    HW134594   6.825   5.487   6.666  1.2125  0.5166 -1.3686
 9544SOL    HW234595   6.758   5.615   6.621  0.4104  0.6767  0.1780
 9545SOL     OW34596   4.303   0.350   8.241 -0.0272 -0.0908 -0.3346
 9545SOL    HW134597   4.297   0.284   8.310 -0.6315  0.9303  0.6307
 9545SOL    HW234598   4.288   0.433   8.286  0.0902  0.6560 -1.6190
 9546SOL     OW34599   2.443   3.097   7.086  0.0898 -0.8636  0.7267
 9546SOL    HW134600   2.411   3.009   7.066 -0.6122 -0.5045  0.2412
 9546SOL    HW234601   2.383   3.156   7.041  0.7749 -0.1366  0.7320
 9547SOL     OW34602   4.041   6.626   7.839 -0.0115 -0.3908  0.4063
 9547SOL    HW134603   4.041   6.708   7.790 -1.4162  0.1566  1.2420
 9547SOL    HW234604   4.016   6.560   7.774  0.2155 -0.0124 -0.0746
 9548SOL     OW34605   6.647   2.259   0.353 -0.3675  0.2712 -0.1443
 9548SOL    HW134606   6.586   2.333   0.347 -0.2521  0.7256  2.7881
 9548SOL    HW234607   6.733   2.300   0.363 -0.2088 -0.2652  0.7350
 9549SOL     OW34608   4.527   7.286   1.996 -0.1926  0.2679  0.2864
 9549SOL    HW134609   4.468   7.210   2.002  1.4413 -1.0365  0.7055
 9549SOL    HW234610   4.607   7.256   2.039  0.5911  2.1699  0.2092
 9550SOL     OW34611   0.319   4.499   5.729 -0.0758  0.5938 -0.2185
 9550SOL    HW134612   0.388   4.564   5.715 -1.1546  1.8290 -0.0887
 9550SOL    HW234613   0.238   4.548   5.713 -0.9160 -0.8308 -0.4286
 9551SOL     OW34614   1.114   8.105   7.154  0.2701  0.0784  0.4241
 9551SOL    HW134615   1.037   8.160   7.143  0.8352  0.9527  0.7625
 9551SOL    HW234616   1.094   8.025   7.105 -1.3748 -0.2382  1.5326
 9552SOL     OW34617   0.535   8.954   4.806 -0.0249  0.3630  0.2373
 9552SOL    HW134618   0.607   8.965   4.868  0.7478  0.3591 -0.6331
 9552SOL    HW234619   0.488   8.877   4.837  0.2939  0.4237  0.8758
 9553SOL     OW34620   4.686   3.070   7.880  0.7639  0.7556 -0.5142
 9553SOL    HW134621   4.662   2.980   7.860  0.6126  0.2575  1.7158
 9553SOL    HW234622   4.610   3.121   7.851  0.9446  0.2438 -2.0005
 9554SOL     OW34623   7.419   5.391   8.704 -0.5262 -0.0590  0.8873
 9554SOL    HW134624   7.449   5.364   8.791  0.1448 -0.7510  0.4474
 9554SOL    HW234625   7.334   5.346   8.694 -1.4087  1.3174  1.8288
 9555SOL     OW34626   0.913   5.031   7.266 -0.2307  0.5279 -0.2523
 9555SOL    HW134627   0.884   5.015   7.176  0.2428  0.0815 -0.3303
 9555SOL    HW234628   0.988   5.090   7.257 -0.2911  0.6211 -0.1416
 9556SOL     OW34629   8.440   3.665   1.273 -0.4881  0.5762  0.1554
 9556SOL    HW134630   8.372   3.598   1.272  0.5842 -0.5891  1.3655
 9556SOL    HW234631   8.489   3.651   1.192 -0.3790 -0.0012  0.3154
 9557SOL     OW34632   0.049   0.903   5.314 -0.0926 -0.5425 -0.4504
 9557SOL    HW134633  -0.045   0.891   5.302 -0.0376 -0.2783 -1.1696
 9557SOL    HW234634   0.070   0.982   5.264  0.1973  0.4614  1.1795
 9558SOL     OW34635   4.072   1.346   6.504  0.3966 -0.4139 -0.0156
 9558SOL    HW134636   4.156   1.376   6.539 -0.2329 -0.8339  2.0245
 9558SOL    HW234637   4.042   1.417   6.449  1.7318  0.0650 -0.1658
 9559SOL     OW34638   8.587   4.117   7.946  0.8105  0.1329 -0.1970
 9559SOL    HW134639   8.623   4.100   7.859 -0.7090  0.1130 -0.8621
 9559SOL    HW234640   8.492   4.105   7.935  0.5866  0.1440  1.4600
 9560SOL     OW34641   1.215   3.572   3.145 -0.5287 -0.1814 -0.6287
 9560SOL    HW134642   1.183   3.619   3.068 -0.3595 -0.1078 -0.6543
 9560SOL    HW234643   1.308   3.593   3.149 -0.2323 -1.2829 -1.1966
 9561SOL     OW34644   9.341   2.190   2.056 -0.2905 -0.1377 -0.6548
 9561SOL    HW134645   9.378   2.133   1.988 -0.6908 -0.3430 -0.7051
 9561SOL    HW234646   9.246   2.186   2.041 -0.3198  0.6024 -0.7051
 9562SOL     OW34647   6.342   0.646   3.550  0.1758  0.0786  0.5501
 9562SOL    HW134648   6.255   0.657   3.513  1.1752  1.0611 -1.7073
 9562SOL    HW234649   6.366   0.556   3.529  1.0417  0.8353 -2.1748
 9563SOL     OW34650   5.855   4.501   6.858  0.5034 -0.0929 -0.8678
 9563SOL    HW134651   5.895   4.588   6.856 -0.8773  0.6766  1.2657
 9563SOL    HW234652   5.814   4.491   6.772  1.0691  1.1820 -1.2987
 9564SOL     OW34653   8.001   4.163   2.661  0.0397 -0.4865 -0.6165
 9564SOL    HW134654   7.961   4.187   2.745 -1.1437 -1.3917 -0.9043
 9564SOL    HW234655   7.972   4.231   2.600 -0.6261 -0.8479 -0.7047
 9565SOL     OW34656   7.974   1.475   1.821 -0.7602  0.0233 -0.1073
 9565SOL    HW134657   7.985   1.538   1.891  1.8863  0.9329 -1.2109
 9565SOL    HW234658   7.930   1.523   1.751  1.3341  0.8042 -0.9815
 9566SOL     OW34659   6.064   6.084   3.674 -0.2702  0.1091 -0.4015
 9566SOL    HW134660   5.988   6.072   3.616  1.0101 -0.1382 -2.1080
 9566SOL    HW234661   6.102   5.997   3.681 -0.5115  0.1021  1.0073
 9567SOL     OW34662   2.125   9.202   1.094 -0.8477 -0.3368  0.3839
 9567SOL    HW134663   2.157   9.292   1.087 -1.7906  0.1068  1.4054
 9567SOL    HW234664   2.052   9.197   1.033 -0.5643 -0.5422  0.0505
 9568SOL     OW34665   5.873   2.750   1.087 -0.1503  0.2602 -0.1272
 9568SOL    HW134666   5.824   2.709   1.158 -0.5664  1.1553  0.1092
 9568SOL    HW234667   5.952   2.696   1.078 -0.6667 -0.5696  0.1951
 9569SOL     OW34668   3.258   3.198   1.688  0.2055  0.0369  0.3553
 9569SOL    HW134669   3.248   3.230   1.599  0.5055  0.6585  0.5412
 9569SOL    HW234670   3.203   3.257   1.741  0.4921  0.0379  0.6566
 9570SOL     OW34671   8.708   2.650   2.158 -0.2020 -0.4221  0.6317
 9570SOL    HW134672   8.696   2.624   2.249 -0.7314  2.3061  1.4168
 9570SOL    HW234673   8.792   2.695   2.156 -0.2420 -0.3594 -0.2151
 9571SOL     OW34674   3.951   1.816   7.967  0.2412  0.1069  0.2737
 9571SOL    HW134675   3.873   1.866   7.990  0.4863 -0.2386  2.0578
 9571SOL    HW234676   3.999   1.807   8.050  1.0125 -1.6587 -0.3040
 9572SOL     OW34677   5.641   3.672   5.410 -0.3190 -0.4659 -0.2744
 9572SOL    HW134678   5.550   3.651   5.432 -0.6123  1.1205  0.1706
 9572SOL    HW234679   5.651   3.764   5.436  1.4140 -0.6106 -0.3125
 9573SOL     OW34680   9.228   5.631   7.902  0.2529 -0.2448 -0.5731
 9573SOL    HW134681   9.282   5.555   7.882  0.1655 -0.6246  0.5669
 9573SOL    HW234682   9.187   5.610   7.986 -1.3856  0.1970 -1.2321
 9574SOL     OW34683   8.494   0.488   1.798  0.3544  0.5250 -0.3402
 9574SOL    HW134684   8.403   0.469   1.817  0.8621 -1.0859  0.6550
 9574SOL    HW234685   8.535   0.500   1.883  1.6363 -1.7335 -0.5492
 9575SOL     OW34686   7.000   6.437   4.376 -0.1650  0.3533 -0.0373
 9575SOL    HW134687   7.025   6.373   4.443 -0.2213 -1.3082 -1.5182
 9575SOL    HW234688   6.905   6.446   4.385 -0.0401  0.9513  0.7657
 9576SOL     OW34689   8.920   9.193   6.623 -0.4368 -0.5811 -0.0388
 9576SOL    HW134690   8.979   9.264   6.600 -1.5699  1.5700  3.0299
 9576SOL    HW234691   8.977   9.118   6.640  0.8010 -0.4894 -3.0393
 9577SOL     OW34692   5.163   6.953   2.390 -0.5294  0.3835 -0.4974
 9577SOL    HW134693   5.112   7.007   2.451 -2.3848 -0.2792 -1.3945
 9577SOL    HW234694   5.240   7.006   2.371 -0.6197  1.2360  1.2598
 9578SOL     OW34695   7.297   1.380   9.271  0.2225 -0.0014 -0.3368
 9578SOL    HW134696   7.298   1.408   9.180 -1.4521 -0.4602 -0.5346
 9578SOL    HW234697   7.245   1.299   9.271  1.5727 -0.9192  0.7970
 9579SOL     OW34698   9.361   2.836   6.824  0.5883 -0.5973 -0.0656
 9579SOL    HW134699   9.310   2.914   6.847  0.5508 -0.5960 -0.1535
 9579SOL    HW234700   9.424   2.867   6.760  2.9579  0.1756  2.4594
 9580SOL     OW34701   4.850   4.389   4.565  0.4787 -0.3390 -0.6055
 9580SOL    HW134702   4.902   4.323   4.611  2.0210  1.4993  0.4568
 9580SOL    HW234703   4.835   4.458   4.631  0.6030  1.2365 -2.1541
 9581SOL     OW34704   1.118   4.436   9.092 -0.1813 -0.3032  0.2105
 9581SOL    HW134705   1.079   4.387   9.020 -0.1431 -0.5646  0.3631
 9581SOL    HW234706   1.126   4.525   9.060 -3.7238  0.5422  1.1452
 9582SOL     OW34707   3.414   5.233   8.345 -0.0521 -0.5326  0.3287
 9582SOL    HW134708   3.346   5.253   8.409  0.4934  0.6555  0.5565
 9582SOL    HW234709   3.380   5.268   8.262  1.0682  1.9026  0.7973
 9583SOL     OW34710   7.243   7.356   3.231  0.1320 -0.4850 -0.0342
 9583SOL    HW134711   7.174   7.295   3.204 -0.2984 -1.0606  2.2353
 9583SOL    HW234712   7.292   7.309   3.297  2.9587 -0.1960 -1.7670
 9584SOL     OW34713   2.162   8.147   2.671  0.0655 -0.0933  0.0723
 9584SOL    HW134714   2.152   8.085   2.598 -0.7824 -0.2522  0.3177
 9584SOL    HW234715   2.213   8.219   2.633 -0.7398  0.0341 -0.8105
 9585SOL     OW34716   6.601   9.244   8.255 -0.1984  0.0115  0.1922
 9585SOL    HW134717   6.568   9.154   8.267  0.1876 -0.0708  0.6335
 9585SOL    HW234718   6.607   9.254   8.160 -0.9214 -0.1820  0.1186
 9586SOL     OW34719   3.481   5.709   6.334 -0.8183  0.3266  0.6171
 9586SOL    HW134720   3.535   5.643   6.379 -0.3689  0.3753  0.1589
 9586SOL    HW234721   3.397   5.667   6.321 -0.7339  0.0690  0.8987
 9587SOL     OW34722   0.054   9.342   1.162 -0.8136 -0.0427  0.2201
 9587SOL    HW134723   0.080   9.265   1.214 -2.7026 -0.7655  0.1921
 9587SOL    HW234724  -0.041   9.346   1.173 -0.7468  2.4030  0.3231
 9588SOL     OW34725   3.010   5.782   7.856  0.2161  0.2679  0.2500
 9588SOL    HW134726   2.919   5.811   7.861  0.9453  3.0888 -0.9394
 9588SOL    HW234727   3.055   5.832   7.923  1.1178 -0.1373 -0.0352
 9589SOL     OW34728   6.566   6.523   1.221  0.8025  0.4106  0.5846
 9589SOL    HW134729   6.611   6.472   1.153  1.7442  0.7921  0.9130
 9589SOL    HW234730   6.474   6.522   1.194  0.9108 -0.8251  0.1848
 9590SOL     OW34731   0.439   1.871   5.601  0.2778  0.0265 -0.2787
 9590SOL    HW134732   0.480   1.785   5.599  1.2889  0.4916 -0.1287
 9590SOL    HW234733   0.360   1.858   5.654  1.5804 -0.3388  1.6694
 9591SOL     OW34734   7.213   2.289   3.189  0.3982 -0.2532  0.3607
 9591SOL    HW134735   7.277   2.275   3.258  0.7871 -1.1147 -0.1499
 9591SOL    HW234736   7.257   2.347   3.126  0.4975 -0.4515  0.2469
 9592SOL     OW34737   5.263   5.018   8.871  0.4198  0.6453 -0.6382
 9592SOL    HW134738   5.185   5.067   8.848  0.6324  1.9579  1.2369
 9592SOL    HW234739   5.300   5.065   8.946  0.4282 -2.5650  1.5587
 9593SOL     OW34740   1.795   6.923   3.923  0.2245  0.3069  0.4837
 9593SOL    HW134741   1.738   6.944   3.997 -1.0663  0.3558 -0.4791
 9593SOL    HW234742   1.741   6.866   3.868  1.7062 -0.9900  0.3206
 9594SOL     OW34743   0.583   1.970   2.167  0.6848 -0.3756 -0.6297
 9594SOL    HW134744   0.500   1.925   2.151 -0.6965  1.9304 -0.3852
 9594SOL    HW234745   0.626   1.917   2.235 -1.1181 -0.9880  0.0966
 9595SOL     OW34746   2.195   5.358   0.005  0.3831  0.6095  0.0078
 9595SOL    HW134747   2.208   5.276   0.053 -1.7970 -0.3609 -0.8964
 9595SOL    HW234748   2.184   5.425   0.072 -1.9421 -0.5969  0.9227
 9596SOL     OW34749   6.993   4.267   7.170 -0.1626  0.4338  0.5472
 9596SOL    HW134750   7.035   4.353   7.175  0.4791  0.2610 -1.4072
 9596SOL    HW234751   6.905   4.286   7.136 -1.0832  0.5812  2.8278
 9597SOL     OW34752   1.151   4.894   9.141 -0.4852 -0.5939  0.3102
 9597SOL    HW134753   1.091   4.962   9.170  0.8764  1.2602 -0.9800
 9597SOL    HW234754   1.184   4.855   9.222 -1.7878 -0.1905  1.0628
 9598SOL     OW34755   4.450   2.882   2.068  0.2378  0.1396  0.0925
 9598SOL    HW134756   4.530   2.845   2.032  0.3158  1.5959 -1.3501
 9598SOL    HW234757   4.474   2.908   2.157  0.5322 -1.9626  0.6914
 9599SOL     OW34758   6.399   4.203   1.873 -0.1395 -0.3182 -0.0627
 9599SOL    HW134759   6.386   4.278   1.932  2.1604  0.4124 -0.3739
 9599SOL    HW234760   6.418   4.130   1.932 -1.3297 -0.4256  0.2054
 9600SOL     OW34761   8.141   2.358   9.162 -0.2212 -0.0742  0.7759
 9600SOL    HW134762   8.112   2.449   9.164  0.7340  0.4160 -2.4563
 9600SOL    HW234763   8.065   2.307   9.190 -1.5428  1.5943  0.3530
 9601SOL     OW34764   4.683   8.839   8.434 -0.0006 -0.1126 -0.1060
 9601SOL    HW134765   4.760   8.895   8.435  0.0049 -0.0556  1.8847
 9601SOL    HW234766   4.711   8.761   8.386  0.5063  0.8763 -1.4719
 9602SOL     OW34767   8.177   8.705   4.182  0.4070  0.2756 -0.3335
 9602SOL    HW134768   8.167   8.670   4.270  2.1614  0.3482 -0.0662
 9602SOL    HW234769   8.142   8.794   4.187  1.0742  0.5028  0.4759
 9603SOL     OW34770   6.226   3.725   0.180 -0.0919  0.1960  0.2242
 9603SOL    HW134771   6.274   3.801   0.147  0.2264  0.6886  1.7405
 9603SOL    HW234772   6.137   3.757   0.194 -0.1872  0.0341 -0.0100
 9604SOL     OW34773   1.391   0.075   9.168  0.0731 -0.4206 -0.2456
 9604SOL    HW134774   1.424   0.165   9.175 -0.5945 -0.1238 -0.8210
 9604SOL    HW234775   1.392   0.056   9.074 -0.8309 -0.6152 -0.2183
 9605SOL     OW34776   9.174   2.471   1.346  0.0681  0.3361  0.1954
 9605SOL    HW134777   9.236   2.525   1.395  1.4907 -0.1648 -0.9797
 9605SOL    HW234778   9.173   2.387   1.392  1.6152 -0.2282 -0.7142
 9606SOL     OW34779   7.043   5.634   9.080 -0.2606  0.1362  0.3779
 9606SOL    HW134780   7.062   5.543   9.058 -2.0898  0.0581 -1.1350
 9606SOL    HW234781   7.109   5.685   9.033 -0.2552 -0.3492 -0.1540
 9607SOL     OW34782   6.728   5.155   8.909 -0.0378  0.7826 -0.0261
 9607SOL    HW134783   6.637   5.133   8.888  0.0337  0.7419 -0.2909
 9607SOL    HW234784   6.728   5.250   8.921 -0.1166  0.7804 -0.0097
 9608SOL     OW34785   7.811   2.799   1.829 -0.2890  0.3001  0.2719
 9608SOL    HW134786   7.847   2.847   1.753 -2.3176  1.5420  0.0227
 9608SOL    HW234787   7.795   2.711   1.796  0.4796  0.3312 -0.2220
 9609SOL     OW34788   7.828   5.149   7.220 -0.2229 -0.3163  0.1997
 9609SOL    HW134789   7.766   5.221   7.233 -0.2356 -0.4503  0.9546
 9609SOL    HW234790   7.829   5.104   7.305  1.9283  0.4757  0.6528
 9610SOL     OW34791   6.361   8.705   4.368  0.0253 -0.1703 -0.2770
 9610SOL    HW134792   6.319   8.782   4.330  0.1851  0.5249  0.8985
 9610SOL    HW234793   6.361   8.640   4.297 -2.5095 -0.0217 -0.5039
 9611SOL     OW34794   0.482   3.368   0.290 -0.4031  0.3428  0.3598
 9611SOL    HW134795   0.406   3.369   0.232 -0.5688  0.3204  0.5793
 9611SOL    HW234796   0.540   3.435   0.254  0.4816 -1.1480 -1.1787
 9612SOL     OW34797   2.814   0.419   2.836  0.2720 -0.4226 -0.2831
 9612SOL    HW134798   2.896   0.451   2.873 -0.1577  0.2876  0.0857
 9612SOL    HW234799   2.757   0.405   2.911 -0.2099 -0.1323 -0.5848
 9613SOL     OW34800   2.525   5.920   1.432 -0.2904  0.7646 -0.0109
 9613SOL    HW134801   2.479   5.863   1.371  0.8079  1.4064 -1.5118
 9613SOL    HW234802   2.457   5.973   1.472 -1.2770 -1.1498  1.0006
 9614SOL     OW34803   8.551   6.136   7.335 -0.1481  0.7567 -0.1299
 9614SOL    HW134804   8.548   6.140   7.431 -0.2221 -0.4895 -0.0650
 9614SOL    HW234805   8.476   6.083   7.311  0.7530 -0.2763 -0.7727
 9615SOL     OW34806   5.186   1.637   2.834 -0.0595 -0.0870  0.1548
 9615SOL    HW134807   5.183   1.547   2.802  0.6176 -0.1804  0.3490
 9615SOL    HW234808   5.124   1.684   2.778  0.2324 -0.4907 -0.5214
 9616SOL     OW34809   4.628   6.786   4.891  0.1307 -0.5698 -0.1194
 9616SOL    HW134810   4.605   6.781   4.983  2.3127 -0.8414  0.4608
 9616SOL    HW234811   4.694   6.718   4.879  1.1942  0.6340 -1.4477
 9617SOL     OW34812   1.517   9.210   9.198  0.2583 -0.7328  0.2142
 9617SOL    HW134813   1.594   9.258   9.228 -0.8033  0.4797  1.1089
 9617SOL    HW234814   1.451   9.277   9.183 -0.4575 -1.6953 -1.1194
 9618SOL     OW34815   9.249   1.282   4.187 -0.0959  0.5326  0.1657
 9618SOL    HW134816   9.330   1.317   4.149 -1.2369  2.2865 -0.7711
 9618SOL    HW234817   9.208   1.233   4.116 -1.0725  1.8070 -0.1802
 9619SOL     OW34818   9.242   6.113   6.824  0.4420 -0.0447  0.2961
 9619SOL    HW134819   9.333   6.087   6.838  0.6108  1.1436  1.5905
 9619SOL    HW234820   9.242   6.154   6.737  1.1585  0.0051  0.3128
 9620SOL     OW34821   3.644   8.922   7.209 -0.0499  0.0896  0.2969
 9620SOL    HW134822   3.729   8.919   7.164 -1.2591  2.0499 -2.4002
 9620SOL    HW234823   3.609   8.834   7.198  1.4649 -0.6541  1.1623
 9621SOL     OW34824   9.142   0.030   0.653  0.1968 -0.3894 -0.1073
 9621SOL    HW134825   9.048   0.040   0.669  0.4535  0.5676  0.8639
 9621SOL    HW234826   9.150   0.029   0.557 -0.6322  1.3976 -0.2291
 9622SOL     OW34827   0.339   2.327   1.060 -0.0640  0.4041 -0.4439
 9622SOL    HW134828   0.330   2.398   1.124  0.4060  1.4020 -1.4578
 9622SOL    HW234829   0.434   2.314   1.054 -0.1682 -0.9740  0.4174
 9623SOL     OW34830   1.007   6.972   9.055 -0.5168 -0.0159 -0.1164
 9623SOL    HW134831   0.912   6.986   9.055 -0.6153 -0.6123  0.5250
 9623SOL    HW234832   1.018   6.880   9.078  0.1892 -0.2352 -1.2758
 9624SOL     OW34833   9.009   6.125   8.452 -0.0160 -0.2479 -0.6137
 9624SOL    HW134834   9.066   6.182   8.504 -1.4629  1.0499 -0.4104
 9624SOL    HW234835   9.034   6.143   8.361 -1.4596  1.8962 -0.6523
 9625SOL     OW34836   2.743   4.237   9.272  0.4863  0.2674  0.8702
 9625SOL    HW134837   2.689   4.186   9.332 -0.0548  0.4833  0.5818
 9625SOL    HW234838   2.683   4.304   9.237  0.7323  0.0232 -0.0464
 9626SOL     OW34839   1.513   0.717   7.995 -0.7047  0.2014  0.0254
 9626SOL    HW134840   1.441   0.735   8.056 -0.3838 -0.4290  0.6059
 9626SOL    HW234841   1.584   0.775   8.024 -0.7205  0.2597 -0.0544
 9627SOL     OW34842   2.237   6.220   3.992  0.4804  0.1630 -0.1555
 9627SOL    HW134843   2.263   6.142   4.041 -0.5877  0.9936  1.8707
 9627SOL    HW234844   2.313   6.278   3.997  1.7707 -1.1497 -2.7806
 9628SOL     OW34845   2.072   0.483   9.125  0.0382 -0.4413  0.2077
 9628SOL    HW134846   2.004   0.469   9.191 -1.3705 -2.8841 -1.6039
 9628SOL    HW234847   2.108   0.396   9.108  0.3064  0.0788 -2.2733
 9629SOL     OW34848   1.027   3.783   8.553  0.3444  0.2578  0.1270
 9629SOL    HW134849   0.944   3.808   8.593 -0.7926 -0.2744 -1.8029
 9629SOL    HW234850   1.091   3.788   8.625 -1.1855  1.4408  1.4661
 9630SOL     OW34851   2.123   3.427   1.928 -0.2903 -0.0986  0.3730
 9630SOL    HW134852   2.037   3.441   1.888  0.0607  0.9920 -0.0446
 9630SOL    HW234853   2.168   3.510   1.917  0.4506 -0.3247  1.5245
 9631SOL     OW34854   9.348   5.865   0.083 -0.1555  0.0148  0.1693
 9631SOL    HW134855   9.255   5.861   0.102 -0.0586 -0.9895  0.4821
 9631SOL    HW234856   9.365   5.957   0.062 -1.5384 -0.0908 -1.6224
 9632SOL     OW34857   1.066   7.271   2.644  0.1103 -0.0716  0.0929
 9632SOL    HW134858   0.987   7.297   2.596 -0.2563 -1.9815 -0.4549
 9632SOL    HW234859   1.083   7.343   2.704 -3.2445 -0.4060  1.6785
 9633SOL     OW34860   5.667   4.190   4.923  0.2198  0.1896 -0.2135
 9633SOL    HW134861   5.729   4.128   4.885  0.4042 -1.6898  2.8396
 9633SOL    HW234862   5.719   4.270   4.936  1.8618 -1.0693  1.4809
 9634SOL     OW34863   7.394   1.466   3.254  0.5248  0.2362 -0.0537
 9634SOL    HW134864   7.372   1.559   3.259 -0.1416  0.1345 -0.8789
 9634SOL    HW234865   7.423   1.443   3.342  0.7528  1.2396  0.1400
 9635SOL     OW34866   2.487   2.761   9.329  0.6398 -0.7745  0.1400
 9635SOL    HW134867   2.464   2.807   9.409 -0.9770 -0.9593 -0.1843
 9635SOL    HW234868   2.573   2.722   9.347  0.5578 -0.3371  1.5537
 9636SOL     OW34869   9.194   7.960   0.940 -0.4764 -0.6185  0.0472
 9636SOL    HW134870   9.195   7.988   1.031  1.8430 -2.2134  0.5993
 9636SOL    HW234871   9.263   8.011   0.898 -2.0335  0.6608 -1.0531
 9637SOL     OW34872   8.285   2.933   3.916  0.3983 -0.3299  0.5956
 9637SOL    HW134873   8.203   2.979   3.900  2.0210  2.2396 -1.2495
 9637SOL    HW234874   8.275   2.895   4.003 -2.0292  1.5456  1.2448
 9638SOL     OW34875   8.618   6.901   2.683  0.3288  0.0479 -0.4222
 9638SOL    HW134876   8.583   6.828   2.631 -1.4626  0.5587  0.0125
 9638SOL    HW234877   8.617   6.976   2.623 -1.5309  0.5877  0.2346
 9639SOL     OW34878   5.095   0.784   0.043 -0.6247  0.0403  0.2775
 9639SOL    HW134879   5.064   0.704   0.000 -2.0096  0.1403  1.0288
 9639SOL    HW234880   5.165   0.754   0.101 -1.0201 -0.6306  0.4353
 9640SOL     OW34881   0.093   1.450   3.908  0.4384 -0.8163  0.3325
 9640SOL    HW134882   0.002   1.429   3.889 -0.0857  0.1110  1.7321
 9640SOL    HW234883   0.106   1.537   3.870  0.6655 -0.8339  0.3700
 9641SOL     OW34884   0.121   3.795   2.895 -0.0062 -0.0598  0.6541
 9641SOL    HW134885   0.081   3.798   2.808 -1.5890  0.6197  1.3591
 9641SOL    HW234886   0.196   3.854   2.889  0.9671 -1.3482 -0.7058
 9642SOL     OW34887   2.252   4.409   8.569  0.2620  0.4347 -0.7717
 9642SOL    HW134888   2.228   4.317   8.572  0.1356  0.4950  0.4392
 9642SOL    HW234889   2.171   4.456   8.591  0.3681  0.8357 -1.2036
 9643SOL     OW34890   3.907   9.303   4.401 -0.2088  0.0936  0.7026
 9643SOL    HW134891   3.863   9.312   4.316  0.6583  1.8158  0.3781
 9643SOL    HW234892   3.849   9.346   4.463 -0.2178  0.0385  0.7323
 9644SOL     OW34893   6.278   7.242   7.853 -0.5483  0.1090 -0.2073
 9644SOL    HW134894   6.341   7.188   7.805 -0.2324 -0.9012  1.2908
 9644SOL    HW234895   6.330   7.312   7.892 -0.5538 -0.0101  0.0116
 9645SOL     OW34896   1.933   1.132   2.037 -0.2266  0.4772 -0.0506
 9645SOL    HW134897   1.849   1.102   2.071  0.8882 -2.8852  0.1755
 9645SOL    HW234898   1.979   1.165   2.113 -0.7788  0.8629  0.1184
 9646SOL     OW34899   9.059   5.605   0.274  0.1844  0.1604 -0.4768
 9646SOL    HW134900   9.068   5.517   0.238  2.4722  0.9948 -2.1928
 9646SOL    HW234901   9.069   5.594   0.368 -0.8203 -1.5113 -0.5231
 9647SOL     OW34902   8.368   8.729   3.705 -0.3152 -0.3426 -0.3916
 9647SOL    HW134903   8.319   8.651   3.731 -1.4015  0.2841 -0.4924
 9647SOL    HW234904   8.306   8.782   3.654  0.0713  1.0551  0.5138
 9648SOL     OW34905   7.096   3.826   3.137 -0.0843 -0.2652 -0.2048
 9648SOL    HW134906   7.165   3.884   3.170  1.2537  0.3148 -3.5947
 9648SOL    HW234907   7.014   3.868   3.164  0.8164  0.2929  1.9133
 9649SOL     OW34908   6.947   6.788   1.093 -0.3159  0.5314 -0.4575
 9649SOL    HW134909   7.021   6.732   1.069 -1.1314 -0.7168 -0.1774
 9649SOL    HW234910   6.951   6.792   1.189 -1.4961 -0.8661 -0.3133
 9650SOL     OW34911   7.867   0.297   7.652  0.4300 -0.4101  0.2267
 9650SOL    HW134912   7.807   0.347   7.595  0.7483 -0.4441 -0.1459
 9650SOL    HW234913   7.935   0.264   7.592 -0.1918 -1.9591  0.3239
 9651SOL     OW34914   5.883   8.848   8.306 -0.4747  0.1623  0.1415
 9651SOL    HW134915   5.840   8.762   8.308 -0.2465  0.0455  0.0160
 9651SOL    HW234916   5.925   8.853   8.221 -2.5915  1.4487 -0.9158
 9652SOL     OW34917   5.023   7.870   4.736  0.3710 -0.0856 -0.2242
 9652SOL    HW134918   4.979   7.813   4.672 -0.0823  1.2884 -1.1918
 9652SOL    HW234919   5.028   7.818   4.816 -2.9736 -0.3813 -0.0848
 9653SOL     OW34920   2.380   8.432   2.296  0.3750  0.3255  0.6941
 9653SOL    HW134921   2.465   8.442   2.339  0.4383 -1.4352  1.0728
 9653SOL    HW234922   2.363   8.338   2.300 -0.4792  0.3394 -1.5552
 9654SOL     OW34923   2.021   5.707   4.697 -0.2734  0.5647 -0.2368
 9654SOL    HW134924   2.055   5.632   4.745 -1.3374  1.3020  1.7712
 9654SOL    HW234925   2.061   5.783   4.739 -1.6309  1.2650 -0.1472
 9655SOL     OW34926   4.894   9.222   0.218  0.4924  0.1963  0.1376
 9655SOL    HW134927   4.898   9.236   0.124 -1.1435  0.7525  0.1165
 9655SOL    HW234928   4.983   9.237   0.249  2.1413 -3.9766 -1.7569
 9656SOL     OW34929   8.898   0.483   1.268  0.0861 -0.1165  0.2887
 9656SOL    HW134930   8.975   0.433   1.294  0.5098  0.3904  0.0505
 9656SOL    HW234931   8.934   0.564   1.232 -0.5392 -0.1385 -0.4050
 9657SOL     OW34932   6.150   7.400   4.508  0.2958 -0.0863  0.0320
 9657SOL    HW134933   6.216   7.469   4.515 -1.6325  1.8234  0.1650
 9657SOL    HW234934   6.083   7.424   4.572 -0.9820 -1.4663 -0.7336
 9658SOL     OW34935   0.484   5.748   4.671  0.2952 -0.3314  0.4327
 9658SOL    HW134936   0.408   5.802   4.648  1.3322  1.0249  0.1295
 9658SOL    HW234937   0.483   5.747   4.767 -0.2012 -0.4868  0.4329
 9659SOL     OW34938   6.212   6.642   0.210 -0.4053 -0.0311  0.2058
 9659SOL    HW134939   6.300   6.605   0.213 -0.4364 -0.2657 -1.0815
 9659SOL    HW234940   6.161   6.588   0.270  0.0463 -0.7183 -0.0211
 9660SOL     OW34941   4.431   3.987   1.771 -0.4840  0.2145  0.0220
 9660SOL    HW134942   4.484   3.965   1.848  0.1603  0.9224 -0.2146
 9660SOL    HW234943   4.401   4.076   1.787 -3.0195 -0.6789  0.9277
 9661SOL     OW34944   8.624   4.296   2.718  0.6298  0.0603  0.3592
 9661SOL    HW134945   8.535   4.265   2.700  0.6300  1.1118 -1.8350
 9661SOL    HW234946   8.614   4.391   2.726  1.5671  0.1987 -0.0678
 9662SOL     OW34947   0.691   8.676   2.471 -0.0174  0.5224 -0.5427
 9662SOL    HW134948   0.638   8.715   2.541 -0.3579 -1.0618  0.1300
 9662SOL    HW234949   0.628   8.629   2.417  0.4883  0.1882 -0.8439
 9663SOL     OW34950   3.085   1.656   2.188 -0.2426 -0.8024 -0.0496
 9663SOL    HW134951   3.052   1.618   2.106 -0.2573 -0.0386 -0.4076
 9663SOL    HW234952   3.010   1.656   2.247 -1.3636  2.2082 -1.3022
 9664SOL     OW34953   0.398   6.178   9.111  0.0404  0.4824  0.1840
 9664SOL    HW134954   0.372   6.266   9.086 -0.4397  0.9318  2.1245
 9664SOL    HW234955   0.477   6.190   9.164 -0.0546 -0.2371  0.5065
 9665SOL     OW34956   1.143   8.065   8.732 -0.0425  0.5565 -0.0542
 9665SOL    HW134957   1.217   8.063   8.670  1.8661  0.9650  2.0675
 9665SOL    HW234958   1.130   7.974   8.757  1.8094  0.6884  1.7282
 9666SOL     OW34959   0.958   4.583   3.986  0.3254  0.2849  0.0811
 9666SOL    HW134960   0.985   4.659   3.934  1.1945  0.1891  0.3673
 9666SOL    HW234961   1.041   4.543   4.014 -0.1262 -0.2545  0.6733
 9667SOL     OW34962   7.710   6.434   7.448 -0.3454 -0.6027  0.1659
 9667SOL    HW134963   7.756   6.513   7.417  1.4279 -1.5049  0.3545
 9667SOL    HW234964   7.691   6.385   7.368  1.3871 -1.4301  0.2132
 9668SOL     OW34965   0.639   4.247   2.603  0.6405 -0.0839 -0.0629
 9668SOL    HW134966   0.686   4.256   2.520 -0.1832 -3.7453 -1.0855
 9668SOL    HW234967   0.557   4.294   2.588 -0.4446 -2.4639 -2.2564
 9669SOL     OW34968   0.612   8.660   3.835  0.4250 -0.0531 -0.1570
 9669SOL    HW134969   0.572   8.651   3.921  0.6303  1.8119  0.1588
 9669SOL    HW234970   0.538   8.666   3.775  0.2777 -0.1858  0.0094
 9670SOL     OW34971   7.402   9.141   1.687  0.2929  0.6064 -0.1257
 9670SOL    HW134972   7.479   9.120   1.634  1.4076  0.3138  1.4979
 9670SOL    HW234973   7.349   9.199   1.632  2.3924  2.0030 -0.8053
 9671SOL     OW34974   0.241   5.538   4.660 -0.4671  0.0961 -0.3403
 9671SOL    HW134975   0.302   5.520   4.732  0.4475  0.2472 -1.0571
 9671SOL    HW234976   0.155   5.540   4.702  0.1374  1.2396  0.9320
 9672SOL     OW34977   4.526   2.972   0.295 -0.0877  0.2632 -0.5407
 9672SOL    HW134978   4.564   2.999   0.211  1.7100 -0.0362  0.1214
 9672SOL    HW234979   4.506   2.879   0.284  2.2599 -0.3813 -0.0066
 9673SOL     OW34980   1.619   7.482   1.369  0.2694  0.2294 -0.0329
 9673SOL    HW134981   1.627   7.396   1.326  1.7328 -0.1206  0.8785
 9673SOL    HW234982   1.709   7.508   1.389 -0.1541  1.9623 -0.2119
 9674SOL     OW34983   3.913   7.177   6.170 -0.3159  0.0175 -0.3370
 9674SOL    HW134984   3.832   7.127   6.158  0.9659 -2.1432 -0.6300
 9674SOL    HW234985   3.915   7.237   6.096 -0.9019 -1.0471 -1.2527
 9675SOL     OW34986   6.300   1.566   0.463  0.2433 -0.4463  0.2585
 9675SOL    HW134987   6.236   1.638   0.461 -0.2724 -0.8941  0.2848
 9675SOL    HW234988   6.294   1.527   0.375  0.4892 -0.4846  0.2588
 9676SOL     OW34989   4.593   4.284   9.214 -0.6291  0.3167 -0.1871
 9676SOL    HW134990   4.560   4.301   9.303 -0.7452  0.1552 -0.1978
 9676SOL    HW234991   4.573   4.191   9.199  1.0602 -0.1598  0.3322
 9677SOL     OW34992   8.442   0.995   1.543 -0.2927  0.6684 -0.1147
 9677SOL    HW134993   8.451   0.901   1.561  3.4671  1.1367  1.4181
 9677SOL    HW234994   8.381   1.027   1.610 -1.6321 -0.6179 -0.6683
 9678SOL     OW34995   6.810   1.064   1.063  0.0751  0.0380  0.0778
 9678SOL    HW134996   6.874   1.135   1.062  1.0105 -0.6796  2.2151
 9678SOL    HW234997   6.862   0.984   1.069 -0.9678 -0.8797 -2.0470
 9679SOL     OW34998   0.306   1.001   2.287  0.1246 -0.6830 -0.4375
 9679SOL    HW134999   0.225   1.013   2.238 -2.4843 -0.7579  3.4357
 9679SOL    HW235000   0.307   0.909   2.311  0.5584 -0.3866  0.7699
 9680SOL     OW35001   3.164   0.897   3.643  0.0315 -0.1444  0.3136
 9680SOL    HW135002   3.129   0.984   3.625  0.2743  0.4131  2.3107
 9680SOL    HW235003   3.087   0.840   3.648 -0.0816 -0.2285 -1.6972
 9681SOL     OW35004   5.727   3.629   7.465  0.0397  0.0673  0.1501
 9681SOL    HW135005   5.775   3.634   7.383 -0.0328  1.2683  0.1572
 9681SOL    HW235006   5.641   3.594   7.440  0.5294 -1.0503 -0.0263
 9682SOL     OW35007   7.672   7.882   3.370  0.0104 -0.1383  0.1526
 9682SOL    HW135008   7.652   7.975   3.385 -1.7890  0.0397 -2.6414
 9682SOL    HW235009   7.767   7.880   3.360  0.1763  1.2344  1.1443
 9683SOL     OW35010   2.157   5.192   1.379  0.4001  0.2262 -0.3059
 9683SOL    HW135011   2.145   5.211   1.286 -0.2311  0.6788 -0.1450
 9683SOL    HW235012   2.085   5.239   1.422 -0.4729 -1.5149  0.2449
 9684SOL     OW35013   8.612   0.227   8.433  0.0577 -0.4939  0.1269
 9684SOL    HW135014   8.693   0.268   8.403  0.5207 -0.6373  1.1612
 9684SOL    HW235015   8.567   0.203   8.352  0.0393  1.4943 -0.5057
 9685SOL     OW35016   5.533   9.349   2.469 -0.8107 -0.3085 -0.0261
 9685SOL    HW135017   5.516   9.276   2.528 -0.1650 -0.6066 -0.2034
 9685SOL    HW235018   5.626   9.341   2.446 -0.4769  1.1042  0.6926
 9686SOL     OW35019   3.504   8.873   5.553  0.3307  0.2730 -0.4794
 9686SOL    HW135020   3.592   8.900   5.580 -0.0196 -0.3562  1.4972
 9686SOL    HW235021   3.516   8.789   5.510  0.7609  0.5666 -0.9469
 9687SOL     OW35022   0.504   2.178   1.344  0.5487 -0.2483 -0.0514
 9687SOL    HW135023   0.474   2.092   1.314  0.9057 -0.1313 -0.7899
 9687SOL    HW235024   0.533   2.222   1.263 -0.2552  0.8181  0.2255
 9688SOL     OW35025   1.251   2.293   2.597  0.0822  0.4385 -0.7625
 9688SOL    HW135026   1.220   2.349   2.526 -2.5228 -1.1501 -0.9933
 9688SOL    HW235027   1.267   2.354   2.670 -2.3357  1.5816 -1.0869
 9689SOL     OW35028   1.318   3.318   4.088  0.0818  0.2031  0.2166
 9689SOL    HW135029   1.333   3.261   4.012 -3.3799 -0.9482  0.2130
 9689SOL    HW235030   1.268   3.391   4.053 -0.8024  0.1012  1.2205
 9690SOL     OW35031   0.451   0.291   8.652  0.3769 -0.1867  0.1951
 9690SOL    HW135032   0.465   0.200   8.679  4.2314  0.0551 -0.4703
 9690SOL    HW235033   0.478   0.343   8.727 -1.5445  0.4938  0.4721
 9691SOL     OW35034   1.954   8.134   5.131  0.2414 -0.3412  0.0046
 9691SOL    HW135035   1.988   8.214   5.170  0.2289  0.6881 -1.9493
 9691SOL    HW235036   1.869   8.120   5.173  0.4544  0.4097  0.6905
 9692SOL     OW35037   3.457   0.408   0.541 -0.5384 -0.1304  0.3917
 9692SOL    HW135038   3.428   0.484   0.489 -0.7488  0.2388  1.0326
 9692SOL    HW235039   3.413   0.334   0.501 -0.5123  0.1164 -0.1059
 9693SOL     OW35040   9.001   2.831   6.416 -0.6362 -0.5266  0.5967
 9693SOL    HW135041   9.089   2.794   6.426  0.1424  0.9971 -0.3208
 9693SOL    HW235042   8.944   2.769   6.462  0.4608 -3.3829 -1.5990
 9694SOL     OW35043   5.296   1.994   4.540 -0.2889  0.0777  0.2664
 9694SOL    HW135044   5.377   1.949   4.564 -0.1733 -1.0818 -2.0753
 9694SOL    HW235045   5.231   1.924   4.533 -1.0292  0.7613  0.1941
 9695SOL     OW35046   8.778   3.086   3.353 -0.6731  0.4067  0.5235
 9695SOL    HW135047   8.812   3.034   3.280  0.1003 -1.2159  1.9520
 9695SOL    HW235048   8.824   3.170   3.347 -1.9440  1.0024 -1.8412
 9696SOL     OW35049   9.218   0.081   7.502 -0.4043  0.4176  0.2239
 9696SOL    HW135050   9.256  -0.002   7.531 -0.9369 -0.0432 -0.3561
 9696SOL    HW235051   9.283   0.118   7.443 -0.3432  0.2001  0.1529
 9697SOL     OW35052   1.403   2.485   0.408  0.0219  0.0083 -0.0202
 9697SOL    HW135053   1.339   2.528   0.352  0.6402 -0.0616 -0.7960
 9697SOL    HW235054   1.487   2.506   0.369  0.4365 -0.4583  0.5977
 9698SOL     OW35055   7.841   2.303   7.746 -0.3902  0.0385 -0.3192
 9698SOL    HW135056   7.864   2.262   7.829 -1.3105 -1.6450 -0.8427
 9698SOL    HW235057   7.910   2.367   7.731  1.5712 -1.8072  0.2248
 9699SOL     OW35058   8.201   7.708   9.091 -0.0793 -0.2063  0.0022
 9699SOL    HW135059   8.140   7.634   9.086 -0.7553  0.2993  0.7145
 9699SOL    HW235060   8.166   7.764   9.160  0.8902  0.3731  0.0376
 9700SOL     OW35061   2.391   4.376   6.399 -0.1110  0.9395 -0.0917
 9700SOL    HW135062   2.454   4.410   6.462  1.0020  1.9667 -1.6873
 9700SOL    HW235063   2.436   4.305   6.354 -1.3883 -0.7476  1.1696
 9701SOL     OW35064   8.714   7.002   7.894  0.0082 -0.5983 -0.4863
 9701SOL    HW135065   8.683   7.060   7.825 -0.5556 -0.0220  0.2351
 9701SOL    HW235066   8.791   7.047   7.930 -0.4200 -0.2844  0.0625
 9702SOL     OW35067   0.837   0.531   6.366 -0.6741 -0.1685  0.5361
 9702SOL    HW135068   0.902   0.584   6.321 -1.0101  0.4916  0.8101
 9702SOL    HW235069   0.860   0.539   6.459  0.0115 -1.5094  0.5014
 9703SOL     OW35070   4.161   6.033   5.341  0.3825  0.4060 -0.6725
 9703SOL    HW135071   4.130   6.022   5.251 -2.1314 -1.4383  0.2861
 9703SOL    HW235072   4.107   6.104   5.376  1.0541  0.8282 -0.4919
 9704SOL     OW35073   2.578   7.976   6.699 -0.0502 -0.6710 -0.1618
 9704SOL    HW135074   2.627   7.941   6.773 -0.9892 -1.7177 -0.0131
 9704SOL    HW235075   2.569   8.069   6.718 -0.1609 -0.9009  0.9804
 9705SOL     OW35076   3.568   8.623   8.682  0.6359  0.5666 -0.1585
 9705SOL    HW135077   3.612   8.702   8.650 -0.3598  1.6132  0.9742
 9705SOL    HW235078   3.640   8.565   8.708  1.3846  1.0820 -1.0125
 9706SOL     OW35079   0.843   5.712   3.510  0.8536 -0.3004  0.3437
 9706SOL    HW135080   0.870   5.636   3.459 -0.5172 -0.6151  0.0532
 9706SOL    HW235081   0.847   5.785   3.448  0.0660 -0.5260  0.0141
 9707SOL     OW35082   4.673   2.290   1.653  0.4093 -0.6000  0.2057
 9707SOL    HW135083   4.709   2.209   1.617  0.5908  0.3836 -2.0092
 9707SOL    HW235084   4.606   2.316   1.590  1.0831  1.5069  0.2948
 9708SOL     OW35085   4.083   1.215   8.199  0.6485 -0.8470  0.2054
 9708SOL    HW135086   4.053   1.190   8.287 -1.3630  0.7969  0.0785
 9708SOL    HW235087   4.146   1.286   8.215 -1.2915  0.9460  0.3671
 9709SOL     OW35088   0.598   0.725   8.002  0.3471  0.0873  0.3663
 9709SOL    HW135089   0.672   0.708   8.060 -0.6230 -0.4437  1.4848
 9709SOL    HW235090   0.573   0.638   7.970  1.0371  0.3983 -1.0883
 9710SOL     OW35091   0.987   8.246   2.682 -0.3263 -0.0337  0.2249
 9710SOL    HW135092   1.051   8.232   2.612  1.8407 -2.3094  2.4378
 9710SOL    HW235093   0.931   8.317   2.650  3.0292  1.8627 -2.0901
 9711SOL     OW35094   6.987   5.620   5.362 -0.4765 -0.0413 -0.5252
 9711SOL    HW135095   7.040   5.590   5.435  0.0800 -2.0581 -1.6685
 9711SOL    HW235096   7.025   5.705   5.337  0.5998 -0.2785  0.2467
 9712SOL     OW35097   4.313   1.483   1.979 -0.0173  0.2280 -0.8007
 9712SOL    HW135098   4.405   1.507   1.985  0.4714 -1.7480  0.3917
 9712SOL    HW235099   4.312   1.388   1.979 -2.0004  0.1639 -2.3517
 9713SOL     OW35100   3.882   8.305   2.520  0.1246  0.1642 -0.3911
 9713SOL    HW135101   3.972   8.276   2.505 -0.2310 -0.3247 -1.7132
 9713SOL    HW235102   3.888   8.400   2.526  0.5103  0.3084 -2.3835
 9714SOL     OW35103   2.791   0.117   3.530 -0.0592 -0.4628 -0.4938
 9714SOL    HW135104   2.755   0.046   3.477 -0.8014 -0.0443 -0.5620
 9714SOL    HW235105   2.720   0.144   3.587  0.2678  0.1012 -0.3379
 9715SOL     OW35106   7.649   1.091   5.545 -0.6734 -0.5071 -0.2298
 9715SOL    HW135107   7.579   1.105   5.609 -0.5336 -0.6679 -0.0377
 9715SOL    HW235108   7.708   1.165   5.559  0.1515 -1.3426  0.8982
 9716SOL     OW35109   9.213   7.128   4.161 -0.3043  0.1329  0.2067
 9716SOL    HW135110   9.283   7.153   4.221  0.8856  0.9136 -1.4122
 9716SOL    HW235111   9.159   7.207   4.153  1.2377  1.0922 -1.9197
 9717SOL     OW35112   5.775   8.637   1.576  0.0271 -0.0583  0.3926
 9717SOL    HW135113   5.764   8.703   1.508 -0.9102 -0.6220 -0.0354
 9717SOL    HW235114   5.797   8.686   1.655 -2.8105  1.0133  0.6171
 9718SOL     OW35115   0.266   2.370   7.049 -0.2986 -0.1796 -0.1236
 9718SOL    HW135116   0.260   2.414   7.134 -1.6196 -1.5079  0.5144
 9718SOL    HW235117   0.333   2.303   7.062 -1.9615 -1.7931  0.6025
 9719SOL     OW35118   0.615   0.762   1.074 -0.2329  0.0390 -0.3488
 9719SOL    HW135119   0.605   0.760   0.979 -2.8680  0.9987 -0.1533
 9719SOL    HW235120   0.634   0.853   1.095 -0.7336  0.0411  0.1172
 9720SOL     OW35121   5.041   3.348   6.308 -0.1464  0.3723  0.5724
 9720SOL    HW135122   4.995   3.382   6.231  2.0998  1.2510 -0.4635
 9720SOL    HW235123   5.032   3.253   6.301  0.1208  0.4327 -0.8724
 9721SOL     OW35124   6.500   8.559   5.139 -0.1080 -0.5878 -0.0927
 9721SOL    HW135125   6.561   8.623   5.104 -0.3907 -0.2569  0.0057
 9721SOL    HW235126   6.439   8.611   5.192  1.6622 -1.2762  2.8618
 9722SOL     OW35127   8.390   5.026   6.875  0.3945 -0.0737  0.2535
 9722SOL    HW135128   8.312   5.079   6.889 -0.1230 -0.3932 -1.2762
 9722SOL    HW235129   8.461   5.076   6.915 -0.2227  1.3355 -0.3532
 9723SOL     OW35130   8.952   2.011   1.294 -0.0664  0.2013 -0.1080
 9723SOL    HW135131   8.931   1.940   1.234 -1.8238  1.2277 -0.8138
 9723SOL    HW235132   8.907   1.988   1.376 -2.1750  1.2413 -0.8768
 9724SOL     OW35133   9.066   8.113   5.860 -0.6076  0.1590 -0.3915
 9724SOL    HW135134   9.113   8.181   5.907 -0.7685  1.5357 -2.1194
 9724SOL    HW235135   9.032   8.055   5.929  0.7837  0.9755  1.0387
 9725SOL     OW35136   3.774   5.074   0.922  0.2897 -0.2696  0.1207
 9725SOL    HW135137   3.834   5.145   0.944 -0.9451  0.2887  1.9143
 9725SOL    HW235138   3.764   5.079   0.827 -0.1184  2.2693  0.2431
 9726SOL     OW35139   0.767   7.161   3.536 -0.0560 -0.6005  0.3721
 9726SOL    HW135140   0.674   7.155   3.558 -0.2797 -1.2583 -0.6679
 9726SOL    HW235141   0.793   7.249   3.564 -0.9786 -0.4142  0.6892
 9727SOL     OW35142   6.311   1.981   6.780 -0.2209  0.4031 -0.2728
 9727SOL    HW135143   6.398   2.016   6.758 -1.2233  2.6796 -0.8860
 9727SOL    HW235144   6.257   2.058   6.797 -2.2794 -0.9218 -0.4105
 9728SOL     OW35145   5.598   4.148   2.837  0.0132 -0.3253 -0.3837
 9728SOL    HW135146   5.606   4.122   2.746 -0.4496 -0.4926 -0.3796
 9728SOL    HW235147   5.577   4.067   2.884 -0.5887 -0.0998 -0.2499
 9729SOL     OW35148   5.800   2.378   7.944  0.0096  0.1545 -0.1084
 9729SOL    HW135149   5.833   2.456   7.900  0.1679 -1.0571 -2.3116
 9729SOL    HW235150   5.776   2.407   8.031  0.9094  2.4490 -0.5631
 9730SOL     OW35151   3.351   1.417   0.215  0.1508  0.0318  0.3264
 9730SOL    HW135152   3.348   1.359   0.291  0.5987 -0.0311  0.3012
 9730SOL    HW235153   3.364   1.359   0.140  0.6276  0.1638  0.3031
 9731SOL     OW35154   4.196   5.217   8.068 -0.3759 -0.1755 -0.2641
 9731SOL    HW135155   4.181   5.208   7.974  0.1085 -0.6811 -0.2962
 9731SOL    HW235156   4.108   5.229   8.105 -0.5741 -0.0244 -0.7699
 9732SOL     OW35157   4.366   3.631   8.070 -0.8194 -0.1147  0.3828
 9732SOL    HW135158   4.420   3.704   8.099 -1.2246  0.4521 -0.2594
 9732SOL    HW235159   4.354   3.577   8.148 -0.4859  0.4836  0.8538
 9733SOL     OW35160   2.464   7.929   0.781  0.2162 -0.7705 -0.5209
 9733SOL    HW135161   2.508   7.960   0.860 -1.1158 -3.0436  1.2571
 9733SOL    HW235162   2.481   7.996   0.715  0.6333  1.6871  1.9255
 9734SOL     OW35163   6.865   6.859   0.438 -0.7059  0.1911  0.3786
 9734SOL    HW135164   6.828   6.800   0.373  0.5147 -0.0185 -0.1589
 9734SOL    HW235165   6.936   6.808   0.478  0.2362  1.2120  0.0501
 9735SOL     OW35166   5.693   7.168   3.553  0.7368  0.0250 -0.3300
 9735SOL    HW135167   5.598   7.168   3.562  0.6363  3.1093 -0.3845
 9735SOL    HW235168   5.719   7.077   3.567 -2.2243 -0.9570 -0.6403
 9736SOL     OW35169   3.504   7.963   3.648  0.0409 -0.1344 -0.0113
 9736SOL    HW135170   3.596   7.947   3.668 -0.1080 -1.1188 -0.0472
 9736SOL    HW235171   3.467   7.876   3.635 -0.7099  0.2944 -0.8403
 9737SOL     OW35172   3.514   3.021   2.565  0.1029 -0.0650 -0.4609
 9737SOL    HW135173   3.475   3.091   2.618  1.2874  1.2674 -1.2724
 9737SOL    HW235174   3.602   3.052   2.545  0.3632 -1.4138 -1.5642
 9738SOL     OW35175   8.168   2.712   4.821 -0.3198 -0.1587  0.2718
 9738SOL    HW135176   8.208   2.740   4.903 -0.5239 -0.9762  0.6605
 9738SOL    HW235177   8.234   2.728   4.755  0.0217  0.0661  0.6619
 9739SOL     OW35178   1.113   2.359   8.372  0.1030 -0.6122 -0.6351
 9739SOL    HW135179   1.073   2.411   8.302 -0.5744 -0.8285 -0.4171
 9739SOL    HW235180   1.192   2.408   8.396  0.1592 -0.3635 -1.3176
 9740SOL     OW35181   4.467   9.010   2.329 -0.1339 -0.5189  0.2082
 9740SOL    HW135182   4.470   9.101   2.299 -3.3814 -0.8951 -1.6126
 9740SOL    HW235183   4.553   8.975   2.306 -0.0212  1.1771 -2.3149
 9741SOL     OW35184   3.504   5.241   1.422 -0.3632 -0.1547  0.0307
 9741SOL    HW135185   3.527   5.148   1.428 -3.3970 -1.0666 -0.7323
 9741SOL    HW235186   3.544   5.280   1.500 -0.0027 -2.3365  1.0233
 9742SOL     OW35187   3.166   4.427   5.512  0.2614  0.0113  0.6562
 9742SOL    HW135188   3.074   4.417   5.491  0.6198 -1.2666 -0.4405
 9742SOL    HW235189   3.206   4.460   5.432  0.7477  0.6825  1.1585
 9743SOL     OW35190   6.060   7.208   8.010 -0.4679  0.3168 -0.0395
 9743SOL    HW135191   6.041   7.114   8.012  0.0269  0.2165  1.9701
 9743SOL    HW235192   6.114   7.219   7.932 -2.8804 -0.5202 -1.9867
 9744SOL     OW35193   7.090   6.003   0.376  0.1665  0.1916  0.6147
 9744SOL    HW135194   7.073   5.924   0.427  1.0939 -0.2986  0.1881
 9744SOL    HW235195   7.087   6.074   0.439 -1.9141  0.0030  0.8276
 9745SOL     OW35196   0.512   4.586   8.739  0.2388  0.2908 -0.5661
 9745SOL    HW135197   0.597   4.628   8.742 -0.3999  1.6172 -0.2244
 9745SOL    HW235198   0.531   4.492   8.730  1.7271  0.4854  0.3113
 9746SOL     OW35199   3.897   6.240   2.397  0.1798 -0.0250 -1.1694
 9746SOL    HW135200   3.836   6.170   2.377 -0.9874  0.6956 -0.2602
 9746SOL    HW235201   3.940   6.259   2.314  1.1299 -2.3275 -1.2981
 9747SOL     OW35202   0.187   1.224   6.189 -0.3240  0.0364  0.1213
 9747SOL    HW135203   0.167   1.201   6.098  0.4036  0.3744 -0.1344
 9747SOL    HW235204   0.152   1.313   6.199  1.6495  0.9354 -0.5618
 9748SOL     OW35205   5.212   1.773   8.100  0.3975 -0.0897 -0.5723
 9748SOL    HW135206   5.117   1.773   8.112  0.2799 -0.1789 -1.4825
 9748SOL    HW235207   5.239   1.864   8.116  0.3973 -0.3885  1.3837
 9749SOL     OW35208   6.049   5.046   8.833 -0.0038 -1.4699 -0.4325
 9749SOL    HW135209   6.041   5.116   8.768 -1.2051 -1.0619  0.1416
 9749SOL    HW235210   6.058   5.091   8.917  0.4573 -2.0057 -0.1857
 9750SOL     OW35211   1.970   5.053   7.905 -0.1325 -0.1032  0.8515
 9750SOL    HW135212   1.961   4.981   7.842 -0.1185  0.6728 -0.0769
 9750SOL    HW235213   1.882   5.066   7.940 -0.1157 -0.6291  1.0865
 9751SOL     OW35214   0.352   5.009   6.394 -0.3000  0.5096 -0.3512
 9751SOL    HW135215   0.361   4.999   6.299 -0.2777 -3.8855 -0.0880
 9751SOL    HW235216   0.442   5.020   6.425 -0.4004  3.3021 -0.8053
 9752SOL     OW35217   8.102   2.771   2.995  0.1783 -0.0604 -0.7193
 9752SOL    HW135218   8.082   2.678   3.009 -0.3508  0.0712 -0.5821
 9752SOL    HW235219   8.028   2.804   2.944 -0.1310  0.5143  0.0861
 9753SOL     OW35220   9.101   1.784   3.200  0.2897 -0.2912 -0.0665
 9753SOL    HW135221   9.044   1.751   3.270 -1.3610  2.5945  0.1204
 9753SOL    HW235222   9.171   1.831   3.246  0.1631  0.1640 -0.3336
 9754SOL     OW35223   8.095   3.218   3.446  0.0113 -0.3079 -0.0580
 9754SOL    HW135224   8.036   3.202   3.520  0.3912 -0.9386  0.1143
 9754SOL    HW235225   8.183   3.208   3.482  0.3060  2.0358  0.0231
 9755SOL     OW35226   0.199   7.390   8.887 -0.0128 -0.4413  0.2250
 9755SOL    HW135227   0.169   7.470   8.930 -0.1723  0.6191 -1.7756
 9755SOL    HW235228   0.294   7.392   8.898  0.1647  0.9116 -1.1671
 9756SOL     OW35229   4.363   1.390   9.308  0.5006 -0.0639  0.1566
 9756SOL    HW135230   4.380   1.300   9.337  0.3461 -0.1764 -0.0904
 9756SOL    HW235231   4.270   1.403   9.326  0.4525 -0.0621 -0.0861
 9757SOL     OW35232   4.671   1.481   5.422  0.6744 -0.1301  0.2553
 9757SOL    HW135233   4.692   1.406   5.477  1.1947 -0.0563  0.1568
 9757SOL    HW235234   4.732   1.475   5.349 -0.0683 -0.2848 -0.3753
 9758SOL     OW35235   0.557   4.602   9.302 -0.1827 -0.3722 -0.9304
 9758SOL    HW135236   0.547   4.684   9.351  1.8796 -0.2355 -0.6299
 9758SOL    HW235237   0.507   4.615   9.222  1.0717  1.7219 -1.4627
 9759SOL     OW35238   5.715   6.910   0.848  0.6029  0.1603 -0.4750
 9759SOL    HW135239   5.761   6.856   0.912  1.6745 -0.9281 -2.0882
 9759SOL    HW235240   5.622   6.889   0.862  0.9517 -1.5909 -0.5737
 9760SOL     OW35241   2.020   3.682   8.955  0.0383 -0.1804 -0.7790
 9760SOL    HW135242   2.101   3.634   8.975 -0.8405 -0.7848  1.6139
 9760SOL    HW235243   1.991   3.645   8.872  0.3638 -2.5558  0.0909
 9761SOL     OW35244   2.402   6.335   8.410  0.0078 -0.3233 -0.3015
 9761SOL    HW135245   2.343   6.290   8.470 -1.0799  0.1410 -1.0026
 9761SOL    HW235246   2.382   6.428   8.422  0.9989 -0.1175 -0.1422
 9762SOL     OW35247   7.366   3.381   4.484  0.1484 -0.1506 -0.3939
 9762SOL    HW135248   7.334   3.325   4.413 -0.1049 -0.5063 -0.0025
 9762SOL    HW235249   7.304   3.454   4.487 -0.4334 -0.6644  0.1386
 9763SOL     OW35250   7.029   4.876   5.099 -0.1192  0.5222 -0.3982
 9763SOL    HW135251   7.082   4.799   5.119 -0.6966  0.4714  1.0095
 9763SOL    HW235252   7.093   4.944   5.076  0.4887  0.1365  0.1330
 9764SOL     OW35253   6.483   8.817   2.689  0.3234  0.1600  0.0748
 9764SOL    HW135254   6.503   8.749   2.625 -0.4620  2.0966 -2.3570
 9764SOL    HW235255   6.566   8.863   2.704  0.7742 -1.0059  1.4538
 9765SOL     OW35256   0.347   2.099   0.003  0.6069 -0.3297  0.1421
 9765SOL    HW135257   0.412   2.049  -0.047  0.3273 -1.1500  0.5887
 9765SOL    HW235258   0.266   2.050  -0.006 -0.9471  2.4178 -3.3088
 9766SOL     OW35259   8.262   0.074   3.837 -0.3232  0.1374 -0.3359
 9766SOL    HW135260   8.344   0.035   3.868  0.1383  1.5847  0.3646
 9766SOL    HW235261   8.228   0.011   3.775  1.5709 -0.2968 -1.0142
 9767SOL     OW35262   6.555   3.812   1.345 -0.1511 -0.3750 -0.6943
 9767SOL    HW135263   6.461   3.816   1.328 -0.1411  0.4768 -0.6202
 9767SOL    HW235264   6.595   3.827   1.260 -0.1013  1.3711 -0.4068
 9768SOL     OW35265   8.615   3.639   4.356  0.7306  0.0772 -0.2068
 9768SOL    HW135266   8.537   3.644   4.412  0.6058  2.7834 -0.5229
 9768SOL    HW235267   8.582   3.656   4.268  1.0620 -3.3486 -1.1582
 9769SOL     OW35268   5.757   0.742   3.715 -0.3577  0.1373  0.7076
 9769SOL    HW135269   5.783   0.650   3.717 -2.0696 -0.5145 -2.1625
 9769SOL    HW235270   5.820   0.785   3.773  3.8934 -2.0166 -1.7701
 9770SOL     OW35271   0.465   0.505   1.069 -0.5990 -0.3658 -0.1220
 9770SOL    HW135272   0.375   0.528   1.045  0.4776  2.4399 -1.9864
 9770SOL    HW235273   0.501   0.584   1.109  1.6495 -0.6732 -1.3446
 9771SOL     OW35274   3.769   4.531   4.156 -0.1579 -0.1768 -0.3305
 9771SOL    HW135275   3.715   4.587   4.212  0.9035  1.2677 -0.6915
 9771SOL    HW235276   3.725   4.533   4.071 -0.8660 -1.0113  0.0142
 9772SOL     OW35277   7.645   7.978   4.462 -0.3418  0.3276  0.2046
 9772SOL    HW135278   7.705   7.990   4.536 -0.6369  0.6439  0.3942
 9772SOL    HW235279   7.564   7.947   4.501 -0.7505  1.2498  0.1039
 9773SOL     OW35280   3.584   0.756   8.401  0.1789 -0.2500  0.2481
 9773SOL    HW135281   3.677   0.779   8.391  0.0741 -0.3556 -1.1318
 9773SOL    HW235282   3.543   0.837   8.432  0.6527 -0.0844  0.4630
 9774SOL     OW35283   2.917   0.880   8.152 -0.4147  0.1543  0.2067
 9774SOL    HW135284   2.914   0.825   8.229 -0.6632 -2.5341 -1.5891
 9774SOL    HW235285   3.010   0.897   8.138 -0.3575  0.4926  0.9534
 9775SOL     OW35286   9.028   7.174   1.607 -0.4577  0.0552 -0.6449
 9775SOL    HW135287   9.037   7.079   1.618  1.7736  0.3299  0.6001
 9775SOL    HW235288   8.968   7.201   1.676  2.0902 -0.0597  1.8321
 9776SOL     OW35289   3.031   1.832   8.414  0.1105 -0.0023 -0.0256
 9776SOL    HW135290   3.075   1.916   8.429  1.0209  0.0295 -2.4928
 9776SOL    HW235291   3.091   1.767   8.450  1.5112  0.1553 -1.9418
 9777SOL     OW35292   2.670   7.764   3.173 -0.1154 -0.2360  0.2136
 9777SOL    HW135293   2.658   7.854   3.145 -0.6725 -0.7276 -1.2552
 9777SOL    HW235294   2.620   7.756   3.254 -3.4256 -0.1847 -1.6388
 9778SOL     OW35295   8.060   2.484   2.966 -0.2561  0.3270 -0.1424
 9778SOL    HW135296   8.040   2.407   2.912  0.1919 -0.8937  1.3487
 9778SOL    HW235297   8.120   2.450   3.033  0.0621  2.0281  0.4709
 9779SOL     OW35298   5.620   5.265   5.769  0.1938  0.4725  0.0227
 9779SOL    HW135299   5.541   5.306   5.735 -0.9661 -0.9727  0.8592
 9779SOL    HW235300   5.651   5.208   5.699 -0.6725 -0.4739  0.3868
 9780SOL     OW35301   5.915   0.366   3.909  0.1820 -0.5045 -0.0542
 9780SOL    HW135302   5.998   0.335   3.946  1.5636  1.6292 -1.1857
 9780SOL    HW235303   5.884   0.432   3.970 -0.5909 -1.0975  0.2207
 9781SOL     OW35304   7.951   3.412   2.980 -0.8205 -0.6354  0.6947
 9781SOL    HW135305   8.016   3.397   3.048 -1.0357  0.8825  1.2719
 9781SOL    HW235306   7.997   3.465   2.914 -0.5241 -2.3344 -0.5163
 9782SOL     OW35307   7.199   8.591   4.931  0.0595 -0.1529 -0.1291
 9782SOL    HW135308   7.175   8.660   4.869  0.4719  0.9284  0.8940
 9782SOL    HW235309   7.117   8.547   4.952 -0.3243  0.5205 -0.2024
 9783SOL     OW35310   5.089   7.823   9.232  0.0298 -0.0828  0.0297
 9783SOL    HW135311   5.019   7.817   9.167 -0.9004  2.5373  0.6685
 9783SOL    HW235312   5.110   7.732   9.253 -2.8641 -0.9839 -0.5663
 9784SOL     OW35313   0.885   5.562   6.557  0.2555 -0.1823  0.2284
 9784SOL    HW135314   0.823   5.633   6.572 -0.2186 -0.7772  1.1737
 9784SOL    HW235315   0.971   5.603   6.573  0.1464  0.6664 -1.1856
 9785SOL     OW35316   1.105   7.597   8.365  0.0679  0.0089 -0.6606
 9785SOL    HW135317   1.157   7.659   8.415  1.9620 -1.1194 -1.1255
 9785SOL    HW235318   1.169   7.544   8.317 -1.4633 -1.8985 -0.7586
 9786SOL     OW35319   5.472   3.826   5.652  0.5105  0.4349 -0.1724
 9786SOL    HW135320   5.400   3.763   5.646  0.1773  0.7327  0.6145
 9786SOL    HW235321   5.448   3.884   5.724  1.9376  0.0398  0.6520
 9787SOL     OW35322   4.473   3.198   0.414  0.1697  0.1620  0.2258
 9787SOL    HW135323   4.478   3.124   0.354 -1.3869  0.9909 -0.9913
 9787SOL    HW235324   4.399   3.177   0.471 -0.1187  0.6517  0.0358
 9788SOL     OW35325   1.384   6.988   7.024  0.3400 -0.3699 -0.3359
 9788SOL    HW135326   1.422   6.944   7.100 -0.4541  0.5834  0.6489
 9788SOL    HW235327   1.290   6.993   7.044  0.5307  3.1042  0.3742
 9789SOL     OW35328   6.975   0.347   5.751 -0.0806  0.2223 -0.5017
 9789SOL    HW135329   7.027   0.424   5.776 -1.4923  2.1217 -2.9585
 9789SOL    HW235330   7.006   0.324   5.664 -3.2296  1.5020 -2.1106
 9790SOL     OW35331   9.144   7.946   6.924 -0.3960  0.5640 -0.0209
 9790SOL    HW135332   9.210   7.880   6.902 -2.2145 -0.6989 -2.1756
 9790SOL    HW235333   9.115   7.923   7.012  1.6033  0.8662  0.7885
 9791SOL     OW35334   6.995   6.296   4.158  0.3344  0.2023  0.6122
 9791SOL    HW135335   7.004   6.325   4.249 -0.8754 -1.0912  1.1963
 9791SOL    HW235336   7.060   6.227   4.148 -0.8480 -1.0451  1.1664
 9792SOL     OW35337   9.099   6.694   7.748 -0.0150 -0.1585 -0.1725
 9792SOL    HW135338   9.024   6.749   7.725  0.3468  0.8146  0.8921
 9792SOL    HW235339   9.072   6.649   7.828 -1.5707 -4.1161 -2.6405
 9793SOL     OW35340   1.430   8.397   3.085 -0.0901 -0.2033  0.0473
 9793SOL    HW135341   1.481   8.317   3.096  0.7021  0.0762 -1.3532
 9793SOL    HW235342   1.392   8.414   3.171  1.5039 -0.8946  0.9135
 9794SOL     OW35343   8.952   5.849   8.126  0.1159  0.3071  0.1698
 9794SOL    HW135344   8.983   5.805   8.206 -0.1179  1.2597  0.8051
 9794SOL    HW235345   8.929   5.777   8.067  1.4629 -0.4316  0.4792
 9795SOL     OW35346   6.816   1.702   3.482 -0.1736 -0.3499 -0.2159
 9795SOL    HW135347   6.904   1.695   3.518  0.1867  0.2064 -0.9565
 9795SOL    HW235348   6.784   1.787   3.511 -0.5055 -0.5879  0.1266
 9796SOL     OW35349   3.365   5.376   6.478  0.5238  0.6742 -0.4381
 9796SOL    HW135350   3.451   5.408   6.450  0.8702 -1.7233 -2.4375
 9796SOL    HW235351   3.304   5.410   6.412  0.3108  0.4083 -0.3790
 9797SOL     OW35352   3.152   0.519   7.113  0.3690  0.7384  0.6821
 9797SOL    HW135353   3.214   0.485   7.177  1.9614  0.0266 -1.1177
 9797SOL    HW235354   3.081   0.456   7.113  0.8031  0.2388  1.0811
 9798SOL     OW35355   2.644   6.613   5.746 -0.1167 -0.2584  0.7482
 9798SOL    HW135356   2.605   6.645   5.827 -1.5267 -1.3614  0.5684
 9798SOL    HW235357   2.570   6.609   5.685  0.1467 -2.7842  0.4907
 9799SOL     OW35358   1.526   7.700   4.905 -0.4293 -0.0301  0.8787
 9799SOL    HW135359   1.610   7.740   4.883 -1.4511  1.5239 -0.3748
 9799SOL    HW235360   1.531   7.683   4.999  1.6904 -1.0181  0.6428
 9800SOL     OW35361   9.270   2.356   5.607 -0.0664 -0.4494  0.4307
 9800SOL    HW135362   9.303   2.271   5.577  0.4435 -0.2046  0.2820
 9800SOL    HW235363   9.251   2.405   5.527 -0.2730 -0.3900  0.5149
 9801SOL     OW35364   8.467   5.382   3.437  0.0656 -0.5457  0.5091
 9801SOL    HW135365   8.434   5.429   3.514  1.0130 -0.3517  0.8127
 9801SOL    HW235366   8.391   5.334   3.404 -0.7877  0.7568  0.5180
 9802SOL     OW35367   7.400   8.204   7.402  0.0630  0.2881  0.0475
 9802SOL    HW135368   7.349   8.252   7.337  1.8620 -1.0093 -2.5012
 9802SOL    HW235369   7.338   8.139   7.437 -1.4557  2.2104  1.1299
 9803SOL     OW35370   5.113   7.970   1.745  0.9021  0.3027 -0.2996
 9803SOL    HW135371   5.191   7.954   1.692  1.1442  1.1876 -0.2257
 9803SOL    HW235372   5.126   7.917   1.823  0.8603 -0.4879 -0.8138
 9804SOL     OW35373   9.215   1.032   3.703 -0.3229  0.5872  0.0290
 9804SOL    HW135374   9.142   1.023   3.642  1.0680  1.6741 -1.9196
 9804SOL    HW235375   9.290   0.993   3.657  0.4554 -0.0623  1.7543
 9805SOL     OW35376   3.834   7.681   7.035  0.6967  0.2439 -0.7202
 9805SOL    HW135377   3.832   7.616   7.105  1.1874 -0.7170 -1.5646
 9805SOL    HW235378   3.886   7.753   7.071  0.3260  0.0859  0.1554
 9806SOL     OW35379   1.406   1.201   7.876  0.1516 -0.0378  0.6077
 9806SOL    HW135380   1.374   1.289   7.859  0.3059  0.3535  2.1672
 9806SOL    HW235381   1.392   1.154   7.794 -2.4203  0.6824  0.5573
 9807SOL     OW35382   6.122   3.665   0.813 -0.1877  0.1198 -1.0668
 9807SOL    HW135383   6.153   3.582   0.849 -1.5833 -0.4368 -1.0909
 9807SOL    HW235384   6.133   3.656   0.718 -0.8972 -0.2977 -1.1189
 9808SOL     OW35385   3.811   1.864   5.195  0.1038  0.1584  0.0263
 9808SOL    HW135386   3.830   1.817   5.276 -0.2794 -1.2555 -0.6706
 9808SOL    HW235387   3.897   1.875   5.153 -0.0044 -2.2548 -1.0039
 9809SOL     OW35388   9.331   6.345   0.163 -0.1469  0.3944  0.1266
 9809SOL    HW135389   9.373   6.430   0.152  0.6781 -0.2700 -3.0165
 9809SOL    HW235390   9.237   6.363   0.156 -0.1379  1.2358  1.6797
 9810SOL     OW35391   0.589   8.377   3.865  0.2013  0.3525 -0.3106
 9810SOL    HW135392   0.636   8.447   3.819  0.9694 -1.9446 -3.3546
 9810SOL    HW235393   0.497   8.405   3.864  0.6941  2.1267  0.2674
 9811SOL     OW35394   6.025   7.025   3.697 -0.0070  0.0814 -0.2446
 9811SOL    HW135395   5.962   6.994   3.633  0.1537  0.1060 -0.4152
 9811SOL    HW235396   6.040   6.950   3.755 -1.3290  0.5292  0.6962
 9812SOL     OW35397   8.846   6.857   3.079  0.1777  0.0304 -0.3637
 9812SOL    HW135398   8.796   6.910   3.141  0.4748  1.4792 -1.3354
 9812SOL    HW235399   8.936   6.890   3.086  0.2393  0.1254 -1.4557
 9813SOL     OW35400   5.045   5.702   5.188  0.3886  0.0375  0.4725
 9813SOL    HW135401   5.131   5.677   5.222  1.0865  0.2779 -1.0626
 9813SOL    HW235402   4.988   5.630   5.214  1.3135 -0.7329  0.4319
 9814SOL     OW35403   5.488   4.650   8.016  0.1915  0.9826  0.2153
 9814SOL    HW135404   5.536   4.573   7.984 -0.7371 -0.4459  2.0713
 9814SOL    HW235405   5.456   4.693   7.937 -0.1033 -1.0926 -0.8625
 9815SOL     OW35406   5.455   8.417   3.474  0.1205  0.3833  0.3342
 9815SOL    HW135407   5.502   8.472   3.537  0.2209  0.1530  0.4622
 9815SOL    HW235408   5.364   8.446   3.480  0.1003  0.2515  0.7096
 9816SOL     OW35409   9.255   1.040   6.472  0.1664 -0.1067  0.3316
 9816SOL    HW135410   9.180   1.062   6.528  0.7576  0.3871  0.9490
 9816SOL    HW235411   9.321   1.106   6.494  1.3621 -1.4509  0.9678
 9817SOL     OW35412   1.265   4.236   1.478 -0.2276  0.4579  0.3688
 9817SOL    HW135413   1.359   4.234   1.458 -0.1352  1.4551  0.6459
 9817SOL    HW235414   1.238   4.325   1.454 -1.0041  0.3267  0.7387
 9818SOL     OW35415   0.450   8.983   7.915 -0.0763  0.1503  0.0110
 9818SOL    HW135416   0.464   9.040   7.991 -0.2077 -0.5347  0.5663
 9818SOL    HW235417   0.363   9.007   7.883 -0.5765 -0.4227  0.8767
 9819SOL     OW35418   6.981   2.755   6.302 -0.1198  0.3420  0.7831
 9819SOL    HW135419   6.995   2.835   6.251  1.7180 -0.5561 -0.2071
 9819SOL    HW235420   7.068   2.719   6.314 -0.8946 -1.4153  1.3994
 9820SOL     OW35421   0.948   6.514   6.010 -0.0474  0.3577  0.5450
 9820SOL    HW135422   1.029   6.496   6.059 -0.0255  0.2166  0.4596
 9820SOL    HW235423   0.889   6.553   6.074 -0.5880 -1.2821  1.0974
 9821SOL     OW35424   2.656   2.139   4.891 -0.2560 -0.3134 -0.1963
 9821SOL    HW135425   2.602   2.187   4.829  2.8746  1.8962 -1.5246
 9821SOL    HW235426   2.687   2.062   4.843 -0.4470 -0.3784 -0.2141
 9822SOL     OW35427   2.451   6.965   3.419  0.0333 -0.0929  0.3140
 9822SOL    HW135428   2.416   6.949   3.507  1.2319 -1.4379  0.5842
 9822SOL    HW235429   2.416   7.051   3.395  0.1345  0.5719  2.3431
 9823SOL     OW35430   5.521   6.742   1.723 -0.9099  0.0856  0.1395
 9823SOL    HW135431   5.489   6.821   1.766  2.1353  0.7260  1.5294
 9823SOL    HW235432   5.555   6.772   1.639  0.3970  0.3397  0.7367
 9824SOL     OW35433   5.388   7.677   6.072  0.3002  0.1334  0.1118
 9824SOL    HW135434   5.479   7.655   6.092  0.2120  0.6684  1.1733
 9824SOL    HW235435   5.337   7.606   6.111  0.3159 -1.2046 -2.1308
 9825SOL     OW35436   8.093   5.818   6.724 -0.1520  0.1948  0.3644
 9825SOL    HW135437   8.082   5.906   6.760  0.1953  1.4079 -2.2878
 9825SOL    HW235438   8.099   5.831   6.630  3.5578 -2.2488  0.0225
 9826SOL     OW35439   4.461   6.950   4.324 -0.0691  0.2661  0.4872
 9826SOL    HW135440   4.458   7.023   4.263 -0.3840 -0.9258 -0.9745
 9826SOL    HW235441   4.375   6.950   4.365 -0.9011 -0.6373 -1.1857
 9827SOL     OW35442   2.331   6.927   9.198 -0.1585  0.4172  0.1988
 9827SOL    HW135443   2.401   6.862   9.202 -0.4636  0.0070 -0.7712
 9827SOL    HW235444   2.321   6.958   9.288 -0.4962 -1.4005  0.8258
 9828SOL     OW35445   2.974   4.827   3.502 -0.2584  0.0493  0.5219
 9828SOL    HW135446   2.943   4.896   3.443 -0.9045 -1.2326 -0.6764
 9828SOL    HW235447   3.059   4.801   3.466 -0.4433 -0.4147  0.4119
 9829SOL     OW35448   5.231   9.061   0.540  0.0460 -0.8030  0.4625
 9829SOL    HW135449   5.310   9.010   0.553 -0.8267 -2.4469 -0.3283
 9829SOL    HW235450   5.234   9.086   0.447 -0.1609 -0.5286  0.5291
 9830SOL     OW35451   6.564   6.094   8.562  0.0817 -0.1666 -0.1962
 9830SOL    HW135452   6.631   6.153   8.526 -0.2383  0.0048 -0.5104
 9830SOL    HW235453   6.590   6.082   8.653  0.9770 -0.7247 -0.5153
 9831SOL     OW35454   6.825   6.779   4.210  0.0883 -0.1036  0.1579
 9831SOL    HW135455   6.894   6.713   4.204  0.1515 -0.7029  4.3926
 9831SOL    HW235456   6.744   6.729   4.211 -0.0281  0.0883  0.6712
 9832SOL     OW35457   5.484   3.678   0.235 -0.3482 -0.1400  0.1062
 9832SOL    HW135458   5.499   3.769   0.260  0.0882 -0.6213  1.7013
 9832SOL    HW235459   5.503   3.628   0.314  0.0942 -1.6851 -0.9367
 9833SOL     OW35460   0.966   4.121   2.605  0.1527  0.1914 -0.4405
 9833SOL    HW135461   0.898   4.176   2.643  0.8881 -0.2963  1.7075
 9833SOL    HW235462   1.039   4.180   2.590 -0.0077  0.3091 -0.7827
 9834SOL     OW35463   1.560   7.556   2.725 -0.1369 -0.3052 -0.2497
 9834SOL    HW135464   1.637   7.502   2.709  0.1686  0.5272 -1.8100
 9834SOL    HW235465   1.532   7.585   2.638  0.5992  3.2357  0.5146
 9835SOL     OW35466   4.907   3.586   7.374  0.8355  0.5757 -0.0917
 9835SOL    HW135467   4.964   3.529   7.424  0.5169  1.1239  0.9115
 9835SOL    HW235468   4.824   3.538   7.368  1.3573 -0.2298 -1.5672
 9836SOL     OW35469   3.583   6.445   5.307 -0.6248  0.0689 -0.0368
 9836SOL    HW135470   3.614   6.424   5.395 -0.2921  0.5738 -0.0247
 9836SOL    HW235471   3.657   6.424   5.250 -0.9926 -0.6759 -0.2537
 9837SOL     OW35472   7.251   1.741   5.345 -1.0767  0.5463  0.3379
 9837SOL    HW135473   7.341   1.707   5.348 -1.8044 -1.5182  0.2452
 9837SOL    HW235474   7.227   1.755   5.436 -0.4296  1.8829  0.3353
 9838SOL     OW35475   8.319   1.806   3.211  0.1893 -0.4496  0.2470
 9838SOL    HW135476   8.241   1.752   3.214 -0.6328  0.6698 -0.3692
 9838SOL    HW235477   8.392   1.744   3.207 -0.6056 -1.5214  1.6529
 9839SOL     OW35478   5.535   7.561   5.123 -0.1128 -0.4577 -0.5237
 9839SOL    HW135479   5.625   7.572   5.155 -0.8325 -0.7499  1.7972
 9839SOL    HW235480   5.543   7.498   5.051  1.4685 -1.0321  0.1043
 9840SOL     OW35481   6.763   6.062   3.874 -0.5472  0.1322 -0.1144
 9840SOL    HW135482   6.783   6.154   3.860 -1.2056  0.1810 -0.7431
 9840SOL    HW235483   6.756   6.053   3.969  0.6278  0.4895  0.0180
 9841SOL     OW35484   6.950   4.140   8.821 -0.3601 -0.2899  0.3753
 9841SOL    HW135485   6.988   4.154   8.907 -2.5029 -0.6768  1.4468
 9841SOL    HW235486   6.955   4.045   8.808 -0.1851 -0.2490  0.1087
 9842SOL     OW35487   1.838   5.880   8.821  0.2596  0.1050  0.1232
 9842SOL    HW135488   1.754   5.927   8.822 -0.8900 -1.8254  0.9519
 9842SOL    HW235489   1.869   5.885   8.912  0.9414  0.6088 -0.1304
 9843SOL     OW35490   1.318   6.751   3.354  0.0918 -0.1862  0.2099
 9843SOL    HW135491   1.378   6.822   3.332  1.0128 -0.3972  1.8744
 9843SOL    HW235492   1.360   6.705   3.426 -2.1010 -0.3179  1.5052
 9844SOL     OW35493   1.022   6.035   3.148 -0.2788 -0.6106  0.4406
 9844SOL    HW135494   1.032   5.995   3.061  0.2142  1.6612 -0.6131
 9844SOL    HW235495   1.111   6.040   3.183 -0.1072  0.9678 -0.1447
 9845SOL     OW35496   9.166   1.464   6.570 -0.1486 -0.3808  0.2417
 9845SOL    HW135497   9.074   1.437   6.568 -0.0310 -0.8194  0.5552
 9845SOL    HW235498   9.186   1.488   6.480  0.1155 -2.6497 -0.3574
 9846SOL     OW35499   0.583   3.394   5.432  0.3837  0.3438 -0.4620
 9846SOL    HW135500   0.531   3.473   5.449 -0.7207 -0.1014 -1.5697
 9846SOL    HW235501   0.579   3.383   5.337 -2.6940 -3.0295 -0.1925
 9847SOL     OW35502   8.847   7.699   1.504 -0.5253 -0.1237 -0.1024
 9847SOL    HW135503   8.851   7.768   1.438  1.3398  0.0589  0.1580
 9847SOL    HW235504   8.887   7.738   1.582 -0.7032 -1.0492  0.4643
 9848SOL     OW35505   4.460   6.990   1.406 -0.2902  0.2180 -0.2971
 9848SOL    HW135506   4.388   6.952   1.358 -1.0969  0.7052  0.4922
 9848SOL    HW235507   4.474   7.076   1.366 -0.0011  0.0381 -0.5865
 9849SOL     OW35508   0.133   2.751   0.641  0.1020 -0.7746  0.2503
 9849SOL    HW135509   0.191   2.713   0.707 -0.5765 -1.1275  0.6497
 9849SOL    HW235510   0.068   2.684   0.624 -0.2258 -0.3630 -0.1570
 9850SOL     OW35511   2.806   6.274   6.506  0.0230 -0.1519 -0.2544
 9850SOL    HW135512   2.820   6.355   6.555  0.7605  0.0920 -0.8569
 9850SOL    HW235513   2.831   6.295   6.416 -1.5833 -0.5102 -0.8167
 9851SOL     OW35514   6.292   8.128   0.217 -0.3618  0.2362  0.5916
 9851SOL    HW135515   6.265   8.192   0.282 -3.0899  0.2269 -0.4246
 9851SOL    HW235516   6.246   8.153   0.137  0.3255 -1.6570 -0.4649
 9852SOL     OW35517   3.658   1.779   5.807 -1.0063  0.0816  0.5222
 9852SOL    HW135518   3.744   1.752   5.840 -1.5050 -2.0199  0.2616
 9852SOL    HW235519   3.596   1.752   5.874 -1.4945  1.7234  0.7808
 9853SOL     OW35520   3.719   7.532   4.067  0.1261  0.4237 -0.2561
 9853SOL    HW135521   3.799   7.490   4.099  0.4079  1.7622  0.8814
 9853SOL    HW235522   3.656   7.461   4.059  0.9309 -0.3971  0.4815
 9854SOL     OW35523   1.180   4.208   0.382 -0.1856 -0.4795 -0.0915
 9854SOL    HW135524   1.116   4.164   0.327  0.5846 -0.1769 -1.2744
 9854SOL    HW235525   1.195   4.292   0.339 -0.0779  0.0777  0.9771
 9855SOL     OW35526   8.731   5.470   2.210  0.0813 -0.7087  0.2764
 9855SOL    HW135527   8.758   5.546   2.160  1.4891 -1.5626 -0.3209
 9855SOL    HW235528   8.668   5.504   2.274 -0.8447  0.6022 -1.2546
 9856SOL     OW35529   3.645   7.089   6.788 -0.2454  0.0225  0.0386
 9856SOL    HW135530   3.737   7.089   6.763  0.1346 -1.4242  1.2935
 9856SOL    HW235531   3.645   7.074   6.882 -1.7609  0.9050  0.2303
 9857SOL     OW35532   8.715   5.681   9.305 -0.0547 -0.0528 -0.1271
 9857SOL    HW135533   8.677   5.727   9.231  0.4418  0.1845 -0.2417
 9857SOL    HW235534   8.781   5.623   9.266  1.4211  1.3017  0.2417
 9858SOL     OW35535   6.515   5.888   1.042  0.1606 -0.4132  0.0382
 9858SOL    HW135536   6.512   5.928   0.955  2.5100  0.3857  0.2400
 9858SOL    HW235537   6.542   5.798   1.025  3.0447  0.3727 -0.0120
 9859SOL     OW35538   7.586   8.834   5.685 -0.1999 -0.2708  0.0277
 9859SOL    HW135539   7.639   8.846   5.764  1.7951  0.0322 -1.2709
 9859SOL    HW235540   7.533   8.756   5.703  0.0548 -0.0968  1.7182
 9860SOL     OW35541   5.061   4.370   3.831  0.1194 -0.4177  0.4010
 9860SOL    HW135542   5.113   4.299   3.867  1.0211  0.6754  1.3513
 9860SOL    HW235543   5.126   4.438   3.810 -0.7603  0.3111 -0.0318
 9861SOL     OW35544   7.490   7.149   1.267 -0.7536 -0.1483 -0.1267
 9861SOL    HW135545   7.479   7.199   1.348 -0.9202  1.6185 -1.1973
 9861SOL    HW235546   7.585   7.144   1.254 -0.7226 -0.5823  0.2652
 9862SOL     OW35547   2.978   7.228   3.704 -0.1864  0.0821  0.0781
 9862SOL    HW135548   2.936   7.313   3.721  3.6180  1.8586  1.9846
 9862SOL    HW235549   2.994   7.228   3.610 -1.8892  0.5453 -0.2586
 9863SOL     OW35550   6.725   0.178   1.144 -0.2514 -0.0970  0.6861
 9863SOL    HW135551   6.685   0.258   1.179 -2.2402 -1.3329  1.4278
 9863SOL    HW235552   6.817   0.200   1.131 -0.9668  2.6827 -0.3317
 9864SOL     OW35553   3.882   5.971   1.383 -0.0010  0.4255 -0.6549
 9864SOL    HW135554   3.930   5.906   1.436 -1.4120  0.2580  0.4805
 9864SOL    HW235555   3.902   6.055   1.424 -0.5659  0.3671 -0.2485
 9865SOL     OW35556   4.740   0.336   6.360  0.0145 -0.4125  0.2027
 9865SOL    HW135557   4.701   0.249   6.356  1.5210 -1.1545  0.9235
 9865SOL    HW235558   4.690   0.383   6.427 -1.3043 -0.4271 -0.7332
 9866SOL     OW35559   6.103   4.812   1.539 -0.2601  0.2600  0.0559
 9866SOL    HW135560   6.037   4.822   1.471  0.9288 -2.4001 -1.6509
 9866SOL    HW235561   6.072   4.739   1.592  1.6669 -1.7257 -1.3958
 9867SOL     OW35562   0.732   4.145   0.897 -0.3764 -0.0105 -0.0277
 9867SOL    HW135563   0.821   4.161   0.930  0.1703 -0.9956 -0.9622
 9867SOL    HW235564   0.694   4.232   0.889  1.1318  0.5797 -1.2998
 9868SOL     OW35565   0.870   9.327   9.054  0.4801 -0.7524  0.0604
 9868SOL    HW135566   0.945   9.365   9.099  0.7856 -0.4598 -0.6776
 9868SOL    HW235567   0.870   9.369   8.968 -2.2194  1.5204  0.9959
 9869SOL     OW35568   6.128   0.291   4.996  0.6068  0.1602 -0.0622
 9869SOL    HW135569   6.096   0.381   5.001  1.8996  0.6397  0.0315
 9869SOL    HW235570   6.159   0.281   4.907  1.5098  0.1940  0.2379
 9870SOL     OW35571   7.433   4.045   1.459 -0.4533 -0.0249 -0.0090
 9870SOL    HW135572   7.478   4.007   1.534  1.9454  1.6489 -0.4538
 9870SOL    HW235573   7.408   3.970   1.405 -0.8367 -1.1678  1.6793
 9871SOL     OW35574   2.747   7.135   9.153  0.0099  0.3807  0.1035
 9871SOL    HW135575   2.823   7.140   9.095  0.4197  1.5384  0.6981
 9871SOL    HW235576   2.682   7.193   9.113 -1.1583 -1.7038 -1.1823
 9872SOL     OW35577   0.792   2.086   1.238  0.5464 -0.0483  0.6621
 9872SOL    HW135578   0.788   2.146   1.312 -1.9104 -0.2170  0.7327
 9872SOL    HW235579   0.838   2.010   1.272  3.1860  1.4606  0.7399
 9873SOL     OW35580   8.443   5.510   4.475  0.4853 -0.3759 -0.6176
 9873SOL    HW135581   8.480   5.598   4.464 -1.7053  0.6077 -0.5482
 9873SOL    HW235582   8.492   5.473   4.549 -0.9227  2.2151  1.8121
 9874SOL     OW35583   4.245   9.366   9.161  0.3238  0.0139  0.2779
 9874SOL    HW135584   4.325   9.397   9.203 -0.6989  2.4430  0.5841
 9874SOL    HW235585   4.174   9.398   9.217 -0.9138 -2.7520  0.4691
 9875SOL     OW35586   4.743   2.426   8.146 -0.1041 -0.1770  0.0329
 9875SOL    HW135587   4.755   2.391   8.057  1.3726  1.1703 -0.3630
 9875SOL    HW235588   4.648   2.430   8.158 -0.3260 -1.2424 -1.1239
 9876SOL     OW35589   6.910   1.958   3.602 -0.4912  0.0905  0.4132
 9876SOL    HW135590   6.971   1.994   3.537  0.4497  1.7491  2.1045
 9876SOL    HW235591   6.908   2.024   3.672 -0.2466 -2.2686  2.8096
 9877SOL     OW35592   3.566   8.522   8.065 -0.5643 -0.1107 -0.5852
 9877SOL    HW135593   3.537   8.555   8.150  1.7390  1.0571 -0.1730
 9877SOL    HW235594   3.512   8.569   8.001 -1.1446  0.2890  0.1871
 9878SOL     OW35595   3.111   0.457   6.348  0.1892  0.2090  0.9638
 9878SOL    HW135596   3.135   0.512   6.422 -0.8890 -0.4443  1.8313
 9878SOL    HW235597   3.018   0.475   6.334  0.2273 -0.1669  0.2024
 9879SOL     OW35598   2.573   1.952   1.035  0.7612  0.5016 -0.1026
 9879SOL    HW135599   2.555   1.871   1.083  4.5604  0.6670  1.9382
 9879SOL    HW235600   2.662   1.942   1.003  0.7258  3.2199 -1.3241
 9880SOL     OW35601   3.319   5.388   5.865 -0.0271 -0.6151  0.4422
 9880SOL    HW135602   3.357   5.446   5.931  0.1095 -0.2193  0.0203
 9880SOL    HW235603   3.233   5.365   5.901  0.0696 -0.4468  0.7865
 9881SOL     OW35604   7.930   7.585   4.549 -0.6696  0.3396 -0.6433
 9881SOL    HW135605   7.951   7.592   4.456 -0.9630 -0.2851 -0.7570
 9881SOL    HW235606   7.969   7.502   4.577  0.5800  1.1525  0.1076
 9882SOL     OW35607   1.783   2.725   7.687  0.4220 -0.4861 -0.3490
 9882SOL    HW135608   1.866   2.678   7.688  0.2308 -0.9562  2.5524
 9882SOL    HW235609   1.729   2.677   7.624  0.8354 -3.2047  1.1828
 9883SOL     OW35610   4.832   5.062   7.902  0.6260  0.5278 -0.2778
 9883SOL    HW135611   4.785   5.082   7.983  1.2800 -2.6174  1.0075
 9883SOL    HW235612   4.767   5.072   7.833 -0.1594  2.4639  0.6446
 9884SOL     OW35613   8.667   4.484   0.462 -0.1662 -0.4696  0.0648
 9884SOL    HW135614   8.658   4.490   0.367  2.0953  1.8830 -0.0950
 9884SOL    HW235615   8.691   4.392   0.478 -1.0205 -1.0154 -1.5256
 9885SOL     OW35616   3.588   4.450   2.452  0.1471 -0.7311 -0.1196
 9885SOL    HW135617   3.572   4.357   2.464  3.5683 -1.7425 -2.2700
 9885SOL    HW235618   3.618   4.459   2.362  0.4508  2.3932  0.1727
 9886SOL     OW35619   5.097   5.017   2.624  0.4453 -0.2143  0.1439
 9886SOL    HW135620   5.103   4.932   2.667  0.1855  0.0659  0.7563
 9886SOL    HW235621   5.170   5.018   2.562  1.2068 -0.3969  1.0116
 9887SOL     OW35622   7.051   3.324   6.268  0.2727  0.5552  0.2083
 9887SOL    HW135623   7.050   3.377   6.189 -1.0149  0.7284  0.3174
 9887SOL    HW235624   7.052   3.234   6.237  2.6834  0.5720  0.0207
 9888SOL     OW35625   3.685   4.904   5.798  0.1601  0.5369  0.2426
 9888SOL    HW135626   3.599   4.878   5.831 -0.5141  0.8308 -1.1751
 9888SOL    HW235627   3.717   4.828   5.749  0.1478  0.8316 -0.2391
 9889SOL     OW35628   5.444   0.600   5.178 -0.0795 -0.6804 -0.1110
 9889SOL    HW135629   5.501   0.573   5.106  1.5538  1.1058  0.4305
 9889SOL    HW235630   5.437   0.695   5.169 -1.0226 -0.5891  1.2464
 9890SOL     OW35631   5.198   8.253   7.892  0.2812 -0.1140 -0.3619
 9890SOL    HW135632   5.195   8.349   7.893 -0.6532 -0.1399  0.2263
 9890SOL    HW235633   5.256   8.230   7.964  0.1808  0.0059 -0.2418
 9891SOL     OW35634   5.600   1.845   7.513  0.1615 -0.1412 -0.1214
 9891SOL    HW135635   5.514   1.859   7.473 -0.2528  0.0200  0.7892
 9891SOL    HW235636   5.580   1.818   7.602  1.0481  1.7756  0.7146
 9892SOL     OW35637   9.283   4.476   1.888 -0.4113 -0.4513 -0.1365
 9892SOL    HW135638   9.301   4.532   1.812 -2.8442 -0.8997 -1.1272
 9892SOL    HW235639   9.342   4.402   1.877  1.4202  0.9113  0.0972
 9893SOL     OW35640   1.882   7.531   1.354 -0.3570  0.2505 -0.4612
 9893SOL    HW135641   1.973   7.513   1.330 -0.2489  1.2846 -0.8840
 9893SOL    HW235642   1.888   7.581   1.436 -0.5713 -0.0748 -0.2427
 9894SOL     OW35643   1.816   0.977   5.906 -0.2031  0.3308  0.2396
 9894SOL    HW135644   1.800   0.905   5.968  0.2929 -0.7400 -0.8414
 9894SOL    HW235645   1.861   1.043   5.959  0.2575 -0.5773  1.0269
 9895SOL     OW35646   1.761   4.213   4.566  0.1368 -0.7698  0.4362
 9895SOL    HW135647   1.727   4.295   4.601  0.4937 -0.6185  0.4352
 9895SOL    HW235648   1.718   4.202   4.481  0.2792 -0.4522  0.3219
 9896SOL     OW35649   7.400   0.991   6.496 -0.5093  0.1837  0.7701
 9896SOL    HW135650   7.319   0.952   6.528  0.5848 -2.1060  0.9621
 9896SOL    HW235651   7.454   0.916   6.469  1.2613  1.6647 -0.0285
 9897SOL     OW35652   6.881   6.406   4.707 -0.5008 -0.3435  0.4013
 9897SOL    HW135653   6.904   6.320   4.671  0.7735  0.5854 -1.0689
 9897SOL    HW235654   6.902   6.398   4.800  0.2067 -1.4243  0.1703
 9898SOL     OW35655   7.436   1.121   5.256  0.2533 -0.2845 -0.0001
 9898SOL    HW135656   7.439   1.207   5.299  0.8924 -0.1659 -0.2718
 9898SOL    HW235657   7.527   1.092   5.255  0.5162  0.4251 -2.6816
 9899SOL     OW35658   4.802   3.272   9.021  0.1364  0.0636  0.2759
 9899SOL    HW135659   4.711   3.248   9.037  0.3550 -0.3921  0.8780
 9899SOL    HW235660   4.850   3.235   9.095  0.9598 -0.6946 -0.6056
 9900SOL     OW35661   6.786   6.644   5.933  0.1420 -0.4852  0.1926
 9900SOL    HW135662   6.811   6.660   5.842  2.6025  0.4770  0.9362
 9900SOL    HW235663   6.735   6.721   5.958 -2.7729 -1.8935 -0.9971
 9901SOL     OW35664   3.988   0.816   8.776  0.2539 -0.0235  0.3644
 9901SOL    HW135665   3.943   0.834   8.694 -2.9678  1.4446  2.2796
 9901SOL    HW235666   3.981   0.722   8.788  1.1132 -0.3114 -1.1661
 9902SOL     OW35667   8.590   2.198   2.361  0.3904 -0.0232 -0.1710
 9902SOL    HW135668   8.613   2.156   2.445 -1.1755  1.4892  1.0896
 9902SOL    HW235669   8.511   2.153   2.332 -0.7106  1.2806  0.6710
 9903SOL     OW35670   8.245   1.008   8.474 -0.3007 -0.2125  0.1135
 9903SOL    HW135671   8.286   0.994   8.560  2.1017 -0.6409 -1.0226
 9903SOL    HW235672   8.254   1.101   8.458 -1.2641 -0.0371  0.5505
 9904SOL     OW35673   9.176   7.316   0.494 -0.3306 -0.2903 -0.1718
 9904SOL    HW135674   9.179   7.392   0.552  1.3379  0.8199 -1.5720
 9904SOL    HW235675   9.199   7.242   0.550 -0.2850  0.5034  0.8909
 9905SOL     OW35676   0.917   5.505   1.595 -0.1897  0.1615  0.1228
 9905SOL    HW135677   0.890   5.516   1.504 -0.3254  0.2295  0.1716
 9905SOL    HW235678   0.911   5.593   1.633 -1.8458 -0.1442  0.6709
 9906SOL     OW35679   8.484   3.377   2.903  0.0683  0.0740  0.2143
 9906SOL    HW135680   8.394   3.345   2.899  0.2510 -0.3238 -1.4448
 9906SOL    HW235681   8.480   3.451   2.964 -1.9107  1.6028 -1.5983
 9907SOL     OW35682   4.795   2.282   5.509 -0.2043 -0.3839  0.0470
 9907SOL    HW135683   4.887   2.302   5.493 -0.5138  1.9426  0.7394
 9907SOL    HW235684   4.747   2.343   5.453 -1.2799 -0.2361  1.0796
 9908SOL     OW35685   5.140   3.500   0.605  0.5549  0.2172 -0.2478
 9908SOL    HW135686   5.193   3.424   0.585 -1.6642 -2.0746  1.9092
 9908SOL    HW235687   5.063   3.492   0.548  0.3785  0.9802 -0.1374
 9909SOL     OW35688   3.868   0.216   5.311 -0.1915 -0.3175  0.0797
 9909SOL    HW135689   3.836   0.128   5.292 -0.5722 -0.1628  0.0024
 9909SOL    HW235690   3.790   0.270   5.312  0.0970  0.1168 -0.4202
 9910SOL     OW35691   1.070   4.059   6.764  0.4364  0.5386  0.0606
 9910SOL    HW135692   1.074   4.039   6.858  1.8690 -1.8279 -0.4329
 9910SOL    HW235693   1.097   4.151   6.758 -0.8358  1.1084  2.0153
 9911SOL     OW35694   0.208   8.524   2.162  0.4872 -0.3742  0.1627
 9911SOL    HW135695   0.158   8.463   2.216 -0.2890  0.6296  0.6228
 9911SOL    HW235696   0.244   8.587   2.224  4.2343 -2.2371  0.1407
 9912SOL     OW35697   6.903   2.682   3.130 -0.2148  0.3120  0.5657
 9912SOL    HW135698   6.882   2.765   3.174 -0.0289  0.2130  0.8450
 9912SOL    HW235699   6.821   2.655   3.089 -0.1243  0.9603 -0.0727
 9913SOL     OW35700   0.332   5.955   1.990  0.6396 -0.5727 -0.3679
 9913SOL    HW135701   0.362   6.025   2.047 -2.8001  1.6200 -0.9493
 9913SOL    HW235702   0.293   5.999   1.915 -0.8180 -3.1283 -1.2572
 9914SOL     OW35703   6.809   5.711   2.181 -0.0569  0.3461  0.1575
 9914SOL    HW135704   6.886   5.671   2.140  1.1522  1.1716  1.5161
 9914SOL    HW235705   6.742   5.642   2.179  1.0616 -0.7753 -0.0756
 9915SOL     OW35706   5.391   3.970   4.413 -0.2906  0.1027  0.2352
 9915SOL    HW135707   5.457   4.037   4.398  0.4691 -0.4751  0.9323
 9915SOL    HW235708   5.315   4.018   4.446 -1.1571  1.1001 -2.8511
 9916SOL     OW35709   2.770   1.859   8.595  0.1624  0.9611 -0.2225
 9916SOL    HW135710   2.853   1.863   8.547 -0.0761  0.6181 -0.6751
 9916SOL    HW235711   2.762   1.944   8.638  0.3055  1.3227 -0.9137
 9917SOL     OW35712   4.849   0.896   8.468 -0.1841 -0.2222  0.0590
 9917SOL    HW135713   4.779   0.909   8.532  0.2353  0.4982  0.3866
 9917SOL    HW235714   4.850   0.802   8.451 -0.3931 -0.3969  0.9957
 9918SOL     OW35715   1.627   8.045   0.624  0.1694 -0.1968  0.3341
 9918SOL    HW135716   1.555   8.108   0.627  1.3327  1.2704 -1.0694
 9918SOL    HW235717   1.593   7.973   0.570  0.6263  1.8177 -2.9305
 9919SOL     OW35718   5.834   2.062   3.436  0.2971 -0.7243  0.0820
 9919SOL    HW135719   5.817   2.006   3.360 -1.2044 -1.8528  1.1915
 9919SOL    HW235720   5.783   2.022   3.507 -0.1660  1.5945  1.1350
 9920SOL     OW35721   9.023   0.350   8.065 -0.0049  0.0229  0.1412
 9920SOL    HW135722   9.041   0.431   8.017 -1.3669  0.7832  0.8266
 9920SOL    HW235723   8.945   0.370   8.116 -2.8827 -2.9890 -2.6512
 9921SOL     OW35724   0.668   8.584   3.268  0.0476 -0.0758 -0.2091
 9921SOL    HW135725   0.607   8.584   3.343  0.2330 -1.9288 -0.0051
 9921SOL    HW235726   0.751   8.612   3.305 -0.3181  1.0215 -0.1768
 9922SOL     OW35727   5.882   5.358   2.471  0.0190  0.0458 -0.0830
 9922SOL    HW135728   5.975   5.377   2.483 -0.2282  0.6660  1.0785
 9922SOL    HW235729   5.850   5.426   2.412  0.2229  0.0934 -0.1371
 9923SOL     OW35730   4.305   1.116   1.541  0.3758 -0.6136 -0.5117
 9923SOL    HW135731   4.366   1.177   1.583  0.2006 -1.0293  0.3572
 9923SOL    HW235732   4.313   1.135   1.447  0.9865  0.1241 -0.3168
 9924SOL     OW35733   7.443   5.690   4.124 -0.0631  0.2624 -0.2886
 9924SOL    HW135734   7.504   5.625   4.087 -1.0274  0.2303 -1.9429
 9924SOL    HW235735   7.462   5.691   4.217  1.3541 -0.9311 -0.5289
 9925SOL     OW35736   7.690   8.730   3.579  0.2335 -0.3697  0.0604
 9925SOL    HW135737   7.705   8.642   3.613  0.1665 -1.0983 -1.6970
 9925SOL    HW235738   7.601   8.727   3.543 -0.8306  1.2404  2.3310
 9926SOL     OW35739   3.748   3.414   9.196  0.1625  0.2338 -0.4958
 9926SOL    HW135740   3.718   3.323   9.197 -0.1393  0.3159  1.2118
 9926SOL    HW235741   3.712   3.450   9.115 -0.8891 -0.7883 -0.5145
 9927SOL     OW35742   2.319   3.792   2.209  0.1728 -0.4531 -0.1523
 9927SOL    HW135743   2.388   3.858   2.218 -0.3157 -0.0382  0.7364
 9927SOL    HW235744   2.281   3.809   2.123  0.6957 -0.1971 -0.3322
 9928SOL     OW35745   1.192   5.187   0.625 -0.2926  0.2705 -0.0062
 9928SOL    HW135746   1.287   5.181   0.611 -0.3227 -1.1956  0.2919
 9928SOL    HW235747   1.154   5.147   0.547 -0.6330 -0.4130  0.5038
 9929SOL     OW35748   3.720   5.511   7.171  0.1231  0.0502 -0.2271
 9929SOL    HW135749   3.624   5.509   7.174  0.0729  1.6484  1.9879
 9929SOL    HW235750   3.742   5.601   7.147  0.9945  0.4150  1.7074
 9930SOL     OW35751   1.498   4.662   2.185 -0.3712  0.0387  0.2116
 9930SOL    HW135752   1.441   4.736   2.165  1.0428  1.5676  1.5580
 9930SOL    HW235753   1.572   4.701   2.232 -0.2125 -2.4092  2.1544
 9931SOL     OW35754   4.390   4.132   2.174  0.1081 -0.2903  0.9046
 9931SOL    HW135755   4.394   4.221   2.209  0.0751  0.6082 -1.2465
 9931SOL    HW235756   4.296   4.111   2.172  0.1176 -0.4212  1.4326
 9932SOL     OW35757   6.609   7.330   7.471  0.0675  0.0397  0.1582
 9932SOL    HW135758   6.697   7.294   7.483  0.3654  1.0492  1.1086
 9932SOL    HW235759   6.584   7.300   7.383  0.9716 -1.0418  0.2406
 9933SOL     OW35760   4.323   2.860   8.280 -0.5067 -0.1087  0.0874
 9933SOL    HW135761   4.295   2.770   8.265 -0.8712 -0.2759  1.5803
 9933SOL    HW235762   4.411   2.864   8.243 -1.1058 -0.6036 -1.4365
 9934SOL     OW35763   2.315   2.485   2.782  0.1673  0.2422 -0.5900
 9934SOL    HW135764   2.244   2.477   2.846  1.3879  1.1935  0.9618
 9934SOL    HW235765   2.315   2.401   2.736 -1.3531 -0.1143 -0.0160
 9935SOL     OW35766   0.763   6.387   8.045 -0.5190 -0.4926 -0.2256
 9935SOL    HW135767   0.746   6.476   8.076 -0.5631 -1.3152  2.4127
 9935SOL    HW235768   0.759   6.333   8.125  1.5018 -2.5840 -1.4192
 9936SOL     OW35769   5.619   2.328   9.200  0.4348 -0.6783  0.3019
 9936SOL    HW135770   5.531   2.365   9.208  0.9306  0.5191  0.3777
 9936SOL    HW235771   5.653   2.326   9.290  1.4965  1.4983  0.0230
 9937SOL     OW35772   8.349   9.006   2.939 -0.2110  0.1840 -0.1357
 9937SOL    HW135773   8.306   9.007   3.024 -0.6402 -0.6143 -0.3338
 9937SOL    HW235774   8.280   8.981   2.877 -0.0150  1.1997 -0.7913
 9938SOL     OW35775   5.327   8.070   0.762 -0.5174  0.3555  0.3241
 9938SOL    HW135776   5.325   8.144   0.701 -1.1319  1.0205  1.1260
 9938SOL    HW235777   5.416   8.035   0.754  0.0036  1.5885  0.3890
 9939SOL     OW35778   1.677   6.267   9.232 -0.1797 -0.3017 -0.1224
 9939SOL    HW135779   1.666   6.205   9.304  0.5492 -0.3671 -0.0609
 9939SOL    HW235780   1.765   6.251   9.199 -0.8723 -0.9771 -1.7250
 9940SOL     OW35781   1.853   0.753   0.444 -0.4419  0.1871  0.5119
 9940SOL    HW135782   1.792   0.698   0.395  0.5005 -0.0890 -0.3927
 9940SOL    HW235783   1.930   0.760   0.387 -1.2906  4.2436 -0.4341
 9941SOL     OW35784   7.808   8.922   3.713  0.0245  0.2118  0.2317
 9941SOL    HW135785   7.767   8.854   3.660  1.0542 -0.9794  0.9200
 9941SOL    HW235786   7.865   8.968   3.651  1.7691 -1.6248  0.3777
 9942SOL     OW35787   4.396   6.023   5.695 -0.1798  0.3560 -0.1740
 9942SOL    HW135788   4.422   6.081   5.623  0.6058 -0.1493 -0.3102
 9942SOL    HW235789   4.303   6.042   5.709 -0.2119  0.8287 -0.9784
 9943SOL     OW35790   7.932   0.423   3.990  0.6680  0.2206  0.7920
 9943SOL    HW135791   7.950   0.357   3.923  1.3997  0.8654  0.3373
 9943SOL    HW235792   8.000   0.490   3.977 -0.6312  1.5574  0.6098
 9944SOL     OW35793   4.831   0.300   1.178 -0.7553 -0.3072 -0.3457
 9944SOL    HW135794   4.798   0.222   1.224 -1.2589 -0.7063 -1.3531
 9944SOL    HW235795   4.861   0.267   1.093  2.5265 -0.0109  0.5738
 9945SOL     OW35796   7.850   2.459   8.361  0.4964  0.2283  0.4934
 9945SOL    HW135797   7.863   2.395   8.290  0.1412  0.1026  0.5429
 9945SOL    HW235798   7.762   2.441   8.394  0.3976  0.7411  0.5129
 9946SOL     OW35799   8.149   1.879   5.089 -0.5658 -0.0423  0.2139
 9946SOL    HW135800   8.144   1.969   5.123 -2.9423 -0.0329 -0.0208
 9946SOL    HW235801   8.173   1.826   5.165  0.0515  0.6810  0.5409
 9947SOL     OW35802   8.612   9.099   8.124  0.1109 -0.4027  1.2824
 9947SOL    HW135803   8.690   9.155   8.128 -1.3124  1.7410  0.3936
 9947SOL    HW235804   8.608   9.059   8.211  2.1273 -0.5152  1.3919
 9948SOL     OW35805   1.013   4.636   0.055  0.0321  0.1110 -0.6101
 9948SOL    HW135806   1.002   4.585   0.135 -0.3291  0.1587 -0.6316
 9948SOL    HW235807   1.014   4.570  -0.015 -0.4501  0.1346 -0.6393
 9949SOL     OW35808   4.313   4.183   7.806  0.5395 -0.7519 -0.1968
 9949SOL    HW135809   4.341   4.129   7.732 -0.7338 -2.5609  0.5544
 9949SOL    HW235810   4.299   4.120   7.877  0.1783  0.7450  1.1197
 9950SOL     OW35811   3.115   0.908   2.303 -0.2664  0.1915 -0.8488
 9950SOL    HW135812   3.191   0.961   2.278 -0.4486  0.5448 -0.6581
 9950SOL    HW235813   3.149   0.847   2.369 -0.4229  1.2051  0.1845
 9951SOL     OW35814   4.752   7.415   6.037  0.1555 -0.2890  1.0791
 9951SOL    HW135815   4.845   7.420   6.056  0.3717  1.1241 -0.0906
 9951SOL    HW235816   4.727   7.326   6.060  2.0320 -1.0487  0.3967
 9952SOL     OW35817   7.612   2.324   5.376  0.6986 -0.4439  0.2318
 9952SOL    HW135818   7.608   2.373   5.294  1.2049 -0.0391  0.4424
 9952SOL    HW235819   7.521   2.306   5.397  0.4667  0.7628  0.3518
 9953SOL     OW35820   5.902   3.551   1.147  0.3407 -0.8594  0.4060
 9953SOL    HW135821   5.829   3.516   1.198 -1.1613 -0.0014 -1.0647
 9953SOL    HW235822   5.865   3.565   1.060  2.0366  0.4535 -0.1406
 9954SOL     OW35823   9.363   7.146   3.302  0.6394  0.0322  0.4636
 9954SOL    HW135824   9.452   7.169   3.275  0.1644  0.3402 -0.9245
 9954SOL    HW235825   9.359   7.051   3.291  0.5269  0.1241 -0.3811
 9955SOL     OW35826   7.774   1.657   5.478 -0.0418  0.3745 -0.0672
 9955SOL    HW135827   7.773   1.752   5.478  1.4246  0.4196 -0.7039
 9955SOL    HW235828   7.773   1.632   5.570 -0.2846  0.9989  0.1029
 9956SOL     OW35829   7.562   6.204   7.853 -0.6331 -0.2223 -0.1615
 9956SOL    HW135830   7.564   6.225   7.946 -0.1419 -2.2719  0.3547
 9956SOL    HW235831   7.627   6.262   7.813 -0.6933  0.5180  0.7974
 9957SOL     OW35832   6.437   1.754   5.836  0.4000 -0.5860 -0.0699
 9957SOL    HW135833   6.502   1.754   5.907 -1.4622 -1.3306  1.7328
 9957SOL    HW235834   6.404   1.844   5.834  0.6242 -0.5045 -0.1720
 9958SOL     OW35835   7.302   4.380   1.911  0.3482  0.2637  0.5079
 9958SOL    HW135836   7.322   4.300   1.862  0.4481  1.2104 -1.0757
 9958SOL    HW235837   7.382   4.399   1.960  1.5736  1.1250 -1.6593
 9959SOL     OW35838   4.473   4.902   5.423 -0.1411 -0.0753 -0.1039
 9959SOL    HW135839   4.546   4.875   5.367  0.5042  0.8534  0.2598
 9959SOL    HW235840   4.420   4.960   5.368  1.9604  3.0892  0.9197
 9960SOL     OW35841   6.596   6.877   8.895 -0.0668  0.2377  0.5694
 9960SOL    HW135842   6.579   6.962   8.854 -0.3951  0.4874  1.2096
 9960SOL    HW235843   6.591   6.894   8.989 -0.2441 -0.5143  0.7058
 9961SOL     OW35844   8.753   5.945   3.800  0.1784 -0.5790  0.2094
 9961SOL    HW135845   8.766   5.876   3.735 -0.1027 -0.4828  0.0499
 9961SOL    HW235846   8.837   5.991   3.803  0.1901 -0.5733 -0.1000
 9962SOL     OW35847   5.045   2.217   0.792 -0.3365  0.3712  0.2207
 9962SOL    HW135848   5.059   2.164   0.871 -0.7810 -0.3794 -0.1953
 9962SOL    HW235849   4.982   2.284   0.819  0.9058  1.2862  0.9994
 9963SOL     OW35850   5.173   2.282   8.784  0.0764  0.0753 -0.1042
 9963SOL    HW135851   5.257   2.252   8.750  0.9220  1.9515  0.1964
 9963SOL    HW235852   5.113   2.275   8.710  0.8043 -0.1259 -0.6880
 9964SOL     OW35853   1.850   8.001   0.786  0.2140  0.4185 -0.2913
 9964SOL    HW135854   1.769   8.012   0.736 -0.0131 -0.0711 -0.0434
 9964SOL    HW235855   1.883   7.915   0.760  1.9433  1.5764 -2.1971
 9965SOL     OW35856   3.591   1.461   4.500 -0.0140  0.1863  0.5084
 9965SOL    HW135857   3.643   1.403   4.556  0.3999  1.7269  1.8423
 9965SOL    HW235858   3.564   1.532   4.559 -2.2868  0.2732 -0.5470
 9966SOL     OW35859   2.312   5.214   2.895 -0.1003 -0.0419 -0.5541
 9966SOL    HW135860   2.258   5.293   2.903  0.5137  0.3540 -0.2902
 9966SOL    HW235861   2.316   5.198   2.801 -2.9007 -1.6339 -0.5056
 9967SOL     OW35862   7.097   5.083   5.401  0.3905 -0.0777 -0.0280
 9967SOL    HW135863   7.008   5.107   5.427  0.3829 -0.1733  0.0323
 9967SOL    HW235864   7.146   5.081   5.483  0.4680  0.0632 -0.0714
 9968SOL     OW35865   7.669   7.684   7.662  0.0549 -0.4615 -0.1329
 9968SOL    HW135866   7.584   7.679   7.705  0.2610 -1.3565  0.2134
 9968SOL    HW235867   7.652   7.728   7.579 -0.7137 -0.4875  0.0024
 9969SOL     OW35868   6.803   0.583   5.604  0.3825  0.1361  0.3048
 9969SOL    HW135869   6.795   0.585   5.699  1.4998  0.0091  0.4070
 9969SOL    HW235870   6.892   0.612   5.586  0.8041 -1.5944 -0.6050
 9970SOL     OW35871   2.404   6.482   5.914 -0.0083  0.0514  0.4708
 9970SOL    HW135872   2.367   6.530   5.987  1.3948  0.3760  1.0002
 9970SOL    HW235873   2.332   6.429   5.880 -1.3754  1.8974  0.3802
 9971SOL     OW35874   1.586   4.261   0.367 -0.2565  0.2811 -0.6002
 9971SOL    HW135875   1.579   4.301   0.281  1.6223  0.8149 -0.5434
 9971SOL    HW235876   1.507   4.207   0.375 -0.6084  0.4471 -2.5191
 9972SOL     OW35877   6.838   1.877   5.553  0.1371 -0.1224  0.0441
 9972SOL    HW135878   6.837   1.798   5.607  0.7998 -0.2661 -0.1354
 9972SOL    HW235879   6.840   1.844   5.463  0.8243  0.0852 -0.0242
 9973SOL     OW35880   2.611   5.173   6.359  0.2522 -0.0543 -0.0060
 9973SOL    HW135881   2.605   5.212   6.447  0.4266 -0.2695  0.1025
 9973SOL    HW235882   2.601   5.247   6.299  0.5948  0.1575  0.1982
 9974SOL     OW35883   7.031   5.093   7.193  0.1555 -0.1581  0.0728
 9974SOL    HW135884   6.969   5.021   7.202 -0.2496  0.2510  0.6266
 9974SOL    HW235885   7.026   5.140   7.276  0.6070  0.3576 -0.1817
 9975SOL     OW35886   6.587   7.484   8.683  0.1176  0.6309  0.2841
 9975SOL    HW135887   6.634   7.421   8.738 -1.2007  0.7336  1.5904
 9975SOL    HW235888   6.637   7.565   8.691  1.4772 -0.0313 -0.9151
 9976SOL     OW35889   4.441   8.348   0.154  0.1637 -0.0418  0.6050
 9976SOL    HW135890   4.438   8.327   0.061  0.1334  0.3142  0.5261
 9976SOL    HW235891   4.510   8.413   0.162  0.4840 -0.4146  0.9005
 9977SOL     OW35892   3.329   1.995   0.677  0.2362 -0.1383 -0.7288
 9977SOL    HW135893   3.354   1.939   0.604 -0.0558 -0.9874 -0.1977
 9977SOL    HW235894   3.244   2.031   0.652  0.1573 -0.3949 -0.8365
 9978SOL     OW35895   0.285   6.077   6.831  0.5779 -0.7639 -0.0046
 9978SOL    HW135896   0.319   6.112   6.913 -0.8035 -0.0074  0.2880
 9978SOL    HW235897   0.203   6.034   6.856 -0.5422  0.6059 -1.1173
 9979SOL     OW35898   8.169   1.642   5.723  0.8264  0.6633  0.3286
 9979SOL    HW135899   8.195   1.703   5.792  0.2394  2.2076 -0.7736
 9979SOL    HW235900   8.252   1.605   5.691  1.1289  0.1812  1.5805
 9980SOL     OW35901   7.281   2.234   6.954  0.3148 -0.3963  0.0079
 9980SOL    HW135902   7.188   2.252   6.972  0.2287 -1.6569  0.9986
 9980SOL    HW235903   7.317   2.319   6.928 -0.7940  0.4413  1.0593
 9981SOL     OW35904   3.032   2.827   7.421  0.6941 -0.5358 -0.1671
 9981SOL    HW135905   3.037   2.742   7.377  1.2029  0.0448 -1.2911
 9981SOL    HW235906   2.945   2.829   7.460  0.4021 -1.2790 -0.7519
 9982SOL     OW35907   2.125   9.332   3.574  0.7326  0.1231 -0.3759
 9982SOL    HW135908   2.087   9.297   3.655  0.9118 -1.8216 -1.0937
 9982SOL    HW235909   2.134   9.426   3.591 -1.4409  0.1540  0.9792
 9983SOL     OW35910   8.132   6.820   0.444  0.3620  0.2297  0.6236
 9983SOL    HW135911   8.223   6.815   0.475  1.1967  0.3132 -1.6375
 9983SOL    HW235912   8.139   6.844   0.352 -2.0189  1.1197  0.6026
 9984SOL     OW35913   6.336   2.800   9.128  0.4113 -0.0159 -0.1218
 9984SOL    HW135914   6.247   2.768   9.112  0.1946  0.3463  0.3292
 9984SOL    HW235915   6.369   2.743   9.198  0.7785 -0.5700 -0.7301
 9985SOL     OW35916   0.596   9.052   0.453  0.0728  0.1151 -0.5851
 9985SOL    HW135917   0.631   9.141   0.445 -0.0060  0.1854 -0.1922
 9985SOL    HW235918   0.503   9.061   0.431 -0.5651  0.6432  1.9747
 9986SOL     OW35919   7.247   8.789   6.751 -0.1747 -0.0342  0.5018
 9986SOL    HW135920   7.272   8.827   6.667 -2.0824  0.2347  0.0072
 9986SOL    HW235921   7.216   8.701   6.729 -1.5558  0.3696  0.7633
 9987SOL     OW35922   8.557   1.717   8.706 -0.6926  0.3480 -0.1925
 9987SOL    HW135923   8.494   1.646   8.689 -1.2405  0.9837 -0.9235
 9987SOL    HW235924   8.615   1.715   8.630  0.2930 -0.3518  0.5684
 9988SOL     OW35925   5.389   2.336   3.129 -0.1916 -0.3510 -0.8206
 9988SOL    HW135926   5.470   2.287   3.144  0.0551 -0.3662 -2.1349
 9988SOL    HW235927   5.374   2.382   3.212 -0.1062 -2.1406  0.2488
 9989SOL     OW35928   4.990   7.167   0.170  0.3981  0.8687 -0.0132
 9989SOL    HW135929   4.949   7.110   0.235  1.0336  0.9924  0.5085
 9989SOL    HW235930   4.931   7.164   0.095  0.3536 -0.3683  0.0494
 9990SOL     OW35931   9.116   6.985   4.573  0.3196  0.1055 -0.5489
 9990SOL    HW135932   9.193   7.012   4.623  0.2663  2.7841 -1.7711
 9990SOL    HW235933   9.152   6.943   4.495  0.5044  0.1413 -0.4838
 9991SOL     OW35934   3.893   2.023   5.891  0.0760  0.0270 -0.0165
 9991SOL    HW135935   3.960   2.078   5.849 -1.1240  1.2280 -0.4435
 9991SOL    HW235936   3.909   2.033   5.985  1.3982 -0.8872 -0.1271
 9992SOL     OW35937   1.887   5.483   7.610  0.1513  0.1004 -0.6808
 9992SOL    HW135938   1.795   5.479   7.637  0.4026 -2.6329  0.1401
 9992SOL    HW235939   1.887   5.538   7.532 -2.0391  0.8691 -0.2073
 9993SOL     OW35940   7.869   4.509   3.547 -0.0871  0.2749 -0.0571
 9993SOL    HW135941   7.950   4.547   3.582 -0.4812  0.4678  0.6826
 9993SOL    HW235942   7.799   4.556   3.594 -0.5954 -1.0387  0.5357
 9994SOL     OW35943   7.117   2.872   7.414  0.1969  0.2177  0.3476
 9994SOL    HW135944   7.098   2.851   7.323  0.0194  1.3753  0.1042
 9994SOL    HW235945   7.035   2.904   7.450  0.9977  2.9272 -0.0380
 9995SOL     OW35946   6.752   2.912   8.720  0.0103  0.5356  0.2077
 9995SOL    HW135947   6.682   2.912   8.655 -0.3794  0.4438  0.6180
 9995SOL    HW235948   6.833   2.909   8.669 -0.2618  1.3882 -0.2988
 9996SOL     OW35949   0.381   1.302   5.979  0.2717  0.2026 -0.3304
 9996SOL    HW135950   0.331   1.234   6.024 -0.8346  0.7677 -0.6651
 9996SOL    HW235951   0.464   1.307   6.026 -0.3415 -0.1401  0.8125
 9997SOL     OW35952   2.917   0.796   3.378  0.4133 -0.3663 -0.2764
 9997SOL    HW135953   2.851   0.847   3.332  0.6629  1.7096  1.5225
 9997SOL    HW235954   2.868   0.723   3.416 -0.3232 -0.3605 -1.1592
 9998SOL     OW35955   7.707   4.657   3.713  0.3419  0.0057  0.0031
 9998SOL    HW135956   7.723   4.749   3.694  0.9853 -0.3178 -1.0706
 9998SOL    HW235957   7.612   4.652   3.725  0.1544  0.6076 -1.0837
 9999SOL     OW35958   3.701   4.048   0.932  0.1306 -0.4802 -0.2591
 9999SOL    HW135959   3.647   4.031   1.009  0.6963 -1.6506 -0.0942
 9999SOL    HW235960   3.701   4.144   0.923 -1.0909 -0.4045  0.3440
10000SOL     OW35961   6.894   5.288   3.944  0.0065 -0.2099 -0.1120
10000SOL    HW135962   6.938   5.240   4.013 -0.6934  1.1155  1.3132
10000SOL    HW235963   6.821   5.231   3.918 -1.4181  0.4012  2.2559
10001SOL     OW35964   7.058   2.051   5.885  0.2468 -0.2750 -0.0517
10001SOL    HW135965   7.040   2.074   5.976  0.5160 -2.7949  0.7100
10001SOL    HW235966   7.099   2.129   5.848  0.7713  0.5727  2.1846
10002SOL     OW35967   5.446   3.316   7.207 -0.4620  0.0893  0.4227
10002SOL    HW135968   5.406   3.332   7.121  0.5719 -0.5557 -0.1998
10002SOL    HW235969   5.372   3.296   7.264 -1.0447 -1.2412 -0.7316
10003SOL     OW35970   7.611   2.049   2.665  0.1167 -0.3699 -0.4214
10003SOL    HW135971   7.704   2.070   2.680 -0.2543  0.3388  1.0597
10003SOL    HW235972   7.607   1.954   2.673  0.2509 -0.2053  2.7706
10004SOL     OW35973   7.285   8.788   7.498 -0.0812  0.2373 -0.5790
10004SOL    HW135974   7.323   8.709   7.460  1.2921  0.5531  0.0617
10004SOL    HW235975   7.328   8.797   7.583 -0.4402  1.4995 -0.5058
10005SOL     OW35976   6.629   1.613   9.249  0.0181  0.0478 -0.1647
10005SOL    HW135977   6.694   1.666   9.295 -0.8606  0.5878  0.5075
10005SOL    HW235978   6.555   1.672   9.236 -1.1321 -1.0822  0.9265
10006SOL     OW35979   7.790   4.867   9.271 -0.4281  0.2547 -0.3078
10006SOL    HW135980   7.748   4.812   9.337 -0.1014  0.3596 -0.0085
10006SOL    HW235981   7.803   4.951   9.315  0.7097  0.0216 -0.1725
10007SOL     OW35982   4.516   6.462   4.927  0.1059 -0.0150  0.3181
10007SOL    HW135983   4.598   6.501   4.956 -0.6484  0.0342  2.5755
10007SOL    HW235984   4.489   6.405   5.000 -1.7871 -0.1427 -0.4127
10008SOL     OW35985   5.293   3.256   8.971 -0.3648 -0.2031  0.0706
10008SOL    HW135986   5.321   3.340   8.934 -0.5740 -0.1678 -0.0100
10008SOL    HW235987   5.289   3.272   9.066  1.6977 -0.7336  0.3014
10009SOL     OW35988   6.218   6.645   3.019 -1.2505  0.6509 -0.2883
10009SOL    HW135989   6.165   6.570   2.993 -1.8058  0.7027  0.6328
10009SOL    HW235990   6.220   6.701   2.942 -0.7566 -0.3431 -1.0121
10010SOL     OW35991   6.300   1.870   4.274  0.2779  0.1807 -0.4000
10010SOL    HW135992   6.325   1.939   4.336 -1.0153  0.5382 -0.2439
10010SOL    HW235993   6.204   1.871   4.275  0.1979 -2.2429  0.3040
10011SOL     OW35994   0.415   3.060   5.334 -0.0922  0.1033  0.2021
10011SOL    HW135995   0.488   3.079   5.393 -0.5446 -0.4394  0.9549
10011SOL    HW235996   0.457   3.026   5.254  0.4886  0.0562  0.5244
10012SOL     OW35997   5.247   0.209   4.256 -0.0313  0.5346  1.0661
10012SOL    HW135998   5.280   0.167   4.177 -0.1156  0.5309  1.0337
10012SOL    HW235999   5.158   0.177   4.265  0.1024  0.2352  1.3726
10013SOL     OW36000   5.827   8.748   2.177  0.4421  0.0304 -0.1047
10013SOL    HW136001   5.896   8.722   2.116  1.5389  0.9904  0.6820
10013SOL    HW236002   5.871   8.753   2.262 -0.8353 -0.3354  0.6121
10014SOL     OW36003   0.860   3.858   1.417  0.1089 -0.1558  0.3058
10014SOL    HW136004   0.921   3.932   1.418 -0.4975  0.3551  0.1161
10014SOL    HW236005   0.785   3.888   1.469 -0.3230 -0.4737 -0.1265
10015SOL     OW36006   2.413   4.748   9.016 -0.1355  0.6889 -0.0870
10015SOL    HW136007   2.379   4.659   9.004  0.4343  0.5916 -1.1255
10015SOL    HW236008   2.461   4.766   8.935  0.0951  1.7948  0.2803
10016SOL     OW36009   2.075   6.205   2.971  0.1716 -0.3982 -0.0684
10016SOL    HW136010   2.166   6.203   2.941 -0.0263 -2.0361 -0.6855
10016SOL    HW236011   2.035   6.278   2.924  1.4387  1.1131  1.1171
10017SOL     OW36012   3.369   3.314   8.613  0.2048 -0.4982  0.5007
10017SOL    HW136013   3.308   3.332   8.684  1.1531  1.3125  0.9299
10017SOL    HW236014   3.333   3.360   8.538  0.1338 -0.9172  0.2744
10018SOL     OW36015   6.170   2.883   0.423 -0.0055  0.2010  1.1852
10018SOL    HW136016   6.117   2.895   0.344  0.7188 -1.4107  0.4051
10018SOL    HW236017   6.123   2.816   0.472  1.7485 -2.0379 -0.0201
10019SOL     OW36018   0.288   3.756   2.642  0.5382  0.2472  0.4249
10019SOL    HW136019   0.362   3.702   2.668  0.7415  0.8006  1.0335
10019SOL    HW236020   0.322   3.846   2.644  0.4948  0.3428 -1.5265
10020SOL     OW36021   3.974   5.350   1.428 -0.0195  0.1754 -0.2662
10020SOL    HW136022   3.905   5.291   1.399  0.1974 -0.1549 -0.1151
10020SOL    HW236023   4.011   5.308   1.506  1.0066 -0.1495 -0.9114
10021SOL     OW36024   0.615   5.671   7.997 -0.7415 -0.0972  0.1416
10021SOL    HW136025   0.569   5.717   8.068  1.6970 -0.4868  2.1318
10021SOL    HW236026   0.599   5.578   8.015 -1.6627 -0.1798 -0.9993
10022SOL     OW36027   6.135   9.148   0.252 -0.5278  0.3075 -0.6645
10022SOL    HW136028   6.219   9.190   0.233 -0.3582 -0.8114 -2.6248
10022SOL    HW236029   6.138   9.129   0.346  0.8694  1.4153 -0.4645
10023SOL     OW36030   9.169   8.552   4.846 -0.3232 -0.9481  0.5516
10023SOL    HW136031   9.107   8.620   4.874 -0.3538 -0.7957  0.1188
10023SOL    HW236032   9.142   8.473   4.893 -2.7259 -1.6798 -1.8659
10024SOL     OW36033   0.272   4.637   2.164  0.5826  0.7361  0.1776
10024SOL    HW136034   0.207   4.662   2.099  0.9451  0.0528 -0.4789
10024SOL    HW236035   0.277   4.711   2.224  0.0391  1.2708 -0.4219
10025SOL     OW36036   2.732   6.007   7.507 -0.3107 -0.0668 -0.1221
10025SOL    HW136037   2.827   6.006   7.503 -0.3130 -0.2889 -0.1452
10025SOL    HW236038   2.712   6.032   7.598 -0.2152 -1.7038  0.3847
10026SOL     OW36039   7.100   7.629   3.787 -0.5277  0.3207  0.0885
10026SOL    HW136040   7.135   7.552   3.743 -1.8237 -0.6481  0.6985
10026SOL    HW236041   7.027   7.657   3.731 -0.0311  1.1576 -0.1589
10027SOL     OW36042   4.711   2.318   0.651  0.2095  0.0176 -0.1647
10027SOL    HW136043   4.767   2.359   0.716  0.7281  1.0934 -1.2662
10027SOL    HW236044   4.758   2.238   0.626  0.6116  0.2513 -0.1512
10028SOL     OW36045   5.450   1.938   4.986  0.1125  0.0364  0.0421
10028SOL    HW136046   5.376   1.885   5.014  1.1683 -2.0706 -0.9120
10028SOL    HW236047   5.475   1.901   4.902  2.3200  0.5852  0.3988
10029SOL     OW36048   0.707   5.545   5.495 -0.6403  0.7130 -0.4445
10029SOL    HW136049   0.627   5.500   5.467  0.3522 -0.7746 -1.0205
10029SOL    HW236050   0.731   5.502   5.577  1.1605 -0.9852 -1.7705
10030SOL     OW36051   6.484   0.280   3.206 -0.0370 -0.1360  0.4685
10030SOL    HW136052   6.470   0.203   3.260 -1.1775 -1.2167 -1.2556
10030SOL    HW236053   6.578   0.297   3.212  0.4776 -2.4390 -0.0728
10031SOL     OW36054   7.523   4.545   1.963 -1.0225 -0.1756  0.3629
10031SOL    HW136055   7.581   4.601   1.911 -2.2972  1.1776  0.3113
10031SOL    HW236056   7.581   4.498   2.022  0.2013  0.4229 -0.3148
10032SOL     OW36057   8.270   5.315   3.141  0.2797 -0.6197 -0.2892
10032SOL    HW136058   8.272   5.379   3.070  1.8664  0.0730  0.3348
10032SOL    HW236059   8.189   5.333   3.188 -0.0165 -0.0502 -1.0058
10033SOL     OW36060   2.717   4.905   0.163  0.4896 -0.4280 -0.3896
10033SOL    HW136061   2.676   4.978   0.118 -0.6748 -1.7647 -1.6267
10033SOL    HW236062   2.676   4.903   0.249  1.0411  0.7813 -0.0944
10034SOL     OW36063   2.940   6.267   3.517 -0.2315  0.4804  0.0977
10034SOL    HW136064   2.919   6.273   3.611 -0.9240 -0.7213  0.0400
10034SOL    HW236065   2.897   6.187   3.488  2.1607 -0.6476 -0.6599
10035SOL     OW36066   1.353   6.510   1.124  0.8334 -0.5410  0.3475
10035SOL    HW136067   1.425   6.464   1.079  1.3044 -1.8054  2.2769
10035SOL    HW236068   1.397   6.560   1.193 -0.0272 -0.1121  0.5913
10036SOL     OW36069   4.095   3.344   2.486 -0.0390  0.0945  0.3270
10036SOL    HW136070   4.138   3.357   2.401  0.1937  0.2564  0.4705
10036SOL    HW236071   4.055   3.429   2.506  1.1073  0.4770  1.0527
10037SOL     OW36072   6.648   7.962   7.134 -0.3153 -0.4632  0.2440
10037SOL    HW136073   6.654   8.018   7.212 -0.7671 -0.3904  0.2317
10037SOL    HW236074   6.656   8.023   7.061  0.3551 -0.5617  0.2301
10038SOL     OW36075   7.929   2.376   2.610 -0.3778  0.2371  0.0381
10038SOL    HW136076   8.002   2.392   2.550 -0.3197 -1.2759 -0.3343
10038SOL    HW236077   7.860   2.436   2.580 -0.0149  0.1960 -0.9240
10039SOL     OW36078   5.616   4.872   5.489  0.2825  0.1193 -0.8945
10039SOL    HW136079   5.647   4.863   5.399  2.0752 -0.1878 -0.3012
10039SOL    HW236080   5.661   4.802   5.537 -0.6666  0.2497  0.2317
10040SOL     OW36081   2.929   8.858   8.121  0.4422  0.1749  0.4859
10040SOL    HW136082   3.006   8.913   8.132  0.6959  0.1217 -0.8010
10040SOL    HW236083   2.887   8.857   8.207  1.1667  1.2566  0.8737
10041SOL     OW36084   0.070   0.446   6.706  0.2090 -0.9242  0.6627
10041SOL    HW136085   0.021   0.430   6.787  0.9777  1.2938  1.6509
10041SOL    HW236086   0.031   0.526   6.670  0.5880 -1.2844 -0.5937
10042SOL     OW36087   6.542   2.029   0.258 -0.5341  0.1770 -0.0952
10042SOL    HW136088   6.446   2.038   0.252 -0.3468  2.1575 -0.8033
10042SOL    HW236089   6.571   2.109   0.302  0.8876  0.1725 -0.9534
10043SOL     OW36090   2.304   7.258   7.467 -0.3596  0.3004  0.1638
10043SOL    HW136091   2.277   7.168   7.448  1.1009 -0.0026 -0.6267
10043SOL    HW236092   2.250   7.313   7.411  0.8536 -0.3097 -1.6828
10044SOL     OW36093   8.960   8.824   2.241 -0.3862  0.0128  0.1170
10044SOL    HW136094   9.055   8.830   2.229 -0.1933 -1.1436  0.8025
10044SOL    HW236095   8.936   8.743   2.196 -0.3925 -1.7535  2.9774
10045SOL     OW36096   6.440   5.034   0.116  0.2619 -0.3712  0.2884
10045SOL    HW136097   6.354   5.048   0.157  0.2267 -1.0480  0.4711
10045SOL    HW236098   6.476   5.121   0.105 -0.9055  0.0044 -0.7680
10046SOL     OW36099   4.423   1.738   5.711  0.0650 -0.2165  0.2719
10046SOL    HW136100   4.365   1.749   5.636  1.3945 -2.1358 -1.1505
10046SOL    HW236101   4.508   1.715   5.672  0.9779 -0.5721  2.3373
10047SOL     OW36102   1.664   1.984   0.436 -0.0797  0.5298 -0.0518
10047SOL    HW136103   1.646   2.077   0.443 -0.2690  0.4971 -0.1176
10047SOL    HW236104   1.756   1.975   0.464 -0.3042  0.6308  0.7587
10048SOL     OW36105   2.340   4.398   4.093 -0.2062  0.3849  0.4891
10048SOL    HW136106   2.261   4.449   4.075 -0.6155 -0.5141 -0.3676
10048SOL    HW236107   2.346   4.396   4.189 -0.2326  1.9300  0.5350
10049SOL     OW36108   7.698   4.569   4.472 -0.8843 -0.2679 -0.4314
10049SOL    HW136109   7.625   4.569   4.411 -0.4648  0.0795 -0.9384
10049SOL    HW236110   7.670   4.626   4.544 -1.1358 -0.1881 -0.5939
10050SOL     OW36111   6.847   6.797   0.753  0.0840 -0.2643 -0.3357
10050SOL    HW136112   6.856   6.858   0.679  1.3249 -1.1050 -0.9244
10050SOL    HW236113   6.869   6.850   0.830 -0.2118  0.3682 -0.6745
10051SOL     OW36114   5.163   9.061   1.069  0.1927 -0.4778  1.1166
10051SOL    HW136115   5.232   9.026   1.013  0.1221 -0.6855  1.1583
10051SOL    HW236116   5.114   8.984   1.098 -0.5545 -0.2671  0.4347
10052SOL     OW36117   1.412   6.798   7.818 -0.0271  0.0981 -0.3103
10052SOL    HW136118   1.407   6.887   7.784  0.6021  0.1672 -0.2384
10052SOL    HW236119   1.368   6.802   7.903 -0.9225  0.0993 -0.7654
10053SOL     OW36120   2.744   7.611   1.791  0.3953  0.3069  0.4173
10053SOL    HW136121   2.662   7.649   1.759  1.3292  1.0518 -1.2004
10053SOL    HW236122   2.764   7.541   1.729 -0.5314 -1.9895  2.5330
10054SOL     OW36123   0.315   8.739   2.346  0.0948 -0.5290 -0.1465
10054SOL    HW136124   0.289   8.823   2.308  1.0518  0.0223  0.3758
10054SOL    HW236125   0.246   8.719   2.409 -0.8960 -0.8737 -1.2987
10055SOL     OW36126   4.368   7.043   1.687 -0.0320 -0.2646  0.0858
10055SOL    HW136127   4.428   7.010   1.620  0.4015 -0.0929  0.3858
10055SOL    HW236128   4.290   7.070   1.638 -0.2403 -1.3637 -0.2078
10056SOL     OW36129   1.522   0.538   6.026  1.0266  0.1976  0.6801
10056SOL    HW136130   1.612   0.541   5.994  0.7220  0.6090 -0.1901
10056SOL    HW236131   1.482   0.465   5.978  1.1524 -0.6298  1.8006
10057SOL     OW36132   0.591   1.891   1.700 -0.1456  0.1017  0.4365
10057SOL    HW136133   0.626   1.905   1.788  1.2328 -1.3343  0.1730
10057SOL    HW236134   0.637   1.955   1.645  0.3749 -0.2292  0.4785
10058SOL     OW36135   7.636   3.027   8.130 -0.0769  0.0867  0.1431
10058SOL    HW136136   7.656   3.035   8.223  1.8545 -1.3371 -0.1013
10058SOL    HW236137   7.685   2.950   8.101 -0.9601  0.2545 -1.9738
10059SOL     OW36138   0.365   4.743   4.179  0.2865 -0.1317 -0.2218
10059SOL    HW136139   0.366   4.789   4.095  0.5926  0.8614  0.3199
10059SOL    HW236140   0.385   4.810   4.244 -0.1420 -0.8471  0.6733
10060SOL     OW36141   7.821   4.147   2.082 -0.3159  0.1666  0.1757
10060SOL    HW136142   7.749   4.170   2.024 -0.3413  1.5247  0.7221
10060SOL    HW236143   7.896   4.134   2.024 -0.3182  1.5746 -0.1776
10061SOL     OW36144   8.524   3.209   8.227  0.5898  0.2163  0.3537
10061SOL    HW136145   8.460   3.189   8.296 -0.2048  0.3511 -0.3374
10061SOL    HW236146   8.565   3.291   8.256  0.3038  0.2404  0.6984
10062SOL     OW36147   8.647   1.399   0.447  0.0586 -1.2842  0.3197
10062SOL    HW136148   8.723   1.394   0.505  0.6406 -0.6104 -0.3653
10062SOL    HW236149   8.672   1.349   0.370  0.7830  0.8456 -0.9231
10063SOL     OW36150   2.625   9.041   1.658 -0.1196 -0.4358  0.6332
10063SOL    HW136151   2.681   8.977   1.702 -0.4321 -0.2271  1.3451
10063SOL    HW236152   2.633   9.020   1.565 -0.1129 -1.4287  0.8492
10064SOL     OW36153   3.100   4.696   8.761 -0.3999  0.1761  0.2359
10064SOL    HW136154   3.044   4.623   8.735 -0.9046  1.5568 -3.1454
10064SOL    HW236155   3.189   4.662   8.755 -0.6568 -0.3595 -0.7939
10065SOL     OW36156   2.921   5.912   0.793 -0.0886 -0.5010  0.2940
10065SOL    HW136157   2.842   5.950   0.755 -0.9473 -2.1249  0.3354
10065SOL    HW236158   2.901   5.905   0.887  0.2674 -0.5177  0.3682
10066SOL     OW36159   1.478   1.057   0.111  0.0262 -0.3066 -0.0391
10066SOL    HW136160   1.510   1.133   0.160  1.5488 -0.5635 -0.5590
10066SOL    HW236161   1.446   1.094   0.029  2.5113 -0.3344 -1.0981
10067SOL     OW36162   3.955   3.066   6.917  0.5673  0.4770  0.5264
10067SOL    HW136163   4.005   3.015   6.980 -0.2168  1.7268  2.2657
10067SOL    HW236164   3.973   3.157   6.941  0.2871  0.9956 -1.1192
10068SOL     OW36165   1.604   0.833   8.530  0.6405  0.2412 -0.1527
10068SOL    HW136166   1.668   0.839   8.602  0.8441  0.1220 -0.3246
10068SOL    HW236167   1.589   0.924   8.505 -0.0177  0.3377  0.5554
10069SOL     OW36168   9.121   3.908   6.963  0.4266  0.2717 -0.1154
10069SOL    HW136169   9.167   3.860   6.894 -0.4736 -2.5305  1.1007
10069SOL    HW236170   9.049   3.952   6.918 -0.1389 -1.4904 -1.0376
10070SOL     OW36171   4.108   3.514   6.260  0.5883 -0.2778  0.2589
10070SOL    HW136172   4.080   3.514   6.168  1.5154 -0.7746 -0.0382
10070SOL    HW236173   4.040   3.464   6.306 -0.6855  1.2337  0.1343
10071SOL     OW36174   8.703   3.907   3.391 -0.3143  0.4734  0.0043
10071SOL    HW136175   8.775   3.844   3.391 -0.0746  0.7053 -1.4263
10071SOL    HW236176   8.703   3.944   3.302 -2.5980  0.0128 -0.2561
10072SOL     OW36177   7.163   9.086   0.737 -0.1563 -0.0125  0.2911
10072SOL    HW136178   7.140   9.179   0.732 -2.9011 -0.4790  2.1260
10072SOL    HW236179   7.118   9.047   0.663 -0.6713 -0.1398  0.6662
10073SOL     OW36180   0.466   8.847   8.533  0.4698  0.1488 -0.1340
10073SOL    HW136181   0.422   8.931   8.546  0.0236 -0.1965  0.6896
10073SOL    HW236182   0.536   8.847   8.599  0.4019 -0.1660 -0.0614
10074SOL     OW36183   3.175   0.279   5.913 -0.5618  0.0208 -0.1125
10074SOL    HW136184   3.143   0.277   6.003  2.2260  0.5455  0.9890
10074SOL    HW236185   3.146   0.364   5.879  0.9025  1.1619  1.3713
10075SOL     OW36186   8.179   1.784   0.372 -0.3096 -0.2793 -0.5322
10075SOL    HW136187   8.109   1.729   0.337  0.5864 -0.5899 -1.9099
10075SOL    HW236188   8.212   1.736   0.448 -1.1643 -0.4167 -0.2350
10076SOL     OW36189   3.041   4.262   7.938 -0.3529 -0.1408 -0.0172
10076SOL    HW136190   3.060   4.171   7.912 -0.7668  0.0023 -0.8295
10076SOL    HW236191   3.112   4.313   7.899 -1.2306  0.1331 -1.2888
10077SOL     OW36192   0.622   1.495   4.136 -0.3415 -0.5090 -0.0160
10077SOL    HW136193   0.639   1.403   4.116  0.2678  0.0794 -2.6482
10077SOL    HW236194   0.679   1.543   4.075 -0.9920  1.6063  0.9588
10078SOL     OW36195   8.978   6.030   4.883  0.5762  0.5010  0.1133
10078SOL    HW136196   9.054   6.069   4.842  0.2005  1.9608  0.7540
10078SOL    HW236197   8.939   5.975   4.815  0.7920  1.7090 -1.0179
10079SOL     OW36198   3.988   3.123   6.196  0.0968 -0.1108 -0.1635
10079SOL    HW136199   3.927   3.053   6.218 -1.6708  1.2047 -0.6317
10079SOL    HW236200   4.055   3.119   6.265  0.0238 -2.1790 -0.1581
10080SOL     OW36201   6.737   4.247   7.961 -0.5047 -0.3208 -0.5233
10080SOL    HW136202   6.647   4.277   7.950 -0.1313  0.3785 -1.9120
10080SOL    HW236203   6.790   4.325   7.945  0.3759 -0.8900 -0.4552
10081SOL     OW36204   7.305   8.009   9.266  0.2374  0.0503  0.8964
10081SOL    HW136205   7.259   8.077   9.217 -0.0625 -2.4210 -2.6624
10081SOL    HW236206   7.239   7.943   9.283  1.3239 -1.1705  0.5395
10082SOL     OW36207   7.223   8.731   7.825 -0.4938 -0.6724  0.0921
10082SOL    HW136208   7.216   8.697   7.914  2.7363 -1.5136  0.1534
10082SOL    HW236209   7.230   8.826   7.836  0.5521 -0.8189  0.8199
10083SOL     OW36210   5.235   2.470   8.106  0.6305 -0.1072  0.0256
10083SOL    HW136211   5.167   2.422   8.153  0.0255  1.3360  0.6658
10083SOL    HW236212   5.312   2.412   8.111  0.1365 -0.6899  1.4234
10084SOL     OW36213   9.097   6.694   0.645  0.5036  0.5777  0.4292
10084SOL    HW136214   9.093   6.645   0.726  1.9111  0.1832  0.2848
10084SOL    HW236215   9.187   6.727   0.640 -0.1076  2.3152  0.0156
10085SOL     OW36216   3.424   6.945   8.242 -0.6063 -0.1272  0.1594
10085SOL    HW136217   3.368   6.946   8.320 -0.8880  1.9999 -0.0261
10085SOL    HW236218   3.364   6.925   8.170 -0.6256 -0.4986  0.2728
10086SOL     OW36219   1.617   2.621   4.290 -0.1234  0.2871 -0.1277
10086SOL    HW136220   1.530   2.651   4.263  0.8694  1.7722 -1.9053
10086SOL    HW236221   1.657   2.698   4.330  0.3675 -0.4207  0.7871
10087SOL     OW36222   7.290   4.882   7.788 -0.2212  0.1620  0.1754
10087SOL    HW136223   7.229   4.889   7.715 -0.2869  1.7546  0.3389
10087SOL    HW236224   7.253   4.940   7.855  1.9960  2.1015 -0.1524
10088SOL     OW36225   5.860   2.574   0.783  0.4951  0.8139 -0.4711
10088SOL    HW136226   5.839   2.483   0.760  0.8033  0.2750  1.2066
10088SOL    HW236227   5.784   2.624   0.754 -0.5978 -0.2843  0.3578
10089SOL     OW36228   1.621   0.661   9.180  0.1710 -0.1117  0.1048
10089SOL    HW136229   1.536   0.644   9.139  0.0372 -0.1006  0.3801
10089SOL    HW236230   1.622   0.755   9.195 -0.2087 -0.2488  1.0759
10090SOL     OW36231   9.001   5.780   7.591 -0.1769 -0.0944  0.0984
10090SOL    HW136232   9.003   5.825   7.507 -1.0339 -0.8147 -0.3320
10090SOL    HW236233   9.057   5.832   7.648  0.0235  0.6781 -0.7807
10091SOL     OW36234   1.766   6.604   0.567  0.2760 -0.6884 -0.4382
10091SOL    HW136235   1.795   6.646   0.486 -0.8966  0.0415 -0.5001
10091SOL    HW236236   1.678   6.571   0.547  0.0163 -0.5942  0.5077
10092SOL     OW36237   1.972   4.915   9.029  0.3629  0.3130  0.6760
10092SOL    HW136238   2.031   4.980   9.068  1.3058 -0.3424  0.3741
10092SOL    HW236239   2.029   4.842   9.005 -0.3828  0.1745 -0.7782
10093SOL     OW36240   0.946   4.674   6.456 -0.9408  0.2688 -0.1984
10093SOL    HW136241   0.926   4.690   6.364 -1.7208  1.6070  0.1799
10093SOL    HW236242   0.930   4.758   6.500 -2.2818 -0.7611  1.4301
10094SOL     OW36243   8.568   8.759   2.598 -0.1500 -0.2680 -0.0428
10094SOL    HW136244   8.610   8.674   2.593  1.0987  0.3241 -0.0541
10094SOL    HW236245   8.621   8.816   2.542 -1.9501  0.1467 -1.4051
10095SOL     OW36246   2.907   3.647   0.515  0.1046 -0.3849 -0.2479
10095SOL    HW136247   2.816   3.638   0.487  0.2521  0.2475 -0.9690
10095SOL    HW236248   2.958   3.600   0.448  0.3548 -0.1860 -0.2010
10096SOL     OW36249   5.569   1.172   4.094 -0.2476  0.6521 -0.6909
10096SOL    HW136250   5.655   1.170   4.050 -1.4675  0.4084 -3.2410
10096SOL    HW236251   5.517   1.231   4.041 -3.2296 -3.1773 -2.5424
10097SOL     OW36252   3.985   3.217   1.643 -0.5548 -0.1679 -0.2130
10097SOL    HW136253   3.896   3.234   1.612 -0.8171 -0.5997  0.3018
10097SOL    HW236254   4.007   3.131   1.608 -0.1129  0.1948 -0.8370
10098SOL     OW36255   8.480   7.496   3.710  0.4466 -0.7622 -0.1254
10098SOL    HW136256   8.443   7.556   3.644  0.1317 -1.2312 -0.3799
10098SOL    HW236257   8.549   7.450   3.664  1.4331  0.1739  0.3762
10099SOL     OW36258   8.264   6.766   2.572 -0.6233  0.4626 -0.1532
10099SOL    HW136259   8.179   6.756   2.530  1.1320 -0.5559 -3.9825
10099SOL    HW236260   8.314   6.821   2.511  2.7005 -2.5387 -0.4724
10100SOL     OW36261   3.054   7.908   4.982  0.3075  0.0142  0.6730
10100SOL    HW136262   3.081   7.819   4.957 -2.3685 -1.0892  1.3970
10100SOL    HW236263   3.136   7.953   5.001  1.7790 -2.1706 -0.0995
10101SOL     OW36264   6.119   6.367   5.898  0.0757 -0.7824  0.3087
10101SOL    HW136265   6.209   6.365   5.930  0.6198  0.5177 -1.0235
10101SOL    HW236266   6.088   6.456   5.918 -0.2456 -0.5997 -0.9213
10102SOL     OW36267   8.792   9.347   9.349 -0.0312 -0.6394  0.1027
10102SOL    HW136268   8.788   9.430   9.300  2.0970  0.5008  1.6629
10102SOL    HW236269   8.711   9.345   9.398 -0.7231 -0.1619 -0.9731
10103SOL     OW36270   1.019   1.563   1.229 -0.5193 -0.9596  0.5250
10103SOL    HW136271   1.005   1.481   1.180 -1.8883 -0.6976  0.4143
10103SOL    HW236272   0.930   1.597   1.242  0.0731  1.0054 -0.2683
10104SOL     OW36273   6.187   8.779   8.404 -0.0482 -0.4801 -0.1123
10104SOL    HW136274   6.173   8.766   8.497  1.0025 -0.2433  0.0856
10104SOL    HW236275   6.180   8.692   8.365 -1.7283 -0.4198  0.0028
10105SOL     OW36276   3.682   5.031   8.900 -0.0378 -0.1100  0.2937
10105SOL    HW136277   3.598   5.015   8.942  0.1122 -2.2085 -0.1100
10105SOL    HW236278   3.663   5.028   8.806  0.5404 -1.1088  0.1931
10106SOL     OW36279   8.663   4.818   1.431  0.6724 -0.2330  0.1369
10106SOL    HW136280   8.583   4.792   1.476  0.7771  0.6001  0.8449
10106SOL    HW236281   8.633   4.855   1.347  0.2813  0.3432  0.5235
10107SOL     OW36282   6.955   5.885   3.212 -0.2407  0.0868 -0.0734
10107SOL    HW136283   6.905   5.915   3.288 -0.5416  0.0724 -0.2614
10107SOL    HW236284   6.963   5.962   3.156  1.3998  0.5196  0.7112
10108SOL     OW36285   1.165   7.815   3.585  0.5301 -0.7058  0.2905
10108SOL    HW136286   1.145   7.899   3.543 -1.0547 -1.1673  0.0660
10108SOL    HW236287   1.233   7.836   3.649  0.0371  0.7965  0.3646
10109SOL     OW36288   5.900   6.534   0.688  0.0083 -0.1070  0.3048
10109SOL    HW136289   5.992   6.557   0.680  0.6539 -2.0485  1.3717
10109SOL    HW236290   5.900   6.439   0.702 -2.2099 -0.3066 -0.5260
10110SOL     OW36291   8.469   3.946   8.585 -0.2725 -0.0406  0.3722
10110SOL    HW136292   8.442   4.016   8.525  0.1726  0.0442  0.2667
10110SOL    HW236293   8.551   3.913   8.548  1.7253  2.0547  2.5286
10111SOL     OW36294   1.926   0.615   0.118 -0.0399  0.2482 -0.1511
10111SOL    HW136295   1.886   0.564   0.048 -0.6545 -0.3488  0.6087
10111SOL    HW236296   1.985   0.676   0.074  0.7939 -1.1925 -1.0925
10112SOL     OW36297   3.291   4.279   7.392  0.1370  0.0531  0.2210
10112SOL    HW136298   3.362   4.311   7.337 -0.5996  1.3173 -0.0305
10112SOL    HW236299   3.266   4.196   7.352  0.3909  0.3930 -0.6717
10113SOL     OW36300   7.627   3.877   5.549 -0.0271 -0.2737  0.0236
10113SOL    HW136301   7.689   3.950   5.549 -0.7854  0.4031  1.2054
10113SOL    HW236302   7.583   3.883   5.464 -0.7690  1.2681  0.4874
10114SOL     OW36303   2.081   6.037   2.583  0.2153 -0.2596  0.2465
10114SOL    HW136304   2.145   5.985   2.632  0.0913 -2.5712 -1.8452
10114SOL    HW236305   2.100   6.017   2.491 -1.9343  0.9436 -0.5101
10115SOL     OW36306   6.834   2.539   9.326 -0.1443  0.2453 -0.2831
10115SOL    HW136307   6.790   2.552   9.242  0.4640  0.5256 -0.5640
10115SOL    HW236308   6.927   2.535   9.304 -0.0721 -1.3876  0.1776
10116SOL     OW36309   6.537   1.459   7.528  0.2361  0.4742  0.0144
10116SOL    HW136310   6.628   1.471   7.503 -0.1142  0.4558 -1.3880
10116SOL    HW236311   6.539   1.397   7.601  1.2956 -0.0782 -0.4674
10117SOL     OW36312   7.495   8.883   7.665 -0.1189 -0.0608 -0.0782
10117SOL    HW136313   7.476   8.974   7.639 -0.8962 -0.7336 -2.1075
10117SOL    HW236314   7.562   8.854   7.603 -1.6742 -1.6139 -1.1131
10118SOL     OW36315   5.278   6.082   6.759 -0.3033 -0.2315  0.0306
10118SOL    HW136316   5.285   6.093   6.664 -1.9747 -2.2161 -0.3940
10118SOL    HW236317   5.364   6.049   6.785  0.1650  0.3004 -0.7817
10119SOL     OW36318   4.204   7.573   8.561 -0.1074  0.1084 -0.8550
10119SOL    HW136319   4.221   7.578   8.467 -0.0846  0.5072 -0.8310
10119SOL    HW236320   4.269   7.511   8.594  0.2506  0.3993 -1.0120
10120SOL     OW36321   8.743   1.009   6.708  0.0222  0.3050  0.4163
10120SOL    HW136322   8.746   0.945   6.779 -0.6651 -0.8424 -0.5572
10120SOL    HW236323   8.664   1.060   6.725 -0.8469 -0.7938 -0.1742
10121SOL     OW36324   1.234   4.001   2.027  0.4552  0.2173 -0.7539
10121SOL    HW136325   1.277   4.077   2.066 -0.2682  0.9941 -1.4438
10121SOL    HW236326   1.305   3.953   1.984  0.9019  0.5367 -0.3907
10122SOL     OW36327   3.300   1.717   4.060  0.6175 -0.2371  0.6736
10122SOL    HW136328   3.312   1.800   4.013 -1.7645 -0.0159  0.3637
10122SOL    HW236329   3.350   1.729   4.141  3.3210  0.0620 -0.8893
10123SOL     OW36330   3.945   2.398   5.874 -0.1196 -0.2007  0.3251
10123SOL    HW136331   3.888   2.449   5.931 -0.9556 -0.7284 -0.0040
10123SOL    HW236332   3.884   2.347   5.820  0.6554 -0.0708 -0.7031
10124SOL     OW36333   7.771   8.587   6.438  0.1523  0.4254  0.3216
10124SOL    HW136334   7.702   8.542   6.488  1.3123 -2.6762 -0.6138
10124SOL    HW236335   7.724   8.632   6.368 -0.9912 -2.1703 -0.7138
10125SOL     OW36336   6.359   2.825   5.451  0.0296  0.6209 -0.4422
10125SOL    HW136337   6.445   2.825   5.494  0.8490  1.2004 -2.0153
10125SOL    HW236338   6.325   2.913   5.468  0.8965  1.2822 -1.9604
10126SOL     OW36339   5.215   9.003   8.942  0.2369  0.7495  0.1031
10126SOL    HW136340   5.160   9.080   8.928 -1.2029 -0.3694 -0.6900
10126SOL    HW236341   5.255   8.986   8.857  0.0005  0.2115  0.1006
10127SOL     OW36342   8.279   4.689   5.933 -0.3093  0.0217 -0.5776
10127SOL    HW136343   8.303   4.617   5.993  0.9862  0.7678 -0.1644
10127SOL    HW236344   8.287   4.768   5.987  2.1507  0.8493 -2.0015
10128SOL     OW36345   9.293   7.407   6.644  0.3385 -0.2834  0.7874
10128SOL    HW136346   9.282   7.368   6.730 -0.4612 -0.7056  0.5073
10128SOL    HW236347   9.334   7.339   6.591  0.3221 -0.2213  0.6941
10129SOL     OW36348   6.779   0.229   2.723 -0.2531 -0.1059  0.3555
10129SOL    HW136349   6.855   0.178   2.696 -0.5249  0.1229 -0.8889
10129SOL    HW236350   6.744   0.265   2.642 -0.3224  1.7076  1.1540
10130SOL     OW36351   4.479   6.854   8.999  0.2979  0.2786  0.0351
10130SOL    HW136352   4.422   6.920   8.961  0.3376  0.9834  1.1662
10130SOL    HW236353   4.544   6.836   8.930 -0.9672 -0.1863 -1.0766
10131SOL     OW36354   5.261   3.083   2.133 -0.0917  0.1612  0.2302
10131SOL    HW136355   5.217   3.134   2.065 -0.0692  0.5750  0.5215
10131SOL    HW236356   5.352   3.075   2.103 -0.0406  0.4935  0.2957
10132SOL     OW36357   0.327   1.389   0.502  0.5943  0.6754 -0.7487
10132SOL    HW136358   0.235   1.412   0.515  0.4230 -0.2113 -0.2552
10132SOL    HW236359   0.326   1.293   0.496  1.4601  0.6749 -0.9516
10133SOL     OW36360   4.412   8.711   0.351 -0.4520 -0.3640 -0.1592
10133SOL    HW136361   4.368   8.631   0.319 -0.3956  0.1309 -1.5622
10133SOL    HW236362   4.377   8.724   0.439 -1.0681 -1.4943 -0.2154
10134SOL     OW36363   9.055   8.904   0.081  0.2983  0.1204 -0.4366
10134SOL    HW136364   8.985   8.917   0.016  1.0001 -1.4112 -1.5845
10134SOL    HW236365   9.122   8.966   0.056 -0.1612  0.7821 -0.0528
10135SOL     OW36366   3.224   6.373   7.469 -0.0323  0.4681 -0.8338
10135SOL    HW136367   3.163   6.440   7.438 -1.7371 -0.9157 -0.5822
10135SOL    HW236368   3.194   6.353   7.558 -1.9493 -3.2211 -2.1366
10136SOL     OW36369   9.270   3.173   0.432  0.1078 -0.4305  0.0806
10136SOL    HW136370   9.347   3.207   0.387 -0.0429 -1.4819 -1.0139
10136SOL    HW236371   9.290   3.081   0.447 -1.7093 -1.2607 -2.0606
10137SOL     OW36372   8.614   2.624   0.604  0.1207 -0.1177  0.0088
10137SOL    HW136373   8.644   2.714   0.593  1.4509 -0.6879 -1.3539
10137SOL    HW236374   8.529   2.621   0.560  0.2067  0.4014 -0.1954
10138SOL     OW36375   2.107   6.449   5.648 -0.4500 -0.5511  0.5539
10138SOL    HW136376   2.025   6.404   5.667 -1.4655  1.2450  0.5988
10138SOL    HW236377   2.111   6.452   5.552 -0.6417 -0.2995  0.5523
10139SOL     OW36378   3.142   6.930   1.537 -0.0982  0.2908  0.1902
10139SOL    HW136379   3.062   6.915   1.588 -0.0131  1.0200  0.5478
10139SOL    HW236380   3.185   6.844   1.535 -0.7722 -0.0527  0.1946
10140SOL     OW36381   4.932   6.953   7.958  0.4368 -0.0411 -0.0106
10140SOL    HW136382   4.867   7.022   7.942  0.5624 -0.2267 -1.4507
10140SOL    HW236383   5.005   6.975   7.900  0.6608 -1.1375 -0.1677
10141SOL     OW36384   5.856   2.106   0.920  0.6043  0.5490 -0.0760
10141SOL    HW136385   5.848   2.026   0.970 -1.8684  0.2098 -0.8511
10141SOL    HW236386   5.878   2.077   0.831  2.3572  0.9583  0.1937
10142SOL     OW36387   1.696   8.161   3.604 -0.5819 -0.0336  0.2660
10142SOL    HW136388   1.608   8.143   3.573 -0.2836  0.0915 -0.6906
10142SOL    HW236389   1.729   8.077   3.636 -1.0725 -0.0571  0.7182
10143SOL     OW36390   3.230   0.713   7.529  0.1255  0.0107  0.0482
10143SOL    HW136391   3.176   0.706   7.450  0.9039 -0.3686 -0.4576
10143SOL    HW236392   3.198   0.643   7.586  0.1563 -0.2726 -0.2858
10144SOL     OW36393   0.898   2.487   0.451  0.8386 -0.1165  0.1209
10144SOL    HW136394   0.875   2.573   0.487 -0.5603 -0.0679 -0.8307
10144SOL    HW236395   0.911   2.432   0.528 -0.8501  0.3015  0.7503
10145SOL     OW36396   2.356   0.080   6.908 -0.4568  0.4401  0.0443
10145SOL    HW136397   2.389   0.106   6.994  0.9278  0.5044 -0.4778
10145SOL    HW236398   2.422   0.019   6.874  0.2607  2.1613 -1.8926
10146SOL     OW36399   5.929   5.434   0.627  0.0980 -0.0793 -0.0740
10146SOL    HW136400   5.922   5.415   0.720 -0.7019  0.1401 -0.0818
10146SOL    HW236401   5.918   5.348   0.585 -0.2639 -0.0747  0.0084
10147SOL     OW36402   5.808   0.348   5.277 -0.1170  0.5488  0.3525
10147SOL    HW136403   5.846   0.428   5.242  1.4947 -0.3387 -0.0486
10147SOL    HW236404   5.841   0.279   5.219 -1.7640 -0.3746  0.4655
10148SOL     OW36405   5.088   4.744   6.651  0.4096 -0.4036  0.7333
10148SOL    HW136406   5.003   4.746   6.607  0.4388 -1.5557  0.5723
10148SOL    HW236407   5.152   4.747   6.579  0.5186  0.5006  0.8545
10149SOL     OW36408   3.718   5.049   1.801  0.2495  0.5002 -0.1254
10149SOL    HW136409   3.644   4.993   1.780  1.1312 -0.3430 -1.0378
10149SOL    HW236410   3.766   5.002   1.870  0.3253  0.7063 -0.0351
10150SOL     OW36411   3.071   4.763   3.123 -0.6212 -0.5148 -0.4845
10150SOL    HW136412   2.976   4.764   3.127 -0.6242  1.1527 -0.6671
10150SOL    HW236413   3.091   4.712   3.044 -1.3117 -1.6049  0.0099
10151SOL     OW36414   7.825   0.772   3.304  0.4259 -0.4287  0.2957
10151SOL    HW136415   7.863   0.789   3.218  1.2242  2.2348  1.0871
10151SOL    HW236416   7.741   0.819   3.303  0.7146  0.1320  1.1442
10152SOL     OW36417   5.366   2.108   0.447  0.7364 -0.3458 -0.3837
10152SOL    HW136418   5.354   2.201   0.428  0.9809 -0.1569  0.3550
10152SOL    HW236419   5.307   2.063   0.387 -1.3227  0.3966  0.9864
10153SOL     OW36420   2.151   8.852   8.737 -0.2192 -0.1697  0.0650
10153SOL    HW136421   2.170   8.939   8.773 -0.2814  0.1893 -0.7597
10153SOL    HW236422   2.186   8.855   8.648 -0.4334 -0.9147 -0.0458
10154SOL     OW36423   1.553   1.489   5.623  0.0113  0.0048 -0.3729
10154SOL    HW136424   1.493   1.560   5.601  0.8250  0.8717  0.1613
10154SOL    HW236425   1.538   1.472   5.716 -1.7170 -2.0357 -0.9390
10155SOL     OW36426   7.398   5.202   3.473  0.4173  0.0009  0.6934
10155SOL    HW136427   7.463   5.132   3.471 -0.7618 -1.1275 -0.4137
10155SOL    HW236428   7.326   5.167   3.525 -0.5338  0.0319 -0.5595
10156SOL     OW36429   6.342   7.500   8.162 -0.3173  0.3512  0.4356
10156SOL    HW136430   6.360   7.594   8.164 -0.3519  0.3633  0.2309
10156SOL    HW236431   6.405   7.465   8.100 -0.5932  0.3054  0.1755
10157SOL     OW36432   4.955   5.764   3.578  0.0380  0.3174 -0.3424
10157SOL    HW136433   4.910   5.802   3.654 -0.6306 -0.4852 -0.3312
10157SOL    HW236434   5.041   5.738   3.612 -0.6723 -1.1043  0.4563
10158SOL     OW36435   6.093   7.528   9.035  0.1040 -0.0497  0.0955
10158SOL    HW136436   6.145   7.592   8.985 -1.0951 -0.1862 -1.3855
10158SOL    HW236437   6.156   7.459   9.057  0.6306 -0.1195 -1.4850
10159SOL     OW36438   8.605   2.246   8.779 -0.5080  0.1341 -0.4503
10159SOL    HW136439   8.684   2.259   8.831 -1.4395 -1.7028  1.6310
10159SOL    HW236440   8.575   2.335   8.758 -0.5201  1.1367  3.0389
10160SOL     OW36441   6.634   7.996   4.967  0.4426 -0.4387  0.5361
10160SOL    HW136442   6.580   8.064   4.929  1.5220  1.8484  2.7564
10160SOL    HW236443   6.575   7.947   5.024  0.2205  0.6302  1.2534
10161SOL     OW36444   7.571   8.859   4.442  0.0920  0.1321 -0.0675
10161SOL    HW136445   7.624   8.779   4.446  0.1079  0.1854  1.1863
10161SOL    HW236446   7.630   8.924   4.405  0.1728 -0.3668 -0.8339
10162SOL     OW36447   2.261   3.756   3.207 -0.3679 -0.0753  0.2028
10162SOL    HW136448   2.278   3.718   3.293  0.1974 -0.4147 -0.0489
10162SOL    HW236449   2.172   3.791   3.212 -0.5582 -0.6281  0.7329
10163SOL     OW36450   4.793   7.022   1.178 -0.1400 -0.2643 -0.0105
10163SOL    HW136451   4.835   6.958   1.235  0.4737 -0.4274 -0.6391
10163SOL    HW236452   4.839   7.104   1.196  1.9016 -0.8352 -2.1506
10164SOL     OW36453   4.008   4.887   0.455 -0.5224 -0.4376 -0.3368
10164SOL    HW136454   3.996   4.800   0.416 -2.2631 -0.8069  0.8562
10164SOL    HW236455   3.956   4.945   0.400  0.0348 -0.2764 -0.6991
10165SOL     OW36456   1.803   3.001   7.603  0.4247  0.2838  0.6207
10165SOL    HW136457   1.798   2.905   7.600 -0.4260  0.3019  1.0317
10165SOL    HW236458   1.891   3.022   7.573 -0.7187 -0.4076 -4.0104
10166SOL     OW36459   3.095   0.917   6.899  0.0725  0.4422 -0.2578
10166SOL    HW136460   3.029   0.916   6.830 -0.7130  0.6227  0.4701
10166SOL    HW236461   3.139   1.002   6.889  1.1744 -0.2523 -1.6222
10167SOL     OW36462   6.367   0.221   3.570  0.5715 -0.5844  0.3489
10167SOL    HW136463   6.375   0.229   3.665 -0.9576 -0.0829  0.4690
10167SOL    HW236464   6.299   0.155   3.557  1.3017 -1.2028 -0.4227
10168SOL     OW36465   1.610   1.248   0.267 -0.6469  0.2598 -0.0356
10168SOL    HW136466   1.582   1.317   0.327 -1.2173 -0.2220  0.2665
10168SOL    HW236467   1.671   1.194   0.318  0.4675  1.0157 -0.5358
10169SOL     OW36468   4.951   5.614   7.283 -0.5200  0.3133  0.3958
10169SOL    HW136469   4.950   5.667   7.203  0.7970  0.7961  0.6718
10169SOL    HW236470   5.025   5.554   7.270 -0.8273 -0.1755  0.8953
10170SOL     OW36471   3.178   0.222   0.247 -0.2113 -1.0859  0.2885
10170SOL    HW136472   3.222   0.304   0.225 -0.8667 -0.8642 -0.2545
10170SOL    HW236473   3.244   0.171   0.293 -0.3930  0.5727  2.5489
10171SOL     OW36474   8.040   0.200   8.561 -0.1771  0.6495  0.1367
10171SOL    HW136475   8.098   0.211   8.487 -0.1975  0.8462  0.1508
10171SOL    HW236476   8.055   0.277   8.616  1.4291 -0.5099  1.4329
10172SOL     OW36477   3.932   6.263   6.645 -0.1690  0.2751  0.1454
10172SOL    HW136478   3.863   6.315   6.605 -0.6556  0.5382  1.2899
10172SOL    HW236479   3.958   6.313   6.723 -0.7576 -1.2355  1.3665
10173SOL     OW36480   4.755   8.670   7.242  0.1970  0.2962 -0.0382
10173SOL    HW136481   4.801   8.618   7.176 -1.8567 -0.6386 -0.8033
10173SOL    HW236482   4.665   8.677   7.209 -0.3655  1.6122  1.6390
10174SOL     OW36483   0.892   1.773   3.579 -0.5004 -0.0055  0.2909
10174SOL    HW136484   0.871   1.866   3.585 -1.8874 -0.3245  0.6214
10174SOL    HW236485   0.894   1.755   3.485  0.7973  0.5558  0.1847
10175SOL     OW36486   7.288   7.251   7.510 -0.3279 -0.4719  0.3890
10175SOL    HW136487   7.381   7.262   7.489 -0.4574 -1.3605 -0.7383
10175SOL    HW236488   7.276   7.302   7.590  1.0846 -0.1803  0.4516
10176SOL     OW36489   9.284   3.728   0.649  0.0983 -0.0839  0.4678
10176SOL    HW136490   9.228   3.796   0.686 -1.1504 -0.7716 -0.0892
10176SOL    HW236491   9.273   3.737   0.554  3.1631  1.5884  0.1545
10177SOL     OW36492   4.432   3.130   7.787  0.1833 -0.3981  0.4940
10177SOL    HW136493   4.435   3.172   7.701 -0.7380 -1.0486  0.1347
10177SOL    HW236494   4.396   3.044   7.770  1.4847 -1.1414  1.3105
10178SOL     OW36495   7.858   4.362   7.778 -0.4484 -0.0736 -0.1713
10178SOL    HW136496   7.771   4.322   7.777 -1.0454  1.1425 -1.8964
10178SOL    HW236497   7.842   4.455   7.762  0.9776  0.7511  2.4612
10179SOL     OW36498   7.559   0.082   9.329 -0.1682 -0.5392 -0.5500
10179SOL    HW136499   7.630   0.033   9.372 -0.4670 -0.3977  0.1140
10179SOL    HW236500   7.604   0.141   9.270  0.3169 -0.0151  0.3167
10180SOL     OW36501   7.763   4.556   5.928  0.0013 -0.1412  0.2023
10180SOL    HW136502   7.825   4.586   5.994 -0.8647 -1.8056  1.8757
10180SOL    HW236503   7.765   4.460   5.935 -2.2410 -0.2590 -0.1509
10181SOL     OW36504   6.019   9.215   1.766 -0.1379 -0.7011 -0.7237
10181SOL    HW136505   6.050   9.305   1.761 -0.2392 -0.6381 -0.2748
10181SOL    HW236506   5.936   9.220   1.814  1.3961 -1.3543  2.2951
10182SOL     OW36507   6.306   8.276   3.739  0.0615  0.0313  0.3995
10182SOL    HW136508   6.281   8.361   3.703  1.0908 -0.7057 -2.3152
10182SOL    HW236509   6.398   8.287   3.766 -0.3273  0.2238  1.7161
10183SOL     OW36510   1.478   8.190   8.297 -0.2526 -0.5989 -0.1590
10183SOL    HW136511   1.501   8.272   8.340 -0.3148 -0.1341 -0.9854
10183SOL    HW236512   1.433   8.217   8.217 -0.9865 -1.4501 -0.0515
10184SOL     OW36513   9.351   8.108   2.172  0.5128  0.2291 -0.1665
10184SOL    HW136514   9.408   8.031   2.178 -0.0213 -0.1722 -0.1198
10184SOL    HW236515   9.265   8.072   2.150  0.3652  0.8608 -0.6313
10185SOL     OW36516   1.419   7.556   3.201 -0.2357 -0.4479 -0.3780
10185SOL    HW136517   1.381   7.627   3.252 -0.2043 -0.8354  0.1917
10185SOL    HW236518   1.422   7.590   3.111  0.0872  0.3869 -0.0589
10186SOL     OW36519   3.741   1.028   4.902  0.3520 -0.3574  0.2633
10186SOL    HW136520   3.787   1.003   4.822 -0.9642 -0.9404 -0.3486
10186SOL    HW236521   3.804   1.080   4.951  1.3640 -0.4343 -0.9083
10187SOL     OW36522   9.321   4.856   1.761  0.3429  0.2982 -0.6020
10187SOL    HW136523   9.232   4.858   1.728  0.2875 -0.3735 -0.4912
10187SOL    HW236524   9.369   4.917   1.704  0.3452 -1.1130 -2.1755
10188SOL     OW36525   2.662   1.463   1.532 -0.6064 -0.2436  0.0533
10188SOL    HW136526   2.661   1.369   1.518 -0.3688 -0.1918 -0.3201
10188SOL    HW236527   2.731   1.496   1.474 -1.7981  0.3510 -1.0693
10189SOL     OW36528   6.142   4.407   8.780  0.8670 -0.3055 -0.1258
10189SOL    HW136529   6.136   4.375   8.870  1.7221  0.2364  0.1304
10189SOL    HW236530   6.062   4.375   8.738  0.3077 -0.3069  0.9091
10190SOL     OW36531   5.177   8.991   3.298 -0.0926  0.2165 -0.5963
10190SOL    HW136532   5.231   8.926   3.253  0.6450  1.1587 -1.1093
10190SOL    HW236533   5.094   8.989   3.250  0.5160  0.8596 -1.7178
10191SOL     OW36534   6.899   7.027   0.942 -0.1898  0.1063 -0.0439
10191SOL    HW136535   6.933   6.968   1.009  0.4426  1.3033  0.7258
10191SOL    HW236536   6.972   7.084   0.921 -0.7100  0.4536 -0.9700
10192SOL     OW36537   3.004   0.941   1.407  0.2268  0.1464  0.0899
10192SOL    HW136538   2.991   0.870   1.344  3.2696 -1.4513  1.0310
10192SOL    HW236539   2.925   0.941   1.460 -0.0853 -2.2844 -0.2464
10193SOL     OW36540   2.975   8.044   4.650  0.2163 -0.3471  0.2137
10193SOL    HW136541   2.990   8.107   4.579 -0.1536 -1.4833 -0.9357
10193SOL    HW236542   2.945   8.097   4.723 -4.1624  0.5751 -1.9144
10194SOL     OW36543   6.063   7.370   7.669 -0.4475  1.0453 -0.4329
10194SOL    HW136544   6.150   7.331   7.682 -0.7449  1.0542  2.1756
10194SOL    HW236545   6.016   7.307   7.615  1.0170  0.8070 -1.4794
10195SOL     OW36546   5.985   3.592   1.733  0.0478  0.0150 -0.1819
10195SOL    HW136547   6.059   3.595   1.794 -1.2272  0.5316  1.4124
10195SOL    HW236548   5.974   3.499   1.714  1.1158 -0.0676 -0.4755
10196SOL     OW36549   8.569   3.562   0.062  0.5122  0.0337 -0.1740
10196SOL    HW136550   8.533   3.488   0.013  0.8269  0.2953 -0.8074
10196SOL    HW236551   8.523   3.559   0.146  0.5913 -0.9387 -0.1482
10197SOL     OW36552   0.132   0.788   2.486  0.4769 -0.2021 -0.4772
10197SOL    HW136553   0.071   0.860   2.468  0.2766 -0.1660  0.3098
10197SOL    HW236554   0.112   0.762   2.576  0.9025 -0.9009 -0.5807
10198SOL     OW36555   6.411   6.695   4.954 -0.0789 -0.0674  0.2602
10198SOL    HW136556   6.469   6.767   4.929  2.7985 -2.2232  0.1176
10198SOL    HW236557   6.469   6.632   4.997 -2.6136 -1.9046  1.2284
10199SOL     OW36558   2.224   0.967   8.112 -0.3654  0.3076 -0.0157
10199SOL    HW136559   2.152   1.029   8.122 -1.0026 -0.4197 -0.0030
10199SOL    HW236560   2.284   0.987   8.184 -2.4289 -1.5734  2.4210
10200SOL     OW36561   0.519   9.352   1.271 -0.1009 -0.5995  0.0751
10200SOL    HW136562   0.526   9.418   1.202 -0.3506 -0.9095 -0.2546
10200SOL    HW236563   0.601   9.360   1.320  0.7189 -1.3032 -1.1113
10201SOL     OW36564   7.532   0.605   3.941 -0.2573 -0.2928 -0.3611
10201SOL    HW136565   7.589   0.544   3.894  0.0464 -0.3358  0.0595
10201SOL    HW236566   7.544   0.688   3.895  1.0321 -0.0171  0.3934
10202SOL     OW36567   4.370   6.624   7.631 -0.0588 -0.2777 -0.5051
10202SOL    HW136568   4.297   6.574   7.667 -0.6085 -1.4571 -3.0026
10202SOL    HW236569   4.342   6.646   7.542  2.2058  0.1313 -1.1855
10203SOL     OW36570   5.460   3.253   4.829  0.1936 -0.2446 -0.2186
10203SOL    HW136571   5.376   3.252   4.875 -0.7530 -0.8998 -1.8671
10203SOL    HW236572   5.482   3.160   4.817 -1.1851 -0.2806 -3.7175
10204SOL     OW36573   1.357   1.098   6.223  0.2674  0.2536  0.2410
10204SOL    HW136574   1.444   1.086   6.186  0.1795 -0.6164  0.2985
10204SOL    HW236575   1.372   1.108   6.317  0.3558  0.7653  0.1732
10205SOL     OW36576   4.534   8.567   3.129  0.0435 -0.1700  0.2925
10205SOL    HW136577   4.576   8.602   3.051 -1.7790  0.7143 -0.3618
10205SOL    HW236578   4.585   8.490   3.151  1.9757  0.8385 -0.4071
10206SOL     OW36579   8.689   2.452   8.441 -0.1696 -0.2358 -0.1634
10206SOL    HW136580   8.602   2.415   8.454  0.6599 -2.3032 -0.0833
10206SOL    HW236581   8.724   2.464   8.530 -0.5465  1.0843 -0.1801
10207SOL     OW36582   3.355   8.030   6.921  0.1282  0.0463 -0.4976
10207SOL    HW136583   3.356   8.114   6.874 -1.8661  1.1153  1.1822
10207SOL    HW236584   3.323   7.967   6.856 -1.9310  1.3511 -0.8488
10208SOL     OW36585   1.575   3.735   8.676  0.0144  0.3557 -0.8328
10208SOL    HW136586   1.513   3.727   8.748  0.4883  1.6970 -0.2482
10208SOL    HW236587   1.589   3.645   8.646 -2.0565  0.0011 -0.8645
10209SOL     OW36588   1.102   0.669   0.182  0.0019 -0.0784 -0.2044
10209SOL    HW136589   1.165   0.604   0.213 -1.4144 -1.2905  0.2546
10209SOL    HW236590   1.094   0.732   0.254  1.4677  0.7268 -0.6972
10210SOL     OW36591   2.466   0.099   3.546 -0.0345 -0.3672 -0.0751
10210SOL    HW136592   2.480   0.008   3.519  1.9856 -0.1330 -0.0039
10210SOL    HW236593   2.423   0.140   3.470 -1.4888 -1.4641  0.1092
10211SOL     OW36594   4.991   5.550   1.614  0.6995  0.1220  0.1162
10211SOL    HW136595   4.904   5.516   1.594  0.8812 -0.1487 -0.2360
10211SOL    HW236596   4.988   5.570   1.708  0.5901 -0.9049  0.3491
10212SOL     OW36597   4.146   3.723   6.424  0.2577  0.0970  0.0598
10212SOL    HW136598   4.182   3.667   6.493 -0.9414 -0.7284  0.0534
10212SOL    HW236599   4.114   3.662   6.358 -0.1729  0.8266 -0.4164
10213SOL     OW36600   1.542   5.782   6.520  0.5713 -0.1136  0.0777
10213SOL    HW136601   1.636   5.767   6.512  0.5343  0.5752 -2.8222
10213SOL    HW236602   1.506   5.696   6.544  1.9353 -0.2750  1.6727
10214SOL     OW36603   5.031   5.595   4.930 -0.5412  0.0358  1.0571
10214SOL    HW136604   5.049   5.662   4.996  2.4095  0.8398 -0.3585
10214SOL    HW236605   5.038   5.512   4.976  1.1274  0.5829  1.8736
10215SOL     OW36606   1.355   7.066   7.744  0.2436  0.0970  0.4515
10215SOL    HW136607   1.425   7.097   7.686  0.4087 -1.3161 -0.1454
10215SOL    HW236608   1.275   7.079   7.695  0.2820 -0.1562  0.3235
10216SOL     OW36609   6.380   8.894   7.964  0.1167 -0.0566 -0.1291
10216SOL    HW136610   6.362   8.928   7.877  0.1778 -0.3480 -0.2539
10216SOL    HW236611   6.462   8.845   7.955 -0.8911 -1.7516 -0.3395
10217SOL     OW36612   6.078   1.960   8.626  0.0329  0.1860 -0.1753
10217SOL    HW136613   6.048   1.943   8.715 -0.9785 -1.6349 -0.8037
10217SOL    HW236614   6.170   1.983   8.635  0.1730 -0.8167  1.2739
10218SOL     OW36615   7.906   5.250   5.730 -0.1644  0.7980  0.4468
10218SOL    HW136616   7.933   5.341   5.737 -1.7544  1.3924 -0.6997
10218SOL    HW236617   7.890   5.236   5.637  0.0173 -0.6573  0.6039
10219SOL     OW36618   6.422   4.783   4.604  0.5532 -0.3602  0.4685
10219SOL    HW136619   6.492   4.743   4.656  0.2193 -1.4171  0.1423
10219SOL    HW236620   6.443   4.876   4.603  1.2941 -0.4961  1.3806
10220SOL     OW36621   0.819   6.936   2.314  0.3675 -0.2261 -0.1380
10220SOL    HW136622   0.774   6.852   2.303 -1.8502  0.5034  2.1931
10220SOL    HW236623   0.773   6.995   2.255 -0.5299  0.0865  0.8348
10221SOL     OW36624   8.292   5.478   2.357  0.2083  0.3837  0.0249
10221SOL    HW136625   8.249   5.558   2.388  0.3770  1.0604 -1.3914
10221SOL    HW236626   8.278   5.479   2.262  0.9686 -0.8271 -0.1235
10222SOL     OW36627   7.992   5.967   3.990 -0.4990 -0.1843 -0.1895
10222SOL    HW136628   7.931   6.037   3.965  1.4849  1.8209  0.2507
10222SOL    HW236629   7.969   5.946   4.080  1.6262  3.2618  1.3807
10223SOL     OW36630   7.726   1.825   4.448  0.0621 -0.4213 -0.1424
10223SOL    HW136631   7.729   1.859   4.538  1.4288 -0.7243 -0.0615
10223SOL    HW236632   7.644   1.775   4.444  0.0598 -0.5288  0.9816
10224SOL     OW36633   7.060   3.062   3.920  0.1890 -0.4551 -0.1779
10224SOL    HW136634   6.984   3.034   3.970  0.6756  0.3452  1.0538
10224SOL    HW236635   7.074   3.153   3.946  0.8053 -0.1931 -1.3523
10225SOL     OW36636   1.389   2.435   4.177 -0.2410 -0.2811 -0.0039
10225SOL    HW136637   1.324   2.505   4.165 -0.3775  0.1121  2.3904
10225SOL    HW236638   1.344   2.371   4.232  0.8520 -0.8180  0.2842
10226SOL     OW36639   4.851   5.875   1.925 -0.0120 -0.3634  0.0867
10226SOL    HW136640   4.854   5.779   1.920  1.4507 -0.3872  0.9059
10226SOL    HW236641   4.764   5.898   1.893 -0.4962 -1.9841  0.1581
10227SOL     OW36642   8.011   0.513   2.933 -0.5376 -0.4760  0.8994
10227SOL    HW136643   8.084   0.483   2.879  0.1771 -0.7100  1.9594
10227SOL    HW236644   7.988   0.437   2.987 -1.6547 -0.4412  0.5041
10228SOL     OW36645   8.651   5.145   3.648  0.0997  0.0698  0.2670
10228SOL    HW136646   8.718   5.094   3.601  0.3357  0.9099 -0.3321
10228SOL    HW236647   8.569   5.125   3.603  0.5322  2.0171 -1.5405
10229SOL     OW36648   8.464   1.598   2.969  0.6480 -0.0893 -0.1968
10229SOL    HW136649   8.473   1.547   3.050  2.6931 -1.5341 -1.2390
10229SOL    HW236650   8.513   1.679   2.986  0.1733  0.0888  0.3479
10230SOL     OW36651   7.325   1.986   7.825  0.2676 -0.4773 -0.8280
10230SOL    HW136652   7.254   2.023   7.772  0.7961 -0.7266 -1.7261
10230SOL    HW236653   7.284   1.969   7.910  0.0045  2.1768 -0.3436
10231SOL     OW36654   2.924   2.904   2.829  0.4264 -0.5279 -0.1164
10231SOL    HW136655   2.980   2.979   2.808  0.7634 -0.9138 -0.6038
10231SOL    HW236656   2.836   2.941   2.838  0.7748  0.1085  0.7948
10232SOL     OW36657   9.179   2.367   7.634 -0.3414  0.1243 -0.2111
10232SOL    HW136658   9.086   2.378   7.614 -0.2647 -0.4066 -0.8926
10232SOL    HW236659   9.219   2.451   7.609 -0.5410  0.1290 -0.5202
10233SOL     OW36660   1.353   6.403   4.516 -0.6790  0.5374 -0.1907
10233SOL    HW136661   1.377   6.399   4.609  0.4500  3.2030 -0.2780
10233SOL    HW236662   1.393   6.326   4.477 -1.0468 -0.5455  1.5030
10234SOL     OW36663   8.170   2.994   8.546  0.3922 -0.1046  0.0002
10234SOL    HW136664   8.174   2.899   8.535  1.9876 -0.1827  0.9154
10234SOL    HW236665   8.092   3.009   8.599  1.0362 -1.0799  1.2709
10235SOL     OW36666   3.633   0.226   4.807 -0.1473  0.5351  0.2542
10235SOL    HW136667   3.537   0.218   4.806 -0.1430  0.5458 -0.1537
10235SOL    HW236668   3.665   0.136   4.798 -0.1137  0.7205 -1.9630
10236SOL     OW36669   7.965   8.950   6.073  0.6310  0.0812 -0.1108
10236SOL    HW136670   7.956   9.029   6.126  0.1973  0.0990 -0.2122
10236SOL    HW236671   7.961   8.878   6.136 -2.5735 -0.0613 -0.3104
10237SOL     OW36672   2.586   7.030   5.157 -0.4318 -0.2882 -0.2887
10237SOL    HW136673   2.538   7.106   5.191 -0.4239 -0.5808  0.3858
10237SOL    HW236674   2.522   6.958   5.160 -0.0870 -0.5786  0.1941
10238SOL     OW36675   3.094   8.194   8.316  0.0427 -0.1409 -0.1867
10238SOL    HW136676   3.135   8.192   8.403 -3.3754  1.2265  1.6460
10238SOL    HW236677   3.159   8.239   8.261  1.7776  0.2074  1.9758
10239SOL     OW36678   6.143   0.592   0.057 -0.1345  0.8330 -0.5044
10239SOL    HW136679   6.061   0.543   0.057 -0.5543  1.4661  1.2231
10239SOL    HW236680   6.211   0.526   0.045 -0.8632  0.2920 -1.9047
10240SOL     OW36681   2.321   0.382   8.941 -0.0482  0.3535 -0.6301
10240SOL    HW136682   2.312   0.317   8.872 -0.0326 -0.1974 -0.1193
10240SOL    HW236683   2.415   0.398   8.948  0.1427 -1.1506  0.6766
10241SOL     OW36684   7.688   0.065   7.733  0.1719  0.0540  0.1557
10241SOL    HW136685   7.756   0.133   7.730 -0.1389  0.4451  1.4944
10241SOL    HW236686   7.659   0.064   7.824  0.6797 -2.4128  0.3549
10242SOL     OW36687   2.629   1.389   0.099  0.6888  0.1863  0.1410
10242SOL    HW136688   2.607   1.469   0.148 -0.9271 -0.1661  0.0470
10242SOL    HW236689   2.719   1.369   0.126  0.4503  0.9672  1.6516
10243SOL     OW36690   3.922   8.798   5.402  0.2199 -0.5533  0.1923
10243SOL    HW136691   4.003   8.806   5.351  1.3180 -0.2141  1.9116
10243SOL    HW236692   3.852   8.805   5.337  1.5333  0.7072 -1.1647
10244SOL     OW36693   7.840   3.500   0.289 -0.0070  0.3560 -0.4303
10244SOL    HW136694   7.838   3.578   0.234  1.8304  2.7002  2.5542
10244SOL    HW236695   7.930   3.468   0.283 -0.3110 -0.5519 -0.3122
10245SOL     OW36696   2.267   9.047   1.253 -0.6208 -0.1663  0.3127
10245SOL    HW136697   2.333   9.027   1.187 -0.1361 -0.1489  0.7874
10245SOL    HW236698   2.195   9.087   1.204 -0.6442 -0.9728 -0.3214
10246SOL     OW36699   9.368   0.064   6.612  0.2919 -0.4442 -0.0284
10246SOL    HW136700   9.395   0.055   6.704 -0.4781 -4.9303 -0.0309
10246SOL    HW236701   9.439   0.114   6.571  2.4115 -1.2956  2.3513
10247SOL     OW36702   4.331   1.808   4.185 -0.3534  0.0725  0.3301
10247SOL    HW136703   4.329   1.743   4.114  3.6940  0.2278 -0.1148
10247SOL    HW236704   4.279   1.768   4.255  0.5483 -2.9161 -0.5598
10248SOL     OW36705   7.002   7.029   5.920  0.4540 -0.6439 -0.8048
10248SOL    HW136706   7.091   6.999   5.905  0.5781 -0.3961 -0.5924
10248SOL    HW236707   6.993   7.031   6.015 -0.2733 -2.0760 -0.8171
10249SOL     OW36708   0.526   0.225   1.142 -0.3514 -0.3799  0.1493
10249SOL    HW136709   0.435   0.242   1.119 -0.2605  0.0778  0.1175
10249SOL    HW236710   0.561   0.310   1.170  0.3305 -0.3365 -0.7666
10250SOL     OW36711   3.989   1.557   6.357  0.0690  0.1921 -0.2239
10250SOL    HW136712   4.008   1.648   6.336 -0.5322  0.2082 -0.7097
10250SOL    HW236713   3.895   1.547   6.341  0.1629 -0.5614 -0.3631
10251SOL     OW36714   3.617   1.652   2.219  0.0222  0.1610  0.0106
10251SOL    HW136715   3.536   1.666   2.170 -0.2537 -0.8538  0.1551
10251SOL    HW236716   3.617   1.723   2.284 -0.5120  0.4522 -0.2954
10252SOL     OW36717   7.091   3.070   8.330  0.1019  0.0898  0.1463
10252SOL    HW136718   7.184   3.057   8.311  0.4963  1.5590  0.9186
10252SOL    HW236719   7.052   3.096   8.246  0.3775 -0.5021 -0.1727
10253SOL     OW36720   3.642   5.704   3.446  0.0229 -0.3174 -0.4262
10253SOL    HW136721   3.645   5.780   3.388  0.1476 -0.3403 -0.4502
10253SOL    HW236722   3.734   5.683   3.462  0.0220  0.5201  0.8741
10254SOL     OW36723   5.960   7.223   6.348  0.2058 -0.3650 -0.5654
10254SOL    HW136724   5.985   7.135   6.319  2.1103 -0.1151  0.1785
10254SOL    HW236725   5.948   7.273   6.267 -0.6954 -1.2227 -0.9901
10255SOL     OW36726   6.464   5.931   6.384  0.3424 -0.1040  0.2043
10255SOL    HW136727   6.422   5.869   6.444  0.3785 -0.4995 -0.1726
10255SOL    HW236728   6.487   5.878   6.308  1.9612 -0.0044  0.5875
10256SOL     OW36729   7.188   0.248   5.233 -0.1583 -0.7891  0.1673
10256SOL    HW136730   7.136   0.270   5.156  1.0127 -0.7773 -0.6402
10256SOL    HW236731   7.228   0.331   5.260 -2.2202 -0.3223  2.1279
10257SOL     OW36732   4.268   4.239   5.220  0.0571  0.0058 -0.2932
10257SOL    HW136733   4.331   4.226   5.149  1.7139 -0.1464  1.1536
10257SOL    HW236734   4.183   4.243   5.175  1.0294 -0.0916 -2.2739
10258SOL     OW36735   4.420   6.067   5.281 -0.1096 -0.1613 -0.0502
10258SOL    HW136736   4.489   6.008   5.312 -0.6211 -1.3756 -1.1175
10258SOL    HW236737   4.339   6.026   5.310 -0.4224  1.3897  1.4110
10259SOL     OW36738   6.738   0.588   7.690 -0.2989  0.1508  0.4434
10259SOL    HW136739   6.813   0.635   7.655  0.1336 -1.2457 -0.5976
10259SOL    HW236740   6.732   0.617   7.781  2.5751 -0.9407  1.0918
10260SOL     OW36741   0.821   9.127   7.019  0.0332 -0.0043 -0.0879
10260SOL    HW136742   0.752   9.177   7.063  0.9753  0.9691  0.3292
10260SOL    HW236743   0.780   9.043   6.998 -0.7512 -0.1294  1.7563
10261SOL     OW36744   4.747   8.544   4.511 -0.7538  0.4006  0.5214
10261SOL    HW136745   4.806   8.591   4.452 -0.0400 -2.3062 -1.1292
10261SOL    HW236746   4.806   8.503   4.574 -1.0930 -0.2750  0.4064
10262SOL     OW36747   6.502   8.958   3.129  0.6714 -0.2146 -0.1531
10262SOL    HW136748   6.597   8.968   3.142  0.5563  0.4286  0.2846
10262SOL    HW236749   6.467   8.953   3.218  0.4254 -2.0244 -0.3133
10263SOL     OW36750   0.598   5.974   2.754 -0.4758  0.1460 -0.2760
10263SOL    HW136751   0.564   5.895   2.712  0.7310 -0.0976 -0.8297
10263SOL    HW236752   0.538   5.990   2.827 -0.4029 -1.6134  0.1954
10264SOL     OW36753   6.428   7.446   3.267 -0.0435  0.7172 -0.1403
10264SOL    HW136754   6.380   7.367   3.292  0.2379 -0.1162 -2.0049
10264SOL    HW236755   6.470   7.476   3.347  1.2804 -2.0681  0.3189
10265SOL     OW36756   0.300   5.077   8.331 -0.1718 -1.2830 -0.1736
10265SOL    HW136757   0.289   5.075   8.236 -2.7736  0.0719  0.0026
10265SOL    HW236758   0.212   5.063   8.366  0.1376  1.2442  1.9682
10266SOL     OW36759   1.211   8.453   1.539  0.3301  0.0407 -0.2901
10266SOL    HW136760   1.182   8.517   1.474  2.3941  2.4108  0.9451
10266SOL    HW236761   1.283   8.407   1.497  2.8118  2.7286  0.6556
10267SOL     OW36762   6.446   8.511   1.707 -0.1768  1.0092  0.2368
10267SOL    HW136763   6.366   8.520   1.655  1.0684  1.7782 -1.6608
10267SOL    HW236764   6.495   8.441   1.664  1.1097  2.0096  0.0029
10268SOL     OW36765   7.384   6.123   1.128 -0.2666  0.6109 -0.0494
10268SOL    HW136766   7.435   6.043   1.132 -0.1341  0.6723 -0.4643
10268SOL    HW236767   7.297   6.095   1.099 -0.4579  0.5142  0.6017
10269SOL     OW36768   3.153   0.471   3.611 -0.2328  0.3259  0.3271
10269SOL    HW136769   3.092   0.399   3.619  1.6628 -1.7112 -1.9454
10269SOL    HW236770   3.239   0.433   3.632  0.8210  1.9143 -0.8400
10270SOL     OW36771   0.134   4.753   1.497 -0.0702 -0.1046 -0.0291
10270SOL    HW136772   0.226   4.734   1.480 -0.4646 -0.8742 -1.4305
10270SOL    HW236773   0.132   4.848   1.510  0.7246  0.1155 -1.3733
10271SOL     OW36774   4.797   7.088   0.360  0.1963 -1.2768 -0.5306
10271SOL    HW136775   4.729   7.133   0.310 -1.7015 -1.0888  2.0401
10271SOL    HW236776   4.761   7.001   0.377  1.3720 -1.7942 -0.5731
10272SOL     OW36777   2.699   0.923   7.533 -0.8752  0.0110 -0.0081
10272SOL    HW136778   2.605   0.934   7.518 -0.9950 -1.2919 -0.2924
10272SOL    HW236779   2.728   1.009   7.564 -1.9615  0.7277 -0.8926
10273SOL     OW36780   0.215   8.963   4.980 -0.1110  0.0582  0.0426
10273SOL    HW136781   0.259   9.037   4.938 -1.6165  0.3657 -1.1164
10273SOL    HW236782   0.267   8.886   4.956  0.0835  0.4659 -0.8691
10274SOL     OW36783   7.317   2.670   3.119  0.0010 -0.2687  0.6944
10274SOL    HW136784   7.318   2.762   3.146 -1.1829 -0.6679  2.2801
10274SOL    HW236785   7.367   2.625   3.186  1.0599 -0.7303 -0.3825
10275SOL     OW36786   2.452   1.866   9.166 -0.1118  0.3101 -0.1523
10275SOL    HW136787   2.484   1.830   9.083  0.1467  1.1545 -0.4191
10275SOL    HW236788   2.516   1.838   9.231 -0.8269 -1.2103 -0.0423
10276SOL     OW36789   2.957   9.006   4.654 -0.4776 -0.9766 -0.3887
10276SOL    HW136790   3.023   8.975   4.716  0.3403  1.4588  0.0994
10276SOL    HW236791   2.970   8.954   4.575  1.6733 -0.9422 -0.1050
10277SOL     OW36792   4.856   3.151   5.122  0.8125  0.2197  0.2768
10277SOL    HW136793   4.793   3.171   5.052 -0.4034  0.8341  1.4977
10277SOL    HW236794   4.856   3.055   5.128  3.5728 -0.1586 -2.8407
10278SOL     OW36795   3.913   2.391   1.646 -0.5327 -0.3389 -0.8030
10278SOL    HW136796   3.934   2.479   1.614 -1.9886 -0.1830 -1.4175
10278SOL    HW236797   3.888   2.405   1.737  1.1870 -0.4345 -0.2725
10279SOL     OW36798   2.220   1.655   4.900  0.5675 -0.4299 -0.3239
10279SOL    HW136799   2.184   1.674   4.987  2.5258  3.2525 -0.1139
10279SOL    HW236800   2.305   1.616   4.918  0.9351  0.2498 -0.5282
10280SOL     OW36801   4.958   1.800   4.695 -0.0075 -0.2298  0.4553
10280SOL    HW136802   4.931   1.891   4.707  0.9997  0.2627 -0.7673
10280SOL    HW236803   5.039   1.806   4.644 -0.0191 -1.8192  0.2125
10281SOL     OW36804   0.943   2.966   2.513  0.4276 -0.1175  0.0707
10281SOL    HW136805   0.895   2.957   2.595  1.1540  0.1008  0.5344
10281SOL    HW236806   1.001   2.889   2.511 -0.2954 -0.6577 -0.7335
10282SOL     OW36807   7.194   6.415   4.789  0.2800  0.0363  0.0053
10282SOL    HW136808   7.148   6.445   4.710  0.7441 -0.3637 -0.4195
10282SOL    HW236809   7.255   6.349   4.758 -0.0732 -0.6895  0.8069
10283SOL     OW36810   1.153   6.770   5.992 -0.1560 -0.5409 -0.1039
10283SOL    HW136811   1.158   6.840   5.927  1.8100  0.9852  1.5811
10283SOL    HW236812   1.230   6.716   5.975 -0.0454 -0.5752  0.4818
10284SOL     OW36813   7.318   3.119   7.258  0.2730 -0.0319 -0.1105
10284SOL    HW136814   7.369   3.191   7.222  2.5293 -1.3944  0.1438
10284SOL    HW236815   7.341   3.116   7.351 -1.9726  0.6151  0.5266
10285SOL     OW36816   0.616   1.771   8.885  0.3911  0.1728  0.1570
10285SOL    HW136817   0.551   1.836   8.857  0.1254 -0.0005  0.3726
10285SOL    HW236818   0.681   1.822   8.934 -1.1615 -0.0773  2.6011
10286SOL     OW36819   7.272   8.117   6.972 -0.6365  0.2908  1.0888
10286SOL    HW136820   7.214   8.043   6.954 -0.4508  0.0068  1.6189
10286SOL    HW236821   7.355   8.076   6.997  0.0606  0.6901 -0.4736
10287SOL     OW36822   5.406   3.036   5.994 -0.5153  0.0466  0.1562
10287SOL    HW136823   5.389   2.942   5.999  0.0775 -0.0166  1.2085
10287SOL    HW236824   5.471   3.044   5.924 -1.1925 -0.2201 -0.5245
10288SOL     OW36825   5.908   3.771   4.767  0.1360  0.1552  0.2150
10288SOL    HW136826   6.003   3.761   4.774  0.0153 -0.6357  0.7662
10288SOL    HW236827   5.886   3.731   4.683  0.1316 -0.8903  0.6977
10289SOL     OW36828   7.674   8.864   9.175  0.4415  0.1202  0.1030
10289SOL    HW136829   7.765   8.848   9.203  0.9241 -0.3498 -1.6028
10289SOL    HW236830   7.639   8.777   9.158 -0.0223  0.3580 -0.1617
10290SOL     OW36831   5.704   4.310   0.041 -0.2982 -0.1894  0.2294
10290SOL    HW136832   5.719   4.403   0.023 -0.6815 -0.4358 -1.5792
10290SOL    HW236833   5.790   4.277   0.067  0.4199  0.2087 -1.4656
10291SOL     OW36834   8.200   1.244   1.380 -0.2494  0.4816  0.7676
10291SOL    HW136835   8.262   1.283   1.442 -2.0322  2.8392  1.2297
10291SOL    HW236836   8.126   1.304   1.380 -0.6519  0.2133 -3.1963
10292SOL     OW36837   8.408   2.555   1.622 -0.1432  0.5918  0.1822
10292SOL    HW136838   8.481   2.593   1.574  1.7369  0.0416  2.4449
10292SOL    HW236839   8.440   2.470   1.652 -2.4129 -0.5312 -0.3326
10293SOL     OW36840   3.569   8.495   3.769  0.1640 -0.3823  0.0759
10293SOL    HW136841   3.545   8.537   3.852 -1.3383  0.7728 -0.8816
10293SOL    HW236842   3.489   8.455   3.738  0.2044  0.7317 -1.6498
10294SOL     OW36843   2.879   1.521   1.378 -0.6554 -0.1750 -0.0332
10294SOL    HW136844   2.908   1.471   1.302  1.1380  0.4242  0.2236
10294SOL    HW236845   2.944   1.503   1.446  0.2118  2.5883  0.0091
10295SOL     OW36846   8.587   1.843   7.296  0.1256 -0.0329  0.4729
10295SOL    HW136847   8.541   1.829   7.214  1.4982  0.0317 -0.3401
10295SOL    HW236848   8.551   1.776   7.355 -0.1075 -0.8094 -0.5081
10296SOL     OW36849   8.335   3.809   3.386  0.4697  0.4485 -0.4648
10296SOL    HW136850   8.321   3.790   3.293  1.2950  0.9615 -0.7039
10296SOL    HW236851   8.351   3.903   3.389 -0.1692  0.5459  0.2847
10297SOL     OW36852   5.741   7.754   4.588 -0.2786  0.3694 -0.2234
10297SOL    HW136853   5.672   7.697   4.623 -0.6917  0.2264 -1.2416
10297SOL    HW236854   5.791   7.780   4.665 -0.1786 -1.2238  0.2986
10298SOL     OW36855   6.686   2.579   2.946 -0.3132  0.0591  0.0059
10298SOL    HW136856   6.643   2.514   3.003 -1.7276  0.5540 -0.4626
10298SOL    HW236857   6.670   2.547   2.858 -0.0540  0.4750 -0.1912
10299SOL     OW36858   0.982   6.796   3.425 -1.0031  0.1038  0.0088
10299SOL    HW136859   0.903   6.759   3.384 -0.6053 -0.6716 -0.0841
10299SOL    HW236860   1.026   6.720   3.463 -0.6923  0.6447  0.7362
10300SOL     OW36861   4.630   5.031   0.829 -0.3368 -0.3676 -0.2777
10300SOL    HW136862   4.552   5.000   0.783 -1.8218  0.2061  1.7049
10300SOL    HW236863   4.617   5.125   0.837 -0.2443 -0.4720  1.4382
10301SOL     OW36864   5.329   3.880   1.793  0.1925  1.0018  1.0616
10301SOL    HW136865   5.266   3.944   1.826 -0.5874  0.5208  0.5441
10301SOL    HW236866   5.366   3.839   1.872 -0.9595  0.5157  1.3730
10302SOL     OW36867   1.730   4.027   8.296 -0.1346  0.0225  0.1682
10302SOL    HW136868   1.678   4.083   8.353 -0.1013 -0.3384  0.5686
10302SOL    HW236869   1.787   3.979   8.357  0.6238  0.3717 -0.2552
10303SOL     OW36870   5.888   2.912   0.664  0.2121  0.5646  0.1696
10303SOL    HW136871   5.967   2.959   0.689  1.4492 -1.2257 -0.1648
10303SOL    HW236872   5.920   2.832   0.621 -1.7801  0.0197 -0.4184
10304SOL     OW36873   1.225   8.122   3.166 -0.1223 -0.0373  0.0650
10304SOL    HW136874   1.180   8.191   3.116 -0.5926 -0.5740 -0.2670
10304SOL    HW236875   1.181   8.041   3.140 -0.2691 -0.3541  1.2284
10305SOL     OW36876   8.456   9.038   9.268  0.7394 -0.1769  0.0464
10305SOL    HW136877   8.383   8.977   9.254  0.7162 -0.1702  0.1414
10305SOL    HW236878   8.486   9.060   9.180 -0.5320  1.2381 -0.0616
10306SOL     OW36879   6.275   5.202   4.152  0.1323  0.0787  0.3896
10306SOL    HW136880   6.233   5.247   4.224 -1.7434 -1.2518  0.2003
10306SOL    HW236881   6.304   5.118   4.189 -0.6601 -0.5274 -0.3048
10307SOL     OW36882   9.369   5.624   0.265  0.0597 -0.2433 -0.6044
10307SOL    HW136883   9.397   5.677   0.339 -2.0081  0.4666 -0.2464
10307SOL    HW236884   9.342   5.688   0.198 -0.0622 -0.8527 -1.1495
10308SOL     OW36885   7.078   7.454   5.455 -0.8744 -0.1399  0.6440
10308SOL    HW136886   7.006   7.498   5.500 -0.6912  1.1694 -0.2807
10308SOL    HW236887   7.149   7.518   5.454 -0.4904 -0.5489 -0.4868
10309SOL     OW36888   9.233   6.722   6.275 -0.3083  0.0755  0.3895
10309SOL    HW136889   9.138   6.737   6.278 -0.6305 -1.9251  1.7330
10309SOL    HW236890   9.265   6.750   6.360  0.1460 -0.2757  0.3374
10310SOL     OW36891   7.316   5.184   4.267 -0.0654  0.2344  0.0201
10310SOL    HW136892   7.229   5.145   4.276  0.3415 -1.2303 -1.8255
10310SOL    HW236893   7.308   5.243   4.191  0.5603  0.0568 -0.1915
10311SOL     OW36894   0.993   6.591   7.179  0.2330  0.5575  0.1962
10311SOL    HW136895   0.918   6.649   7.188  0.7422  1.0823  1.1703
10311SOL    HW236896   1.046   6.630   7.110  0.0724  0.6923  0.1492
10312SOL     OW36897   4.546   8.259   7.829 -0.1795  0.0091 -0.0431
10312SOL    HW136898   4.456   8.227   7.833 -0.3610  0.6225  1.3175
10312SOL    HW236899   4.538   8.354   7.838  0.4230  0.4274 -2.9113
10313SOL     OW36900   2.489   8.513   7.576  0.1833 -0.4405  0.1953
10313SOL    HW136901   2.580   8.497   7.600  0.0515 -1.8550 -0.1656
10313SOL    HW236902   2.443   8.525   7.659  1.1970  3.8390  0.3982
10314SOL     OW36903   7.280   7.178   1.096  0.2918 -0.8430 -0.0696
10314SOL    HW136904   7.352   7.144   1.148 -0.4460  0.3774  1.8883
10314SOL    HW236905   7.208   7.187   1.158 -1.1002 -0.6218 -1.6368
10315SOL     OW36906   7.575   3.743   0.069  0.1496 -0.5434  0.3881
10315SOL    HW136907   7.584   3.657   0.030 -1.1516 -0.6302  0.2287
10315SOL    HW236908   7.548   3.800  -0.003 -0.8007 -0.3974  0.8420
10316SOL     OW36909   0.774   2.021   9.361 -0.2572  0.3875 -0.6802
10316SOL    HW136910   0.806   1.996   9.448  0.2698 -0.3765 -1.0783
10316SOL    HW236911   0.717   2.096   9.377  3.0491  3.0243 -0.0501
10317SOL     OW36912   3.627   2.080   2.551 -0.6936  0.5498 -0.5249
10317SOL    HW136913   3.722   2.078   2.540 -0.3627  2.3128  1.3413
10317SOL    HW236914   3.592   2.086   2.462  0.9981  1.0630 -1.1901
10318SOL     OW36915   2.052   1.672   1.323  0.0355 -0.0704 -0.3565
10318SOL    HW136916   2.121   1.627   1.274  0.5218 -1.1610  1.2581
10318SOL    HW236917   1.972   1.623   1.303  0.1129 -0.1068 -0.5757
10319SOL     OW36918   6.518   8.135   6.368 -0.0474 -0.1338 -0.1846
10319SOL    HW136919   6.590   8.072   6.378  0.5884  0.4606 -0.8849
10319SOL    HW236920   6.503   8.137   6.273  0.0358  0.8678 -0.1814
10320SOL     OW36921   4.355   4.006   0.629  0.1006 -0.3286 -0.2389
10320SOL    HW136922   4.449   4.021   0.621  0.4121 -1.4395  1.1327
10320SOL    HW236923   4.335   4.023   0.721 -1.3507  1.3570 -0.7897
10321SOL     OW36924   7.832   7.606   5.815 -0.1434 -0.4150  0.1855
10321SOL    HW136925   7.858   7.656   5.892 -2.3161  0.1966  0.6105
10321SOL    HW236926   7.839   7.668   5.743  2.2143 -1.0829 -0.2346
10322SOL     OW36927   5.814   4.206   7.267  0.3442 -0.0502 -0.3397
10322SOL    HW136928   5.745   4.238   7.208  0.0198 -0.3066 -0.1077
10322SOL    HW236929   5.851   4.131   7.222  1.2835  0.7970 -1.0035
10323SOL     OW36930   4.140   2.611   6.134  0.1758  0.0561  0.2247
10323SOL    HW136931   4.072   2.675   6.154 -1.0949 -1.4181  0.8049
10323SOL    HW236932   4.186   2.599   6.218 -0.4670 -0.7682  0.4703
10324SOL     OW36933   7.914   8.584   5.308  1.1518 -0.2864 -0.0218
10324SOL    HW136934   7.826   8.590   5.270  1.1912 -0.1807 -0.1001
10324SOL    HW236935   7.923   8.493   5.335  0.7510 -0.1299  0.6391
10325SOL     OW36936   2.907   3.448   8.300  0.1853  0.3621 -0.2757
10325SOL    HW136937   2.970   3.399   8.353  1.3408  3.2370  1.2506
10325SOL    HW236938   2.821   3.417   8.330  0.8199 -1.3513 -0.1122
10326SOL     OW36939   8.587   6.609   0.843  0.0786 -0.6694  0.0201
10326SOL    HW136940   8.679   6.594   0.822 -0.1740  0.9238 -2.5992
10326SOL    HW236941   8.584   6.699   0.874 -0.6675 -0.5464 -0.3922
10327SOL     OW36942   1.386   6.968   1.835  0.1016 -0.1006  0.1164
10327SOL    HW136943   1.397   6.879   1.868  1.3961 -0.5433 -1.4049
10327SOL    HW236944   1.294   6.973   1.810 -0.2321 -0.6540  1.1782
10328SOL     OW36945   3.416   7.544   7.265 -0.4054 -0.1239  0.7210
10328SOL    HW136946   3.325   7.542   7.295 -0.0637  0.7384  1.9141
10328SOL    HW236947   3.455   7.618   7.313  0.8549 -0.3273  0.0456
10329SOL     OW36948   6.793   8.732   7.467  0.2304  0.3072  0.2644
10329SOL    HW136949   6.834   8.670   7.528  0.6581 -0.7091 -1.0103
10329SOL    HW236950   6.859   8.800   7.455  0.8680 -0.3976 -0.3870
10330SOL     OW36951   3.336   5.785   2.881 -0.0535 -0.1928 -0.3798
10330SOL    HW136952   3.343   5.691   2.865  0.9547 -0.0136 -1.1019
10330SOL    HW236953   3.416   5.808   2.927 -0.5053  0.2426  0.2051
10331SOL     OW36954   1.712   4.232   1.622 -0.4886 -0.4829  0.3254
10331SOL    HW136955   1.795   4.185   1.614 -0.3508 -0.0927 -0.7042
10331SOL    HW236956   1.713   4.268   1.710  1.0740  0.6537 -0.1239
10332SOL     OW36957   9.054   6.629   8.008  0.3207  0.3613 -0.1419
10332SOL    HW136958   8.959   6.625   8.001  0.3452  0.6761 -0.6672
10332SOL    HW236959   9.074   6.722   8.005  0.7693  0.2409 -1.7304
10333SOL     OW36960   0.986   4.064   5.590 -0.0987  0.0136  0.2090
10333SOL    HW136961   1.025   3.981   5.619 -0.0993  0.1177  0.5039
10333SOL    HW236962   0.956   4.045   5.501 -0.5540 -0.4603  0.4520
10334SOL     OW36963   5.581   3.381   1.576  0.4886 -0.1058 -0.7670
10334SOL    HW136964   5.507   3.329   1.547  0.2406  0.4216 -1.0854
10334SOL    HW236965   5.634   3.320   1.627  0.1263 -0.6303 -1.0074
10335SOL     OW36966   8.630   3.447   8.294 -0.3433 -0.1468 -0.1110
10335SOL    HW136967   8.601   3.531   8.258  1.8015  1.6522  2.0155
10335SOL    HW236968   8.720   3.463   8.322 -0.9369 -2.1010  3.4589
10336SOL     OW36969   6.014   0.132   3.718  0.1456 -0.0555 -0.6802
10336SOL    HW136970   5.955   0.152   3.645  0.4618  1.3175 -0.5856
10336SOL    HW236971   6.072   0.208   3.724  0.9548 -0.7149  0.1925
10337SOL     OW36972   2.523   2.447   6.038 -0.4639 -0.6908  0.0909
10337SOL    HW136973   2.454   2.458   5.972  0.6083  1.2255 -0.7990
10337SOL    HW236974   2.604   2.442   5.988  0.2263 -0.9695  1.2024
10338SOL     OW36975   7.529   3.276   7.545  0.4267 -0.0816  0.0513
10338SOL    HW136976   7.595   3.250   7.609  0.1154 -0.0930  0.3713
10338SOL    HW236977   7.560   3.360   7.511  1.0929 -0.5530 -0.4994
10339SOL     OW36978   3.971   8.746   1.683  0.0985 -0.3402 -0.2347
10339SOL    HW136979   3.902   8.687   1.651  0.7238  0.1993 -2.8324
10339SOL    HW236980   4.051   8.694   1.677  0.2441 -0.1919  0.4100
10340SOL     OW36981   8.476   3.934   4.281  0.2320 -0.0928  0.1112
10340SOL    HW136982   8.431   4.018   4.270 -0.4416 -0.5421 -0.6518
10340SOL    HW236983   8.425   3.872   4.228  1.3766 -0.7468 -0.2542
10341SOL     OW36984   6.500   5.268   7.741  0.0078 -0.4649  0.0800
10341SOL    HW136985   6.425   5.267   7.682 -0.6477 -0.9961  0.9069
10341SOL    HW236986   6.515   5.176   7.763 -0.1502 -0.2328  1.2178
10342SOL     OW36987   8.209   4.584   4.200 -0.6715  0.9358 -0.0499
10342SOL    HW136988   8.186   4.494   4.176  2.3582  0.4996 -1.7749
10342SOL    HW236989   8.265   4.574   4.278 -0.7937  1.3799  0.0959
10343SOL     OW36990   8.784   4.523   8.336  0.3403  0.1300  0.3006
10343SOL    HW136991   8.822   4.520   8.248  0.6164 -3.3390  0.3964
10343SOL    HW236992   8.843   4.579   8.386  0.3041  1.9920 -1.6090
10344SOL     OW36993   7.259   4.681   7.536 -0.1076 -0.0555 -0.6215
10344SOL    HW136994   7.334   4.664   7.593 -1.0645  0.1163  0.7462
10344SOL    HW236995   7.293   4.738   7.468  1.0377 -0.1040 -0.1157
10345SOL     OW36996   3.437   7.661   0.258  0.3035  0.0383  0.4140
10345SOL    HW136997   3.360   7.656   0.315 -0.3277 -0.0663 -0.4157
10345SOL    HW236998   3.409   7.617   0.177  0.3340  2.2401 -0.8807
10346SOL     OW36999   1.577   2.103   5.267  0.1119 -0.0317 -0.4309
10346SOL    HW137000   1.616   2.111   5.180  0.9231 -2.0982 -0.3226
10346SOL    HW237001   1.619   2.025   5.304 -0.1646  0.8393  1.8425
10347SOL     OW37002   7.365   4.167   1.731 -0.3850 -0.1973 -0.6141
10347SOL    HW137003   7.374   4.082   1.689  1.9963  0.8680 -2.4507
10347SOL    HW237004   7.346   4.228   1.659  1.6266  1.3587  0.0872
10348SOL     OW37005   7.160   9.142   6.527 -0.5606 -0.1895  0.3450
10348SOL    HW137006   7.188   9.054   6.500 -2.1335 -0.9803  1.1871
10348SOL    HW237007   7.200   9.155   6.613  0.3252  0.2720 -0.1207
10349SOL     OW37008   6.399   5.677   4.755 -0.1699 -0.2614  0.3463
10349SOL    HW137009   6.368   5.743   4.693 -0.0072  1.1611  1.7116
10349SOL    HW237010   6.437   5.609   4.701 -0.4785  0.6984 -1.1331
10350SOL     OW37011   9.371   1.055   5.688 -0.2859  0.3422 -0.8793
10350SOL    HW137012   9.317   1.045   5.766  0.4323  0.4734 -0.3507
10350SOL    HW237013   9.379   0.966   5.653  0.5853  0.0406  0.0338
10351SOL     OW37014   6.460   7.275   2.794  0.0372  0.1889  0.5323
10351SOL    HW137015   6.479   7.320   2.877 -0.5173 -0.4734  1.0337
10351SOL    HW237016   6.390   7.214   2.816 -0.3045  0.1935 -0.4984
10352SOL     OW37017   5.937   5.441   7.032 -0.2693 -0.1588 -0.7269
10352SOL    HW137018   5.966   5.517   7.082 -0.9468 -1.0175  1.0815
10352SOL    HW237019   6.001   5.433   6.960  0.0832  1.7919 -0.6739
10353SOL     OW37020   7.384   7.903   6.346  0.0362  0.4818 -0.3964
10353SOL    HW137021   7.396   7.929   6.255  0.3812 -0.3587 -0.6049
10353SOL    HW237022   7.298   7.938   6.370 -0.1105  0.6099 -1.0827
10354SOL     OW37023   7.016   2.159   3.772  0.1226 -0.0178 -0.1885
10354SOL    HW137024   7.083   2.187   3.710  0.2205  1.8126  0.6790
10354SOL    HW237025   6.964   2.238   3.788 -0.8668 -0.8450  0.8527
10355SOL     OW37026   3.351   4.402   6.774  0.0489  0.6015 -0.0933
10355SOL    HW137027   3.428   4.459   6.781  0.0996  0.4380  0.8898
10355SOL    HW237028   3.289   4.438   6.838 -1.0419  1.2324 -1.4652
10356SOL     OW37029   1.652   7.879   7.377 -0.4611 -0.1866  0.1647
10356SOL    HW137030   1.654   7.962   7.424 -1.1324 -1.0600  1.7802
10356SOL    HW237031   1.745   7.857   7.365 -0.2782  0.2412  0.7307
10357SOL     OW37032   3.780   3.662   8.992 -0.2018  0.3388  0.2333
10357SOL    HW137033   3.820   3.585   8.953 -0.3281 -0.8684  2.3431
10357SOL    HW237034   3.686   3.644   8.990 -0.4894  1.6941 -1.6829
10358SOL     OW37035   2.182   1.676   9.125  0.3184 -0.4591  0.2921
10358SOL    HW137036   2.245   1.744   9.147  0.1236  0.4803 -1.8475
10358SOL    HW237037   2.114   1.684   9.192 -0.0193  1.9179 -0.2471
10359SOL     OW37038   2.443   4.369   7.093 -0.8555 -0.2442  0.5673
10359SOL    HW137039   2.444   4.372   6.997 -0.9155 -0.5111  0.5585
10359SOL    HW237040   2.435   4.276   7.114 -0.3956 -0.2252  0.8334
10360SOL     OW37041   7.807   6.903   1.441 -0.3777 -0.1486  0.2165
10360SOL    HW137042   7.712   6.911   1.441 -0.4365 -0.7630  0.2480
10360SOL    HW237043   7.839   6.989   1.468 -0.8112  1.0886 -2.8037
10361SOL     OW37044   9.260   7.750   2.225  0.3562 -0.5139 -0.1615
10361SOL    HW137045   9.236   7.723   2.137 -0.6431  0.1390 -0.1019
10361SOL    HW237046   9.289   7.669   2.268 -0.3529 -1.0630 -0.7010
10362SOL     OW37047   3.187   8.877   2.911  0.6163 -0.1683  0.2601
10362SOL    HW137048   3.111   8.828   2.880 -0.7435  0.0467  2.9842
10362SOL    HW237049   3.255   8.812   2.923 -0.1208 -0.8777  0.6871
10363SOL     OW37050   5.258   1.605   3.876  0.3629  0.2947 -0.5097
10363SOL    HW137051   5.226   1.694   3.889 -2.1865 -0.6659  0.3324
10363SOL    HW237052   5.302   1.583   3.958 -0.8522  0.0907  0.1070
10364SOL     OW37053   7.531   7.656   0.316 -0.0013 -0.1514 -0.4116
10364SOL    HW137054   7.544   7.750   0.330 -0.5677 -0.1452  0.1202
10364SOL    HW237055   7.613   7.626   0.277  0.7249  0.2893  0.7390
10365SOL     OW37056   3.681   5.075   4.305 -0.0311 -0.1536  0.1048
10365SOL    HW137057   3.697   5.000   4.247 -0.2736 -0.6923  0.7260
10365SOL    HW237058   3.696   5.151   4.249 -0.6673 -0.6610 -0.7929
10366SOL     OW37059   9.313   7.793   6.373  0.4321 -0.3968  0.4378
10366SOL    HW137060   9.323   7.738   6.451 -1.4836 -1.8400 -0.2538
10366SOL    HW237061   9.305   7.731   6.301  0.5367  0.8812 -0.7145
10367SOL     OW37062   6.486   3.234   5.341  0.2587 -0.0174  0.0134
10367SOL    HW137063   6.448   3.246   5.254  0.5291 -2.2177 -0.4730
10367SOL    HW237064   6.426   3.175   5.385  1.2383 -0.6734  0.5165
10368SOL     OW37065   1.527   9.002   7.823  0.1714  0.6310 -0.5963
10368SOL    HW137066   1.581   9.065   7.871  0.2378  0.5430 -0.5554
10368SOL    HW237067   1.485   9.054   7.754  1.5020  0.4058 -1.6114
10369SOL     OW37068   7.990   0.377   6.294  0.0532 -0.0913 -0.0659
10369SOL    HW137069   7.934   0.309   6.257 -1.1653  0.0718  1.3584
10369SOL    HW237070   7.931   0.451   6.308  1.1428  0.9090 -0.6308
10370SOL     OW37071   5.377   0.884   5.303  1.2296 -0.4424 -0.1278
10370SOL    HW137072   5.409   0.962   5.348  0.4603  0.6233 -1.3819
10370SOL    HW237073   5.386   0.904   5.210 -0.5900 -1.1581 -0.4911
10371SOL     OW37074   7.003   6.144   1.694  0.2374 -0.2209 -0.0915
10371SOL    HW137075   7.058   6.197   1.637 -0.2610 -0.0642 -0.4338
10371SOL    HW237076   6.922   6.194   1.703 -0.1560 -0.8238 -0.2381
10372SOL     OW37077   8.073   1.052   5.749 -0.5316  0.3286 -0.3610
10372SOL    HW137078   8.075   1.105   5.828  0.8670 -0.7418  0.3702
10372SOL    HW237079   8.055   0.963   5.780  0.3669 -0.1602 -1.1720
10373SOL     OW37080   0.076   8.168   0.061 -0.2618  0.6373 -0.1083
10373SOL    HW137081   0.112   8.245   0.106  2.0673 -0.9122  0.8799
10373SOL    HW237082   0.127   8.163  -0.020  0.3288 -0.3988  0.3118
10374SOL     OW37083   0.382   2.121   0.831  0.3289  0.1752 -0.0390
10374SOL    HW137084   0.460   2.168   0.800  0.6767  0.2471  0.9140
10374SOL    HW237085   0.345   2.179   0.897  2.4333 -2.0968  3.4151
10375SOL     OW37086   9.221   0.709   7.351  0.3643 -0.1569 -0.0723
10375SOL    HW137087   9.300   0.738   7.396 -1.0874  0.5387  2.1958
10375SOL    HW237088   9.206   0.776   7.284  1.1583  0.2279  0.1176
10376SOL     OW37089   1.748   6.051   7.744  0.4303 -0.3137  0.0623
10376SOL    HW137090   1.756   6.114   7.815  1.5903  0.5260 -0.7939
10376SOL    HW237091   1.765   5.966   7.785 -0.8893 -0.0822  1.1678
10377SOL     OW37092   8.411   3.448   0.277 -0.0128 -0.0513 -0.4502
10377SOL    HW137093   8.352   3.388   0.231 -0.1341 -1.5774  1.5652
10377SOL    HW237094   8.354   3.521   0.302 -1.1289 -1.4132  1.3010
10378SOL     OW37095   0.730   1.099   1.382  0.1290 -0.0030 -0.2997
10378SOL    HW137096   0.768   1.041   1.449  1.6153  0.3728 -0.7717
10378SOL    HW237097   0.776   1.182   1.393 -0.4036  0.4052 -1.0692
10379SOL     OW37098   3.927   1.683   9.035 -0.7154  0.1774 -0.1034
10379SOL    HW137099   3.883   1.598   9.031  0.6863 -0.5452 -1.1449
10379SOL    HW237100   4.018   1.665   9.009 -0.4669  2.0489 -0.7446
10380SOL     OW37101   1.747   5.797   7.866 -0.3307 -0.7639  0.3014
10380SOL    HW137102   1.802   5.725   7.895 -0.4000 -0.4623  1.1987
10380SOL    HW237103   1.687   5.757   7.803 -0.8898 -1.6600  1.3687
10381SOL     OW37104   5.331   0.431   3.202 -0.1790  0.5507  0.1158
10381SOL    HW137105   5.345   0.338   3.184  2.5648  1.2101 -1.9472
10381SOL    HW237106   5.302   0.468   3.119 -1.8022  1.4988  1.0567
10382SOL     OW37107   1.091   4.553   7.984 -0.0861 -1.0162  0.0252
10382SOL    HW137108   1.147   4.629   7.971 -1.0627 -0.0753  1.0812
10382SOL    HW237109   1.050   4.567   8.070 -2.3866 -1.3369 -0.9291
10383SOL     OW37110   2.608   7.651   6.109 -0.3490 -0.0578  0.3317
10383SOL    HW137111   2.687   7.703   6.091 -1.6271  1.4903 -1.0280
10383SOL    HW237112   2.605   7.646   6.205  0.7968  0.8138  0.4340
10384SOL     OW37113   4.547   8.767   6.195  0.3765 -0.4280 -0.0404
10384SOL    HW137114   4.487   8.708   6.241  1.6667 -1.1979  0.7237
10384SOL    HW237115   4.587   8.712   6.128  0.7488 -0.1136 -0.0771
10385SOL     OW37116   7.157   1.067   5.279  0.4950 -0.1671  0.3233
10385SOL    HW137117   7.248   1.095   5.269  0.8733 -0.6940  1.9289
10385SOL    HW237118   7.149   0.990   5.223  0.5280  0.8726 -1.1551
10386SOL     OW37119   6.621   7.027   8.546  0.2544  0.6010  0.3538
10386SOL    HW137120   6.593   7.082   8.619  0.0008 -1.2603  1.7195
10386SOL    HW237121   6.651   7.089   8.480  1.6981  2.3608  2.5135
10387SOL     OW37122   1.760   4.699   4.185 -0.0473  0.4592 -0.3597
10387SOL    HW137123   1.691   4.737   4.239  0.0073 -1.1875  0.9380
10387SOL    HW237124   1.746   4.605   4.191  2.7608  0.0317  0.5725
10388SOL     OW37125   5.320   3.342   1.452  0.0892  0.1713  0.1972
10388SOL    HW137126   5.358   3.306   1.372  1.5690 -1.4337  1.5368
10388SOL    HW237127   5.239   3.383   1.424  1.2317  0.8942 -2.3320
10389SOL     OW37128   5.785   1.651   2.955  0.1773 -0.1021  0.3885
10389SOL    HW137129   5.824   1.590   3.019 -0.4136 -2.1608 -1.1233
10389SOL    HW237130   5.858   1.676   2.899 -0.1359 -2.2301 -1.0941
10390SOL     OW37131   5.508   8.871   1.082 -0.8362  0.1746  0.4752
10390SOL    HW137132   5.475   8.784   1.107 -0.4752 -0.1099 -0.0109
10390SOL    HW237133   5.524   8.864   0.987  1.0897  0.1165  0.7468
10391SOL     OW37134   4.333   8.007   3.583 -0.4775  0.1819 -0.0692
10391SOL    HW137135   4.290   8.031   3.665 -0.3334 -0.2059  0.1228
10391SOL    HW237136   4.406   7.951   3.610  0.8177  1.6993 -0.2847
10392SOL     OW37137   7.479   6.529   7.048  0.5731  0.1970 -0.1558
10392SOL    HW137138   7.519   6.601   7.097  2.6666  0.5187 -2.1822
10392SOL    HW237139   7.491   6.553   6.956  0.5421 -2.3246 -0.8837
10393SOL     OW37140   4.390   8.114   1.180 -0.5218  0.1452  0.1039
10393SOL    HW137141   4.456   8.059   1.137 -1.4338 -0.7700 -0.1620
10393SOL    HW237142   4.440   8.187   1.216  0.5568 -0.1937 -0.6377
10394SOL     OW37143   4.020   2.667   1.857  0.2485 -0.1606  0.5418
10394SOL    HW137144   3.952   2.729   1.828  0.1498 -0.6599 -0.3028
10394SOL    HW237145   4.077   2.720   1.914  0.5754  0.9032 -0.7201
10395SOL     OW37146   7.168   1.364   5.691  0.3759  0.5396 -0.2147
10395SOL    HW137147   7.134   1.428   5.629 -0.9895 -0.8919 -1.0036
10395SOL    HW237148   7.129   1.280   5.664 -2.6522  0.1969  4.1285
10396SOL     OW37149   5.046   5.203   4.727  0.0957  0.5499  0.9788
10396SOL    HW137150   5.086   5.181   4.811  1.0431 -0.2619  0.3436
10396SOL    HW237151   5.110   5.173   4.662 -1.4910 -0.6809 -0.0821
10397SOL     OW37152   3.454   3.390   6.369  0.5892  0.0457  0.2012
10397SOL    HW137153   3.395   3.431   6.306  0.9767 -0.2009 -0.3342
10397SOL    HW237154   3.537   3.382   6.322  0.0396 -3.1784 -0.5023
10398SOL     OW37155   4.329   4.817   4.615  0.0753  0.4061 -0.0525
10398SOL    HW137156   4.279   4.814   4.697  1.6867 -0.4607  0.9502
10398SOL    HW237157   4.414   4.780   4.638  0.3346 -0.5143 -2.3018
10399SOL     OW37158   4.718   9.007   7.293  0.2311  0.0664 -0.1170
10399SOL    HW137159   4.682   8.918   7.281  0.7559 -0.4251  1.6462
10399SOL    HW237160   4.728   9.015   7.388  1.9564  1.3271 -0.3829
10400SOL     OW37161   4.569   0.133   6.763 -0.2188  0.6953  0.4880
10400SOL    HW137162   4.499   0.144   6.828  0.5958  2.0463  1.1738
10400SOL    HW237163   4.650   0.140   6.813  0.4333 -0.2595 -0.3857
10401SOL     OW37164   6.357   6.406   8.061  0.0990  0.0214 -0.2019
10401SOL    HW137165   6.376   6.497   8.084  0.4148  0.4197 -1.9280
10401SOL    HW237166   6.316   6.410   7.975  1.2143 -1.5264 -0.8712
10402SOL     OW37167   0.590   4.716   5.680  1.1299  0.0948 -0.3514
10402SOL    HW137168   0.586   4.805   5.713  0.6027 -0.2912  0.6579
10402SOL    HW237169   0.642   4.668   5.745  0.3164 -0.6133 -0.1969
10403SOL     OW37170   6.627   8.851   1.293  0.5075 -0.0445 -0.1328
10403SOL    HW137171   6.718   8.882   1.292 -0.6384  3.7833 -2.2085
10403SOL    HW237172   6.631   8.765   1.250  3.2636 -0.7207  1.2287
10404SOL     OW37173   5.090   7.332   1.393 -0.4101 -0.2630 -0.1743
10404SOL    HW137174   5.048   7.341   1.307 -0.3151 -2.9685 -0.6109
10404SOL    HW237175   5.181   7.355   1.378 -0.4225 -0.5813 -0.7898
10405SOL     OW37176   7.459   2.658   5.457 -0.3712 -0.0418  0.6686
10405SOL    HW137177   7.526   2.652   5.389  0.3406 -0.2201  1.3647
10405SOL    HW237178   7.440   2.567   5.479 -1.6236 -0.0200 -0.2566
10406SOL     OW37179   0.263   8.211   7.684 -0.5816  1.0216  0.2531
10406SOL    HW137180   0.186   8.267   7.692 -1.3258  0.0810 -0.1780
10406SOL    HW237181   0.240   8.148   7.615 -0.1958 -0.4936  1.4645
10407SOL     OW37182   4.588   4.587   1.625 -0.0107  0.7176 -0.1363
10407SOL    HW137183   4.669   4.540   1.601 -0.4323  0.5047 -1.1874
10407SOL    HW237184   4.611   4.679   1.618  0.9956  0.7742  2.4985
10408SOL     OW37185   8.062   4.382   3.900 -0.5141 -1.2327  0.5908
10408SOL    HW137186   8.066   4.365   3.994  0.4502  0.7863  0.9564
10408SOL    HW237187   8.021   4.303   3.864  0.2168 -2.5924  2.5364
10409SOL     OW37188   5.725   4.712   6.386  0.5832  0.1518  0.1898
10409SOL    HW137189   5.646   4.703   6.333  2.2453 -1.6596 -2.1741
10409SOL    HW237190   5.733   4.807   6.401 -0.4201  0.6698 -2.1406
10410SOL     OW37191   0.240   3.369   4.379  0.4178 -0.1981 -0.6030
10410SOL    HW137192   0.331   3.340   4.369  0.3206 -0.1804 -1.7413
10410SOL    HW237193   0.246   3.462   4.399  0.6842 -0.5606  1.1184
10411SOL     OW37194   2.334   8.759   0.065  0.1713  0.5462  0.8259
10411SOL    HW137195   2.412   8.734   0.015 -0.5379  0.3554 -0.2237
10411SOL    HW237196   2.358   8.842   0.106  1.2468  0.0287  1.3029
10412SOL     OW37197   3.626   7.004   2.147  0.0076  0.3411  0.2415
10412SOL    HW137198   3.674   7.087   2.143 -1.1245  0.9580 -1.2205
10412SOL    HW237199   3.556   7.021   2.211 -0.0599  0.4201  0.1468
10413SOL     OW37200   9.042   4.518   7.478  1.3894  0.2387  0.3039
10413SOL    HW137201   9.114   4.521   7.416 -0.2235 -2.8447 -1.9969
10413SOL    HW237202   9.022   4.425   7.488 -1.9227  0.8925  1.1977
10414SOL     OW37203   0.838   7.283   1.493 -0.1902  0.3784  0.1514
10414SOL    HW137204   0.823   7.242   1.408 -0.0942 -0.7521  0.6599
10414SOL    HW237205   0.883   7.366   1.472  1.0157 -0.4817 -0.8433
10415SOL     OW37206   7.784   1.152   6.994  0.0030 -0.1769  0.4909
10415SOL    HW137207   7.710   1.104   7.033  0.9365 -1.8316  0.3398
10415SOL    HW237208   7.797   1.228   7.050 -0.5392 -0.9443  1.6896
10416SOL     OW37209   1.422   2.776   7.193 -0.5691 -0.2088  0.0375
10416SOL    HW137210   1.406   2.768   7.287 -0.4473  0.8122  0.1614
10416SOL    HW237211   1.504   2.824   7.187 -0.9990  0.4827 -0.5782
10417SOL     OW37212   7.073   9.252   6.115 -0.3275  0.0532 -0.3709
10417SOL    HW137213   7.052   9.344   6.096  2.4589  0.7828 -0.2585
10417SOL    HW237214   7.121   9.222   6.038 -0.1933 -0.9777  0.0988
10418SOL     OW37215   8.481   7.530   8.164  0.1282  0.0848  0.0048
10418SOL    HW137216   8.422   7.527   8.089  0.2571  1.5686 -0.1913
10418SOL    HW237217   8.426   7.507   8.239 -0.7295  1.4444 -0.1767
10419SOL     OW37218   7.257   0.969   7.663  0.0608  0.0088 -0.2741
10419SOL    HW137219   7.279   0.895   7.606  1.1588 -0.4401  0.6925
10419SOL    HW237220   7.307   1.042   7.628 -0.5880  0.1686 -0.8915
10420SOL     OW37221   3.486   4.192   8.404  0.1550  0.0147  0.3443
10420SOL    HW137222   3.440   4.264   8.448 -0.9834  0.2114 -1.0983
10420SOL    HW237223   3.536   4.150   8.474  2.3589  3.2819  0.9742
10421SOL     OW37224   1.142   9.368   6.727  0.2403  0.7097  0.3469
10421SOL    HW137225   1.049   9.363   6.748  0.4536 -1.3041  1.0675
10421SOL    HW237226   1.177   9.283   6.755  2.0159  0.8547 -1.2496
10422SOL     OW37227   0.473   1.893   5.957  0.5241  0.0960  0.5773
10422SOL    HW137228   0.520   1.926   5.880 -0.6231  1.5141  0.4392
10422SOL    HW237229   0.513   1.808   5.974  0.9936 -0.1518 -1.4316
10423SOL     OW37230   2.610   8.271   3.592 -0.0698 -0.0316 -0.3781
10423SOL    HW137231   2.692   8.321   3.592  0.5125 -0.9054 -2.5222
10423SOL    HW237232   2.592   8.254   3.500 -2.4853 -0.2158  0.0611
10424SOL     OW37233   9.052   5.244   4.130 -0.0811 -0.6469 -0.0883
10424SOL    HW137234   8.991   5.317   4.123 -1.1882 -1.5956 -0.5836
10424SOL    HW237235   9.015   5.188   4.198  0.6717 -0.8350  0.1734
10425SOL     OW37236   0.978   5.445   8.815 -0.0818 -0.5271 -0.2338
10425SOL    HW137237   0.957   5.533   8.784  0.1527 -0.1357  0.7115
10425SOL    HW237238   0.912   5.389   8.773 -2.3544  0.5142  1.7448
10426SOL     OW37239   1.177   0.123   3.595  0.0477 -0.3363  0.1438
10426SOL    HW137240   1.269   0.098   3.589 -0.0014 -0.4421 -0.1557
10426SOL    HW237241   1.168   0.157   3.684 -0.0180 -1.8840  0.7571
10427SOL     OW37242   1.173   5.237   4.586  0.0851  0.1234 -0.1840
10427SOL    HW137243   1.079   5.248   4.592  0.1963  0.8168  0.5731
10427SOL    HW237244   1.197   5.276   4.502 -0.2180  0.6416 -0.0317
10428SOL     OW37245   8.450   1.478   1.583  0.0826  0.0130  0.1435
10428SOL    HW137246   8.393   1.456   1.657  2.0367 -0.2124  1.6491
10428SOL    HW237247   8.522   1.415   1.588  1.5109  1.5278 -0.4425
10429SOL     OW37248   8.634   5.432   4.678  0.5247  0.7124  0.2075
10429SOL    HW137249   8.640   5.505   4.739 -1.0061  1.5180 -0.5283
10429SOL    HW237250   8.565   5.376   4.714  0.6000  0.4553 -0.0454
10430SOL     OW37251   7.444   7.300   3.395 -0.1847 -0.5566  0.2704
10430SOL    HW137252   7.508   7.371   3.395  0.7379 -1.3548 -0.0972
10430SOL    HW237253   7.495   7.222   3.372 -1.5850 -0.9531 -1.8031
10431SOL     OW37254   3.547   2.640   6.176 -0.4609 -0.8177 -0.8202
10431SOL    HW137255   3.624   2.682   6.215 -2.4369  1.7131  0.7126
10431SOL    HW237256   3.539   2.557   6.224 -0.1370  0.0878  0.8965
10432SOL     OW37257   8.971   0.294   1.894 -0.1475  0.0975  0.6842
10432SOL    HW137258   8.908   0.222   1.899 -0.2945  0.0942 -0.8534
10432SOL    HW237259   9.056   0.252   1.906  0.0075 -0.8301 -2.7287
10433SOL     OW37260   2.736   3.339   6.385 -0.3208  0.6975  0.2037
10433SOL    HW137261   2.694   3.424   6.403 -1.3473  0.4232 -0.7610
10433SOL    HW237262   2.708   3.317   6.296  1.4052  0.1895 -0.2490
10434SOL     OW37263   7.743   7.272   5.455 -0.4256  0.3451  0.3006
10434SOL    HW137264   7.759   7.358   5.493  0.1521  0.2165  0.3497
10434SOL    HW237265   7.758   7.210   5.527 -0.6480  0.1878  0.2146
10435SOL     OW37266   6.336   2.823   7.425 -0.2393 -0.5970  0.5759
10435SOL    HW137267   6.286   2.758   7.375  1.0209 -0.8701 -0.3968
10435SOL    HW237268   6.428   2.797   7.412  0.2326  0.7336  1.1043
10436SOL     OW37269   6.347   0.016   7.387  0.1477  0.3460  0.5297
10436SOL    HW137270   6.257   0.047   7.380  0.4726  1.0266 -1.4327
10436SOL    HW237271   6.380   0.021   7.297  1.6385 -1.4415  0.9276
10437SOL     OW37272   7.317   2.347   1.113  0.3023 -0.7002  0.5425
10437SOL    HW137273   7.251   2.297   1.160 -0.7735  0.6531  0.5475
10437SOL    HW237274   7.293   2.438   1.128  1.1793 -0.1994 -0.8808
10438SOL     OW37275   6.773   8.562   8.349 -0.1289 -0.8446  0.0813
10438SOL    HW137276   6.744   8.476   8.381  1.2682 -1.0646  0.8117
10438SOL    HW237277   6.833   8.594   8.416 -2.1951  1.6961  0.9378
10439SOL     OW37278   6.117   2.463   1.584 -0.7309  0.1182  0.9003
10439SOL    HW137279   6.028   2.435   1.560 -0.9779  0.0111  1.9075
10439SOL    HW237280   6.128   2.433   1.674  0.9907 -1.4342  0.2344
10440SOL     OW37281   2.841   8.732   7.396  0.1191  0.2203 -0.2231
10440SOL    HW137282   2.897   8.680   7.455  1.0205  0.7136 -0.6257
10440SOL    HW237283   2.872   8.822   7.408 -1.4438  0.7029  0.4879
10441SOL     OW37284   4.213   3.536   5.986  0.1961 -0.2448  0.7621
10441SOL    HW137285   4.293   3.509   5.941 -0.2929 -0.5166  0.0334
10441SOL    HW237286   4.214   3.631   5.982 -0.5845 -0.2756 -1.2106
10442SOL     OW37287   5.793   2.230   2.254 -0.0930 -0.6539  0.1854
10442SOL    HW137288   5.846   2.283   2.195  0.0010 -0.8424  0.1008
10442SOL    HW237289   5.716   2.284   2.272  0.6885  0.1522  1.2850
10443SOL     OW37290   4.199   6.343   6.238  1.0765 -0.2732  0.3061
10443SOL    HW137291   4.104   6.336   6.247  1.0362  0.9251  0.9709
10443SOL    HW237292   4.231   6.255   6.258  0.0953 -0.8055 -0.3646
10444SOL     OW37293   2.182   8.647   1.569  0.0223  0.0943  0.5463
10444SOL    HW137294   2.208   8.705   1.641  1.2186  0.9285 -0.5085
10444SOL    HW237295   2.264   8.608   1.540 -0.6018 -1.0890  0.3320
10445SOL     OW37296   2.828   1.558   5.479  0.3999 -1.0013 -0.4111
10445SOL    HW137297   2.863   1.590   5.563  0.0087  0.4689 -0.7687
10445SOL    HW237298   2.759   1.620   5.457  0.7924 -1.0889 -2.0427
10446SOL     OW37299   6.511   0.421   3.919 -0.0349  0.3620 -0.6434
10446SOL    HW137300   6.601   0.451   3.927 -0.1555  0.5783 -0.0603
10446SOL    HW237301   6.462   0.500   3.893 -0.1544  0.3861 -0.3440
10447SOL     OW37302   6.873   6.292   7.497 -0.6919 -0.0981 -0.1510
10447SOL    HW137303   6.891   6.219   7.555 -0.9690 -1.3104 -1.5152
10447SOL    HW237304   6.782   6.278   7.468 -1.0646  1.3039  0.2571
10448SOL     OW37305   0.100   1.195   5.925  0.0686 -0.0859 -0.4925
10448SOL    HW137306   0.055   1.279   5.920 -1.6263 -0.9971 -2.5768
10448SOL    HW237307   0.069   1.147   5.848 -0.6025 -3.3645  1.6095
10449SOL     OW37308   1.598   3.553   1.993  0.4190  0.0152 -0.2899
10449SOL    HW137309   1.687   3.520   1.985  0.3670 -0.5069  1.0396
10449SOL    HW237310   1.545   3.476   2.014 -0.1316  0.5201  0.2340
10450SOL     OW37311   1.189   2.387   5.264  0.0728 -0.1152 -0.2063
10450SOL    HW137312   1.258   2.449   5.289 -0.4477  1.3830 -2.1689
10450SOL    HW237313   1.235   2.304   5.255  1.9864  1.0317 -2.5102
10451SOL     OW37314   6.844   3.308   2.086 -0.3717  0.7106 -0.0181
10451SOL    HW137315   6.757   3.348   2.093 -0.8381  0.0509 -1.6086
10451SOL    HW237316   6.901   3.381   2.061 -0.5762  1.0322  0.4374
10452SOL     OW37317   6.741   1.804   7.415 -0.1351 -0.1897 -0.7589
10452SOL    HW137318   6.689   1.770   7.342  0.2138  0.4210 -1.3006
10452SOL    HW237319   6.824   1.757   7.409 -0.0881 -0.1033 -0.7849
10453SOL     OW37320   2.986   4.495   1.112 -0.1347 -0.0669 -0.0962
10453SOL    HW137321   3.016   4.551   1.040  1.3819 -0.2471  0.3613
10453SOL    HW237322   2.895   4.521   1.126  0.3913  2.0021 -0.1776
10454SOL     OW37323   3.532   6.258   4.345  0.2833 -0.3539 -0.7943
10454SOL    HW137324   3.585   6.317   4.292  0.6683 -0.3669 -0.4284
10454SOL    HW237325   3.500   6.191   4.284  2.2189 -1.4295 -0.6893
10455SOL     OW37326   5.955   1.103   7.932 -0.2268 -0.4276 -0.0656
10455SOL    HW137327   5.932   1.166   7.864  1.5422 -0.6126 -0.9225
10455SOL    HW237328   5.882   1.104   7.993 -1.6289  0.1701 -1.6784
10456SOL     OW37329   2.825   7.403   7.433 -0.0069 -0.3836 -0.1899
10456SOL    HW137330   2.733   7.393   7.458 -0.6687  1.0818 -1.8094
10456SOL    HW237331   2.831   7.361   7.347  0.3393  1.1078 -0.9363
10457SOL     OW37332   6.105   2.590   1.151  1.2461  0.1623  0.2805
10457SOL    HW137333   6.083   2.498   1.141 -1.7785  0.7122  1.0043
10457SOL    HW237334   6.158   2.593   1.231  1.2090 -0.8973  0.3625
10458SOL     OW37335   4.466   2.099   8.813  0.7209  0.0203 -0.1254
10458SOL    HW137336   4.515   2.177   8.789  1.2052 -0.7693 -1.9105
10458SOL    HW237337   4.505   2.070   8.896  1.3190  1.0068 -0.0563
10459SOL     OW37338   3.874   3.831   9.316 -0.0929 -1.0294  0.6285
10459SOL    HW137339   3.817   3.757   9.337  1.0341 -1.4863  2.2927
10459SOL    HW237340   3.942   3.794   9.261  1.5725 -1.7873  3.0189
10460SOL     OW37341   7.869   0.742   5.230 -0.0228  0.3495 -0.2208
10460SOL    HW137342   7.917   0.663   5.204  1.5723  1.6328 -1.3736
10460SOL    HW237343   7.785   0.709   5.264  0.9200 -1.8655  0.1362
10461SOL     OW37344   1.020   1.961   2.501 -0.5058  0.0697  0.3156
10461SOL    HW137345   1.086   1.894   2.489  2.4945  2.8466 -0.0607
10461SOL    HW237346   1.036   1.996   2.589 -2.4649 -0.0625  0.7911
10462SOL     OW37347   7.536   4.084   3.275  0.4005 -0.7686  0.7557
10462SOL    HW137348   7.485   4.073   3.355 -0.0508  0.0042  0.5915
10462SOL    HW237349   7.582   4.167   3.287 -0.0079 -0.4266  0.0554
10463SOL     OW37350   4.430   6.627   3.811  0.1653  0.2024 -0.1077
10463SOL    HW137351   4.495   6.667   3.754  1.1775 -0.1682  0.7521
10463SOL    HW237352   4.401   6.697   3.869 -1.2502  0.7109 -1.3656
10464SOL     OW37353   1.970   0.439   7.102 -0.2285  0.0453 -0.4263
10464SOL    HW137354   1.962   0.487   7.184 -1.3861 -0.1052 -0.4335
10464SOL    HW237355   1.882   0.405   7.085  0.7686 -3.1951  0.2617
10465SOL     OW37356   4.864   1.099   6.876 -0.6812  0.3270 -0.1229
10465SOL    HW137357   4.782   1.140   6.848 -1.0303 -0.0583  0.3323
10465SOL    HW237358   4.849   1.074   6.967 -0.6782 -1.3022 -0.5316
10466SOL     OW37359   3.989   2.265   7.235  0.0560  0.1460 -0.3157
10466SOL    HW137360   4.036   2.331   7.285 -0.1124  0.0932 -0.0888
10466SOL    HW237361   4.030   2.182   7.260 -0.6843  0.0199  0.4786
10467SOL     OW37362   5.148   3.038   8.962  0.5505  0.1774 -0.5234
10467SOL    HW137363   5.206   3.115   8.963  0.8593 -0.0593  1.1057
10467SOL    HW237364   5.138   3.018   8.869  1.2278  1.6155 -0.9403
10468SOL     OW37365   3.830   7.195   5.772  0.1924  0.3354  0.1248
10468SOL    HW137366   3.738   7.202   5.747  0.5515  0.4738 -1.2588
10468SOL    HW237367   3.856   7.107   5.746  0.5387  0.4148  0.1892
10469SOL     OW37368   2.652   8.057   8.076  0.6555 -0.5371 -0.4268
10469SOL    HW137369   2.745   8.073   8.060  0.8454 -1.0180  0.1565
10469SOL    HW237370   2.646   8.041   8.170 -0.2048  0.6914 -0.2525
10470SOL     OW37371   3.736   4.325   7.396  0.1209  0.5861  0.2612
10470SOL    HW137372   3.710   4.235   7.413  0.1297  0.1359 -1.8280
10470SOL    HW237373   3.773   4.356   7.479  0.8854 -1.5903  0.8009
10471SOL     OW37374   3.468   5.001   5.100 -0.4800  0.6121  0.1016
10471SOL    HW137375   3.532   5.020   5.032 -0.1559  0.5898  0.4030
10471SOL    HW237376   3.389   4.977   5.051 -0.4640  1.2991 -0.2685
10472SOL     OW37377   0.081   8.292   0.381  0.2447  0.2715  0.4448
10472SOL    HW137378   0.121   8.378   0.389  1.1111  0.1383 -1.7070
10472SOL    HW237379   0.013   8.304   0.314  0.6993 -0.7747 -0.2362
10473SOL     OW37380   3.312   6.795   9.278 -0.1068 -0.3948 -0.1956
10473SOL    HW137381   3.316   6.806   9.373 -0.8073  0.0091 -0.2113
10473SOL    HW237382   3.366   6.717   9.260 -0.3885 -0.7723  0.5798
10474SOL     OW37383   6.004   8.393   2.084  0.2549 -0.4830  0.1730
10474SOL    HW137384   6.001   8.408   2.179 -0.6737  1.0413 -0.0533
10474SOL    HW237385   6.088   8.429   2.057 -0.6168  1.6524  0.0912
10475SOL     OW37386   1.604   5.946   4.225  1.1059 -0.0795 -0.0038
10475SOL    HW137387   1.698   5.963   4.216  0.9306  0.4221 -1.0335
10475SOL    HW237388   1.583   5.971   4.315  2.2981 -1.9039  0.8576
10476SOL     OW37389   7.298   1.992   0.070  0.0377 -0.5971  0.0632
10476SOL    HW137390   7.348   2.018  -0.007 -0.0015  0.9859  0.5337
10476SOL    HW237391   7.347   1.918   0.107  0.2854 -1.0929 -1.2322
10477SOL     OW37392   4.944   7.313   4.266  0.2710  0.0684 -0.1280
10477SOL    HW137393   4.994   7.243   4.307  0.3183  0.0768 -0.1714
10477SOL    HW237394   4.994   7.393   4.285  1.2081 -0.1168 -1.6501
10478SOL     OW37395   4.953   3.764   6.935 -0.0630 -0.2939  0.0566
10478SOL    HW137396   4.877   3.794   6.985  0.5424  1.2629  0.0940
10478SOL    HW237397   4.937   3.796   6.846 -1.4593 -3.6075 -1.0403
10479SOL     OW37398   5.766   4.321   8.483 -0.2299  0.0180 -0.1780
10479SOL    HW137399   5.773   4.242   8.429 -1.9318 -1.4003  1.5677
10479SOL    HW237400   5.779   4.291   8.573  1.3641  2.1348  0.4058
10480SOL     OW37401   6.800   3.654   3.265 -0.0776  0.4553 -0.3669
10480SOL    HW137402   6.818   3.648   3.171 -2.9718  1.2853 -1.0724
10480SOL    HW237403   6.714   3.613   3.276  0.4408 -0.1569  2.0552
10481SOL     OW37404   0.835   5.400   5.709 -0.3669 -0.2617 -0.0410
10481SOL    HW137405   0.877   5.332   5.656 -1.3105 -1.0722  0.2168
10481SOL    HW237406   0.828   5.362   5.797 -0.2619  0.4495  0.2842
10482SOL     OW37407   1.688   5.471   4.678 -0.5975 -0.1534 -0.0033
10482SOL    HW137408   1.743   5.436   4.749  1.1516 -0.2589 -1.3414
10482SOL    HW237409   1.600   5.439   4.698  0.0637 -1.1543  1.4863
10483SOL     OW37410   0.806   4.682   2.800  0.8439  0.3096  0.1630
10483SOL    HW137411   0.754   4.747   2.847 -1.0347 -2.4193  2.2109
10483SOL    HW237412   0.789   4.700   2.708 -1.5678  1.2207  0.7129
10484SOL     OW37413   4.236   1.283   0.596  0.0503  0.7439 -0.2680
10484SOL    HW137414   4.315   1.334   0.578  1.5137 -1.4453 -0.3834
10484SOL    HW237415   4.238   1.212   0.531 -1.3446 -0.0708  0.5358
10485SOL     OW37416   8.680   5.733   7.078 -0.2468  0.4788 -0.1953
10485SOL    HW137417   8.728   5.658   7.042 -1.2468 -0.8313  1.0576
10485SOL    HW237418   8.741   5.806   7.071  0.8623 -0.5062 -1.2444
10486SOL     OW37419   0.130   2.128   3.707 -0.3493  0.2851  0.8067
10486SOL    HW137420   0.096   2.199   3.653 -0.7630 -0.5918 -0.1170
10486SOL    HW237421   0.082   2.135   3.789  0.9951  2.2517  1.4849
10487SOL     OW37422   7.706   1.920   1.845  0.4316 -0.2544  0.3417
10487SOL    HW137423   7.695   1.833   1.805  0.2474 -0.4278  0.7651
10487SOL    HW237424   7.627   1.932   1.898 -0.3234  0.8554 -0.9615
10488SOL     OW37425   6.015   6.420   2.427  0.2424 -0.0494 -0.4917
10488SOL    HW137426   5.994   6.512   2.439  0.0698 -0.1973  0.3812
10488SOL    HW237427   6.058   6.416   2.341 -0.2712  0.7474 -0.7960
10489SOL     OW37428   2.485   6.129   6.514 -0.5898 -0.4143  0.1974
10489SOL    HW137429   2.513   6.212   6.476  0.4330 -0.1776  1.4117
10489SOL    HW237430   2.552   6.108   6.578 -1.7779 -1.2548  1.2163
10490SOL     OW37431   9.151   5.926   3.602 -0.0815 -0.1301 -0.5688
10490SOL    HW137432   9.196   5.854   3.646  0.7193  0.3974 -0.5164
10490SOL    HW237433   9.172   5.914   3.509 -0.8186 -0.5674 -0.6890
10491SOL     OW37434   7.829   1.639   6.475  0.0661  0.1191  0.1875
10491SOL    HW137435   7.828   1.568   6.411  0.5548  0.2764  0.0021
10491SOL    HW237436   7.752   1.624   6.529 -0.9723  0.5882 -1.0929
10492SOL     OW37437   6.012   8.171   7.937  0.6983 -0.0872 -0.5713
10492SOL    HW137438   5.944   8.156   7.871 -0.3127 -0.8337  0.5885
10492SOL    HW237439   5.966   8.211   8.011  1.4669 -0.8361  0.3440
10493SOL     OW37440   2.492   3.772   3.629 -0.3085 -0.0750 -0.6415
10493SOL    HW137441   2.543   3.748   3.551 -0.1132 -0.7329 -0.3253
10493SOL    HW237442   2.540   3.845   3.668 -0.6354  0.5344 -1.3584
10494SOL     OW37443   5.417   3.489   5.747 -0.2885 -0.1036 -0.2965
10494SOL    HW137444   5.486   3.433   5.711  0.4654  0.4675  0.2313
10494SOL    HW237445   5.464   3.559   5.793 -1.1915  1.1724 -1.2307
10495SOL     OW37446   7.073   6.515   8.929  0.0818  0.0294 -0.2069
10495SOL    HW137447   6.988   6.516   8.974 -0.3655  0.0204 -1.0303
10495SOL    HW237448   7.128   6.573   8.982 -0.7036  0.7547 -0.1426
10496SOL     OW37449   5.027   2.169   1.069  0.5368  0.2348 -0.1875
10496SOL    HW137450   4.960   2.126   1.122  1.8693 -0.6123  0.8736
10496SOL    HW237451   5.054   2.245   1.120  0.4315  0.5433 -0.5844
10497SOL     OW37452   5.504   5.773   2.446 -0.1748 -0.3290 -0.0105
10497SOL    HW137453   5.486   5.832   2.373  0.4465 -2.0524 -1.6536
10497SOL    HW237454   5.551   5.826   2.510 -0.3959  1.1428 -1.0277
10498SOL     OW37455   2.903   3.956   3.902 -0.1211 -0.6200 -0.2347
10498SOL    HW137456   2.926   3.928   3.814 -0.0792 -0.2199 -0.3510
10498SOL    HW237457   2.906   4.052   3.899 -0.4883 -0.5955  0.0992
10499SOL     OW37458   0.437   4.945   0.295  0.3807  0.3563 -0.2836
10499SOL    HW137459   0.530   4.946   0.271  0.7591  5.6078  0.3085
10499SOL    HW237460   0.437   4.935   0.390  0.3390  0.1639 -0.3044
10500SOL     OW37461   4.471   8.506   0.657 -0.2133 -0.3607 -0.4438
10500SOL    HW137462   4.525   8.547   0.725 -0.2129 -0.9953 -0.0551
10500SOL    HW237463   4.528   8.438   0.620 -0.6579 -0.8520 -0.2211
10501SOL     OW37464   5.731   8.607   4.805  0.9544 -0.4905  0.0256
10501SOL    HW137465   5.748   8.649   4.889 -0.2666 -1.7825  0.9469
10501SOL    HW237466   5.818   8.582   4.773  1.4632  0.3674  0.6765
10502SOL     OW37467   2.324   0.423   2.532 -0.2910  0.1157 -0.2964
10502SOL    HW137468   2.395   0.462   2.583  0.0355 -0.0399 -0.6320
10502SOL    HW237469   2.353   0.430   2.441 -0.9258  0.5116 -0.4778
10503SOL     OW37470   3.618   6.720   2.849  0.0737 -0.4179  0.1899
10503SOL    HW137471   3.615   6.815   2.863 -1.0982 -0.5745  1.2023
10503SOL    HW237472   3.600   6.710   2.756  0.5736  0.3731 -0.0040
10504SOL     OW37473   3.925   6.691   1.396  0.5831  0.2218  0.0759
10504SOL    HW137474   3.964   6.748   1.330 -1.6141  1.0423 -0.5940
10504SOL    HW237475   3.835   6.721   1.404 -0.3248 -2.3458  0.6329
10505SOL     OW37476   8.250   9.081   6.313 -0.0743 -0.2919 -0.3627
10505SOL    HW137477   8.158   9.101   6.300 -0.2526 -1.0289 -0.2353
10505SOL    HW237478   8.259   8.990   6.288  0.6182 -0.2308 -0.3577
10506SOL     OW37479   3.149   7.650   7.792 -0.1361 -0.8582  0.1517
10506SOL    HW137480   3.223   7.688   7.744 -0.3952  0.6795  0.9212
10506SOL    HW237481   3.189   7.614   7.872 -0.3289  1.1628  1.2217
10507SOL     OW37482   8.792   7.418   4.395  0.2297  0.0166 -0.0489
10507SOL    HW137483   8.867   7.471   4.422  1.4445 -1.8780  0.5257
10507SOL    HW237484   8.831   7.341   4.354 -1.4658 -0.3385 -1.0751
10508SOL     OW37485   1.545   4.794   4.449 -0.5286  0.2025 -0.3619
10508SOL    HW137486   1.554   4.742   4.529 -0.5229 -0.2683 -0.6600
10508SOL    HW237487   1.578   4.881   4.472 -0.2618 -0.0095  0.0640
10509SOL     OW37488   2.351   4.043   4.513 -0.1376  0.0863  0.4050
10509SOL    HW137489   2.316   3.957   4.536 -1.1494  0.8219  1.7482
10509SOL    HW237490   2.443   4.026   4.489 -0.1949 -1.2870  1.0852
10510SOL     OW37491   1.834   3.645   3.811 -0.2765  0.3305 -0.0880
10510SOL    HW137492   1.838   3.731   3.768  0.7317  0.1636 -0.3488
10510SOL    HW237493   1.753   3.606   3.778 -2.2771  2.2431  2.1255
10511SOL     OW37494   7.959   0.055   4.046  0.0149  0.0921 -1.2331
10511SOL    HW137495   7.991   0.134   4.090  1.8073 -1.3299  0.1700
10511SOL    HW237496   7.869   0.046   4.076  1.1276 -0.7914  2.3321
10512SOL     OW37497   6.131   0.125   5.760 -0.4656 -0.0923  0.4527
10512SOL    HW137498   6.190   0.130   5.835 -0.4758 -1.0432  0.5378
10512SOL    HW237499   6.175   0.176   5.692 -0.6634  1.1520  1.2213
10513SOL     OW37500   8.495   1.546   0.875 -0.6622 -0.5485  0.1202
10513SOL    HW137501   8.430   1.508   0.815  1.5169  0.2301 -2.9715
10513SOL    HW237502   8.463   1.636   0.889 -0.1197  0.0001 -1.7959
10514SOL     OW37503   8.271   3.607   3.567 -0.0575  0.4088 -0.1166
10514SOL    HW137504   8.338   3.555   3.612 -0.0750  0.6394  0.1785
10514SOL    HW237505   8.319   3.668   3.513  0.0429  1.9058  1.5570
10515SOL     OW37506   6.286   4.969   5.748  0.3920 -0.2097 -0.0783
10515SOL    HW137507   6.199   4.947   5.782  0.5903  0.5713  0.9847
10515SOL    HW237508   6.342   4.968   5.825  1.2091 -0.1054 -0.6668
10516SOL     OW37509   6.270   8.998   6.967  0.3541  0.5143  0.3884
10516SOL    HW137510   6.263   8.918   7.019  0.6628  0.1265 -0.1603
10516SOL    HW237511   6.225   8.977   6.885 -1.7319  1.7021  1.1530
10517SOL     OW37512   4.130   1.227   0.994 -0.1746 -0.2197 -0.0510
10517SOL    HW137513   4.210   1.210   0.944 -0.0462 -0.5872  0.2766
10517SOL    HW237514   4.076   1.149   0.980 -0.7478  0.2972 -0.7891
10518SOL     OW37515   0.374   8.019   4.778  0.0695  0.3415 -0.1583
10518SOL    HW137516   0.411   7.963   4.846 -0.5490 -0.0398 -0.1366
10518SOL    HW237517   0.425   7.999   4.700 -0.9593 -1.1893 -0.4729
10519SOL     OW37518   4.496   6.025   2.328  0.3101 -0.5224  0.2403
10519SOL    HW137519   4.591   6.028   2.314  0.2639 -1.2864 -0.3184
10519SOL    HW237520   4.476   6.105   2.377  1.6112 -1.5016  2.5688
10520SOL     OW37521   4.748   6.864   2.491  0.2710 -0.2922 -0.0557
10520SOL    HW137522   4.764   6.901   2.404 -1.6544 -1.4076 -0.9290
10520SOL    HW237523   4.770   6.771   2.482  1.6082 -0.1347  1.1358
10521SOL     OW37524   4.817   8.025   3.252 -0.9091 -0.3943 -0.3017
10521SOL    HW137525   4.880   8.093   3.276 -1.5488 -0.3423  1.4115
10521SOL    HW237526   4.846   7.994   3.167 -0.4132  1.8060 -1.0097
10522SOL     OW37527   4.025   6.983   0.696  0.4918 -0.2712  0.0847
10522SOL    HW137528   4.006   6.946   0.610 -0.3011  0.7655 -0.2129
10522SOL    HW237529   4.074   7.063   0.677 -1.9492  1.3968  0.4018
10523SOL     OW37530   6.592   1.932   7.839  0.0315  0.4295  0.3979
10523SOL    HW137531   6.527   1.965   7.901  1.5638  2.0881  1.2021
10523SOL    HW237532   6.551   1.855   7.800 -1.5934  0.2108  2.3761
10524SOL     OW37533   5.685   4.526   6.554  0.3092 -0.5989  0.6363
10524SOL    HW137534   5.730   4.449   6.520 -1.0919 -0.9036 -0.6142
10524SOL    HW237535   5.724   4.600   6.507  1.0598 -0.6195  1.2152
10525SOL     OW37536   5.735   3.324   0.810 -0.1154  0.0667  0.5697
10525SOL    HW137537   5.787   3.401   0.785  0.6248 -0.8389 -0.8039
10525SOL    HW237538   5.799   3.255   0.822 -0.9517 -1.4149 -2.3632
10526SOL     OW37539   7.606   5.525   1.378  0.4607  0.0254  0.0433
10526SOL    HW137540   7.524   5.514   1.426  1.2301  1.4944  1.8233
10526SOL    HW237541   7.581   5.574   1.300 -0.4684 -0.2974  0.1169
10527SOL     OW37542   1.118   8.324   7.314 -0.5523 -0.0671 -0.5196
10527SOL    HW137543   1.056   8.329   7.241  3.0014  0.2549 -3.8556
10527SOL    HW237544   1.120   8.231   7.336 -1.3093 -0.2716 -1.2157
10528SOL     OW37545   1.392   4.337   5.841  0.1908  0.0094 -0.2771
10528SOL    HW137546   1.419   4.287   5.764  1.0200 -1.2755  0.8140
10528SOL    HW237547   1.408   4.428   5.817  1.0151 -0.4114 -1.4039
10529SOL     OW37548   7.419   2.680   4.737  0.3305  0.6573  0.1518
10529SOL    HW137549   7.445   2.767   4.707  2.3438 -0.6510 -2.1754
10529SOL    HW237550   7.501   2.632   4.748 -0.7907 -1.5249 -0.4692
10530SOL     OW37551   6.732   4.318   5.346 -0.0713 -0.2228  0.1198
10530SOL    HW137552   6.758   4.409   5.363  0.2220 -0.0691 -1.0484
10530SOL    HW237553   6.669   4.325   5.274 -0.4766 -0.9108  0.4007
10531SOL     OW37554   3.509   3.541   5.139  0.1854  0.3847 -0.0875
10531SOL    HW137555   3.439   3.545   5.075  0.2101  2.5807 -0.0804
10531SOL    HW237556   3.568   3.612   5.113  0.2610  1.2609  2.2422
10532SOL     OW37557   1.169   5.862   2.575 -0.2052 -0.3675 -0.0150
10532SOL    HW137558   1.262   5.880   2.563  0.2263 -2.2652  0.3040
10532SOL    HW237559   1.152   5.784   2.522 -1.7289  0.1921 -0.4182
10533SOL     OW37560   4.137   3.182   9.296  0.0125 -0.0459  0.1950
10533SOL    HW137561   4.077   3.256   9.285 -0.5913 -0.1162  2.4089
10533SOL    HW237562   4.200   3.190   9.224  0.8245  3.4799  1.1263
10534SOL     OW37563   3.641   1.815   1.882 -0.1723  0.0597 -0.5729
10534SOL    HW137564   3.566   1.759   1.903  0.5577 -0.8285 -0.3101
10534SOL    HW237565   3.602   1.901   1.863 -1.2212 -0.2934 -0.0665
10535SOL     OW37566   7.715   2.515   5.903 -0.2309 -0.6021  0.0756
10535SOL    HW137567   7.764   2.472   5.834  0.2793 -0.0077  0.0659
10535SOL    HW237568   7.779   2.531   5.972 -0.2035  0.9627 -0.2908
10536SOL     OW37569   7.311   3.525   3.856  0.0812  0.6231 -0.1483
10536SOL    HW137570   7.328   3.618   3.841 -2.1728  2.0592  4.1876
10536SOL    HW237571   7.221   3.512   3.825 -0.0267  0.2280  0.3174
10537SOL     OW37572   7.873   4.996   7.484  0.4448 -0.6990 -0.1913
10537SOL    HW137573   7.920   4.937   7.543  1.5767  0.8197  0.5124
10537SOL    HW237574   7.841   5.066   7.540 -2.1404 -1.3066 -0.7748
10538SOL     OW37575   6.205   0.951   0.702 -0.2262 -0.0508  0.1702
10538SOL    HW137576   6.133   0.998   0.661 -0.1487  0.1027  0.2122
10538SOL    HW237577   6.270   1.018   0.722 -0.5368 -0.0238  1.1414
10539SOL     OW37578   7.185   5.862   7.272 -0.1723 -0.2487 -0.2369
10539SOL    HW137579   7.216   5.917   7.344 -0.2613 -0.6602  0.1237
10539SOL    HW237580   7.155   5.923   7.205 -0.1242  0.1385  0.0941
10540SOL     OW37581   6.119   7.861   1.625  0.0889 -0.5281 -0.2032
10540SOL    HW137582   6.116   7.916   1.704 -1.8406 -0.7950 -0.0471
10540SOL    HW237583   6.144   7.775   1.656  0.5360 -0.3517 -0.0668
10541SOL     OW37584   8.312   9.224   4.759 -0.2321  0.7671 -0.2237
10541SOL    HW137585   8.380   9.290   4.750  0.1736  0.3250 -0.4553
10541SOL    HW237586   8.336   9.156   4.696  1.8824 -1.7860  3.0139
10542SOL     OW37587   6.469   7.601   1.152  0.6201 -0.6899  0.5192
10542SOL    HW137588   6.459   7.664   1.224 -0.3406 -1.9996  1.5963
10542SOL    HW237589   6.422   7.523   1.182  0.7666 -1.5186 -1.2718
10543SOL     OW37590   0.384   6.348   6.011  0.3550 -0.7167 -0.0385
10543SOL    HW137591   0.375   6.419   5.948 -3.4703 -1.6921 -0.8448
10543SOL    HW237592   0.378   6.390   6.097  0.4589  0.1197 -0.4365
10544SOL     OW37593   8.460   6.091   6.304  0.2065 -0.3903  0.2593
10544SOL    HW137594   8.508   6.160   6.259  1.0451 -0.4186  1.0672
10544SOL    HW237595   8.491   6.010   6.264 -0.0210 -0.3502  0.0026
10545SOL     OW37596   4.752   9.242   0.459  0.1748 -0.0311 -0.0964
10545SOL    HW137597   4.657   9.237   0.463  0.1417  0.4042 -0.3270
10545SOL    HW237598   4.774   9.206   0.373  0.2016  0.0828 -0.1376
10546SOL     OW37599   7.084   2.844   0.984 -0.1496  0.5949 -0.1514
10546SOL    HW137600   7.115   2.793   0.909  0.6340  0.7326  0.0771
10546SOL    HW237601   7.135   2.925   0.980 -0.4282  0.7918  0.2736
10547SOL     OW37602   2.130   6.368   5.918  0.3756  0.3739 -0.3448
10547SOL    HW137603   2.081   6.288   5.937  0.2055  0.3238 -0.9546
10547SOL    HW237604   2.116   6.383   5.824  0.7153  0.9099 -0.3172
10548SOL     OW37605   4.163   6.549   9.013  0.3522  0.1681  0.7071
10548SOL    HW137606   4.068   6.542   9.012  0.4608 -1.8171 -0.0786
10548SOL    HW237607   4.191   6.486   9.079  1.1534  0.0273  0.2409
10549SOL     OW37608   5.367   6.987   6.886 -0.5174 -0.2254  0.4109
10549SOL    HW137609   5.350   7.038   6.964 -0.5049  0.2520  0.1038
10549SOL    HW237610   5.447   6.938   6.906  0.6905  1.4586 -0.0374
10550SOL     OW37611   4.532   0.748   0.986 -0.0986  0.0542 -0.1979
10550SOL    HW137612   4.624   0.724   0.991  0.2689  1.3680 -0.0941
10550SOL    HW237613   4.518   0.771   0.894 -0.2212  0.1980 -0.1440
10551SOL     OW37614   0.257   6.249   5.678 -0.1571  0.7820 -0.0742
10551SOL    HW137615   0.339   6.279   5.639 -0.2106  0.7996 -0.1745
10551SOL    HW237616   0.200   6.231   5.603  0.6812 -1.9317 -0.1551
10552SOL     OW37617   6.254   7.451   7.374 -0.3932 -0.3069 -0.8798
10552SOL    HW137618   6.322   7.436   7.309  1.6377  2.1580  0.5151
10552SOL    HW237619   6.286   7.408   7.453 -0.4015  0.8952 -0.2049
10553SOL     OW37620   9.225   7.057   0.593  0.0507  0.0052 -0.0591
10553SOL    HW137621   9.261   6.979   0.552  0.4978 -0.6382  1.4714
10553SOL    HW237622   9.130   7.043   0.592  0.1050 -0.3569 -0.1562
10554SOL     OW37623   8.412   4.711   3.876  0.6483 -0.3496  0.0256
10554SOL    HW137624   8.391   4.622   3.848  1.8513  0.4729 -4.1236
10554SOL    HW237625   8.505   4.709   3.897  0.6842 -0.0602 -0.1004
10555SOL     OW37626   7.978   3.140   7.198  0.1372  0.2965  0.0252
10555SOL    HW137627   7.952   3.102   7.115  1.1030  0.5024 -0.3857
10555SOL    HW237628   7.958   3.234   7.189  0.5875  0.3780 -0.1117
10556SOL     OW37629   8.281   0.392   7.579  0.1247 -0.2671  0.4626
10556SOL    HW137630   8.261   0.307   7.539 -0.4467 -0.4160  1.0655
10556SOL    HW237631   8.352   0.373   7.640  0.5935 -0.1446 -0.0299
10557SOL     OW37632   0.379   1.089   1.601 -0.8148  0.6018  0.7919
10557SOL    HW137633   0.407   1.008   1.643 -1.2670  0.1272  0.1983
10557SOL    HW237634   0.417   1.085   1.513  0.3386  1.6983  1.2035
10558SOL     OW37635   7.743   5.334   6.249 -0.2320 -0.2252  0.2324
10558SOL    HW137636   7.796   5.291   6.316  0.1740  1.2039  0.8730
10558SOL    HW237637   7.807   5.376   6.191 -0.6187  0.6910  0.4509
10559SOL     OW37638   2.806   4.326   0.209  0.0851 -0.2979 -0.0518
10559SOL    HW137639   2.872   4.330   0.140 -1.5766  0.0261 -1.7190
10559SOL    HW237640   2.758   4.409   0.201 -0.8596 -0.7460  0.7280
10560SOL     OW37641   4.336   5.922   2.087 -0.3625  0.3913  0.4630
10560SOL    HW137642   4.242   5.909   2.075 -0.0103 -1.0910 -0.9495
10560SOL    HW237643   4.347   6.017   2.087 -1.7823  0.5747 -0.0516
10561SOL     OW37644   7.093   6.404   1.615 -0.3699 -0.0406  0.0834
10561SOL    HW137645   7.095   6.472   1.682  0.6094 -1.3859  1.4979
10561SOL    HW237646   7.066   6.450   1.535 -0.8625  1.7572  1.2141
10562SOL     OW37647   0.947   0.255   8.842 -0.2325 -0.1726  0.1285
10562SOL    HW137648   0.953   0.272   8.936 -1.1419  0.6352  0.0621
10562SOL    HW237649   0.901   0.171   8.835  0.7866 -0.7661  0.4089
10563SOL     OW37650   8.359   2.000   3.862 -0.0486  0.1826  0.2517
10563SOL    HW137651   8.377   2.051   3.783 -0.5153  0.4628  0.3213
10563SOL    HW237652   8.445   1.974   3.895  0.1175 -1.0663 -1.0800
10564SOL     OW37653   6.175   0.699   1.432  0.4197 -0.1252 -0.3198
10564SOL    HW137654   6.147   0.661   1.349  0.1719  0.5935 -0.5713
10564SOL    HW237655   6.205   0.624   1.484 -1.6559 -0.9197 -0.1519
10565SOL     OW37656   0.585   3.665   1.095 -0.2053 -0.3120  0.3939
10565SOL    HW137657   0.494   3.685   1.073 -0.4216  0.0471  1.5352
10565SOL    HW237658   0.627   3.751   1.099  0.4380 -0.5268 -1.0753
10566SOL     OW37659   1.119   2.262   0.694  0.1977  0.4147 -0.7941
10566SOL    HW137660   1.159   2.231   0.613  0.1467 -0.7626 -0.3919
10566SOL    HW237661   1.175   2.334   0.723  1.4863 -0.5598 -0.7602
10567SOL     OW37662   1.846   1.859   1.733  0.4354 -0.6437 -0.2819
10567SOL    HW137663   1.756   1.843   1.706 -0.2925 -0.7066  1.9801
10567SOL    HW237664   1.882   1.916   1.664 -1.2754 -0.7016 -1.2761
10568SOL     OW37665   2.805   4.806   3.201 -0.0808 -0.4498  0.0663
10568SOL    HW137666   2.713   4.826   3.186 -0.7093 -0.5088  3.1887
10568SOL    HW237667   2.835   4.875   3.261  1.5308 -1.1856  0.1600
10569SOL     OW37668   1.547   1.112   1.372 -0.0190 -0.3781  0.1311
10569SOL    HW137669   1.594   1.150   1.297  0.1982  0.3053  0.6079
10569SOL    HW237670   1.585   1.155   1.448 -2.0743  0.9594  0.4945
10570SOL     OW37671   8.032   3.445   1.823 -0.5713  0.2112  0.3177
10570SOL    HW137672   7.988   3.402   1.750  0.1413 -1.2250  0.6926
10570SOL    HW237673   7.962   3.487   1.873 -0.9996  1.8878 -1.5668
10571SOL     OW37674   6.743   0.018   4.946 -0.1232 -0.0662  0.6277
10571SOL    HW137675   6.719   0.094   4.999 -1.6357  0.6688 -1.0331
10571SOL    HW237676   6.827   0.042   4.907 -0.2993  0.5069  0.5897
10572SOL     OW37677   4.001   7.318   9.172 -0.1098 -0.0290 -0.1906
10572SOL    HW137678   3.922   7.368   9.188  0.3519  1.3382 -1.8295
10572SOL    HW237679   4.068   7.359   9.226 -0.0695  0.1612 -0.3840
10573SOL     OW37680   0.108   0.983   0.145  0.2810  0.0254  0.5133
10573SOL    HW137681   0.024   0.937   0.145 -0.5069  1.3931  1.4978
10573SOL    HW237682   0.166   0.927   0.196  0.2806 -1.4029 -0.9592
10574SOL     OW37683   6.670   0.276   2.472  0.1941 -0.2010 -0.0112
10574SOL    HW137684   6.686   0.197   2.420 -1.6023 -0.6863  0.1151
10574SOL    HW237685   6.651   0.343   2.407  2.3732  0.3687 -0.1604
10575SOL     OW37686   0.768   1.371   0.234  0.5330  0.6981 -0.1779
10575SOL    HW137687   0.852   1.376   0.280  1.3117 -0.2692 -1.4528
10575SOL    HW237688   0.703   1.361   0.304  1.5411  0.6493  0.7760
10576SOL     OW37689   8.045   8.711   5.100  0.2691 -0.1821  0.1645
10576SOL    HW137690   7.989   8.681   5.172 -0.2480  1.2605  0.3965
10576SOL    HW237691   7.996   8.784   5.060  0.7102 -0.7206 -1.4263
10577SOL     OW37692   5.334   5.612   8.964 -0.2568  0.9650 -0.3193
10577SOL    HW137693   5.284   5.665   8.902 -1.5306 -0.0423 -0.1628
10577SOL    HW237694   5.278   5.605   9.041  0.3522  0.2779  0.0747
10578SOL     OW37695   1.073   7.675   1.333 -0.4116 -0.2268 -0.6937
10578SOL    HW137696   1.012   7.646   1.265 -0.0423 -1.9940 -0.3459
10578SOL    HW237697   1.047   7.626   1.411  0.0777  0.6596  0.0386
10579SOL     OW37698   7.023   1.172   7.954  0.1782  0.3907  0.4552
10579SOL    HW137699   6.985   1.260   7.955  0.5793  0.5649  0.5993
10579SOL    HW237700   7.053   1.158   8.044 -0.2097 -0.0370  0.5179
10580SOL     OW37701   4.755   4.006   5.098 -0.2437 -0.2875 -0.2593
10580SOL    HW137702   4.703   4.032   5.175  1.3784  1.1012  0.4220
10580SOL    HW237703   4.710   3.928   5.065 -1.3132 -0.6119  1.7621
10581SOL     OW37704   1.392   4.928   3.517  0.1398 -0.4426  0.1866
10581SOL    HW137705   1.374   4.998   3.454  1.3843  0.8960  1.2452
10581SOL    HW237706   1.306   4.894   3.540 -0.3400 -1.4277 -2.6589
10582SOL     OW37707   6.103   5.822   9.317  0.1637  0.0985 -0.1589
10582SOL    HW137708   6.094   5.737   9.274  0.0022 -0.6685  1.3045
10582SOL    HW237709   6.018   5.864   9.306  0.1222 -0.0928 -0.5680
10583SOL     OW37710   9.058   2.197   4.439  0.1843  0.3175  0.1687
10583SOL    HW137711   9.077   2.209   4.533  0.8263 -0.8328  0.2082
10583SOL    HW237712   8.997   2.124   4.436 -0.6053  0.9816 -0.2685
10584SOL     OW37713   4.614   2.511   0.083  0.0144 -0.2751 -0.3651
10584SOL    HW137714   4.531   2.494   0.038  0.1434  1.5726 -1.3947
10584SOL    HW237715   4.621   2.440   0.147 -1.5883 -1.3579 -1.3106
10585SOL     OW37716   1.362   1.551   1.589  0.9657  0.0881 -0.1812
10585SOL    HW137717   1.334   1.578   1.676  0.6632  2.0138 -0.8413
10585SOL    HW237718   1.281   1.540   1.539  1.0319 -2.6623  0.1711
10586SOL     OW37719   4.197   0.247   2.340  0.0258 -0.0179  0.1596
10586SOL    HW137720   4.210   0.274   2.431 -0.3464 -0.6314  0.3987
10586SOL    HW237721   4.268   0.289   2.292  0.1730  0.3813  0.7210
10587SOL     OW37722   2.531   4.552   4.580  0.0396 -1.0976 -0.6909
10587SOL    HW137723   2.437   4.562   4.594  0.2561 -1.2873  1.1793
10587SOL    HW237724   2.564   4.515   4.662  2.2545  2.2129  0.1063
10588SOL     OW37725   1.043   1.343   2.033  0.0943  0.2222  0.3152
10588SOL    HW137726   1.119   1.344   2.091  0.4746 -0.0220 -0.1698
10588SOL    HW237727   1.078   1.316   1.948 -0.6106 -0.3974  0.2051
10589SOL     OW37728   5.531   3.564   2.092  0.4653  0.0511  0.4830
10589SOL    HW137729   5.457   3.510   2.119  1.0644 -1.5913 -0.9400
10589SOL    HW237730   5.606   3.505   2.094  0.9532  0.4208 -2.2930
10590SOL     OW37731   7.589   8.690   8.461 -0.0551  0.5169 -0.3906
10590SOL    HW137732   7.630   8.619   8.412 -0.7368  0.8033 -1.4093
10590SOL    HW237733   7.517   8.719   8.405 -0.8346  0.8937  0.7593
10591SOL     OW37734   2.518   6.711   9.210  0.1031  0.1270  0.4738
10591SOL    HW137735   2.479   6.626   9.188 -0.0679  0.4772 -0.6390
10591SOL    HW237736   2.576   6.692   9.284 -0.3447 -0.8531  0.5963
10592SOL     OW37737   7.540   0.147   1.762 -0.1526 -0.4956 -0.8045
10592SOL    HW137738   7.508   0.058   1.773 -0.2398 -0.5162 -1.2187
10592SOL    HW237739   7.619   0.151   1.816 -0.2249 -0.7814 -0.6775
10593SOL     OW37740   3.977   2.660   8.757  0.1985  0.4810 -0.0748
10593SOL    HW137741   4.028   2.604   8.816  0.8270  0.3483 -0.7425
10593SOL    HW237742   4.035   2.679   8.684 -0.6265  0.5128 -0.7413
10594SOL     OW37743   4.026   0.529   8.764 -0.1492 -0.2662 -0.1421
10594SOL    HW137744   4.117   0.550   8.781 -0.2387 -0.4505  0.6144
10594SOL    HW237745   4.020   0.518   8.669  0.8242 -1.2221 -0.1098
10595SOL     OW37746   0.756   2.996   2.254 -0.1070  0.2826  1.3015
10595SOL    HW137747   0.716   3.071   2.209  0.0207 -0.2162  0.3212
10595SOL    HW237748   0.789   3.032   2.336 -1.5393  0.9452  1.6195
10596SOL     OW37749   1.847   4.866   7.215  0.1538  0.0188 -0.0097
10596SOL    HW137750   1.800   4.931   7.163 -2.0218 -0.7767  0.8234
10596SOL    HW237751   1.780   4.801   7.237  2.0501 -2.0988 -0.1352
10597SOL     OW37752   3.058   2.621   3.537  0.8165  0.4774 -0.5914
10597SOL    HW137753   3.049   2.708   3.575 -0.1316 -1.0487  3.1073
10597SOL    HW237754   2.976   2.577   3.559  1.0630 -1.2697 -2.8104
10598SOL     OW37755   4.503   4.348   0.370  0.3840  0.2570  0.0616
10598SOL    HW137756   4.504   4.397   0.452  0.1265 -0.4987  0.5325
10598SOL    HW237757   4.576   4.383   0.319  0.7925  0.4576  0.7809
10599SOL     OW37758   6.703   1.477   8.990  0.3593 -0.2808  0.2546
10599SOL    HW137759   6.713   1.538   8.917  2.2825  0.0686  0.7489
10599SOL    HW237760   6.698   1.533   9.068 -0.1296 -0.6976  0.5333
10600SOL     OW37761   5.119   7.150   1.805 -0.0130 -0.3652 -1.0367
10600SOL    HW137762   5.143   7.143   1.897 -0.0995 -1.6227 -1.1027
10600SOL    HW237763   5.037   7.101   1.797 -0.2355  0.0909 -1.7064
10601SOL     OW37764   3.123   0.360   3.100  0.3705 -0.2062  0.6334
10601SOL    HW137765   3.131   0.294   3.031 -0.3186 -0.0373  0.3830
10601SOL    HW237766   3.106   0.310   3.179 -0.6610 -0.3215  0.3562
10602SOL     OW37767   7.222   7.814   2.940 -0.3164 -0.1256 -0.8277
10602SOL    HW137768   7.195   7.751   3.006 -2.0630  0.1598 -1.1998
10602SOL    HW237769   7.307   7.846   2.970 -1.1508  0.1802  1.4212
10603SOL     OW37770   0.476   7.684   5.168 -0.3192  0.0662  0.2441
10603SOL    HW137771   0.381   7.682   5.159 -0.1838 -0.0281 -1.4230
10603SOL    HW237772   0.493   7.636   5.249 -1.6567 -0.3587  0.2946
10604SOL     OW37773   9.352   2.953   1.738  0.1259  0.2766  0.2400
10604SOL    HW137774   9.327   2.940   1.647  0.7860 -0.6534  0.1731
10604SOL    HW237775   9.447   2.960   1.736  0.1870 -0.2566  0.9001
10605SOL     OW37776   7.399   8.517   4.749 -0.2612 -0.7776 -0.2324
10605SOL    HW137777   7.377   8.534   4.840 -0.4233  0.5612 -0.5064
10605SOL    HW237778   7.319   8.479   4.712 -0.8359  0.4004 -0.2527
10606SOL     OW37779   1.135   7.356   7.676  0.5867  0.3106  0.5248
10606SOL    HW137780   1.204   7.293   7.655 -0.0098 -0.4483  0.7994
10606SOL    HW237781   1.174   7.442   7.658  2.3898  0.0594  2.7799
10607SOL     OW37782   1.378   3.471   8.230  0.1170 -0.1336  0.2971
10607SOL    HW137783   1.429   3.537   8.183  0.3708  0.4095  1.3227
10607SOL    HW237784   1.321   3.520   8.288 -0.1271 -0.7997  0.6363
10608SOL     OW37785   7.622   7.197   4.223  0.0213  0.8613  0.2706
10608SOL    HW137786   7.637   7.277   4.273  0.5335  0.4536  0.7931
10608SOL    HW237787   7.527   7.196   4.206 -0.2119  0.8772  1.4861
10609SOL     OW37788   1.159   2.939   5.533 -0.1519 -0.0250 -0.3607
10609SOL    HW137789   1.158   2.899   5.620  0.7763  1.1918  0.2431
10609SOL    HW237790   1.067   2.952   5.510 -0.4319 -1.3868 -0.0664
10610SOL     OW37791   2.668   5.300   7.523 -0.0785 -0.2038 -0.9312
10610SOL    HW137792   2.669   5.206   7.539  1.0850 -0.0536 -0.0207
10610SOL    HW237793   2.726   5.336   7.590  0.6482  1.0205 -2.1856
10611SOL     OW37794   0.231   6.751   4.715 -0.4201  0.5924  0.2458
10611SOL    HW137795   0.325   6.767   4.726 -0.6991  1.7227  1.1211
10611SOL    HW237796   0.197   6.746   4.804 -1.0672 -0.7226 -0.0487
10612SOL     OW37797   4.087   2.041   1.730 -0.2043 -0.3255  0.1527
10612SOL    HW137798   4.075   1.948   1.748 -0.8906 -0.5893 -1.4597
10612SOL    HW237799   4.017   2.062   1.667  1.1201  0.7999 -1.0200
10613SOL     OW37800   9.143   2.444   9.089 -0.0852  0.4500 -0.4676
10613SOL    HW137801   9.063   2.394   9.102 -0.0274  0.0948 -1.4221
10613SOL    HW237802   9.159   2.485   9.174 -0.4615 -0.6672  0.1750
10614SOL     OW37803   8.284   7.251   8.977 -0.5240 -0.9079 -0.5567
10614SOL    HW137804   8.379   7.259   8.989 -0.6190 -1.5118  0.8691
10614SOL    HW237805   8.259   7.328   8.926  0.6433 -0.3793 -0.3526
10615SOL     OW37806   5.079   5.219   8.479 -0.1388  0.1753  0.3955
10615SOL    HW137807   5.110   5.290   8.422  1.0130 -1.7295 -1.4945
10615SOL    HW237808   5.083   5.141   8.424 -0.1313 -1.5988  2.7748
10616SOL     OW37809   0.736   1.973   5.304 -0.0148  0.3009 -0.0713
10616SOL    HW137810   0.758   2.066   5.295  2.4247 -0.1537  0.5909
10616SOL    HW237811   0.743   1.956   5.398  1.8408 -1.0111 -0.3921
10617SOL     OW37812   4.379   7.085   0.835 -0.1578 -0.1652 -0.2761
10617SOL    HW137813   4.466   7.104   0.871 -0.2491  1.5152 -0.8512
10617SOL    HW237814   4.385   6.993   0.808  1.5859  0.0134 -0.6705
10618SOL     OW37815   8.225   5.676   9.315 -0.7281  0.1642 -0.2794
10618SOL    HW137816   8.203   5.753   9.368  1.7877  0.5013  0.3875
10618SOL    HW237817   8.255   5.712   9.232  1.6523  0.0500  0.4708
10619SOL     OW37818   8.651   5.627   5.748  0.1304  0.5609 -0.0056
10619SOL    HW137819   8.573   5.673   5.779 -0.7948  0.1385 -1.6025
10619SOL    HW237820   8.698   5.604   5.828 -2.1885 -0.6065  1.1365
10620SOL     OW37821   0.861   6.619   6.270  0.5370 -0.6714  0.0584
10620SOL    HW137822   0.863   6.714   6.260  1.8236 -0.7789 -0.8842
10620SOL    HW237823   0.868   6.605   6.365  1.8585  0.1569  0.1068
10621SOL     OW37824   8.952   2.814   5.740 -0.4836 -0.0545 -0.7491
10621SOL    HW137825   8.958   2.898   5.784  0.3976  0.6010 -2.0437
10621SOL    HW237826   8.937   2.836   5.648 -3.2840 -1.3842 -0.7054
10622SOL     OW37827   8.589   2.524   4.366 -0.0328  0.8929  0.2970
10622SOL    HW137828   8.630   2.437   4.362 -0.1747  0.8145  0.5666
10622SOL    HW237829   8.550   2.535   4.279 -1.5075 -0.0423  0.8086
10623SOL     OW37830   9.332   8.231   6.248 -0.0235  0.3603 -0.6824
10623SOL    HW137831   9.310   8.321   6.274  1.2084  0.1755  1.1718
10623SOL    HW237832   9.424   8.221   6.272 -0.3283 -1.6155 -0.2241
10624SOL     OW37833   2.840   2.944   5.883 -0.0248  0.1693  0.2067
10624SOL    HW137834   2.793   2.905   5.810  0.1702  0.1690  0.0801
10624SOL    HW237835   2.798   3.029   5.896  0.9981  0.8915 -0.9825
10625SOL     OW37836   4.439   9.140   5.725  0.0044  0.0057 -0.1198
10625SOL    HW137837   4.531   9.119   5.745  0.3737  0.9935 -0.6540
10625SOL    HW237838   4.397   9.056   5.710  1.1519 -0.4144 -1.1609
10626SOL     OW37839   6.278   0.954   4.375 -0.1185 -0.1184  0.4451
10626SOL    HW137840   6.219   0.880   4.370 -0.7443  0.4504 -1.2941
10626SOL    HW237841   6.302   0.972   4.284 -0.0565  1.8423  0.8038
10627SOL     OW37842   1.863   8.818   0.709 -0.6339  0.0343 -0.3430
10627SOL    HW137843   1.865   8.913   0.695  1.3360  0.3747  1.7248
10627SOL    HW237844   1.929   8.784   0.648 -2.4113 -0.2665 -2.2042
10628SOL     OW37845   3.078   1.361   7.461  0.2424 -0.1741 -0.3913
10628SOL    HW137846   3.093   1.271   7.491  0.0676  0.0532  0.4147
10628SOL    HW237847   3.113   1.415   7.532 -1.5946  0.3862  0.1437
10629SOL     OW37848   3.780   5.978   6.442 -0.1106  0.5368 -0.7471
10629SOL    HW137849   3.826   5.898   6.415  0.2325  0.6519 -0.5160
10629SOL    HW237850   3.744   5.957   6.528  1.7010  1.2708  0.2486
10630SOL     OW37851   4.146   4.752   4.828 -0.3051  0.0921  0.0411
10630SOL    HW137852   4.185   4.700   4.898  0.5132 -0.1139 -0.5473
10630SOL    HW237853   4.093   4.818   4.873 -1.2683 -1.1746  0.7912
10631SOL     OW37854   5.504   3.097   6.790 -0.6044  0.2955  0.0125
10631SOL    HW137855   5.583   3.132   6.831 -0.5463 -1.0256  1.1123
10631SOL    HW237856   5.489   3.154   6.715  0.5879  1.4266  0.5817
10632SOL     OW37857   1.394   9.319   7.888 -0.2007  0.0283  0.1022
10632SOL    HW137858   1.425   9.242   7.936  0.6022 -1.1470 -2.1529
10632SOL    HW237859   1.302   9.298   7.868 -0.9665  1.1138  2.1238
10633SOL     OW37860   8.267   6.803   3.623  0.4425 -0.5800  0.1586
10633SOL    HW137861   8.289   6.781   3.532 -0.2988 -0.9497  0.0631
10633SOL    HW237862   8.238   6.721   3.662 -2.2897  0.1070 -0.1748
10634SOL     OW37863   5.487   4.732   0.145  0.3028  0.4268 -0.4067
10634SOL    HW137864   5.408   4.774   0.178  0.6073 -0.0969  1.0795
10634SOL    HW237865   5.557   4.793   0.166  0.4651  0.2393 -0.3965
10635SOL     OW37866   6.738   1.978   0.506  0.0435  0.5640  0.1863
10635SOL    HW137867   6.687   1.969   0.587 -0.5712  1.2925 -0.1056
10635SOL    HW237868   6.785   2.061   0.516 -0.8175  1.1673 -0.6071
10636SOL     OW37869   0.489   2.209   7.060  0.6693 -0.2035  0.5362
10636SOL    HW137870   0.509   2.121   7.093 -0.5700 -1.0325 -0.8465
10636SOL    HW237871   0.533   2.214   6.976  0.6105  0.4594  0.5392
10637SOL     OW37872   6.413   6.789   7.287 -0.1849 -0.2095 -0.4168
10637SOL    HW137873   6.322   6.776   7.262 -0.6352  0.2313  0.9039
10637SOL    HW237874   6.427   6.884   7.279  0.1284 -0.2594 -0.4977
10638SOL     OW37875   2.077   7.712   2.413 -0.8989  0.0724 -0.8146
10638SOL    HW137876   2.123   7.638   2.453  0.2641 -0.3887 -2.8492
10638SOL    HW237877   1.996   7.674   2.379 -0.3486 -0.2953 -1.7700
10639SOL     OW37878   3.810   4.316   6.497 -0.3440  0.5824 -0.2883
10639SOL    HW137879   3.824   4.296   6.590 -0.4784 -0.3071 -0.4588
10639SOL    HW237880   3.743   4.255   6.468  0.0765  0.4874 -1.1080
10640SOL     OW37881   5.043   1.447   9.195  0.1112 -0.7005 -0.3068
10640SOL    HW137882   5.106   1.478   9.260  0.5847 -0.6042 -0.8115
10640SOL    HW237883   4.967   1.504   9.206  0.3759 -0.3718 -0.1669
10641SOL     OW37884   1.525   7.431   0.820  0.1002  0.8800 -0.1232
10641SOL    HW137885   1.548   7.339   0.827 -0.9794  0.7249  2.1571
10641SOL    HW237886   1.610   7.476   0.816  0.7452 -0.0389  1.9130
10642SOL     OW37887   4.474   9.018   2.025  0.1137 -0.1837  0.2137
10642SOL    HW137888   4.417   9.047   2.097 -0.6183  0.5907 -0.6466
10642SOL    HW237889   4.435   8.936   1.996 -0.3241  0.1286 -0.0941
10643SOL     OW37890   3.165   3.811   1.255  0.3949 -0.5943  0.0747
10643SOL    HW137891   3.200   3.820   1.343  1.4143  0.2910 -0.3905
10643SOL    HW237892   3.213   3.737   1.217  1.5099  0.3442 -0.4156
10644SOL     OW37893   6.797   1.376   5.417 -0.2432  0.1247  0.2298
10644SOL    HW137894   6.797   1.289   5.376 -1.8025 -0.1129  0.6503
10644SOL    HW237895   6.733   1.426   5.366  0.5952  1.0197  0.0341
10645SOL     OW37896   3.013   0.276   6.859  0.0191 -0.2496 -0.5172
10645SOL    HW137897   3.035   0.269   6.952  0.2187 -0.8343 -0.6022
10645SOL    HW237898   2.943   0.341   6.855  0.3837  0.1779 -0.0195
10646SOL     OW37899   4.702   7.637   2.537  0.0951  0.2914 -0.1986
10646SOL    HW137900   4.704   7.549   2.574 -1.4937  1.2690  2.4413
10646SOL    HW237901   4.793   7.668   2.542  0.3009 -0.4533  0.8126
10647SOL     OW37902   8.039   5.304   1.936 -0.1292  0.2201  0.0106
10647SOL    HW137903   8.104   5.374   1.923  0.3170 -0.2987 -0.6615
10647SOL    HW237904   7.981   5.311   1.860  0.9672 -1.2290 -1.0140
10648SOL     OW37905   1.697   4.760   0.747 -0.3070  0.3693 -0.0458
10648SOL    HW137906   1.652   4.818   0.808  0.1690 -0.4071  1.0701
10648SOL    HW237907   1.641   4.682   0.743 -1.6079  1.3036 -2.4985
10649SOL     OW37908   5.669   4.690   0.538 -0.0444 -0.5163 -0.3430
10649SOL    HW137909   5.622   4.727   0.613  0.6654 -0.1717 -0.0633
10649SOL    HW237910   5.756   4.670   0.572  0.2158 -0.5605 -1.0225
10650SOL     OW37911   1.948   7.544   5.425 -0.3232 -0.0945  0.2089
10650SOL    HW137912   2.005   7.520   5.352 -2.3465  0.3472 -1.6413
10650SOL    HW237913   1.960   7.639   5.434  0.1230 -0.1897  0.6460
10651SOL     OW37914   7.483   8.401   0.641  0.5537 -0.2401  0.3825
10651SOL    HW137915   7.529   8.325   0.675  0.0553 -0.2313  1.1032
10651SOL    HW237916   7.535   8.476   0.669 -0.5662 -0.1444  2.3774
10652SOL     OW37917   1.447   7.460   1.589 -0.0841  0.4702 -0.4756
10652SOL    HW137918   1.489   7.478   1.505  2.3676  1.9527  0.9475
10652SOL    HW237919   1.442   7.545   1.633 -1.5868 -0.2068  0.7922
10653SOL     OW37920   0.169   4.903   0.125  0.3654  0.1952  0.1108
10653SOL    HW137921   0.262   4.925   0.135  0.4295  0.7338 -1.5154
10653SOL    HW237922   0.168   4.835   0.058 -0.4812  0.8473 -0.5527
10654SOL     OW37923   0.776   0.640   0.768 -0.2044  0.0042  0.2966
10654SOL    HW137924   0.830   0.606   0.839  1.6516 -1.0517 -1.5491
10654SOL    HW237925   0.714   0.569   0.749  1.0048 -0.8003 -0.8197
10655SOL     OW37926   4.602   4.248   5.416 -0.1319  0.3623 -0.3428
10655SOL    HW137927   4.683   4.237   5.465  1.4117 -0.7401 -2.9263
10655SOL    HW237928   4.562   4.327   5.453  2.6736  1.6079  0.2962
10656SOL     OW37929   8.261   1.726   1.594  0.0560 -0.0950  0.0237
10656SOL    HW137930   8.238   1.730   1.502  0.5239  0.7385 -0.0669
10656SOL    HW237931   8.259   1.633   1.616 -1.1629 -0.2212 -0.5330
10657SOL     OW37932   0.491   3.612   7.959 -0.3743  0.3494  0.2109
10657SOL    HW137933   0.572   3.662   7.947  0.5609 -1.0162  0.6337
10657SOL    HW237934   0.437   3.637   7.884  1.5784 -0.8583 -1.7521
10658SOL     OW37935   5.567   8.575   6.212  0.3410  0.2027 -0.0018
10658SOL    HW137936   5.574   8.574   6.117 -0.3280 -0.7278 -0.0514
10658SOL    HW237937   5.485   8.531   6.231 -0.6070  2.2402  0.9468
10659SOL     OW37938   3.975   4.088   7.462 -0.0482  0.0705 -0.2809
10659SOL    HW137939   3.972   4.135   7.379 -0.9187 -0.4436 -0.5533
10659SOL    HW237940   3.950   4.154   7.527 -1.6920 -0.0715 -0.7097
10660SOL     OW37941   8.118   5.295   4.122  0.1406  0.1527  0.4814
10660SOL    HW137942   8.202   5.336   4.140  0.2537  0.1341 -0.0054
10660SOL    HW237943   8.086   5.339   4.043  0.1485 -0.5165  0.0955
10661SOL     OW37944   3.513   4.814   4.552 -0.6041 -1.2958  0.2269
10661SOL    HW137945   3.439   4.793   4.608 -1.9505  0.3890 -0.7897
10661SOL    HW237946   3.530   4.907   4.568  1.9930 -1.8360  1.1499
10662SOL     OW37947   3.034   5.061   5.477 -0.0084 -0.3395 -0.2819
10662SOL    HW137948   3.077   5.146   5.462 -1.1797  0.2324 -0.5232
10662SOL    HW237949   3.013   5.029   5.389  1.5707 -1.5342 -0.2791
10663SOL     OW37950   1.933   5.757   4.435 -0.3081 -0.0344  0.4770
10663SOL    HW137951   1.994   5.820   4.396 -1.9783  1.5096  0.2662
10663SOL    HW237952   1.961   5.751   4.527  0.0255  0.8230  0.4425
10664SOL     OW37953   3.194   6.501   5.158  0.2027 -0.3188  1.0280
10664SOL    HW137954   3.131   6.537   5.220  1.2946  0.4832  1.7138
10664SOL    HW237955   3.215   6.414   5.192  0.6753  0.0541  1.7189
10665SOL     OW37956   0.393   0.012   6.252  0.2849  0.0336 -0.1088
10665SOL    HW137957   0.452   0.011   6.176 -1.5196 -0.9113 -1.5716
10665SOL    HW237958   0.432  -0.051   6.313  2.2450  1.4594  0.2051
10666SOL     OW37959   0.384   2.981   8.195 -0.1552  0.1725  0.0249
10666SOL    HW137960   0.310   2.933   8.233  0.6680 -0.8169  0.4341
10666SOL    HW237961   0.349   3.019   8.115 -0.7838 -1.3815 -0.4783
10667SOL     OW37962   6.315   8.174   5.760  0.5162 -0.3112  0.0091
10667SOL    HW137963   6.254   8.113   5.719 -1.4291  0.7136  1.1808
10667SOL    HW237964   6.382   8.118   5.800 -2.9577 -2.2509  4.0607
10668SOL     OW37965   5.089   8.024   8.966  0.1305 -0.4214  0.1029
10668SOL    HW137966   5.018   7.991   8.911  1.7990  0.5361 -2.8517
10668SOL    HW237967   5.151   7.952   8.970  1.3599  0.4345 -1.9122
10669SOL     OW37968   4.540   7.397   5.095 -0.7692 -0.4144  0.2313
10669SOL    HW137969   4.609   7.337   5.066 -1.5917 -1.7287  0.8965
10669SOL    HW237970   4.550   7.399   5.191 -0.3220  1.0927  0.1894
10670SOL     OW37971   6.798   6.687   7.529 -0.1852  0.0647 -0.6491
10670SOL    HW137972   6.718   6.635   7.538  0.9059 -1.5729  0.0437
10670SOL    HW237973   6.868   6.629   7.560  1.4632  0.9676 -2.4684
10671SOL     OW37974   4.819   7.249   0.958 -0.0902  0.5651  0.0676
10671SOL    HW137975   4.804   7.283   0.870 -0.5754  0.0253 -0.0670
10671SOL    HW237976   4.751   7.182   0.969  1.1879 -0.7859  0.0892
10672SOL     OW37977   2.207   8.914   8.118  0.2067 -0.0755  0.2802
10672SOL    HW137978   2.144   8.934   8.187 -0.2873 -1.2537  0.1816
10672SOL    HW237979   2.212   8.995   8.067  0.7855  0.9287  1.8185
10673SOL     OW37980   1.428   6.847   6.540 -0.5685 -0.6759 -0.2442
10673SOL    HW137981   1.501   6.838   6.602 -0.6880  1.1582  0.2295
10673SOL    HW237982   1.469   6.838   6.454 -0.3144 -2.7337  0.0597
10674SOL     OW37983   4.900   6.849   3.641  0.3417  0.0171 -0.0224
10674SOL    HW137984   4.970   6.880   3.699 -0.5102 -0.3665  1.2731
10674SOL    HW237985   4.821   6.890   3.677 -0.2380 -0.3950 -0.8157
10675SOL     OW37986   0.629   3.915   4.784  0.2816 -0.0499  0.1988
10675SOL    HW137987   0.540   3.948   4.796  0.3579  0.6131 -0.9236
10675SOL    HW237988   0.684   3.994   4.781  0.4650 -0.2134 -2.6033
10676SOL     OW37989   4.582   5.235   7.487 -0.3174 -0.1748  0.1165
10676SOL    HW137990   4.490   5.229   7.462 -0.7901 -0.3183  1.7715
10676SOL    HW237991   4.609   5.322   7.457 -0.7503 -0.4199 -1.0567
10677SOL     OW37992   5.477   1.190   8.379 -0.5281 -0.2489  0.3390
10677SOL    HW137993   5.479   1.113   8.323 -2.0504  0.0561 -0.1685
10677SOL    HW237994   5.553   1.242   8.351 -1.1367 -0.1970 -1.3178
10678SOL     OW37995   4.890   7.863   8.397 -0.3463  0.2905 -0.1598
10678SOL    HW137996   4.807   7.900   8.367 -1.4847 -1.5567  0.5266
10678SOL    HW237997   4.942   7.851   8.318 -2.1854 -1.8928 -1.1326
10679SOL     OW37998   5.897   1.987   0.401  0.4959 -0.3609 -0.1028
10679SOL    HW137999   5.805   1.976   0.376 -0.0201  0.3388  1.3671
10679SOL    HW238000   5.927   2.062   0.350 -0.4458  0.8607  1.0699
10680SOL     OW38001   6.295   6.548   6.711  0.2568  0.3648  0.3709
10680SOL    HW138002   6.268   6.634   6.677  2.7314  0.2150 -2.3807
10680SOL    HW238003   6.362   6.569   6.777 -0.6013  0.5378  1.2133
10681SOL     OW38004   7.060   8.740   7.285 -0.0646 -0.0750 -0.3081
10681SOL    HW138005   7.069   8.786   7.368  1.9506 -2.8178  1.1283
10681SOL    HW238006   7.008   8.799   7.231  1.3624  3.3511  1.7244
10682SOL     OW38007   9.168   6.888   4.948  0.2412 -0.0395  0.0924
10682SOL    HW138008   9.192   6.924   4.863  0.9733 -0.2532  0.2065
10682SOL    HW238009   9.079   6.855   4.936 -0.3371  1.4893 -0.1162
10683SOL     OW38010   2.628   5.277   5.455  0.1510 -0.2092 -0.1204
10683SOL    HW138011   2.720   5.292   5.431 -0.3359  0.8661 -1.4506
10683SOL    HW238012   2.579   5.342   5.404 -1.1646  0.9530  2.4213
10684SOL     OW38013   3.889   2.428   1.915  0.3238  0.7145 -0.4211
10684SOL    HW138014   3.935   2.509   1.895  1.3687  0.1254 -0.5055
10684SOL    HW238015   3.798   2.454   1.927  0.5889  1.8467 -0.7427
10685SOL     OW38016   0.894   5.352   7.371  0.0135 -0.4414 -0.0049
10685SOL    HW138017   0.960   5.330   7.436 -0.4245  0.6707  0.8522
10685SOL    HW238018   0.919   5.302   7.293  1.2946 -0.7846  0.5996
10686SOL     OW38019   8.986   1.865   8.245 -0.0457  0.3991 -0.1002
10686SOL    HW138020   8.976   1.939   8.305 -0.5377  0.5146 -0.3155
10686SOL    HW238021   8.972   1.903   8.158  0.7779  0.2542 -0.2998
10687SOL     OW38022   5.913   7.324   8.861  0.5904  0.1305  0.6230
10687SOL    HW138023   5.981   7.389   8.845 -1.3772  1.8662 -1.6297
10687SOL    HW238024   5.952   7.241   8.836  1.6130  1.2257 -1.7261
10688SOL     OW38025   9.056   1.002   4.611 -0.2831 -0.4663  0.2080
10688SOL    HW138026   9.084   1.068   4.547  0.9099 -1.5214 -0.4043
10688SOL    HW238027   8.965   0.984   4.590  0.2081 -1.1164 -1.5299
10689SOL     OW38028   4.087   7.887   7.522 -0.5828 -0.4960  0.1842
10689SOL    HW138029   4.140   7.956   7.481  0.1061 -0.1388  1.6015
10689SOL    HW238030   4.063   7.829   7.450  1.5304 -0.5140 -0.5711
10690SOL     OW38031   6.732   6.967   7.198  0.3007  0.0105 -0.0787
10690SOL    HW138032   6.813   6.989   7.153  0.4675  1.7464  0.9848
10690SOL    HW238033   6.749   6.881   7.238  1.2501 -0.0895 -0.6677
10691SOL     OW38034   8.976   1.788   7.969  0.0869 -0.4441 -0.0726
10691SOL    HW138035   8.925   1.744   7.901 -0.7464  0.7037 -0.2285
10691SOL    HW238036   9.000   1.719   8.030 -1.2068 -1.1101 -0.2856
10692SOL     OW38037   1.116   1.257   6.360 -0.2002  0.4081  0.2054
10692SOL    HW138038   1.193   1.201   6.347  0.1359  1.0908 -0.8355
10692SOL    HW238039   1.150   1.333   6.406 -0.6765 -0.2496  1.7069
10693SOL     OW38040   2.839   2.059   1.600  0.0836  0.6357 -0.6017
10693SOL    HW138041   2.825   1.966   1.582 -0.0613 -0.2060  2.9617
10693SOL    HW238042   2.755   2.100   1.582 -0.2089 -0.1442 -1.0690
10694SOL     OW38043   5.965   9.244   7.436  0.2364 -0.4840 -0.0881
10694SOL    HW138044   5.991   9.239   7.528  1.4205  0.2548 -0.3455
10694SOL    HW238045   5.985   9.335   7.411 -1.5014 -0.2247 -0.6782
10695SOL     OW38046   0.755   1.156   1.671  0.0172 -0.3834  0.5593
10695SOL    HW138047   0.815   1.128   1.740  0.9075  0.7244  0.2607
10695SOL    HW238048   0.810   1.199   1.606 -0.9442 -0.4705 -0.3483
10696SOL     OW38049   9.177   7.875   8.706 -0.1403  0.2645  0.4259
10696SOL    HW138050   9.122   7.839   8.775 -0.1079 -1.6575 -0.4820
10696SOL    HW238051   9.266   7.866   8.739 -0.1413 -0.3861  0.2634
10697SOL     OW38052   5.998   4.899   3.213  0.4199 -0.8705 -0.1248
10697SOL    HW138053   6.036   4.933   3.132 -0.3381 -1.6124 -0.8078
10697SOL    HW238054   6.066   4.842   3.248  0.8526 -0.3506 -0.0906
10698SOL     OW38055   6.483   2.339   7.022 -0.4235  0.6943 -0.4169
10698SOL    HW138056   6.424   2.415   7.020 -0.4537  0.6701 -0.4852
10698SOL    HW238057   6.451   2.286   7.095  0.1526  1.1803  0.1953
10699SOL     OW38058   6.289   2.010   4.503 -0.0046  0.4742 -0.0800
10699SOL    HW138059   6.361   2.048   4.552 -0.0805  1.1065 -0.4476
10699SOL    HW238060   6.276   2.069   4.428 -1.5114  0.9163  0.4835
10700SOL     OW38061   5.776   3.558   5.199  0.3254  0.0770  0.2273
10700SOL    HW138062   5.724   3.592   5.272  1.5213  1.8777  0.2991
10700SOL    HW238063   5.859   3.605   5.205  0.9016 -0.6390 -1.5824
10701SOL     OW38064   1.147   6.410   1.299 -0.1771 -0.0704 -0.2104
10701SOL    HW138065   1.201   6.334   1.322 -0.8721 -1.8576 -3.7746
10701SOL    HW238066   1.196   6.455   1.231 -0.0258  2.5362  1.4704
10702SOL     OW38067   4.506   2.153   0.209  0.3299 -0.2980 -0.1156
10702SOL    HW138068   4.457   2.211   0.151  1.1972  0.2846 -0.2964
10702SOL    HW238069   4.592   2.144   0.167  0.4206 -1.2044  0.2371
10703SOL     OW38070   8.534   6.268   8.919 -0.0834  0.3345  0.3997
10703SOL    HW138071   8.610   6.314   8.953  0.0601  1.2161 -1.0162
10703SOL    HW238072   8.467   6.337   8.908 -0.7585 -0.2563  0.7240
10704SOL     OW38073   6.350   8.429   8.368 -0.4653  0.0553 -0.4945
10704SOL    HW138074   6.398   8.502   8.330  0.7737 -0.2493  0.4437
10704SOL    HW238075   6.258   8.447   8.346 -0.1421  1.6386 -0.6697
10705SOL     OW38076   8.019   3.267   1.070  0.0569 -0.4088  0.3804
10705SOL    HW138077   8.085   3.304   1.011 -1.2136  1.1223 -0.1365
10705SOL    HW238078   7.964   3.341   1.094 -2.6211 -1.9132 -0.7016
10706SOL     OW38079   0.485   2.309   6.167 -0.1331 -0.5242  0.1793
10706SOL    HW138080   0.560   2.336   6.113 -1.1094  0.0393 -0.9387
10706SOL    HW238081   0.476   2.215   6.151  0.3643 -0.6086  0.3730
10707SOL     OW38082   3.296   7.059   3.693  0.0437 -0.1456 -0.2496
10707SOL    HW138083   3.308   6.966   3.713 -1.1293  0.1215  2.1537
10707SOL    HW238084   3.227   7.061   3.628 -1.2829 -0.9618  1.0660
10708SOL     OW38085   7.739   0.146   4.151 -0.1073 -0.6264 -0.4711
10708SOL    HW138086   7.773   0.190   4.229 -0.9035  0.1197 -0.5371
10708SOL    HW238087   7.646   0.133   4.169 -0.3206 -0.3586 -1.3246
10709SOL     OW38088   2.980   8.262   5.994  0.6810 -0.0499  0.3213
10709SOL    HW138089   3.041   8.236   5.926  0.3983  0.9024 -0.3144
10709SOL    HW238090   2.998   8.203   6.067  1.4532 -0.6307 -0.3303
10710SOL     OW38091   0.398   8.084   2.412 -0.0699  0.2082 -0.0410
10710SOL    HW138092   0.318   8.082   2.360 -0.8954 -0.2901  1.2085
10710SOL    HW238093   0.372   8.053   2.499  0.8823  2.6323  1.2142
10711SOL     OW38094   0.594   3.137   6.581  0.4553 -0.4101 -0.3362
10711SOL    HW138095   0.547   3.120   6.499 -0.2722  1.2108 -0.2912
10711SOL    HW238096   0.597   3.053   6.625  0.5174 -1.2366 -1.8504
10712SOL     OW38097   1.180   3.469   3.400 -0.2292  0.0028  0.0415
10712SOL    HW138098   1.156   3.377   3.388 -1.7010  0.3088  0.4890
10712SOL    HW238099   1.204   3.498   3.312  0.1213 -0.7719 -0.1267
10713SOL     OW38100   3.405   6.842   0.923 -0.7740 -0.0397 -0.2024
10713SOL    HW138101   3.497   6.861   0.942 -0.9179 -0.6732  1.3261
10713SOL    HW238102   3.361   6.926   0.929 -0.2067  0.3896 -1.6693
10714SOL     OW38103   6.151   3.930   6.327 -0.4953 -0.3533  0.0465
10714SOL    HW138104   6.090   3.874   6.280 -0.8519  0.2722 -0.2510
10714SOL    HW238105   6.218   3.952   6.263 -1.8104  1.7869 -0.7003
10715SOL     OW38106   6.736   4.659   0.162 -0.6656 -0.1583  0.2303
10715SOL    HW138107   6.773   4.594   0.223  0.4260  1.0464  0.9074
10715SOL    HW238108   6.763   4.629   0.076  2.1755  0.7295  0.6886
10716SOL     OW38109   5.128   1.241   3.534  0.2857 -0.7672  0.7582
10716SOL    HW138110   5.193   1.222   3.466 -0.8497 -0.8476 -0.3464
10716SOL    HW238111   5.104   1.333   3.518 -0.9546 -1.1690  0.1616
10717SOL     OW38112   7.092   6.481   2.086 -0.0597 -0.6242 -0.2808
10717SOL    HW138113   7.117   6.406   2.032 -1.2484 -0.5967 -0.9194
10717SOL    HW238114   7.003   6.460   2.114 -0.6896  0.8422 -1.0520
10718SOL     OW38115   9.365   2.747   0.249  0.5165  0.0881 -0.6172
10718SOL    HW138116   9.391   2.655   0.258  0.9136  0.2305 -0.2171
10718SOL    HW238117   9.430   2.784   0.190  1.9396  0.6988  1.2249
10719SOL     OW38118   3.072   2.002   1.021 -0.4477 -0.3457 -0.1660
10719SOL    HW138119   3.161   2.035   1.034 -0.8586  1.7406 -2.0016
10719SOL    HW238120   3.057   1.942   1.094  2.4260 -0.7365  0.2060
10720SOL     OW38121   7.215   1.315   3.085 -0.1308  0.3317 -0.3187
10720SOL    HW138122   7.256   1.389   3.129  0.6688 -0.5265  0.4228
10720SOL    HW238123   7.134   1.300   3.134 -0.2046  0.6015 -0.3594
10721SOL     OW38124   7.777   2.951   1.323  0.2702  0.1624  0.0404
10721SOL    HW138125   7.839   2.966   1.394  1.7675  0.0024 -1.1595
10721SOL    HW238126   7.833   2.936   1.246 -1.1999  2.9087 -1.7534
10722SOL     OW38127   3.788   7.173   1.139 -0.5409  0.0146  0.3114
10722SOL    HW138128   3.793   7.136   1.051  0.8306 -0.3708  0.5186
10722SOL    HW238129   3.698   7.156   1.168 -0.8934 -0.1883 -0.8669
10723SOL     OW38130   6.966   9.294   7.500 -0.3835  0.3526 -0.1510
10723SOL    HW138131   6.892   9.251   7.456  1.2987 -1.4719 -1.3370
10723SOL    HW238132   7.027   9.223   7.518  1.5153  1.9362 -0.0909
10724SOL     OW38133   5.156   2.861   8.004  0.1151  0.3660 -0.0183
10724SOL    HW138134   5.236   2.810   7.986  1.6257  2.1469  1.3611
10724SOL    HW238135   5.153   2.926   7.933  0.0622  0.5202  0.1266
10725SOL     OW38136   1.094   7.015   6.973 -0.5387 -0.0292 -0.1752
10725SOL    HW138137   1.028   7.080   6.947  0.2878  0.8784 -0.0343
10725SOL    HW238138   1.079   7.004   7.067  0.0020  0.7482  0.0055
10726SOL     OW38139   7.229   0.934   2.222 -0.2993 -0.2216  0.3331
10726SOL    HW138140   7.170   1.009   2.213 -1.0649 -1.0102 -2.4590
10726SOL    HW238141   7.202   0.874   2.151  1.4609 -2.3053  1.3058
10727SOL     OW38142   4.070   9.161   7.302  0.1705 -0.3241 -0.4420
10727SOL    HW138143   4.104   9.134   7.387  0.2709  0.3744 -0.2504
10727SOL    HW238144   4.024   9.084   7.269  2.0023 -1.3194 -0.7639
10728SOL     OW38145   2.576   8.687   3.500  0.4629  0.2598  0.4556
10728SOL    HW138146   2.487   8.653   3.488  0.8604 -1.2797  1.5142
10728SOL    HW238147   2.568   8.753   3.568  0.3445 -1.1454  1.8766
10729SOL     OW38148   5.497   7.636   8.083 -0.1200  0.4441  0.2524
10729SOL    HW138149   5.428   7.699   8.100  0.1090  0.3264  1.7063
10729SOL    HW238150   5.564   7.654   8.149 -0.0649 -1.3341  0.7290
10730SOL     OW38151   1.836   7.435   0.782  0.0974  0.2964  0.4703
10730SOL    HW138152   1.902   7.497   0.812 -0.2668  0.0705  1.7966
10730SOL    HW238153   1.881   7.351   0.778  0.7291  0.6571 -1.8148
10731SOL     OW38154   2.968   6.394   4.184 -0.1434 -0.1162 -0.3615
10731SOL    HW138155   3.012   6.312   4.162  0.6161  0.1388  0.1730
10731SOL    HW238156   2.938   6.382   4.274 -1.2565 -0.3126 -0.7386
10732SOL     OW38157   3.427   4.439   8.241  0.4106  0.2242 -0.4563
10732SOL    HW138158   3.477   4.476   8.168  0.3001  0.4969 -0.3956
10732SOL    HW238159   3.468   4.477   8.319  0.3550  0.1457 -0.3892
10733SOL     OW38160   0.355   2.006   4.400  0.1673 -0.2082 -0.2478
10733SOL    HW138161   0.416   2.062   4.353  0.8994  0.7420  1.7325
10733SOL    HW238162   0.305   1.962   4.331  1.6784  0.5313 -1.8956
10734SOL     OW38163   9.218   8.544   5.239 -0.2645  0.4640 -0.0896
10734SOL    HW138164   9.152   8.614   5.244 -0.5673  0.1693  0.0610
10734SOL    HW238165   9.211   8.498   5.322 -0.2240  0.1140 -0.2783
10735SOL     OW38166   9.362   9.164   6.380  0.2961  0.4527  0.0445
10735SOL    HW138167   9.286   9.220   6.361 -1.7638 -1.8311  1.1197
10735SOL    HW238168   9.379   9.120   6.297  0.3636  0.8620 -0.1629
10736SOL     OW38169   0.343   1.431   2.328  0.1263  0.0539 -0.2055
10736SOL    HW138170   0.265   1.484   2.343 -1.7181 -2.2996 -0.8146
10736SOL    HW238171   0.375   1.459   2.242 -1.6315 -0.6824 -1.1462
10737SOL     OW38172   7.228   3.933   8.364 -0.1299  0.0888  0.2479
10737SOL    HW138173   7.149   3.931   8.310  0.6068  0.0689 -0.8807
10737SOL    HW238174   7.227   4.019   8.406  0.1814  0.8662 -1.2531
10738SOL     OW38175   8.891   2.970   1.150  0.4754  0.2791  0.0186
10738SOL    HW138176   8.970   2.980   1.204  0.4932 -0.9068  0.2586
10738SOL    HW238177   8.847   2.893   1.187 -1.8970  2.0936  1.2267
10739SOL     OW38178   0.168   6.285   1.491 -0.1406  0.1642 -0.1879
10739SOL    HW138179   0.179   6.336   1.571 -1.7073  0.1579  0.0727
10739SOL    HW238180   0.194   6.196   1.515  1.3893  0.5657 -0.2894
10740SOL     OW38181   8.680   4.721   3.524  0.1821  0.3246 -0.0681
10740SOL    HW138182   8.755   4.673   3.559  0.7571  1.0516 -0.2850
10740SOL    HW238183   8.654   4.780   3.594 -0.8756 -0.6637  0.4038
10741SOL     OW38184   7.039   9.172   5.107  0.2151  0.2631  0.1950
10741SOL    HW138185   6.999   9.228   5.173 -1.6482 -1.7634  0.9218
10741SOL    HW238186   7.063   9.092   5.154 -1.4608 -1.3655 -1.4991
10742SOL     OW38187   7.844   4.419   8.538 -0.7540 -0.1120  0.3379
10742SOL    HW138188   7.853   4.330   8.572  1.5279 -0.3813 -0.7724
10742SOL    HW238189   7.901   4.472   8.594  1.4347 -0.2090 -1.6496
10743SOL     OW38190   4.474   7.214   5.715 -0.2229 -0.0502  0.3749
10743SOL    HW138191   4.440   7.177   5.633 -1.4130 -0.2081  0.9279
10743SOL    HW238192   4.413   7.184   5.782  0.0206  1.1477  1.1503
10744SOL     OW38193   4.331   8.704   6.438  0.2525  0.3290 -0.0037
10744SOL    HW138194   4.411   8.729   6.484 -0.4155 -0.7172  1.8101
10744SOL    HW238195   4.268   8.772   6.460  0.8263  1.6661 -2.1891
10745SOL     OW38196   1.807   7.238   4.615  0.7965  0.0214 -0.2495
10745SOL    HW138197   1.810   7.207   4.524 -2.5747 -2.1337  0.1609
10745SOL    HW238198   1.847   7.167   4.665 -0.4507 -0.4325  0.1470
10746SOL     OW38199   7.445   0.076   8.274  0.2282 -0.0256 -0.3829
10746SOL    HW138200   7.538   0.057   8.262  0.6071  1.8984 -0.7974
10746SOL    HW238201   7.423   0.137   8.203 -0.4071  2.4024  1.7475
10747SOL     OW38202   5.615   2.002   5.183  0.4542 -0.0815  0.8441
10747SOL    HW138203   5.553   1.990   5.111 -0.8332 -0.3406  1.9528
10747SOL    HW238204   5.690   2.045   5.143  0.9094 -2.5314 -1.1923
10748SOL     OW38205   2.848   4.104   5.540 -0.0616  0.0091 -0.1053
10748SOL    HW138206   2.827   4.191   5.507 -1.1296 -0.0908  0.2584
10748SOL    HW238207   2.907   4.067   5.474  0.0914  0.8599 -0.4535
10749SOL     OW38208   4.680   3.403   2.489 -0.4375  0.8407 -0.3474
10749SOL    HW138209   4.608   3.423   2.429 -1.1131  0.3051  0.2601
10749SOL    HW238210   4.710   3.488   2.520 -1.3770  1.0596  0.0239
10750SOL     OW38211   1.655   2.430   2.723 -0.4660  0.2654  0.1349
10750SOL    HW138212   1.576   2.438   2.777 -0.5742 -0.3563  0.0797
10750SOL    HW238213   1.640   2.490   2.650 -1.6058 -0.9986 -0.7242
10751SOL     OW38214   5.569   0.645   5.658  0.2411  0.3106  0.1864
10751SOL    HW138215   5.574   0.610   5.570 -1.3148 -1.6005  0.7725
10751SOL    HW238216   5.640   0.709   5.664  2.5533 -1.9566 -1.3631
10752SOL     OW38217   6.637   1.325   8.744  0.4913  0.2992 -0.0288
10752SOL    HW138218   6.643   1.389   8.815  0.2090  2.4513 -1.8689
10752SOL    HW238219   6.543   1.314   8.731  0.5383 -0.5116  0.2559
10753SOL     OW38220   0.042   5.588   6.500 -0.2378  0.2700  0.5763
10753SOL    HW138221   0.009   5.499   6.499  0.3285  0.0561  0.5493
10753SOL    HW238222  -0.029   5.640   6.462 -1.4798  0.1775  2.5865
10754SOL     OW38223   6.334   6.066   8.344 -0.1302  0.1060  0.0337
10754SOL    HW138224   6.350   6.086   8.252  0.4315  2.8063  0.6608
10754SOL    HW238225   6.418   6.077   8.387 -0.8406  1.1754  1.2260
10755SOL     OW38226   4.084   3.194   8.669  0.1259  0.7546  0.4225
10755SOL    HW138227   3.999   3.235   8.687  1.0507  2.4048  1.1438
10755SOL    HW238228   4.119   3.244   8.596 -0.9918 -2.1617 -2.4025
10756SOL     OW38229   8.819   1.839   0.639 -0.4907  1.0231  0.1862
10756SOL    HW138230   8.786   1.880   0.719 -2.7561 -0.2819  0.0244
10756SOL    HW238231   8.768   1.880   0.569 -2.2996 -1.3645 -0.0399
10757SOL     OW38232   6.382   0.218   0.260  0.4627  0.6063 -0.2002
10757SOL    HW138233   6.379   0.123   0.250 -0.1367  0.6247 -0.2731
10757SOL    HW238234   6.370   0.232   0.354 -0.0636  0.6260 -0.2676
10758SOL     OW38235   7.759   6.959   1.043 -0.0711 -0.4001 -0.2110
10758SOL    HW138236   7.802   6.988   0.962  0.7999  0.7368  0.6207
10758SOL    HW238237   7.807   6.879   1.067 -1.0853 -1.4132 -1.3859
10759SOL     OW38238   2.133   3.021   3.871  0.5127 -0.1680  0.3437
10759SOL    HW138239   2.080   3.092   3.835 -1.4552 -1.0335  1.4021
10759SOL    HW238240   2.177   3.060   3.946  1.8493  0.6840 -0.8151
10760SOL     OW38241   8.271   0.907   1.101 -0.0641 -0.3394  0.4425
10760SOL    HW138242   8.205   0.898   1.171 -0.5438  0.4102  0.1088
10760SOL    HW238243   8.344   0.853   1.130 -1.3255 -2.2856  0.1923
10761SOL     OW38244   6.493   7.291   1.546  0.5332  0.0288  0.1341
10761SOL    HW138245   6.433   7.244   1.603 -1.5307  1.9676 -0.2754
10761SOL    HW238246   6.540   7.351   1.605  0.5376 -0.0235  0.1835
10762SOL     OW38247   9.129   2.543   0.387 -0.2335 -0.2112 -0.1519
10762SOL    HW138248   9.048   2.588   0.365 -0.0690  0.1761  0.0347
10762SOL    HW238249   9.110   2.450   0.370 -0.8394 -0.1678  0.2489
10763SOL     OW38250   4.497   6.581   1.856  0.7871  0.5609  0.2132
10763SOL    HW138251   4.475   6.494   1.823 -0.5383  1.2004 -0.6768
10763SOL    HW238252   4.570   6.610   1.800  1.1788  0.0624  0.4595
10764SOL     OW38253   4.709   6.776   0.719 -0.2142  0.0377  0.0209
10764SOL    HW138254   4.769   6.701   0.717 -0.2847 -0.0912  1.5562
10764SOL    HW238255   4.701   6.802   0.628  2.1148 -0.0044 -0.2509
10765SOL     OW38256   1.512   6.821   6.295  0.1357  0.5086 -0.1897
10765SOL    HW138257   1.422   6.802   6.271  0.8344 -0.4984 -2.2027
10765SOL    HW238258   1.549   6.866   6.219  0.8880  2.5412  1.2716
10766SOL     OW38259   1.979   8.973   3.830  0.0102  0.2837 -0.1381
10766SOL    HW138260   1.990   8.962   3.925  1.1264  0.7543 -0.1946
10766SOL    HW238261   2.059   8.935   3.793 -1.1880 -1.4847 -1.0179
10767SOL     OW38262   8.794   6.017   3.372 -0.2910 -0.1120  0.3788
10767SOL    HW138263   8.702   5.992   3.361 -0.8333  1.4857  0.8734
10767SOL    HW238264   8.832   6.009   3.284 -0.8171 -1.0419  0.2222
10768SOL     OW38265   0.598   2.211   5.500  0.2781 -0.6658 -0.3129
10768SOL    HW138266   0.524   2.240   5.554  0.0741  3.6677 -2.4682
10768SOL    HW238267   0.675   2.248   5.542  0.5963 -0.8308 -0.7378
10769SOL     OW38268   3.653   8.913   9.024  0.1502  0.2943  0.4742
10769SOL    HW138269   3.656   8.877   9.113  0.6765 -0.8397  0.0267
10769SOL    HW238270   3.731   8.876   8.981  0.4640  1.6423 -0.1628
10770SOL     OW38271   1.346   4.783   4.255 -0.5684 -0.0476  0.1599
10770SOL    HW138272   1.289   4.829   4.317  0.0531 -1.2671  1.7198
10770SOL    HW238273   1.434   4.792   4.292  0.1687  1.0174 -1.7244
10771SOL     OW38274   0.797   7.142   5.824  0.1474 -0.3604 -0.0717
10771SOL    HW138275   0.797   7.097   5.908  2.1503 -0.6200 -0.1659
10771SOL    HW238276   0.795   7.071   5.759 -0.4218 -0.1930 -0.2385
10772SOL     OW38277   2.971   4.013   2.142 -0.0425 -0.1744  0.7837
10772SOL    HW138278   2.949   4.105   2.157 -0.6601 -0.3885  1.2321
10772SOL    HW238279   2.966   4.002   2.047 -1.1741 -0.0309  0.8116
10773SOL     OW38280   0.719   5.978   3.741  0.1425 -0.5748 -0.1954
10773SOL    HW138281   0.692   5.976   3.649 -0.0953  0.0300 -0.1433
10773SOL    HW238282   0.638   5.976   3.790  0.2765 -1.0893  0.0119
10774SOL     OW38283   3.590   3.376   8.306 -0.0990 -0.2382  0.5272
10774SOL    HW138284   3.533   3.310   8.267  0.2602 -1.3905  1.8488
10774SOL    HW238285   3.619   3.430   8.233  2.1384 -3.4466 -1.2347
10775SOL     OW38286   6.515   1.357   6.974  0.7117 -0.1886  0.0410
10775SOL    HW138287   6.489   1.265   6.964  0.6695 -0.1825  0.0925
10775SOL    HW238288   6.540   1.365   7.066  0.0631  0.0153  0.2040
10776SOL     OW38289   0.883   1.089   0.771  0.4088  0.1757 -0.3828
10776SOL    HW138290   0.939   1.138   0.831 -0.2238  0.2257  0.1730
10776SOL    HW238291   0.901   0.997   0.791  0.7380  0.1827 -0.6295
10777SOL     OW38292   4.773   6.564   5.730 -0.2875  0.4477  0.6358
10777SOL    HW138293   4.679   6.576   5.715 -0.2306  0.3854  0.2101
10777SOL    HW238294   4.794   6.625   5.800 -0.7926 -0.0741  1.2461
10778SOL     OW38295   1.801   0.138   1.310 -0.1296  0.0200 -0.7542
10778SOL    HW138296   1.809   0.121   1.216  2.0627  0.1222 -0.6240
10778SOL    HW238297   1.812   0.052   1.350 -0.5630  0.0537 -0.5582
10779SOL     OW38298   0.172   7.025   9.360  0.8045 -0.1056 -0.0170
10779SOL    HW138299   0.192   6.934   9.384 -0.3780 -0.1843  0.7802
10779SOL    HW238300   0.191   7.075   9.440  0.1786  0.1530 -0.0260
10780SOL     OW38301   6.883   0.616   1.056 -0.2211  0.0516 -0.1626
10780SOL    HW138302   6.848   0.537   1.015  1.1795  0.0987 -1.5039
10780SOL    HW238303   6.951   0.584   1.115 -0.4028  0.1948  0.1297
10781SOL     OW38304   2.501   3.656   2.869 -0.6291 -1.1529  0.4387
10781SOL    HW138305   2.449   3.733   2.894 -0.6472 -1.7409  2.3500
10781SOL    HW238306   2.466   3.632   2.783 -1.0865  0.5519  0.0960
10782SOL     OW38307   7.818   9.174   7.724  0.4547 -0.0529  0.4262
10782SOL    HW138308   7.807   9.145   7.633  1.5792  0.9100 -0.0474
10782SOL    HW238309   7.778   9.261   7.727 -0.4774 -0.4916  1.1284
10783SOL     OW38310   6.741   5.549   0.027 -0.1249 -0.3209 -0.1073
10783SOL    HW138311   6.753   5.643   0.040 -1.8715 -0.1663  0.7186
10783SOL    HW238312   6.827   5.516   0.002  0.3204  1.6411 -1.3197
10784SOL     OW38313   7.313   4.214   8.711  0.0367  0.5854 -0.1919
10784SOL    HW138314   7.404   4.200   8.738  0.2106  2.0179  0.0542
10784SOL    HW238315   7.285   4.291   8.761 -0.9662  0.8139 -1.0795
10785SOL     OW38316   1.324   4.795   8.260 -0.1197  0.4673 -0.0395
10785SOL    HW138317   1.407   4.800   8.307 -0.8902 -1.6967  1.6705
10785SOL    HW238318   1.258   4.825   8.323 -0.7849  1.2221 -1.0511
10786SOL     OW38319   1.521   8.844   4.836 -0.2979  0.0484  0.4231
10786SOL    HW138320   1.511   8.751   4.853  0.3216  0.2927  2.4087
10786SOL    HW238321   1.561   8.849   4.750  0.9263 -1.5750  0.8560
10787SOL     OW38322   6.841   2.144   3.289 -0.4102 -0.1315 -0.2314
10787SOL    HW138323   6.749   2.164   3.303 -0.4360 -0.5103  0.1698
10787SOL    HW238324   6.876   2.130   3.377  0.3224  1.2287 -0.2830
10788SOL     OW38325   8.091   9.238   1.088 -0.1544 -0.0531  0.5966
10788SOL    HW138326   8.062   9.208   1.002 -1.1230  0.4134  0.7491
10788SOL    HW238327   8.088   9.159   1.143 -1.4916  0.0402  0.6930
10789SOL     OW38328   8.766   3.183   0.826  0.3350  0.0979 -0.1823
10789SOL    HW138329   8.857   3.197   0.850  0.2753  0.3745 -0.1148
10789SOL    HW238330   8.759   3.088   0.814  0.8331  0.1511 -1.0150
10790SOL     OW38331   3.321   2.363   3.778 -0.1564  0.1285  0.3865
10790SOL    HW138332   3.364   2.380   3.694  1.4177 -0.5334  1.0118
10790SOL    HW238333   3.230   2.388   3.764  0.0385 -0.0578 -1.5510
10791SOL     OW38334   0.178   2.697   7.292  0.1754  0.2154 -0.2298
10791SOL    HW138335   0.197   2.603   7.302 -1.2105 -0.0842 -0.1847
10791SOL    HW238336   0.129   2.703   7.210  1.1198  1.0519 -0.7523
10792SOL     OW38337   8.404   4.507   7.284 -0.3675 -0.5864  0.2071
10792SOL    HW138338   8.355   4.588   7.303  0.7563  0.1021  0.2335
10792SOL    HW238339   8.449   4.486   7.365  2.3714  0.9144 -0.8049
10793SOL     OW38340   5.501   7.206   5.303 -0.9460  0.1988 -0.1623
10793SOL    HW138341   5.424   7.248   5.341 -1.5037 -0.0514 -0.9874
10793SOL    HW238342   5.481   7.199   5.209 -0.2883 -0.6739 -0.2497
10794SOL     OW38343   1.838   2.280   8.955  0.0223  0.0349  1.0789
10794SOL    HW138344   1.837   2.279   8.859 -0.8828 -1.4306  1.0863
10794SOL    HW238345   1.807   2.194   8.981  1.2424  0.0279  2.7068
10795SOL     OW38346   3.051   3.834   8.603 -0.2884  0.2518  0.1923
10795SOL    HW138347   2.993   3.780   8.549 -0.4813  0.6091  0.0367
10795SOL    HW238348   3.133   3.785   8.608 -0.3179  0.1464 -0.3055
10796SOL     OW38349   0.533   7.317   7.041  0.0887 -0.3351  0.4724
10796SOL    HW138350   0.611   7.270   7.071  1.7742  1.4811 -0.7713
10796SOL    HW238351   0.534   7.398   7.091  0.4634  0.7947 -1.2658
10797SOL     OW38352   0.294   1.693   5.257 -0.0608 -0.6890  0.9081
10797SOL    HW138353   0.384   1.724   5.244 -0.5407  1.0824  1.5279
10797SOL    HW238354   0.290   1.670   5.350 -0.3170 -0.5444  0.9327
10798SOL     OW38355   1.797   7.615   0.373 -0.1403  0.2846 -0.3581
10798SOL    HW138356   1.886   7.649   0.359 -0.9204  1.3463 -3.7356
10798SOL    HW238357   1.741   7.676   0.326 -3.0329  0.8655  3.3443
10799SOL     OW38358   1.648   1.352   4.694 -0.0450  0.3891  0.1473
10799SOL    HW138359   1.729   1.317   4.731 -0.1149 -0.5259 -0.5343
10799SOL    HW238360   1.653   1.447   4.711  0.8345  0.2551  0.7188
10800SOL     OW38361   1.130   2.185   4.233  0.6558  0.0088 -0.4645
10800SOL    HW138362   1.042   2.150   4.247  0.3768  0.3916 -1.2357
10800SOL    HW238363   1.120   2.249   4.163  1.7673 -0.8533 -1.4494
10801SOL     OW38364   3.928   6.919   0.446  0.1282  0.1360 -0.3717
10801SOL    HW138365   3.897   7.009   0.438  0.9504  0.4045 -0.6469
10801SOL    HW238366   3.882   6.870   0.378  0.1758  0.4886 -0.6559
10802SOL     OW38367   3.511   7.918   1.498  0.3406  0.6116  0.2614
10802SOL    HW138368   3.600   7.885   1.491  1.2442  2.8839  0.1877
10802SOL    HW238369   3.510   7.995   1.441 -1.9815  0.0590 -0.5445
10803SOL     OW38370   3.310   2.651   7.566 -0.3941  0.6096 -0.0117
10803SOL    HW138371   3.344   2.642   7.655  1.5656 -0.4467 -0.7991
10803SOL    HW238372   3.335   2.740   7.540  2.1087 -0.1971 -0.6327
10804SOL     OW38373   0.710   4.170   0.501 -0.2397 -0.7326 -0.0812
10804SOL    HW138374   0.614   4.168   0.510 -0.4315 -2.1256 -1.8878
10804SOL    HW238375   0.740   4.100   0.560 -0.4480 -1.1662 -0.4827
10805SOL     OW38376   6.876   6.598   2.253 -0.1237 -0.6389  0.6133
10805SOL    HW138377   6.911   6.685   2.235  0.5145 -0.9929  0.0731
10805SOL    HW238378   6.879   6.590   2.348  1.9763 -0.8959  0.5746
10806SOL     OW38379   6.376   1.698   5.102 -0.1072 -0.6821 -0.1116
10806SOL    HW138380   6.423   1.782   5.103  0.6613 -1.1038  0.7216
10806SOL    HW238381   6.378   1.669   5.193 -2.9767 -0.2090  0.2059
10807SOL     OW38382   6.072   2.980   7.896  0.4829  0.4131 -0.5820
10807SOL    HW138383   6.139   2.981   7.828  0.4762 -1.8126 -0.7038
10807SOL    HW238384   6.077   2.892   7.933  0.5997  1.5631  2.4521
10808SOL     OW38385   1.129   5.538   7.999  0.2104 -0.1857 -0.3410
10808SOL    HW138386   1.154   5.572   7.912  1.1499  2.2968  0.7989
10808SOL    HW238387   1.047   5.584   8.019  0.7867  0.4126  0.6871
10809SOL     OW38388   0.774   5.345   2.948 -0.1123 -0.0027  0.1922
10809SOL    HW138389   0.744   5.402   3.018  3.8506 -0.3610  2.4753
10809SOL    HW238390   0.819   5.403   2.886 -1.4701 -0.0082 -0.8618
10810SOL     OW38391   8.939   8.543   8.171 -0.1500  0.0541 -0.0019
10810SOL    HW138392   9.034   8.532   8.176  0.1001  0.7870 -2.1334
10810SOL    HW238393   8.926   8.636   8.154 -1.2935  0.0302  0.6018
10811SOL     OW38394   8.493   3.178   7.616  0.0559  0.3227  0.1626
10811SOL    HW138395   8.563   3.163   7.552 -1.4953 -2.1497 -1.1471
10811SOL    HW238396   8.412   3.175   7.564 -1.1474  0.9119  1.9014
10812SOL     OW38397   8.177   8.246   2.317  0.1958  0.0080 -0.0279
10812SOL    HW138398   8.159   8.214   2.405 -2.3356 -1.9650 -1.1183
10812SOL    HW238399   8.230   8.178   2.277 -0.1366  0.0450 -0.5388
10813SOL     OW38400   3.825   4.713   2.845 -0.1340  0.5011 -0.3720
10813SOL    HW138401   3.912   4.751   2.831  0.1768  0.0389  0.2823
10813SOL    HW238402   3.840   4.638   2.901 -1.1649  1.5208  1.3685
10814SOL     OW38403   6.575   5.264   1.383 -0.0907  0.3236  0.0211
10814SOL    HW138404   6.596   5.176   1.350  0.5460  0.6224 -0.3825
10814SOL    HW238405   6.529   5.248   1.465  1.2924 -0.3814  0.7002
10815SOL     OW38406   6.886   8.292   5.355  0.4924  0.2003  0.1441
10815SOL    HW138407   6.921   8.251   5.276  0.1818 -1.6716  0.9264
10815SOL    HW238408   6.856   8.378   5.326 -0.7447 -0.8915 -2.0690
10816SOL     OW38409   8.257   7.031   7.841 -0.1570 -0.0762 -0.0499
10816SOL    HW138410   8.173   6.985   7.843 -0.0414 -0.3856  3.3848
10816SOL    HW238411   8.322   6.961   7.851  0.3350  0.4014  0.1205
10817SOL     OW38412   6.041   0.749   6.612 -0.2849 -0.0884  0.0190
10817SOL    HW138413   6.102   0.822   6.625 -0.0930 -0.1967 -0.2570
10817SOL    HW238414   5.991   0.745   6.694  0.0320  0.0454  0.2246
10818SOL     OW38415   1.763   3.604   3.358 -0.8461  0.1171 -0.0784
10818SOL    HW138416   1.795   3.645   3.278 -0.0889  0.1481  0.2342
10818SOL    HW238417   1.755   3.677   3.420  2.2119 -0.3476  1.0448
10819SOL     OW38418   1.908   8.189   1.745  0.5489 -0.3137  0.2583
10819SOL    HW138419   1.997   8.213   1.770  1.4005 -1.5104 -1.4130
10819SOL    HW238420   1.902   8.214   1.652 -2.1261  3.1263  1.1259
10820SOL     OW38421   5.292   8.272   5.807  0.5177 -0.5357  0.1537
10820SOL    HW138422   5.374   8.292   5.762  1.4574 -0.4118  1.8425
10820SOL    HW238423   5.290   8.177   5.813 -0.6993 -0.7090 -2.0152
10821SOL     OW38424   8.357   8.155   1.984  0.2283 -0.0807  0.1326
10821SOL    HW138425   8.349   8.084   2.047  1.9287 -2.1719 -1.8441
10821SOL    HW238426   8.404   8.224   2.031  1.2670 -1.4792  1.2326
10822SOL     OW38427   2.508   2.281   8.704  0.7429  0.1430  0.0891
10822SOL    HW138428   2.490   2.343   8.774  1.2685  0.4431 -0.0355
10822SOL    HW238429   2.602   2.289   8.688  0.7670 -0.4718 -0.1294
10823SOL     OW38430   7.571   7.874   2.763  0.2808 -0.1713 -0.0318
10823SOL    HW138431   7.545   7.798   2.710 -0.4028  0.1558 -0.1847
10823SOL    HW238432   7.533   7.949   2.717  1.5441  0.3513 -0.2689
10824SOL     OW38433   0.341   7.221   7.372 -0.2439 -1.1035  0.6541
10824SOL    HW138434   0.415   7.164   7.393 -0.2753 -0.9108  1.2998
10824SOL    HW238435   0.314   7.193   7.284 -0.3144 -2.1565  0.9875
10825SOL     OW38436   1.229   1.152   7.009  0.3916  0.4012 -0.7470
10825SOL    HW138437   1.314   1.109   6.998  0.5720  0.0700  1.4935
10825SOL    HW238438   1.208   1.140   7.101 -1.5661  1.4878 -1.0010
10826SOL     OW38439   8.640   7.857   2.499  0.6936  0.4080 -0.2918
10826SOL    HW138440   8.684   7.784   2.543  1.0759  1.2364  0.7197
10826SOL    HW238441   8.708   7.922   2.485  0.5939  0.1693 -2.1751
10827SOL     OW38442   3.308   2.393   3.151  0.1293  0.2578 -0.4565
10827SOL    HW138443   3.224   2.361   3.183 -0.4829  0.0053 -2.1970
10827SOL    HW238444   3.322   2.475   3.198 -0.4479 -0.3413  0.8060
10828SOL     OW38445   4.449   3.059   2.509 -0.1092 -0.2855 -0.1682
10828SOL    HW138446   4.514   3.040   2.442 -1.1841 -0.6284 -1.1410
10828SOL    HW238447   4.461   2.991   2.575  0.6202 -0.2452 -0.2582
10829SOL     OW38448   5.249   4.071   8.392  0.3085  0.0143  0.2348
10829SOL    HW138449   5.223   4.162   8.400 -0.6778 -0.3522  1.4465
10829SOL    HW238450   5.211   4.042   8.309 -0.4965  0.3439  0.4821
10830SOL     OW38451   6.249   8.317   1.577 -0.4977 -0.2405 -0.3130
10830SOL    HW138452   6.302   8.262   1.635 -0.0327 -1.2954 -1.6898
10830SOL    HW238453   6.280   8.295   1.489  0.7289  3.2817 -0.8924
10831SOL     OW38454   4.532   7.326   0.383  0.8122 -0.1492  0.2200
10831SOL    HW138455   4.468   7.336   0.313  2.5868 -0.0162 -1.4546
10831SOL    HW238456   4.514   7.239   0.419  0.1568 -0.4104 -0.7010
10832SOL     OW38457   2.597   6.668   1.285  0.0693  0.3355 -0.1253
10832SOL    HW138458   2.552   6.598   1.237 -0.3546  0.6400 -0.1785
10832SOL    HW238459   2.649   6.712   1.218  1.2488 -0.6360  0.1162
10833SOL     OW38460   6.568   5.446   9.010  0.3217  0.0558  0.2232
10833SOL    HW138461   6.518   5.493   8.943  1.3876  0.3666 -0.3710
10833SOL    HW238462   6.505   5.384   9.048 -0.0896 -0.7266 -1.6489
10834SOL     OW38463   7.593   2.844   0.768 -0.2394 -0.0365  0.0615
10834SOL    HW138464   7.539   2.920   0.746 -2.4090 -1.8383 -1.3281
10834SOL    HW238465   7.675   2.859   0.722 -0.3207  1.7962  0.4412
10835SOL     OW38466   8.368   7.582   6.420 -0.0259  0.2310 -0.5477
10835SOL    HW138467   8.329   7.549   6.501  0.6956 -2.8172 -1.3148
10835SOL    HW238468   8.447   7.529   6.408  0.7719  1.7224 -2.4203
10836SOL     OW38469   2.123   3.176   8.159 -0.0808 -1.0627 -0.0433
10836SOL    HW138470   2.131   3.140   8.071  0.3293  0.2776 -0.5768
10836SOL    HW238471   2.205   3.151   8.202  0.2878 -0.6006 -0.4705
10837SOL     OW38472   5.169   7.995   0.970  0.7766 -0.4664  1.0612
10837SOL    HW138473   5.218   8.031   0.897 -1.4887  0.8373  0.0820
10837SOL    HW238474   5.097   8.056   0.984 -0.4990 -2.1642  2.5078
10838SOL     OW38475   3.633   5.701   2.240  0.0339  0.4880  0.1698
10838SOL    HW138476   3.702   5.658   2.289  1.4584  2.1387 -0.2865
10838SOL    HW238477   3.677   5.738   2.163 -2.3178 -3.2928 -3.3756
10839SOL     OW38478   6.082   0.016   2.254  0.2681 -0.7217 -0.3194
10839SOL    HW138479   6.007   0.054   2.300 -0.3765 -1.9207 -0.3234
10839SOL    HW238480   6.143  -0.008   2.323 -0.9569 -3.0698  0.0399
10840SOL     OW38481   8.654   5.993   2.545  0.5774 -0.7861  0.2277
10840SOL    HW138482   8.570   5.973   2.505  1.3220 -0.2469 -1.7031
10840SOL    HW238483   8.704   5.911   2.536  0.5839 -0.8109  0.4905
10841SOL     OW38484   6.566   3.396   6.280  0.1402  0.5414  0.8919
10841SOL    HW138485   6.648   3.407   6.327  1.1067  0.9382 -0.8100
10841SOL    HW238486   6.566   3.304   6.252  0.7993  0.9287 -0.4626
10842SOL     OW38487   5.281   5.428   2.102  0.9140 -0.3682  0.2742
10842SOL    HW138488   5.249   5.360   2.162  1.4265 -0.4398  0.4792
10842SOL    HW238489   5.304   5.501   2.160 -0.9029  0.5068 -0.0635
10843SOL     OW38490   4.143   0.669   7.012 -0.1610  0.2221 -0.7381
10843SOL    HW138491   4.217   0.612   7.033 -0.5102 -0.1702 -0.5500
10843SOL    HW238492   4.090   0.618   6.952 -0.9534 -0.0211  0.1436
10844SOL     OW38493   4.211   7.374   4.776 -0.2368  0.4194 -0.1989
10844SOL    HW138494   4.303   7.397   4.790 -0.1686  0.6664 -1.0170
10844SOL    HW238495   4.206   7.353   4.683  0.0427 -4.2438  0.5959
10845SOL     OW38496   2.684   6.924   1.878  0.0848  0.0753 -0.0786
10845SOL    HW138497   2.685   6.954   1.969  0.4125  2.4734 -0.8058
10845SOL    HW238498   2.668   6.829   1.884  2.2619 -0.2312  2.5433
10846SOL     OW38499   2.495   2.785   3.802  0.1576 -0.1735 -0.0730
10846SOL    HW138500   2.406   2.767   3.770 -0.0825 -0.4943  0.7488
10846SOL    HW238501   2.487   2.786   3.897  1.1973 -1.0857  0.0485
10847SOL     OW38502   2.267   3.049   1.278  0.1657  0.2004 -0.0695
10847SOL    HW138503   2.192   3.024   1.224  0.8230 -0.3871 -0.7280
10847SOL    HW238504   2.289   3.138   1.250  0.9395 -0.3528 -1.2999
10848SOL     OW38505   0.819   5.597   2.134 -0.6732  0.1042 -0.0641
10848SOL    HW138506   0.727   5.623   2.138 -0.7865 -0.4497  1.9693
10848SOL    HW238507   0.816   5.501   2.135 -0.0907  0.0647 -1.1739
10849SOL     OW38508   9.326   1.654   1.120  0.3345  0.7019 -0.0708
10849SOL    HW138509   9.238   1.628   1.149  0.8250 -1.4845 -0.3797
10849SOL    HW238510   9.380   1.650   1.199  0.8229 -1.3212 -0.4452
10850SOL     OW38511   6.890   4.194   0.044 -0.0570  0.0187 -0.4192
10850SOL    HW138512   6.960   4.215   0.106  1.4599  1.5757 -2.4966
10850SOL    HW238513   6.915   4.110   0.006 -0.4877 -0.4726  0.3601
10851SOL     OW38514   8.820   8.315   3.063 -0.2783 -0.4953 -0.1265
10851SOL    HW138515   8.913   8.336   3.048  0.0337 -0.4758  1.5733
10851SOL    HW238516   8.792   8.381   3.127 -1.7653  0.1291 -1.3882
10852SOL     OW38517   4.893   1.800   3.335 -0.1142 -0.7357 -0.6659
10852SOL    HW138518   4.947   1.732   3.296  0.8744 -0.6856  0.5861
10852SOL    HW238519   4.927   1.811   3.423 -0.1261  1.4958 -0.8822
10853SOL     OW38520   4.653   3.681   5.658 -0.2932 -0.2440 -0.2368
10853SOL    HW138521   4.571   3.721   5.627 -0.2999 -0.0108  0.0730
10853SOL    HW238522   4.686   3.742   5.724 -0.2555 -0.7054  0.1800
10854SOL     OW38523   7.712   5.898   3.515  0.0998  0.7573  0.1825
10854SOL    HW138524   7.639   5.960   3.508  1.1283  2.0239  0.2392
10854SOL    HW238525   7.670   5.814   3.535 -1.3307  1.4462  0.2389
10855SOL     OW38526   1.795   4.109   8.036 -0.2823 -0.5252 -0.2674
10855SOL    HW138527   1.827   4.043   7.974  0.8871 -0.0175 -0.2274
10855SOL    HW238528   1.797   4.064   8.121  0.7818 -0.3699 -0.1969
10856SOL     OW38529   7.539   2.099   7.684 -0.2660 -0.0156 -0.8063
10856SOL    HW138530   7.618   2.049   7.703 -1.6596 -2.8031 -1.7435
10856SOL    HW238531   7.476   2.072   7.751 -1.4285 -0.5502 -2.0446
10857SOL     OW38532   6.180   5.386   1.885  0.0249 -0.3349 -0.2377
10857SOL    HW138533   6.195   5.345   1.970 -0.0915  0.5121  0.2077
10857SOL    HW238534   6.085   5.399   1.881  0.0893  0.1625 -0.2348
10858SOL     OW38535   0.897   6.215   0.398  0.0861  0.6953  0.2278
10858SOL    HW138536   0.850   6.132   0.398  0.4473  0.4740  1.6418
10858SOL    HW238537   0.979   6.196   0.445 -0.3305  2.1148  1.5874
10859SOL     OW38538   7.130   4.738   6.628  0.6244  0.3159  0.4704
10859SOL    HW138539   7.106   4.669   6.690  0.7660 -0.6082 -0.4691
10859SOL    HW238540   7.049   4.758   6.581  0.8368 -0.0913 -0.0870
10860SOL     OW38541   2.661   8.033   3.098 -0.1314 -0.7571 -0.2009
10860SOL    HW138542   2.577   8.073   3.078  0.0544  0.0481  0.5870
10860SOL    HW238543   2.723   8.077   3.041 -0.2145 -1.2745 -0.7027
10861SOL     OW38544   4.012   5.448   7.257  0.5488 -0.1428  0.0656
10861SOL    HW138545   4.020   5.415   7.347  0.8027  0.5073  0.2887
10861SOL    HW238546   3.925   5.488   7.254  0.0914 -1.1287 -0.3133
10862SOL     OW38547   8.617   5.288   2.748  0.9705 -0.1117  0.0610
10862SOL    HW138548   8.668   5.306   2.827  1.4906 -0.6532 -0.1412
10862SOL    HW238549   8.526   5.303   2.774  1.1779  0.2021  0.6187
10863SOL     OW38550   8.974   8.241   3.373 -0.2784 -0.4328 -0.0914
10863SOL    HW138551   8.899   8.296   3.398 -0.2737 -0.4962  0.0675
10863SOL    HW238552   8.957   8.157   3.416 -0.8993 -0.9635 -1.3296
10864SOL     OW38553   5.221   6.791   2.609  0.2574 -0.0409 -0.0450
10864SOL    HW138554   5.166   6.827   2.539 -1.3448 -1.3245  0.4964
10864SOL    HW238555   5.232   6.864   2.670 -0.1942  0.4592 -0.5498
10865SOL     OW38556   2.625   7.712   1.425 -0.2216  0.3284 -0.3979
10865SOL    HW138557   2.670   7.704   1.341 -0.3767 -0.1961 -0.4299
10865SOL    HW238558   2.688   7.758   1.481  0.1296  0.1163 -0.6132
10866SOL     OW38559   0.238   2.364   5.217  0.1836 -0.2513  0.1923
10866SOL    HW138560   0.177   2.375   5.144 -0.0588 -2.3492  0.0102
10866SOL    HW238561   0.297   2.295   5.189  1.1634  0.0930  1.3239
10867SOL     OW38562   4.515   8.614   8.031 -0.5475 -0.2609  0.8134
10867SOL    HW138563   4.565   8.696   8.023 -0.4485 -0.3340  0.6682
10867SOL    HW238564   4.494   8.590   7.941 -2.9034  1.0153  0.9522
10868SOL     OW38565   4.075   4.944   2.714 -0.1975 -0.0298 -0.1266
10868SOL    HW138566   4.136   4.939   2.640 -0.2556 -1.0866 -0.1228
10868SOL    HW238567   4.017   5.017   2.693  1.2537  1.2010  0.0133
10869SOL     OW38568   4.365   5.326   0.760 -0.2028  0.3994  0.1611
10869SOL    HW138569   4.454   5.311   0.791 -0.4300  1.1775  1.2086
10869SOL    HW238570   4.367   5.297   0.668  1.2729  0.9425 -0.0080
10870SOL     OW38571   2.253   6.486   1.465  0.4405  0.0008  0.3025
10870SOL    HW138572   2.335   6.500   1.511  0.3838 -1.7010  0.9734
10870SOL    HW238573   2.192   6.453   1.531 -0.2359 -0.5422 -0.5519
10871SOL     OW38574   1.312   3.690   6.069  0.0367  0.1104 -0.8113
10871SOL    HW138575   1.387   3.715   6.123 -1.3369  1.8568  0.4018
10871SOL    HW238576   1.279   3.610   6.108 -0.3522  0.8336  0.3973
10872SOL     OW38577   7.483   2.142   1.202 -0.1916  0.6132 -0.0616
10872SOL    HW138578   7.463   2.127   1.295 -0.2934  0.2979 -0.1334
10872SOL    HW238579   7.439   2.224   1.181  1.4931  1.7718  0.6932
10873SOL     OW38580   2.755   0.464   9.175  0.2395  0.1537 -0.5974
10873SOL    HW138581   2.845   0.499   9.173  0.0223  0.9068  1.1623
10873SOL    HW238582   2.742   0.435   9.265 -0.3941 -2.4906 -1.4642
10874SOL     OW38583   2.700   7.913   9.080  0.2713  0.0651  0.1174
10874SOL    HW138584   2.768   7.980   9.079 -0.7015  1.1035 -1.0560
10874SOL    HW238585   2.622   7.958   9.047 -0.2759 -1.7712 -1.2763
10875SOL     OW38586   2.715   7.059   4.913  0.2788  0.0275 -0.4647
10875SOL    HW138587   2.679   7.045   5.001  1.1383 -0.3928 -0.1741
10875SOL    HW238588   2.775   6.986   4.899  1.7039  1.1709 -0.5792
10876SOL     OW38589   4.344   8.616   2.958 -0.4063  0.3639  0.4843
10876SOL    HW138590   4.404   8.613   3.032  1.2813  1.3287 -0.7560
10876SOL    HW238591   4.266   8.662   2.991  0.1229  0.3869  1.7476
10877SOL     OW38592   6.371   3.553   8.435 -0.0538 -0.4625 -0.5397
10877SOL    HW138593   6.442   3.610   8.406 -1.2812  0.8996 -0.9732
10877SOL    HW238594   6.413   3.493   8.497  1.3148  0.8562 -0.1132
10878SOL     OW38595   1.411   3.980   1.277 -0.0228  0.4117 -0.6153
10878SOL    HW138596   1.456   4.060   1.304  0.9097 -0.2335 -0.1963
10878SOL    HW238597   1.319   3.996   1.297  0.2112  1.2136 -0.1361
10879SOL     OW38598   7.981   0.427   1.801 -0.3574  0.5585 -0.2271
10879SOL    HW138599   7.910   0.372   1.835 -1.3137  2.0291  0.2577
10879SOL    HW238600   7.975   0.417   1.706  0.2318 -1.0324 -0.1273
10880SOL     OW38601   1.251   1.827   4.353 -0.7216  0.0319  0.3331
10880SOL    HW138602   1.178   1.854   4.408 -0.1168  0.7053  0.8324
10880SOL    HW238603   1.325   1.881   4.383  0.1292 -1.0514  0.2525
10881SOL     OW38604   8.946   1.690   5.796  0.1963 -0.5432  0.6879
10881SOL    HW138605   8.931   1.596   5.805 -0.7541 -0.2898  1.9109
10881SOL    HW238606   8.885   1.718   5.728  0.0906 -0.7147  0.7128
10882SOL     OW38607   1.353   7.477   3.618 -0.7771 -0.7369  0.1343
10882SOL    HW138608   1.339   7.509   3.707  0.8872  0.3401  0.0550
10882SOL    HW238609   1.267   7.477   3.578 -1.7211 -2.0969  1.9946
10883SOL     OW38610   7.291   4.740   5.099  0.2809 -0.0996 -0.1204
10883SOL    HW138611   7.355   4.803   5.066  0.6388  0.1959  1.0969
10883SOL    HW238612   7.290   4.670   5.034  0.7389  0.5988 -0.8975
10884SOL     OW38613   3.209   2.496   2.786 -0.3201  0.0535 -0.1891
10884SOL    HW138614   3.190   2.574   2.837 -0.1335  0.2829 -0.4709
10884SOL    HW238615   3.271   2.524   2.719 -1.0376 -0.0957 -0.9485
10885SOL     OW38616   0.654   7.188   6.538  0.1421  0.3741  0.0914
10885SOL    HW138617   0.653   7.094   6.555 -1.3590  0.3658  0.1255
10885SOL    HW238618   0.641   7.229   6.623  0.7445  0.6244  0.0711
10886SOL     OW38619   9.251   3.252   6.615 -0.0482 -0.0923 -0.2589
10886SOL    HW138620   9.250   3.207   6.531 -0.2745  1.1818 -0.9700
10886SOL    HW238621   9.263   3.344   6.592 -2.1922  0.5554  0.9655
10887SOL     OW38622   0.037   6.710   7.262 -0.0987 -0.0406 -0.0888
10887SOL    HW138623   0.039   6.638   7.326  0.2810 -0.1877 -0.2623
10887SOL    HW238624  -0.052   6.746   7.269  0.0048  0.0711  0.6609
10888SOL     OW38625   6.170   1.596   0.111  0.3534 -0.3713  0.0242
10888SOL    HW138626   6.218   1.528   0.063 -1.6272 -1.0727 -1.0731
10888SOL    HW238627   6.119   1.547   0.177  0.3569  0.2452  0.4952
10889SOL     OW38628   1.986   5.296   1.903 -0.4328  0.1930 -0.0241
10889SOL    HW138629   1.935   5.233   1.851 -1.3174  0.9656 -0.1099
10889SOL    HW238630   1.921   5.358   1.937  0.3232  0.5790  0.7598
10890SOL     OW38631   4.699   5.418   9.086  0.0676  0.0876  0.1021
10890SOL    HW138632   4.756   5.442   9.013  0.3766 -0.6309  0.0961
10890SOL    HW238633   4.635   5.489   9.092  0.1081  0.2042 -0.7989
10891SOL     OW38634   5.055   3.087   2.332  0.1907  0.0697  0.3767
10891SOL    HW138635   4.969   3.127   2.315  0.1564 -0.1946 -0.0846
10891SOL    HW238636   5.107   3.109   2.255  0.5298  0.1974  0.6396
10892SOL     OW38637   0.292   4.897   7.442 -0.3702  0.0195 -0.0406
10892SOL    HW138638   0.203   4.909   7.410 -0.3927  0.3887  0.1535
10892SOL    HW238639   0.282   4.890   7.537  0.0133  2.4211  0.2392
10893SOL     OW38640   9.183   4.636   6.624  0.2117  0.2428  0.0331
10893SOL    HW138641   9.225   4.556   6.657 -1.4508 -0.9071 -0.5437
10893SOL    HW238642   9.252   4.680   6.574  0.9054 -1.3163 -0.4390
10894SOL     OW38643   9.249   1.462   3.041 -0.0301 -0.0200 -0.2997
10894SOL    HW138644   9.268   1.419   2.957 -1.0384  0.4342 -0.7796
10894SOL    HW238645   9.156   1.486   3.035 -0.1183  0.0241  0.9500
10895SOL     OW38646   7.108   6.994   8.642  0.4627 -0.0597 -0.1810
10895SOL    HW138647   7.086   7.021   8.731  0.1604 -0.9194  0.0179
10895SOL    HW238648   7.170   6.922   8.654  0.6922  0.0525 -0.6770
10896SOL     OW38649   3.254   4.744   7.787  0.0376 -0.4073  0.5204
10896SOL    HW138650   3.261   4.821   7.730  0.1280 -0.0029  1.0675
10896SOL    HW238651   3.294   4.772   7.869  0.1244 -1.0633  0.7052
10897SOL     OW38652   5.242   4.543   0.261  0.1130  0.1869  0.0991
10897SOL    HW138653   5.179   4.526   0.191  0.3087  0.6100 -0.1867
10897SOL    HW238654   5.196   4.601   0.322  0.0377  0.0445  0.1788
10898SOL     OW38655   7.143   6.415   2.586  0.3445  0.4387  0.1764
10898SOL    HW138656   7.150   6.436   2.493  0.7118 -0.1089  0.0773
10898SOL    HW238657   7.217   6.357   2.604 -1.1381 -1.5336  0.2286
10899SOL     OW38658   9.277   8.406   4.007 -0.0456  0.2967  0.5280
10899SOL    HW138659   9.219   8.384   3.933  0.4204  0.4499  0.1127
10899SOL    HW238660   9.287   8.324   4.055  0.6159 -0.0996 -0.2655
10900SOL     OW38661   5.381   9.158   8.563  0.2322  0.3651  0.0685
10900SOL    HW138662   5.470   9.147   8.530 -0.0878  2.2794 -1.6371
10900SOL    HW238663   5.325   9.150   8.485 -0.9320  0.8713  0.8147
10901SOL     OW38664   7.749   6.356   7.724 -0.3189  0.0026 -0.4174
10901SOL    HW138665   7.754   6.359   7.628  0.7658  2.1374 -0.3649
10901SOL    HW238666   7.836   6.328   7.752 -1.3476 -3.1696 -0.0132
10902SOL     OW38667   4.947   4.724   0.901 -0.1460 -0.1156 -0.6248
10902SOL    HW138668   4.955   4.628   0.897 -0.9556 -0.1445 -2.6945
10902SOL    HW238669   4.867   4.739   0.951  1.0975 -0.4112  1.5712
10903SOL     OW38670   2.775   8.363   7.218  0.0013 -0.1377 -0.1663
10903SOL    HW138671   2.715   8.317   7.160 -0.4847  1.1611 -0.7476
10903SOL    HW238672   2.800   8.441   7.169  1.6789 -0.3241  0.3232
10904SOL     OW38673   3.758   7.476   6.560  0.0529  0.7699 -0.0937
10904SOL    HW138674   3.740   7.473   6.654  2.8318  0.2311  0.5046
10904SOL    HW238675   3.711   7.554   6.529 -2.4901 -0.1055  1.2936
10905SOL     OW38676   2.804   2.390   9.046  0.2875  0.0801 -0.2874
10905SOL    HW138677   2.779   2.438   8.967 -1.8219  0.6199  0.6608
10905SOL    HW238678   2.888   2.429   9.072  0.0533  1.2183 -1.1697
10906SOL     OW38679   8.091   7.839   1.148  0.5665 -0.1420  0.0829
10906SOL    HW138680   8.008   7.852   1.192  0.4007 -1.0165  0.0397
10906SOL    HW238681   8.100   7.744   1.139  0.6474 -0.0092 -1.6543
10907SOL     OW38682   1.768   5.144   0.981 -0.2644  0.2057 -0.3974
10907SOL    HW138683   1.708   5.097   0.923 -0.0927  0.2008 -0.5696
10907SOL    HW238684   1.711   5.207   1.027 -0.4350  0.0666 -0.4148
10908SOL     OW38685   1.109   1.198   3.323 -0.1479  0.1358 -0.2927
10908SOL    HW138686   1.126   1.280   3.370  0.8113 -0.2586  0.0624
10908SOL    HW238687   1.020   1.175   3.347 -0.2915  0.8710 -0.0877
10909SOL     OW38688   0.944   5.496   0.604  0.7634 -0.2555  0.4602
10909SOL    HW138689   0.925   5.404   0.583 -1.7530  0.1001  0.8202
10909SOL    HW238690   0.921   5.544   0.525 -0.0107  0.2466  0.9800
10910SOL     OW38691   5.764   7.531   4.897 -0.0799  0.3922  0.0419
10910SOL    HW138692   5.820   7.608   4.886  1.0551 -0.4976 -0.7168
10910SOL    HW238693   5.694   7.543   4.833  0.5008  0.4602 -0.5985
10911SOL     OW38694   5.297   6.754   0.705 -0.0005  0.4627  0.4203
10911SOL    HW138695   5.345   6.797   0.777 -0.5276  1.0805  0.4071
10911SOL    HW238696   5.233   6.819   0.677 -0.8431 -0.3506  0.4245
10912SOL     OW38697   3.160   0.631   6.558 -0.0253  0.2087  0.4243
10912SOL    HW138698   3.099   0.603   6.627 -0.5103  1.9139  0.7246
10912SOL    HW238699   3.171   0.725   6.572  0.0620  0.5608 -1.6761
10913SOL     OW38700   2.258   6.205   7.458  0.0508 -0.2616 -0.3269
10913SOL    HW138701   2.236   6.224   7.550  0.2950 -0.1928 -0.2819
10913SOL    HW238702   2.333   6.261   7.439  0.4389 -0.7827 -0.3562
10914SOL     OW38703   3.104   6.182   6.793  0.7890 -0.0949 -0.6773
10914SOL    HW138704   3.110   6.164   6.699  1.9293  1.8501 -1.0097
10914SOL    HW238705   3.085   6.275   6.799  1.3552 -0.0536  1.0424
10915SOL     OW38706   3.465   9.087   3.507 -0.2084 -0.1652  0.0390
10915SOL    HW138707   3.389   9.111   3.561  1.7788  3.1694  1.6594
10915SOL    HW238708   3.506   9.015   3.553 -1.0172 -0.3371  0.5059
10916SOL     OW38709   0.272   6.545   2.098  0.1516  0.1599  0.2418
10916SOL    HW138710   0.327   6.622   2.113 -1.0992  1.3265 -0.8885
10916SOL    HW238711   0.195   6.560   2.153 -0.9559  0.6889 -1.3807
10917SOL     OW38712   6.008   0.293   4.418  0.0024 -0.3253 -0.0589
10917SOL    HW138713   5.978   0.366   4.473 -1.4918 -1.2102  0.3618
10917SOL    HW238714   6.098   0.316   4.394  0.1851  0.8006  1.5350
10918SOL     OW38715   4.572   5.734   4.018  0.0638  0.5153  0.6312
10918SOL    HW138716   4.544   5.805   3.960  0.2136 -1.1237 -1.5732
10918SOL    HW238717   4.498   5.722   4.077 -1.0456  0.8490 -0.6218
10919SOL     OW38718   7.742   8.011   2.074  0.2604  0.1420 -0.4992
10919SOL    HW138719   7.746   7.932   2.021 -1.5728 -0.1964 -0.1779
10919SOL    HW238720   7.779   7.985   2.159 -2.4532 -1.1232  0.4116
10920SOL     OW38721   5.141   4.676   3.171 -0.0539 -0.0538  0.3590
10920SOL    HW138722   5.196   4.737   3.220 -1.3450 -0.4783  2.4689
10920SOL    HW238723   5.073   4.730   3.131  1.6655  0.4461 -2.0902
10921SOL     OW38724   3.523   8.010   7.633 -0.1058  0.1225 -0.3895
10921SOL    HW138725   3.612   7.994   7.665  0.2139 -0.3512 -1.4587
10921SOL    HW238726   3.507   8.102   7.651 -0.1821 -0.2457  1.6492
10922SOL     OW38727   1.294   0.771   0.010 -0.3025  0.2889 -0.3735
10922SOL    HW138728   1.260   0.797  -0.075  0.8801  0.9325 -0.6619
10922SOL    HW238729   1.225   0.796   0.072 -0.4263  1.4565 -0.9534
10923SOL     OW38730   6.476   0.082   1.113  0.1879  0.1565  0.0004
10923SOL    HW138731   6.474  -0.008   1.147 -0.4005  0.5909  1.1646
10923SOL    HW238732   6.569   0.104   1.111  0.7711 -1.8036 -4.0831
10924SOL     OW38733   5.242   6.137   2.529  0.2720  0.0710 -0.5707
10924SOL    HW138734   5.276   6.054   2.562 -0.0001  0.3008  0.3117
10924SOL    HW238735   5.211   6.117   2.441  2.6192 -0.1651 -1.4253
10925SOL     OW38736   4.427   7.255   2.857  0.2161  0.0234  0.1721
10925SOL    HW138737   4.371   7.323   2.893  0.3005 -0.2347  0.8199
10925SOL    HW238738   4.464   7.212   2.934 -1.1313 -1.8402 -0.1494
10926SOL     OW38739   0.641   8.341   5.999  0.5782  0.1756 -0.0392
10926SOL    HW138740   0.600   8.424   5.976 -0.4075 -0.5261 -0.9032
10926SOL    HW238741   0.568   8.283   6.022  1.2818 -0.2920  1.1612
10927SOL     OW38742   1.039   3.644   2.111  0.4036  0.3808 -0.4986
10927SOL    HW138743   1.125   3.601   2.117  0.2055  0.1303  2.2573
10927SOL    HW238744   1.051   3.728   2.156 -1.8317 -1.9345  5.5726
10928SOL     OW38745   1.731   7.333   2.302 -0.1274 -0.0208  0.0173
10928SOL    HW138746   1.660   7.274   2.279 -0.0884 -0.2471  0.4725
10928SOL    HW238747   1.798   7.316   2.236 -0.4440  0.1034 -0.3374
10929SOL     OW38748   2.614   2.409   3.901  0.0910  0.9908 -0.4009
10929SOL    HW138749   2.703   2.387   3.872  0.1453 -1.4140  1.2349
10929SOL    HW238750   2.623   2.419   3.996 -1.6067 -0.9738  0.0343
10930SOL     OW38751   7.372   0.781   3.162  0.2539  0.6336  0.7776
10930SOL    HW138752   7.314   0.833   3.218 -0.2349 -0.3689  1.2303
10930SOL    HW238753   7.321   0.703   3.140  0.7444  0.6290 -0.4089
10931SOL     OW38754   1.553   7.768   6.793  0.0856 -0.0887 -0.2244
10931SOL    HW138755   1.522   7.678   6.783 -1.6114  0.5432 -1.1326
10931SOL    HW238756   1.643   7.759   6.823  0.4064 -2.1105 -1.5538
10932SOL     OW38757   4.974   2.868   1.518  0.6935  0.7193 -0.5771
10932SOL    HW138758   5.046   2.931   1.517  2.5123 -1.2609 -0.2477
10932SOL    HW238759   4.898   2.920   1.544  1.6964  3.1368 -2.0569
10933SOL     OW38760   7.220   4.909   2.975 -0.5968  0.0115 -0.0429
10933SOL    HW138761   7.284   4.914   3.046 -1.5317 -2.0518  1.0530
10933SOL    HW238762   7.214   4.998   2.941  1.0065  0.7471  1.4521
10934SOL     OW38763   7.461   7.575   4.152 -0.4267 -0.7426 -0.0453
10934SOL    HW138764   7.381   7.526   4.170 -0.9874  0.0753 -0.2213
10934SOL    HW238765   7.461   7.585   4.056  0.8859 -2.3643 -0.2491
10935SOL     OW38766   9.138   9.173   0.905  0.2437 -0.3498  0.5423
10935SOL    HW138767   9.140   9.236   0.977  0.6472  0.3117 -0.0478
10935SOL    HW238768   9.177   9.218   0.831 -0.8023 -0.7801 -0.3016
10936SOL     OW38769   8.321   7.630   5.096  0.3690 -0.3037 -0.5160
10936SOL    HW138770   8.336   7.628   5.190 -0.1458 -0.4546 -0.4374
10936SOL    HW238771   8.382   7.565   5.061 -1.8556 -2.8769  0.0625
10937SOL     OW38772   3.610   1.308   4.918  0.1956 -0.1831 -0.2455
10937SOL    HW138773   3.701   1.328   4.940  0.5028 -0.5323 -1.1514
10937SOL    HW238774   3.612   1.217   4.887 -0.6825 -0.6532  0.9477
10938SOL     OW38775   7.557   5.477   4.016 -0.3330  0.2130  0.1667
10938SOL    HW138776   7.561   5.451   3.924 -1.6492 -2.4739  0.7627
10938SOL    HW238777   7.633   5.435   4.057  1.3367  2.8980  0.1120
10939SOL     OW38778   9.138   4.806   5.433 -0.3335 -0.3065  0.0150
10939SOL    HW138779   9.055   4.759   5.434 -0.1101 -0.7569  1.8315
10939SOL    HW238780   9.191   4.760   5.368 -0.5084 -1.9003  0.9523
10940SOL     OW38781   3.985   5.119   6.929  0.0464 -0.9705  0.0427
10940SOL    HW138782   3.957   5.029   6.913  0.6222 -1.1795  0.1807
10940SOL    HW238783   3.906   5.164   6.959 -0.4356 -1.2292 -0.7900
10941SOL     OW38784   3.209   3.806   0.788 -0.0207 -0.4161 -0.1761
10941SOL    HW138785   3.209   3.901   0.799 -3.1264 -0.0486 -2.0410
10941SOL    HW238786   3.117   3.784   0.771  0.2168 -4.0574  2.0888
10942SOL     OW38787   4.916   6.136   4.371 -0.4783  0.1899 -0.2304
10942SOL    HW138788   4.917   6.230   4.357 -0.4816  0.3575  0.7861
10942SOL    HW238789   4.945   6.098   4.288 -2.4117  0.9742 -1.3297
10943SOL     OW38790   8.768   2.633   6.281  0.1316 -0.4827 -1.0112
10943SOL    HW138791   8.771   2.695   6.208 -0.0884  0.8700  0.0686
10943SOL    HW238792   8.696   2.665   6.336  0.0543 -1.6805 -0.3957
10944SOL     OW38793   6.589   5.543   6.908 -0.4296  0.3874  0.0426
10944SOL    HW138794   6.657   5.551   6.842  0.3171  0.8196  0.8448
10944SOL    HW238795   6.594   5.625   6.958 -1.5488  0.4322  0.1078
10945SOL     OW38796   5.523   7.544   0.703  0.5049  0.1267  0.1278
10945SOL    HW138797   5.430   7.566   0.696 -0.0429 -1.7634  0.8646
10945SOL    HW238798   5.562   7.618   0.749 -1.0766 -0.0176  1.8204
10946SOL     OW38799   2.398   5.559   2.916 -0.1166  0.1604  0.0359
10946SOL    HW138800   2.313   5.516   2.905  0.0853 -0.2654  0.1229
10946SOL    HW238801   2.447   5.537   2.836  0.6694 -1.3677  0.8824
10947SOL     OW38802   8.463   5.421   2.069  0.1384  0.0257  0.5303
10947SOL    HW138803   8.539   5.365   2.081 -0.0301 -0.1721  0.7005
10947SOL    HW238804   8.499   5.508   2.056  0.3834  0.0052  1.0313
10948SOL     OW38805   3.572   0.259   0.760 -0.3294  0.5394  0.0592
10948SOL    HW138806   3.486   0.218   0.753 -0.2989  0.5962 -0.8407
10948SOL    HW238807   3.571   0.328   0.694 -0.1380  1.5672  1.1141
10949SOL     OW38808   2.786   6.358   2.418  0.7115 -0.2394  0.4178
10949SOL    HW138809   2.816   6.271   2.444  2.6297 -0.1280 -1.2245
10949SOL    HW238810   2.856   6.392   2.363 -0.8934  1.5643 -0.6062
10950SOL     OW38811   1.513   5.431   2.985  0.2555  0.4925  0.3047
10950SOL    HW138812   1.425   5.392   2.993 -0.5674  2.0273 -0.7684
10950SOL    HW238813   1.562   5.394   3.059 -0.7724 -1.6774 -0.0213
10951SOL     OW38814   3.997   4.057   1.654  0.0243 -0.6921 -0.4468
10951SOL    HW138815   3.990   4.093   1.743  1.7080  2.1898 -1.3351
10951SOL    HW238816   4.083   4.016   1.651 -0.4720 -1.7576 -0.4705
10952SOL     OW38817   3.076   7.634   6.208 -0.6469  0.1030  0.5362
10952SOL    HW138818   3.135   7.573   6.251 -0.0113 -0.7067 -1.3562
10952SOL    HW238819   3.073   7.710   6.265  0.2436 -0.8429  1.8985
10953SOL     OW38820   1.063   4.584   7.412 -0.0048 -0.0760 -0.1403
10953SOL    HW138821   0.991   4.647   7.405 -1.1644 -1.4189 -0.8357
10953SOL    HW238822   1.137   4.635   7.443 -1.2787  1.3477  0.6735
10954SOL     OW38823   8.936   3.969   0.177  0.0854  0.1640 -0.1628
10954SOL    HW138824   8.864   3.908   0.163 -0.1027 -0.1462  1.9317
10954SOL    HW238825   8.923   4.037   0.111 -0.2554 -1.5156 -1.9109
10955SOL     OW38826   2.034   0.335   8.153 -0.0146 -0.0566 -0.6036
10955SOL    HW138827   2.096   0.354   8.223 -1.2742 -0.4245  0.6418
10955SOL    HW238828   2.089   0.303   8.081  1.3480  0.7921  0.0107
10956SOL     OW38829   6.608   8.259   2.055  0.0822 -0.4482  0.4396
10956SOL    HW138830   6.670   8.196   2.090 -0.1742 -1.2083 -0.4449
10956SOL    HW238831   6.533   8.256   2.115 -0.3234 -1.6769 -0.1102
10957SOL     OW38832   5.549   2.454   2.780 -0.1245 -0.3620  0.1398
10957SOL    HW138833   5.617   2.511   2.818 -0.7741  0.4487  0.1186
10957SOL    HW238834   5.554   2.373   2.831  1.7637 -0.8615 -0.7272
10958SOL     OW38835   2.023   5.434   8.465  0.1265  0.1855  0.1654
10958SOL    HW138836   2.054   5.496   8.530  1.9409  0.2245 -0.6786
10958SOL    HW238837   2.048   5.348   8.500 -0.1913  0.1033  0.1937
10959SOL     OW38838   2.323   4.602   0.381  0.2764 -0.5456 -0.1584
10959SOL    HW138839   2.240   4.582   0.424 -0.6451  2.7829 -0.1538
10959SOL    HW238840   2.377   4.524   0.396 -2.3838 -2.3191  0.8943
10960SOL     OW38841   2.128   7.812   0.568  0.1624 -0.2557  0.3367
10960SOL    HW138842   2.133   7.806   0.473  0.2409  0.3109  0.3050
10960SOL    HW238843   2.202   7.760   0.599 -0.1391 -0.8324  0.1019
10961SOL     OW38844   5.380   8.942   6.153 -0.1626  0.5241 -0.0410
10961SOL    HW138845   5.326   8.958   6.076 -1.8711 -3.3126  0.1442
10961SOL    HW238846   5.465   8.914   6.117 -1.2662 -2.2421 -0.6757
10962SOL     OW38847   3.032   0.267   7.624 -0.2907 -0.2039  0.8688
10962SOL    HW138848   3.111   0.216   7.611 -0.3063 -0.3298  1.2513
10962SOL    HW238849   2.986   0.222   7.695 -1.1899 -0.7114 -0.0061
10963SOL     OW38850   2.082   7.003   0.490  0.2425 -0.3070 -0.0829
10963SOL    HW138851   1.993   6.978   0.466  0.5803 -1.4837 -0.1748
10963SOL    HW238852   2.072   7.083   0.541 -0.7445  0.4489 -1.4089
10964SOL     OW38853   0.388   8.680   6.658 -0.0183 -0.1061  0.5463
10964SOL    HW138854   0.342   8.754   6.698  0.2785  0.0862  0.5325
10964SOL    HW238855   0.319   8.633   6.611  0.1591  1.6031 -1.6279
10965SOL     OW38856   8.355   5.690   8.679  0.2329 -0.6841 -0.3101
10965SOL    HW138857   8.349   5.786   8.685 -0.0766 -0.7760  1.1478
10965SOL    HW238858   8.397   5.663   8.761  0.0143 -1.8354 -0.5597
10966SOL     OW38859   5.931   7.910   7.350 -0.3841  0.2377  0.2158
10966SOL    HW138860   5.963   7.820   7.343  1.5323  0.7696  1.1833
10966SOL    HW238861   5.921   7.924   7.445  0.9872  1.5267  0.2091
10967SOL     OW38862   3.195   0.001   8.914  0.2991  0.5097 -0.1054
10967SOL    HW138863   3.156   0.022   8.999 -1.1801 -1.7872 -0.1576
10967SOL    HW238864   3.252  -0.074   8.932 -1.0610 -0.8760 -1.3093
10968SOL     OW38865   1.696   5.952   3.717 -0.5818  0.4745 -0.0867
10968SOL    HW138866   1.732   5.998   3.642 -0.7579  0.7459 -0.0091
10968SOL    HW238867   1.700   6.016   3.789  2.2160 -0.6728  0.8887
10969SOL     OW38868   6.148   4.419   9.082 -0.2976 -0.5652 -0.3503
10969SOL    HW138869   6.209   4.411   9.155  0.3013 -0.8442 -0.8727
10969SOL    HW238870   6.173   4.502   9.040 -0.1785 -0.7540 -0.6527
10970SOL     OW38871   3.103   9.221   9.326 -0.3221 -0.0661  0.0177
10970SOL    HW138872   3.138   9.295   9.277  0.1017  0.3529  0.9419
10970SOL    HW238873   3.022   9.252   9.364 -1.8586 -1.0756 -2.2214
10971SOL     OW38874   8.928   7.170   7.670  0.2421  0.3354  0.1014
10971SOL    HW138875   8.841   7.137   7.648  0.2687 -0.6107  1.2745
10971SOL    HW238876   8.921   7.264   7.659 -1.0796  0.3235  0.5768
10972SOL     OW38877   2.746   1.124   8.270  0.2061  0.1230  0.1817
10972SOL    HW138878   2.742   1.031   8.249  1.0214 -0.0273  0.6471
10972SOL    HW238879   2.757   1.126   8.365 -2.0078  0.7518  0.4749
10973SOL     OW38880   1.460   3.182   1.374  0.3202 -0.1186 -0.4228
10973SOL    HW138881   1.500   3.233   1.303 -0.2120 -0.1082 -0.7250
10973SOL    HW238882   1.381   3.145   1.334  0.8663 -1.4796 -0.3230
10974SOL     OW38883   0.621   7.591   1.477  0.5013  0.3911  0.0047
10974SOL    HW138884   0.604   7.685   1.465  1.4038  0.3910 -1.6122
10974SOL    HW238885   0.602   7.552   1.392 -0.6553 -1.0585  0.8725
10975SOL     OW38886   0.019   4.884   8.771  0.1740  0.1322 -0.6180
10975SOL    HW138887   0.014   4.832   8.851 -2.4660 -2.0382 -1.9951
10975SOL    HW238888   0.104   4.861   8.733 -0.2299 -2.0299 -0.3513
10976SOL     OW38889   3.026   7.805   6.934 -0.2837 -0.0764 -0.0303
10976SOL    HW138890   3.118   7.790   6.956  0.5446 -0.1014 -3.0965
10976SOL    HW238891   2.994   7.861   7.005  1.4270 -1.8295  2.2848
10977SOL     OW38892   0.892   8.196   8.685 -0.1858 -0.5330  0.2395
10977SOL    HW138893   0.974   8.159   8.718 -0.8457 -1.3699  1.0092
10977SOL    HW238894   0.869   8.140   8.610 -0.5599 -0.9489  0.6544
10978SOL     OW38895   3.985   6.250   1.131 -0.0970  0.1006  0.1772
10978SOL    HW138896   3.909   6.304   1.154  0.3602  1.0022 -0.4167
10978SOL    HW238897   3.950   6.184   1.071 -0.3536  0.7240 -0.3711
10979SOL     OW38898   4.075   5.479   3.166  0.5605 -0.5062 -0.5077
10979SOL    HW138899   4.127   5.412   3.122  1.8597  0.7348 -0.9435
10979SOL    HW238900   4.139   5.546   3.192 -0.7484  0.8609 -0.6381
10980SOL     OW38901   1.763   5.748   4.808 -0.2763 -0.0412  0.0865
10980SOL    HW138902   1.696   5.689   4.773  0.5712 -1.1640  0.2854
10980SOL    HW238903   1.844   5.719   4.766  0.2358  0.6788  0.5679
10981SOL     OW38904   2.304   6.914   2.016 -0.1097  0.3195  0.6855
10981SOL    HW138905   2.284   6.825   2.045  1.0039  0.4828  2.1108
10981SOL    HW238906   2.219   6.959   2.016 -0.7177 -0.7654 -0.2657
10982SOL     OW38907   9.271   6.784   8.681 -0.1368  0.4851 -0.0656
10982SOL    HW138908   9.327   6.708   8.691  1.7940  1.8432 -0.0824
10982SOL    HW238909   9.182   6.749   8.681  0.6098 -1.5496  1.7294
10983SOL     OW38910   1.938   3.533   1.709 -0.6209  0.0567  0.4602
10983SOL    HW138911   1.866   3.538   1.646  0.2351  0.7440 -0.5069
10983SOL    HW238912   2.004   3.479   1.665 -0.5058 -0.5281  1.3166
10984SOL     OW38913   7.045   1.019   2.884  0.4534  0.0417  0.3614
10984SOL    HW138914   7.126   1.060   2.914 -0.3343  0.9593  1.3160
10984SOL    HW238915   7.051   0.929   2.917  1.1764  0.0327  0.2290
10985SOL     OW38916   7.671   5.095   4.777  0.5036  0.2234 -0.2464
10985SOL    HW138917   7.665   5.062   4.867  0.0811 -0.9221 -0.6800
10985SOL    HW238918   7.597   5.055   4.731  1.0507  0.3340 -1.2535
10986SOL     OW38919   8.952   2.027   1.739  0.1375  0.0012  0.0820
10986SOL    HW138920   9.040   2.030   1.776  0.2884  0.8895 -0.3444
10986SOL    HW238921   8.953   1.951   1.681  0.5320 -0.1537  0.2895
10987SOL     OW38922   2.062   7.881   9.159  0.1607  0.2364 -0.5827
10987SOL    HW138923   2.053   7.971   9.129 -3.3087  0.3048  0.2732
10987SOL    HW238924   2.022   7.828   9.090  0.9691 -0.5350 -0.4784
10988SOL     OW38925   7.002   0.118   5.994 -0.3553 -0.1863 -0.2350
10988SOL    HW138926   7.008   0.200   5.946 -1.1671  0.3828  0.6019
10988SOL    HW238927   6.926   0.074   5.956 -1.2440  0.4436  0.7450
10989SOL     OW38928   2.159   4.325   2.692 -0.1774  0.2261 -0.4038
10989SOL    HW138929   2.066   4.323   2.667 -0.0779  2.2723 -1.1341
10989SOL    HW238930   2.165   4.394   2.758  0.9443  0.7107 -0.9838
10990SOL     OW38931   4.282   2.358   1.865 -0.7932  0.2202  0.1212
10990SOL    HW138932   4.266   2.394   1.777 -0.2491 -1.4989 -0.7279
10990SOL    HW238933   4.373   2.380   1.883 -0.2976 -1.1001 -0.6247
10991SOL     OW38934   8.602   2.940   5.337  0.1138 -0.7697 -0.2211
10991SOL    HW138935   8.569   3.025   5.367  0.7117 -0.6915  0.2373
10991SOL    HW238936   8.575   2.878   5.404  0.8419 -0.7111  0.1403
10992SOL     OW38937   3.561   4.746   7.712 -0.0779 -0.5136 -0.1675
10992SOL    HW138938   3.483   4.693   7.728  0.5287 -1.2972  0.2826
10992SOL    HW238939   3.625   4.683   7.679  1.4988 -0.6308  2.7987
10993SOL     OW38940   7.119   9.110   3.770 -0.5982 -0.1515 -0.2034
10993SOL    HW138941   7.066   9.038   3.803  0.5926 -1.3158 -0.7118
10993SOL    HW238942   7.106   9.181   3.833 -0.8185 -1.2421  1.0169
10994SOL     OW38943   3.301   8.400   5.963 -0.2579 -0.2087 -0.1350
10994SOL    HW138944   3.343   8.468   5.909 -0.9008  0.2276 -0.0985
10994SOL    HW238945   3.274   8.446   6.043  0.5804 -0.8269  0.5190
10995SOL     OW38946   6.432   7.253   5.256  0.3727 -0.1008  0.0025
10995SOL    HW138947   6.519   7.265   5.293 -0.2582 -1.6765  2.2567
10995SOL    HW238948   6.406   7.339   5.225  2.9156  0.2858 -1.2356
10996SOL     OW38949   3.744   6.900   6.353  0.1201  0.8070  0.4306
10996SOL    HW138950   3.706   6.940   6.274  0.5100  0.8387  0.2547
10996SOL    HW238951   3.820   6.955   6.373  1.2748 -0.4271 -0.4060
10997SOL     OW38952   8.132   4.667   7.506 -0.2221 -0.0103  0.3314
10997SOL    HW138953   8.182   4.589   7.532 -0.0743 -0.9512 -2.4383
10997SOL    HW238954   8.199   4.729   7.476 -0.3393  1.2848  2.5342
10998SOL     OW38955   5.698   6.373   6.282  0.1966  0.3904 -0.2522
10998SOL    HW138956   5.619   6.334   6.246 -0.8858  1.3461  0.9695
10998SOL    HW238957   5.760   6.300   6.291 -1.0323 -0.6412  0.0424
10999SOL     OW38958   9.114   5.724   6.618  0.5158 -0.0665  0.1968
10999SOL    HW138959   9.069   5.806   6.641  2.3829  0.8772  0.6740
10999SOL    HW238960   9.150   5.739   6.531 -0.8426 -1.1745 -0.5977
11000SOL     OW38961   0.457   1.012   1.349  0.0098 -0.5584  0.5094
11000SOL    HW138962   0.550   1.003   1.366  0.0419  0.4266  0.9160
11000SOL    HW238963   0.453   1.064   1.268 -0.1833 -1.9250 -0.3920
11001SOL     OW38964   1.342   7.367   7.262 -0.1869 -0.2111  0.3382
11001SOL    HW138965   1.312   7.359   7.171  1.9460 -1.7654 -0.2934
11001SOL    HW238966   1.355   7.276   7.290  1.5774  0.3213  1.3373
11002SOL     OW38967   6.170   7.944   8.033 -0.3820  0.2048  0.2117
11002SOL    HW138968   6.123   7.861   8.046 -0.6479  0.3168 -0.0411
11002SOL    HW238969   6.103   8.005   8.004 -0.0340  0.3091 -0.3724
11003SOL     OW38970   6.200   6.816   6.684  0.7428  0.0604 -0.2765
11003SOL    HW138971   6.110   6.845   6.666  0.8026 -0.1993 -1.0305
11003SOL    HW238972   6.233   6.879   6.749 -0.8462 -1.3560  2.0513
11004SOL     OW38973   8.789   3.998   4.872  0.7196 -0.6256  0.0360
11004SOL    HW138974   8.813   4.062   4.939 -0.4068  1.8317 -1.7200
11004SOL    HW238975   8.699   3.973   4.893  1.0288 -1.3640  0.5047
11005SOL     OW38976   7.408   3.839   3.124 -0.3071 -0.1575  0.3013
11005SOL    HW138977   7.383   3.831   3.216  2.7119  2.0591  1.4786
11005SOL    HW238978   7.391   3.931   3.102 -0.3867 -0.4982 -1.1573
11006SOL     OW38979   2.580   7.700   5.840 -0.2104  0.3052  0.4555
11006SOL    HW138980   2.507   7.758   5.862  0.9445  0.7767  3.5644
11006SOL    HW238981   2.584   7.639   5.914  2.5720  0.3536  0.4360
11007SOL     OW38982   6.031   0.552   8.177  0.2778  0.2184 -0.3028
11007SOL    HW138983   5.952   0.591   8.214  0.0845 -0.2634 -0.1991
11007SOL    HW238984   6.059   0.487   8.242  1.8455  1.6773  0.5697
11008SOL     OW38985   7.117   3.619   2.967 -0.3948 -0.1039 -0.1088
11008SOL    HW138986   7.179   3.563   3.014 -0.1148  0.9872  0.8783
11008SOL    HW238987   7.135   3.707   3.000 -0.3370  0.6991 -2.1262
11009SOL     OW38988   9.066   0.996   5.377  0.2475  0.2841 -0.0603
11009SOL    HW138989   9.074   1.049   5.456  1.4173 -0.8429  0.6155
11009SOL    HW238990   9.052   1.059   5.307  0.8275  1.4212  0.8150
11010SOL     OW38991   4.922   3.346   1.981  0.1440 -0.4825  0.0093
11010SOL    HW138992   4.871   3.352   2.062  0.2135  1.0744 -0.0358
11010SOL    HW238993   4.908   3.430   1.937  2.3741 -0.1682 -0.2072
11011SOL     OW38994   2.436   7.143   6.588  0.3225  0.3893  0.0945
11011SOL    HW138995   2.459   7.174   6.675  0.5843  0.4363  0.0106
11011SOL    HW238996   2.343   7.123   6.593  0.3713  0.2484  0.4251
11012SOL     OW38997   0.042   0.137   8.547 -0.1021  0.2937 -0.0020
11012SOL    HW138998   0.085   0.079   8.485  0.1736 -0.9240  1.2583
11012SOL    HW238999   0.054   0.093   8.632 -2.1173  0.9183  0.6452
11013SOL     OW39000   1.037   3.112   7.522 -0.2746  0.2921  0.6994
11013SOL    HW139001   1.037   3.165   7.442 -1.1072  1.3194  1.3584
11013SOL    HW239002   1.088   3.035   7.499 -1.3682  0.0605 -1.1578
11014SOL     OW39003   3.661   4.511   1.149 -0.2218 -0.0419  0.0858
11014SOL    HW139004   3.747   4.526   1.188 -0.4337 -0.6519  0.8202
11014SOL    HW239005   3.607   4.480   1.222 -0.8347 -0.4971 -0.5460
11015SOL     OW39006   3.828   4.872   4.909 -0.4661 -0.1667  0.0449
11015SOL    HW139007   3.903   4.867   4.969 -1.0129  1.1172  0.8831
11015SOL    HW239008   3.782   4.951   4.936 -2.4651 -1.2413 -0.0614
11016SOL     OW39009   3.011   0.949   9.137  0.1857 -0.3552  0.1209
11016SOL    HW139010   3.076   0.969   9.204 -2.5728  1.9000  2.4014
11016SOL    HW239011   2.930   0.934   9.186 -1.5969 -0.4836 -2.6379
11017SOL     OW39012   7.923   5.445   3.782 -0.2929  0.7575  0.4699
11017SOL    HW139013   7.892   5.355   3.792  0.4639  0.4682  0.2505
11017SOL    HW239014   7.845   5.495   3.757 -0.1820 -0.3763 -2.5189
11018SOL     OW39015   9.041   1.159   5.136  0.8486  0.4484 -0.2481
11018SOL    HW139016   9.084   1.187   5.055  0.2773  2.7032  0.1781
11018SOL    HW239017   8.966   1.107   5.106  0.7727  1.0671 -1.1759
11019SOL     OW39018   6.893   2.827   6.555 -0.0663  0.0961 -0.5596
11019SOL    HW139019   6.953   2.792   6.489  0.5308  0.0618 -0.0013
11019SOL    HW239020   6.847   2.898   6.510  0.8261  0.5286 -0.8175
11020SOL     OW39021   4.907   3.682   2.322 -0.0192 -0.7158  0.0185
11020SOL    HW139022   4.990   3.729   2.331 -0.2473 -0.4902  1.0783
11020SOL    HW239023   4.931   3.599   2.281  0.6281 -0.3606 -0.3349
11021SOL     OW39024   1.198   8.278   8.390  0.0145 -0.5229  0.2080
11021SOL    HW139025   1.215   8.284   8.484 -0.2637 -1.4971  0.3312
11021SOL    HW239026   1.201   8.184   8.371 -0.9185 -0.4109 -0.5645
11022SOL     OW39027   1.019   7.629   3.720 -0.7650  0.2325  0.5787
11022SOL    HW139028   0.997   7.576   3.643  2.4693 -1.8224  0.8496
11022SOL    HW239029   1.088   7.688   3.690 -0.8884  0.8300  1.4295
11023SOL     OW39030   9.186   6.119   5.387  0.0499  0.3088 -0.2117
11023SOL    HW139031   9.157   6.028   5.381  0.6669  0.0202  0.8451
11023SOL    HW239032   9.147   6.162   5.311 -1.9841 -0.3605  0.3793
11024SOL     OW39033   3.673   7.592   3.783  0.7640  0.1945  0.2637
11024SOL    HW139034   3.715   7.630   3.861  1.8028  0.3843 -0.3639
11024SOL    HW239035   3.694   7.654   3.713  0.7391 -0.5108 -0.3706
11025SOL     OW39036   5.296   4.744   6.462  0.0611  0.2015  0.0386
11025SOL    HW139037   5.375   4.714   6.417 -0.4731  0.3523 -1.0473
11025SOL    HW239038   5.267   4.819   6.411 -0.4699  0.5017  0.7645
11026SOL     OW39039   6.615   2.012   7.588  0.2482  0.4530 -0.3632
11026SOL    HW139040   6.667   1.938   7.554 -2.3412 -0.9653 -1.5150
11026SOL    HW239041   6.602   1.991   7.681 -0.1551 -0.3575 -0.5943
11027SOL     OW39042   8.157   3.690   0.157 -0.4019  0.5463  0.2974
11027SOL    HW139043   8.103   3.650   0.226 -0.1676 -0.7332 -0.2242
11027SOL    HW239044   8.133   3.642   0.078  1.5419 -0.1170  0.0683
11028SOL     OW39045   7.186   8.124   5.736  0.7281  0.1400  0.6645
11028SOL    HW139046   7.242   8.202   5.731  1.2881 -0.3355 -0.7878
11028SOL    HW239047   7.109   8.153   5.786  1.3159  1.3858  0.8754
11029SOL     OW39048   1.387   7.457   8.562  0.1069 -0.0634 -0.6575
11029SOL    HW139049   1.359   7.490   8.647 -0.7794 -0.9753 -0.5811
11029SOL    HW239050   1.406   7.536   8.511 -0.9198  0.5463 -0.1337
11030SOL     OW39051   3.214   5.426   4.555  0.1411 -0.1842  0.1729
11030SOL    HW139052   3.186   5.509   4.594  0.7060 -0.5989  1.5152
11030SOL    HW239053   3.180   5.429   4.466  0.9242  1.8842 -0.1108
11031SOL     OW39054   4.943   5.747   7.027 -0.6603  0.2432  0.5208
11031SOL    HW139055   5.004   5.737   6.954 -2.1393  1.9093 -1.0197
11031SOL    HW239056   4.959   5.836   7.059 -2.7688  1.0284 -0.4405
11032SOL     OW39057   7.084   6.101   7.164 -0.0002  0.4015  0.7736
11032SOL    HW139058   7.085   6.173   7.226 -1.5517  0.6677  0.5368
11032SOL    HW239059   7.120   6.138   7.083 -0.3089  0.7739  0.8034
11033SOL     OW39060   2.611   4.531   2.298  0.9749  0.8388  0.0017
11033SOL    HW139061   2.644   4.461   2.355  0.9986  1.8835  1.3337
11033SOL    HW239062   2.597   4.489   2.214 -2.3023 -1.6910  1.5672
11034SOL     OW39063   5.910   4.053   3.852 -0.3331  0.1362  0.7528
11034SOL    HW139064   5.934   3.999   3.777  0.2538 -0.2114  1.1890
11034SOL    HW239065   5.843   4.003   3.897 -1.1637  0.6390  0.1131
11035SOL     OW39066   6.502   5.050   4.589 -0.0799 -0.2141  0.0340
11035SOL    HW139067   6.450   5.105   4.647 -0.8837  1.2813 -1.9783
11035SOL    HW239068   6.562   5.111   4.545 -0.5304 -1.0021 -1.7757
11036SOL     OW39069   2.294   4.314   7.816 -0.4419 -0.0043 -0.4136
11036SOL    HW139070   2.372   4.331   7.870 -0.7002 -0.4651  0.1124
11036SOL    HW239071   2.282   4.219   7.821 -3.0551  0.3284  2.3835
11037SOL     OW39072   8.535   4.832   0.075 -0.4703  0.2517  0.7623
11037SOL    HW139073   8.471   4.903   0.084 -0.9781  0.1698 -1.5839
11037SOL    HW239074   8.606   4.872   0.024  0.1931 -0.3640  1.2002
11038SOL     OW39075   7.924   4.279   7.152 -0.3163 -0.6170 -0.0246
11038SOL    HW139076   7.964   4.235   7.227  1.9578 -1.1431 -1.4483
11038SOL    HW239077   7.869   4.347   7.191  0.0440 -1.4524  2.1111
11039SOL     OW39078   5.893   3.230   5.810 -0.3792  0.3175 -0.3429
11039SOL    HW139079   5.967   3.291   5.810  0.8902 -1.1415 -0.2119
11039SOL    HW239080   5.921   3.159   5.751 -1.6362 -0.3234 -0.1996
11040SOL     OW39081   5.362   2.715   0.828 -0.5529 -0.0719  0.2987
11040SOL    HW139082   5.326   2.804   0.819 -1.2762 -0.3656  0.2564
11040SOL    HW239083   5.317   2.678   0.903 -0.9935 -0.7581 -0.2975
11041SOL     OW39084   2.313   1.558   0.412  0.6135 -0.3197 -0.0456
11041SOL    HW139085   2.402   1.592   0.421  1.3479 -1.6757 -1.5273
11041SOL    HW239086   2.276   1.562   0.500  1.7243  1.3444  0.3855
11042SOL     OW39087   9.042   7.137   2.002  0.5569 -0.4543  0.4964
11042SOL    HW139088   9.008   7.081   2.072  0.0057 -2.0080 -0.9490
11042SOL    HW239089   9.124   7.094   1.976  0.8841  0.2540  0.3434
11043SOL     OW39090   8.621   3.929   0.725  0.0003 -0.1399  0.4892
11043SOL    HW139091   8.558   3.900   0.659 -0.6523  0.8068  0.6664
11043SOL    HW239092   8.703   3.886   0.701 -0.5934 -1.0156 -0.0315
11044SOL     OW39093   5.733   6.742   0.626 -0.5807  0.5923 -0.4114
11044SOL    HW139094   5.782   6.673   0.672 -0.7683  0.3455 -0.5776
11044SOL    HW239095   5.759   6.823   0.670  0.8177  0.6014 -1.1852
11045SOL     OW39096   5.995   2.012   9.363  0.0229 -0.1179 -0.0616
11045SOL    HW139097   5.940   2.082   9.328  1.3545  0.8669 -0.2700
11045SOL    HW239098   5.939   1.934   9.361 -2.2404  1.2823  2.1104
11046SOL     OW39099   5.464   6.518   3.173  0.3884  0.5172  0.5311
11046SOL    HW139100   5.457   6.448   3.238 -0.2972 -3.6529 -3.4697
11046SOL    HW239101   5.557   6.539   3.171  0.8559 -1.2934  1.0195
11047SOL     OW39102   2.430   1.161   5.490  0.0045 -0.6829 -0.3505
11047SOL    HW139103   2.511   1.212   5.495 -1.5933  1.9935  1.8389
11047SOL    HW239104   2.451   1.078   5.532  1.6154 -0.0154  0.2603
11048SOL     OW39105   1.224   1.146   8.092  0.1968  0.1167  0.0917
11048SOL    HW139106   1.166   1.218   8.119 -1.2271 -0.6523 -0.8110
11048SOL    HW239107   1.285   1.186   8.030  0.5849  0.9143  0.9652
11049SOL     OW39108   5.614   3.561   0.024  0.0585  0.3315 -0.0466
11049SOL    HW139109   5.572   3.600   0.101 -4.2630 -1.9857 -0.9782
11049SOL    HW239110   5.671   3.493   0.060 -1.5429 -0.4082  1.1878
11050SOL     OW39111   9.125   3.682   0.350 -0.3387  0.4832  0.2980
11050SOL    HW139112   9.081   3.621   0.409  0.7023 -0.4727  0.1111
11050SOL    HW239113   9.079   3.765   0.363 -2.0066 -0.4021  0.3153
11051SOL     OW39114   2.191   4.864   6.206  0.4037  0.0925  0.0852
11051SOL    HW139115   2.243   4.789   6.234  1.3061  0.4266 -0.6540
11051SOL    HW239116   2.255   4.935   6.196 -0.1300  0.4197 -1.1680
11052SOL     OW39117   4.129   5.020   3.495  0.1834 -0.0218 -0.4925
11052SOL    HW139118   4.049   4.974   3.520  1.0136 -0.1771  2.2192
11052SOL    HW239119   4.100   5.085   3.431 -1.9891 -0.4700 -0.0516
11053SOL     OW39120   6.624   1.641   3.681  0.4410 -0.2500  0.1090
11053SOL    HW139121   6.707   1.635   3.634  0.9493 -1.2531  1.1027
11053SOL    HW239122   6.605   1.552   3.708 -0.8970 -0.0058  0.0239
11054SOL     OW39123   3.302   6.304   9.306 -0.0053 -0.3250  0.3883
11054SOL    HW139124   3.323   6.214   9.282 -1.1028 -0.1164 -1.5343
11054SOL    HW239125   3.301   6.351   9.223 -2.2289  0.8572  1.0287
11055SOL     OW39126   3.012   0.766   8.928  0.0517  0.3117 -0.2030
11055SOL    HW139127   3.040   0.850   8.965  2.3765 -0.6953  0.5494
11055SOL    HW239128   2.981   0.787   8.841  0.6420  1.9600 -0.0596
11056SOL     OW39129   4.460   4.243   8.153 -0.1152 -0.5598  0.5436
11056SOL    HW139130   4.533   4.251   8.215  0.2738  1.2407 -0.1043
11056SOL    HW239131   4.383   4.269   8.203  0.0996  0.2127  0.4866
11057SOL     OW39132   8.712   9.121   6.776 -0.3264 -0.8723 -0.6531
11057SOL    HW139133   8.666   9.197   6.740 -1.4690 -0.8600  0.7523
11057SOL    HW239134   8.805   9.142   6.766 -0.5773 -0.4819 -2.7031
11058SOL     OW39135   7.703   0.305   8.920  0.8298 -0.1255  0.0632
11058SOL    HW139136   7.688   0.220   8.879  2.7800 -0.0837 -0.8810
11058SOL    HW239137   7.764   0.349   8.861  1.5266  1.0935  1.6184
11059SOL     OW39138   2.273   3.387   8.059 -0.7020  0.0024 -0.3066
11059SOL    HW139139   2.209   3.319   8.077 -0.2019 -0.1554  0.9754
11059SOL    HW239140   2.224   3.469   8.066 -1.2158 -0.1844 -1.4606
11060SOL     OW39141   6.240   2.102   5.065  0.0897  0.1216  0.6862
11060SOL    HW139142   6.150   2.071   5.076  0.4229 -0.5021  1.7787
11060SOL    HW239143   6.253   2.105   4.970 -1.3832  1.1299  0.4802
11061SOL     OW39144   8.708   2.269   2.708 -0.1703 -0.2117 -0.2552
11061SOL    HW139145   8.694   2.190   2.656 -1.4774 -0.3027  0.1784
11061SOL    HW239146   8.646   2.333   2.672 -1.0733 -0.2600  1.1215
11062SOL     OW39147   5.049   3.377   8.843 -0.6140 -0.4903 -0.2694
11062SOL    HW139148   5.112   3.312   8.873 -0.1976  0.1677  0.2976
11062SOL    HW239149   5.037   3.356   8.750  1.4051  0.1280 -0.7271
11063SOL     OW39150   2.209   6.446   0.729  0.1829 -0.0057 -0.0920
11063SOL    HW139151   2.266   6.457   0.653 -0.6362 -1.2492 -0.9267
11063SOL    HW239152   2.161   6.365   0.711  0.1972 -0.4995  1.9084
11064SOL     OW39153   2.342   5.057   1.846  0.1660 -0.5967  0.3712
11064SOL    HW139154   2.283   4.997   1.801  0.5636 -0.5030 -0.2911
11064SOL    HW239155   2.352   5.019   1.933 -1.5896 -0.1074  0.8252
11065SOL     OW39156   7.014   3.734   0.789 -0.0936 -0.3866 -0.1008
11065SOL    HW139157   7.029   3.670   0.719  2.3059 -1.0964  0.9425
11065SOL    HW239158   7.069   3.809   0.764  1.0469 -0.7845  1.1592
11066SOL     OW39159   5.675   8.973   1.759 -0.2529 -0.5519  0.8419
11066SOL    HW139160   5.705   8.932   1.678 -0.3213 -0.4046  0.7425
11066SOL    HW239161   5.703   9.064   1.752  0.2144 -0.6605  1.2200
11067SOL     OW39162   3.079   3.802   6.178  0.8031 -0.3586 -0.5028
11067SOL    HW139163   3.112   3.713   6.167 -0.7096 -0.9219 -0.7367
11067SOL    HW239164   3.045   3.805   6.267  1.3015  0.1592 -0.3214
11068SOL     OW39165   0.659   1.333   3.702 -0.5342  0.2888 -0.2092
11068SOL    HW139166   0.622   1.360   3.618 -2.0523  1.3421  0.7366
11068SOL    HW239167   0.688   1.415   3.742  1.0077 -0.3043 -0.0643
11069SOL     OW39168   2.668   5.064   1.231  0.1114  0.1194  0.5309
11069SOL    HW139169   2.727   5.096   1.299  1.0874  1.0578 -0.7153
11069SOL    HW239170   2.594   5.124   1.233 -0.1123 -0.1692  1.1010
11070SOL     OW39171   2.710   1.100   0.344 -0.2338 -0.0643 -0.5885
11070SOL    HW139172   2.679   1.015   0.375 -0.3725  0.2276  0.0979
11070SOL    HW239173   2.666   1.163   0.401 -0.8517  0.5212 -1.6793
11071SOL     OW39174   8.058   2.846   7.909 -0.0376 -0.3723 -0.5993
11071SOL    HW139175   8.147   2.848   7.874  0.1895 -1.8199 -0.1901
11071SOL    HW239176   8.004   2.817   7.836 -0.2005  0.6491 -0.8886
11072SOL     OW39177   7.781   2.804   8.166  0.1005  0.5550  0.0112
11072SOL    HW139178   7.814   2.717   8.142 -0.6125  0.5911 -1.1791
11072SOL    HW239179   7.859   2.855   8.186  0.5019 -1.2435  4.2524
11073SOL     OW39180   0.807   6.583   7.462  0.3859 -0.0422 -0.0300
11073SOL    HW139181   0.739   6.621   7.516 -0.0901  0.1704 -0.7628
11073SOL    HW239182   0.761   6.546   7.387  0.8822 -1.5906  0.3733
11074SOL     OW39183   0.354   3.970   2.355  0.0280  0.3995  0.1841
11074SOL    HW139184   0.349   3.973   2.450 -1.1639 -0.9864  0.2019
11074SOL    HW239185   0.445   3.944   2.336  0.2146  0.4838  0.9353
11075SOL     OW39186   2.027   4.457   1.950  0.1484 -0.3689  0.3623
11075SOL    HW139187   2.100   4.472   1.890 -0.5187  0.2118 -0.3343
11075SOL    HW239188   2.037   4.367   1.979 -0.0114 -0.9723 -1.3466
11076SOL     OW39189   0.474   8.679   7.074  0.1275 -0.0811 -0.1758
11076SOL    HW139190   0.413   8.753   7.081  0.9003  0.5647 -0.1359
11076SOL    HW239191   0.420   8.602   7.091 -0.4469  0.5722  1.1157
11077SOL     OW39192   7.890   0.521   8.772  0.1698  0.6343 -0.5224
11077SOL    HW139193   7.929   0.484   8.693  0.0757  2.9287 -1.7420
11077SOL    HW239194   7.963   0.536   8.831  0.1022 -2.2960  0.4561
11078SOL     OW39195   5.209   1.967   0.231  0.0131  0.1021  0.1759
11078SOL    HW139196   5.159   2.002   0.158 -0.5741  0.8694  0.9330
11078SOL    HW239197   5.261   1.896   0.192 -0.7756  0.0580 -0.8478
11079SOL     OW39198   0.230   0.336   7.960 -0.6446 -0.1587  0.4725
11079SOL    HW139199   0.199   0.411   8.011 -0.9432 -0.1760  0.3222
11079SOL    HW239200   0.152   0.282   7.949 -1.3158  1.2244 -2.4538
11080SOL     OW39201   5.240   5.959   0.680  0.2606  0.0028  0.1464
11080SOL    HW139202   5.222   5.869   0.708  1.5280 -0.8442 -1.5225
11080SOL    HW239203   5.156   5.991   0.648 -0.1924 -0.6200  0.6651
11081SOL     OW39204   6.634   1.057   2.536 -0.6744 -0.1522 -0.0474
11081SOL    HW139205   6.640   1.141   2.582 -1.4085 -0.7501  1.1815
11081SOL    HW239206   6.573   1.005   2.588  1.6945 -2.3915  0.7163
11082SOL     OW39207   7.312   6.943   3.642  0.6983  0.5074  0.0948
11082SOL    HW139208   7.269   7.025   3.668  1.3332  1.8362 -2.6291
11082SOL    HW239209   7.372   6.924   3.713 -2.9336 -0.4808  3.2420
11083SOL     OW39210   0.509   1.304   7.790 -0.2371  0.5685 -0.1551
11083SOL    HW139211   0.464   1.296   7.874 -1.9240 -1.2942 -1.1600
11083SOL    HW239212   0.588   1.250   7.800  1.7299  3.4870  1.4611
11084SOL     OW39213   4.103   7.332   4.501 -0.2360  0.2926  0.1141
11084SOL    HW139214   4.119   7.274   4.426  0.0198  1.2987 -0.6338
11084SOL    HW239215   4.013   7.312   4.527 -0.6818  0.6059 -1.0942
11085SOL     OW39216   6.594   6.902   4.790  0.4393  0.3393 -0.1678
11085SOL    HW139217   6.601   6.997   4.803  0.7302  0.1277  1.5454
11085SOL    HW239218   6.672   6.867   4.834 -0.3241 -0.7690  0.3357
11086SOL     OW39219   8.141   6.520   4.904 -0.1583  0.9249 -0.1126
11086SOL    HW139220   8.209   6.456   4.883 -0.1760  0.2965  1.5582
11086SOL    HW239221   8.188   6.604   4.910  0.5630  0.4643  1.2512
11087SOL     OW39222   8.917   6.030   1.539  0.1723  0.1502  0.0962
11087SOL    HW139223   8.831   6.038   1.581  0.2459 -1.4810  0.6235
11087SOL    HW239224   8.903   5.969   1.467  0.9125 -0.1917  0.2380
11088SOL     OW39225   4.869   6.583   6.898 -0.4312  0.0426  0.8694
11088SOL    HW139226   4.898   6.620   6.815 -0.6565 -0.5559  0.5225
11088SOL    HW239227   4.868   6.658   6.958  0.5396  0.3246  0.5514
11089SOL     OW39228   6.810   4.879   7.647 -0.2822  0.0763 -0.3808
11089SOL    HW139229   6.770   4.957   7.608  0.3832  0.1238 -0.9884
11089SOL    HW239230   6.753   4.858   7.721 -0.3708  1.2625 -0.0795
11090SOL     OW39231   4.233   7.889   0.179 -0.4248 -0.0712 -0.7181
11090SOL    HW139232   4.207   7.976   0.212 -0.0893  0.5598 -2.0559
11090SOL    HW239233   4.170   7.870   0.109  0.7356  0.0457 -1.8336
11091SOL     OW39234   9.263   2.143   1.005  0.1279  0.0802  0.2758
11091SOL    HW139235   9.284   2.055   0.975  0.7676  0.3492 -0.0806
11091SOL    HW239236   9.168   2.142   1.019  0.1119 -0.6151  0.1288
11092SOL     OW39237   0.543   5.515   6.328 -0.1244 -0.4773  0.1607
11092SOL    HW139238   0.453   5.482   6.323 -0.1216 -0.4273 -0.2553
11092SOL    HW239239   0.554   5.541   6.419 -0.5537 -0.4269  0.1992
11093SOL     OW39240   2.917   5.995   1.926  0.4331  0.4733 -0.1563
11093SOL    HW139241   2.881   6.041   2.002  0.0642  0.6726 -0.4505
11093SOL    HW239242   2.893   5.903   1.940 -1.5381  0.7999 -1.0913
11094SOL     OW39243   7.595   0.726   4.345  0.1405 -0.7083  0.2952
11094SOL    HW139244   7.533   0.684   4.404 -1.4502  1.6715  0.4573
11094SOL    HW239245   7.587   0.678   4.263 -1.7822 -0.6196  0.3939
11095SOL     OW39246   4.835   7.517   8.861  0.4701  0.0385 -0.3757
11095SOL    HW139247   4.796   7.529   8.775  0.1834  0.5540 -0.1737
11095SOL    HW239248   4.924   7.485   8.842  0.2939 -0.1758 -0.8526
11096SOL     OW39249   6.968   1.701   6.848  0.2160  0.1419 -0.0755
11096SOL    HW139250   7.017   1.620   6.834 -0.8611 -0.7038  0.8421
11096SOL    HW239251   6.909   1.707   6.773  0.5859  0.3104 -0.3571
11097SOL     OW39252   5.848   5.208   3.732  0.2114 -0.3812 -0.3656
11097SOL    HW139253   5.777   5.176   3.788 -0.0525  0.4539 -0.2048
11097SOL    HW239254   5.810   5.214   3.645 -0.0751  0.5067 -0.1962
11098SOL     OW39255   7.775   8.869   8.622  0.0663  0.0430  0.3535
11098SOL    HW139256   7.728   8.926   8.683 -0.1585  0.9963 -0.6893
11098SOL    HW239257   7.706   8.819   8.577 -0.1293  2.2920 -2.0312
11099SOL     OW39258   6.008   6.036   4.028 -0.2869  0.1678 -0.1268
11099SOL    HW139259   6.011   6.008   4.119 -1.6153 -0.4198 -0.2501
11099SOL    HW239260   6.091   6.004   3.991 -0.4160 -0.9321  0.4941
11100SOL     OW39261   7.461   7.517   3.102  0.2834  0.1966  0.8213
11100SOL    HW139262   7.402   7.448   3.134  1.4731 -1.0374  0.4150
11100SOL    HW239263   7.423   7.544   3.019 -0.7907  0.8285  1.4876
11101SOL     OW39264   0.707   1.046   7.352 -0.3725  0.3587 -0.3666
11101SOL    HW139265   0.656   1.058   7.272  1.5209  1.6401 -1.4513
11101SOL    HW239266   0.695   1.127   7.401  0.4628  0.5929 -0.5440
11102SOL     OW39267   7.730   6.389   9.369 -0.2909 -0.3180  0.4116
11102SOL    HW139268   7.726   6.467   9.425 -2.9849  0.9035 -1.2467
11102SOL    HW239269   7.645   6.347   9.381  1.0839 -3.0846  1.2226
11103SOL     OW39270   3.926   6.526   9.188 -0.6941  0.1317 -0.1359
11103SOL    HW139271   3.967   6.608   9.216 -0.7297  0.2238 -0.3530
11103SOL    HW239272   3.851   6.516   9.247 -1.6033  1.0544 -1.0997
11104SOL     OW39273   4.311   7.316   0.210 -0.0258 -0.4187 -0.0639
11104SOL    HW139274   4.281   7.253   0.145 -0.0912  0.3250 -0.7643
11104SOL    HW239275   4.275   7.399   0.181  1.3687  0.2147 -0.0130
11105SOL     OW39276   7.921   5.640   0.335  0.4989 -0.0482 -0.2831
11105SOL    HW139277   7.868   5.700   0.283 -2.4464  0.3674  2.8620
11105SOL    HW239278   7.960   5.696   0.403 -1.1087 -1.3728  1.8281
11106SOL     OW39279   8.716   3.656   6.795 -0.1259  0.0387  0.2130
11106SOL    HW139280   8.751   3.673   6.882 -1.1183 -3.3538  1.3943
11106SOL    HW239281   8.638   3.711   6.789  0.8592  1.5792  0.6967
11107SOL     OW39282   1.267   5.351   8.767  0.4669 -0.4522 -0.1554
11107SOL    HW139283   1.185   5.399   8.776  0.9137  0.4086 -0.5528
11107SOL    HW239284   1.333   5.419   8.752  0.9915 -1.2257 -1.5434
11108SOL     OW39285   4.391   2.958   6.602 -0.0330  0.0349  0.1702
11108SOL    HW139286   4.306   2.925   6.571 -0.2438  1.0225 -0.3467
11108SOL    HW239287   4.377   2.975   6.696  0.9485 -4.0774  1.2535
11109SOL     OW39288   0.392   1.381   8.616 -0.1618  0.3707  0.2852
11109SOL    HW139289   0.333   1.451   8.588 -0.1913  0.6140  0.9426
11109SOL    HW239290   0.358   1.302   8.574 -0.4003  0.6692 -0.0879
11110SOL     OW39291   2.538   6.582   6.644 -0.4339 -0.4030  0.6232
11110SOL    HW139292   2.508   6.498   6.611  1.9112 -1.3187  0.6458
11110SOL    HW239293   2.554   6.635   6.566  2.2655 -1.5479  0.3041
11111SOL     OW39294   5.207   2.769   3.308 -0.3788 -0.4353 -0.2685
11111SOL    HW139295   5.164   2.690   3.342 -1.9400  0.2522 -0.5530
11111SOL    HW239296   5.183   2.771   3.215  0.6676 -0.2580 -0.5448
11112SOL     OW39297   4.331   4.174   6.356  0.0611  0.5115 -0.8548
11112SOL    HW139298   4.380   4.099   6.323  0.5757  0.6800 -0.4929
11112SOL    HW239299   4.264   4.191   6.290 -2.1499 -2.2655  0.4817
11113SOL     OW39300   6.838   8.160   0.399 -0.0117  0.5895  0.3393
11113SOL    HW139301   6.899   8.190   0.331  0.9921  1.3655  1.5477
11113SOL    HW239302   6.761   8.130   0.350  1.0007  0.3436 -1.1819
11114SOL     OW39303   7.572   5.150   8.060  0.1261  0.3015  0.0997
11114SOL    HW139304   7.571   5.069   8.111 -1.4031  1.7729  2.6247
11114SOL    HW239305   7.663   5.180   8.063  0.4945 -0.7747  0.0284
11115SOL     OW39306   3.580   5.488   9.197 -0.2175  0.0963  0.5463
11115SOL    HW139307   3.513   5.433   9.155 -0.2982  0.4408  0.2184
11115SOL    HW239308   3.662   5.441   9.180 -0.3397 -0.1772  0.6961
11116SOL     OW39309   1.020   1.561   6.341  0.7450 -0.2064  0.7963
11116SOL    HW139310   1.097   1.541   6.288 -1.8262 -2.3643 -2.5124
11116SOL    HW239311   0.987   1.644   6.305  0.6971 -0.0638  1.1670
11117SOL     OW39312   5.863   5.240   3.093  0.4539 -0.2434  0.3428
11117SOL    HW139313   5.791   5.256   3.032  0.7970  1.2417  0.2847
11117SOL    HW239314   5.925   5.187   3.043  0.3384  0.2279 -0.3215
11118SOL     OW39315   5.430   6.246   6.234  0.2091 -0.0669  0.1021
11118SOL    HW139316   5.388   6.267   6.151  0.7608  0.3826 -0.0773
11118SOL    HW239317   5.364   6.199   6.284 -0.0540 -0.5372 -0.6788
11119SOL     OW39318   4.653   5.381   2.240 -0.1669  1.2880 -0.4660
11119SOL    HW139319   4.619   5.320   2.174 -0.1580 -0.8240  1.3503
11119SOL    HW239320   4.577   5.406   2.292  0.2507  0.3580  0.6503
11120SOL     OW39321   4.592   7.932   6.618  0.2309 -0.0741  0.0884
11120SOL    HW139322   4.559   7.911   6.705 -0.9300 -0.0464 -0.3312
11120SOL    HW239323   4.513   7.941   6.564  0.9556 -0.6349 -1.0941
11121SOL     OW39324   6.521   8.615   8.265 -0.2495  0.2675 -0.3289
11121SOL    HW139325   6.592   8.567   8.308 -0.3668  0.9211  0.6201
11121SOL    HW239326   6.559   8.700   8.243 -0.2223 -0.0139 -1.4560
11122SOL     OW39327   6.222   7.819   5.232  0.2421  0.2961 -0.2810
11122SOL    HW139328   6.133   7.827   5.265 -0.2540  1.5251 -1.8019
11122SOL    HW239329   6.278   7.822   5.310 -1.0698 -3.7384  1.1127
11123SOL     OW39330   9.048   3.582   3.775  0.5809  0.1843  0.1205
11123SOL    HW139331   9.123   3.594   3.717  0.2857  1.1756 -0.0633
11123SOL    HW239332   9.050   3.657   3.833 -1.4898  1.3989 -1.2562
11124SOL     OW39333   4.223   7.167   7.167  0.6252  0.4368  0.2426
11124SOL    HW139334   4.190   7.110   7.235 -0.2560  1.1853  0.4605
11124SOL    HW239335   4.314   7.139   7.154  0.9362  0.5372  1.9870
11125SOL     OW39336   8.684   6.584   8.484  0.2087 -0.2094 -0.2648
11125SOL    HW139337   8.729   6.501   8.471 -0.6103 -0.5611 -1.0154
11125SOL    HW239338   8.754   6.648   8.493  0.8595 -1.0222  0.7127
11126SOL     OW39339   3.391   4.749   1.126  0.3469  0.9043 -0.3584
11126SOL    HW139340   3.429   4.835   1.146 -0.1826  0.8354  1.1195
11126SOL    HW239341   3.298   4.759   1.144  0.5315 -0.4524  1.7979
11127SOL     OW39342   0.053   3.468   9.098 -0.4556  0.1924 -0.0277
11127SOL    HW139343   0.134   3.517   9.112 -0.8109  0.6594  0.4170
11127SOL    HW239344   0.024   3.493   9.010 -0.6121  0.7521  0.1797
11128SOL     OW39345   2.950   1.113   2.236  0.4556  0.3776  0.1567
11128SOL    HW139346   2.922   1.102   2.145  0.5787  0.3809  0.1182
11128SOL    HW239347   2.976   1.025   2.264  1.8462  0.6199 -0.2845
11129SOL     OW39348   6.349   7.715   5.709  0.3382 -0.4097 -0.1125
11129SOL    HW139349   6.264   7.698   5.750  0.6061  0.8481  1.0308
11129SOL    HW239350   6.327   7.758   5.626 -0.1483  0.1966  0.3195
11130SOL     OW39351   4.697   4.503   4.297 -0.0286 -0.7348  0.0381
11130SOL    HW139352   4.651   4.451   4.231 -0.1092 -0.9832  0.2873
11130SOL    HW239353   4.630   4.561   4.333  0.5269  1.1498 -1.8002
11131SOL     OW39354   5.722   7.385   1.645  0.1545  0.2545  0.5715
11131SOL    HW139355   5.772   7.320   1.694  1.3238  0.4335 -0.3426
11131SOL    HW239356   5.777   7.463   1.646  0.1042  0.3308 -0.8226
11132SOL     OW39357   9.232   8.929   3.178  0.0040  0.1424 -0.6116
11132SOL    HW139358   9.233   8.853   3.121  0.0164 -1.3205  1.2638
11132SOL    HW239359   9.253   8.895   3.265  0.8501  2.4040  0.1520
11133SOL     OW39360   0.504   7.725   7.642 -0.6289 -0.2179  0.0101
11133SOL    HW139361   0.562   7.652   7.663 -0.3357 -0.5674 -1.8336
11133SOL    HW239362   0.558   7.803   7.653 -0.2361 -0.4459 -0.2806
11134SOL     OW39363   7.996   9.277   1.417 -0.4110  0.8268 -0.8562
11134SOL    HW139364   7.965   9.353   1.466  1.1261  0.6309  0.5088
11134SOL    HW239365   7.922   9.252   1.362 -1.5091  2.2900 -0.1100
11135SOL     OW39366   7.763   3.550   3.540 -0.4468 -0.5253  0.6095
11135SOL    HW139367   7.856   3.557   3.561  0.0989 -0.2797 -1.6607
11135SOL    HW239368   7.734   3.640   3.529  0.1652 -0.6096 -2.8367
11136SOL     OW39369   5.090   6.911   3.837 -0.1666 -0.0092  0.2348
11136SOL    HW139370   5.085   6.829   3.885  0.2666 -0.0420  0.2244
11136SOL    HW239371   5.033   6.971   3.886 -1.1080 -0.5269 -0.1946
11137SOL     OW39372   0.251   9.079   0.751 -0.2597  0.5799 -0.4711
11137SOL    HW139373   0.301   9.122   0.821 -1.9366  0.7852  0.6517
11137SOL    HW239374   0.270   9.131   0.673  0.8692  0.9473  0.0191
11138SOL     OW39375   4.813   2.857   2.873  0.0843 -0.2131 -0.1602
11138SOL    HW139376   4.860   2.821   2.798 -0.6873 -1.0063 -0.2752
11138SOL    HW239377   4.793   2.781   2.928 -0.3686  0.2127  0.2705
11139SOL     OW39378   0.017   8.936   1.345 -0.3322  0.1211  0.0345
11139SOL    HW139379   0.055   8.880   1.412 -0.1647 -1.1946 -1.1170
11139SOL    HW239380  -0.015   8.875   1.278 -0.4918  1.3900 -1.0828
11140SOL     OW39381   0.524   8.039   7.419  0.2670 -0.0999 -0.0467
11140SOL    HW139382   0.506   8.119   7.371 -1.0194 -0.8680 -0.8900
11140SOL    HW239383   0.536   7.972   7.352 -1.3312 -1.1392  0.6257
11141SOL     OW39384   6.576   0.222   7.429 -0.0580  0.3400 -0.4574
11141SOL    HW139385   6.490   0.255   7.455  0.3409  1.5970 -0.6410
11141SOL    HW239386   6.624   0.300   7.402  1.0367 -0.3836 -0.6721
11142SOL     OW39387   9.026   2.805   9.098  0.2449 -0.1243  0.0342
11142SOL    HW139388   9.076   2.737   9.143 -0.8467 -0.2696  1.1150
11142SOL    HW239389   9.082   2.834   9.027  0.4052 -2.8095 -1.0738
11143SOL     OW39390   2.947   4.983   2.168 -0.3722  0.0505  0.3554
11143SOL    HW139391   3.012   5.052   2.156 -1.4081  1.0835  0.5647
11143SOL    HW239392   2.999   4.905   2.191  0.9426  0.3061 -1.5677
11144SOL     OW39393   6.993   7.395   1.416  0.6414 -0.3447  0.0656
11144SOL    HW139394   7.020   7.387   1.507 -0.1210 -0.6830  0.2730
11144SOL    HW239395   6.903   7.426   1.420  0.2865 -1.2382 -0.5347
11145SOL     OW39396   9.229   8.280   8.796  0.1746  0.5745 -0.0194
11145SOL    HW139397   9.299   8.218   8.818 -0.2660  0.1398  0.1827
11145SOL    HW239398   9.246   8.357   8.850 -1.0916 -0.6003  2.1919
11146SOL     OW39399   9.167   6.966   6.607 -0.0944 -0.8469  0.2486
11146SOL    HW139400   9.205   6.986   6.693 -0.2010  1.5164 -0.2000
11146SOL    HW239401   9.242   6.966   6.548 -0.1699 -1.3373  0.1493
11147SOL     OW39402   8.903   1.029   1.049 -0.4727  0.1899 -0.0229
11147SOL    HW139403   8.941   1.001   0.966 -1.7382  0.3695 -0.6989
11147SOL    HW239404   8.815   1.060   1.026 -1.9185 -2.2749  1.7267
11148SOL     OW39405   6.519   5.144   2.716  0.2669  0.3892 -0.1702
11148SOL    HW139406   6.491   5.229   2.683  0.6990  1.1826  1.4321
11148SOL    HW239407   6.487   5.082   2.650 -2.0835  1.5578 -0.2466
11149SOL     OW39408   1.011   0.357   9.113 -0.2536  0.2281  0.0320
11149SOL    HW139409   1.050   0.334   9.197 -0.5225 -2.1141 -0.3971
11149SOL    HW239410   1.085   0.388   9.060 -0.2187  2.4891  1.3237
11150SOL     OW39411   7.979   8.387   2.591  0.2155  0.0518  0.5864
11150SOL    HW139412   8.037   8.313   2.578 -0.9208 -0.5810 -1.3193
11150SOL    HW239413   7.983   8.435   2.508 -3.0366 -0.8509 -0.2184
11151SOL     OW39414   8.034   3.495   0.734 -0.1495 -0.0337  0.0728
11151SOL    HW139415   8.115   3.506   0.685  0.0199  1.8296  0.6866
11151SOL    HW239416   7.970   3.547   0.686 -0.7212 -0.6037  0.1997
11152SOL     OW39417   8.827   1.936   2.133 -0.2515 -0.5540  1.0431
11152SOL    HW139418   8.837   1.910   2.225 -2.4921 -0.3976  1.3842
11152SOL    HW239419   8.807   1.854   2.087 -1.1900 -0.3576  1.0764
11153SOL     OW39420   6.579   4.060   6.119 -0.1313 -0.6218  0.1138
11153SOL    HW139421   6.651   4.012   6.079 -1.0024 -1.7518 -0.1644
11153SOL    HW239422   6.596   4.152   6.098  1.7803 -0.7381  0.9846
11154SOL     OW39423   7.029   1.104   7.689  0.3620  0.0975  0.3702
11154SOL    HW139424   7.117   1.068   7.682  1.4491  2.3720  1.3994
11154SOL    HW239425   7.036   1.175   7.753 -2.4298 -0.2149  1.1869
11155SOL     OW39426   4.910   7.361   1.823 -0.7881  0.2824  0.2072
11155SOL    HW139427   4.939   7.381   1.735 -2.5872 -0.8947 -0.7310
11155SOL    HW239428   4.898   7.446   1.865  0.8389  0.8293 -0.4002
11156SOL     OW39429   7.178   1.236   7.480 -0.5151  0.6966  0.5073
11156SOL    HW139430   7.128   1.296   7.534  0.2973 -0.2123  2.3689
11156SOL    HW239431   7.261   1.226   7.526  0.5362  0.4515 -1.3312
11157SOL     OW39432   8.300   2.755   7.144  0.1157  0.1448 -0.3012
11157SOL    HW139433   8.273   2.835   7.098 -1.0012  0.6994  1.2545
11157SOL    HW239434   8.328   2.696   7.073 -0.6544  1.2884 -1.6225
11158SOL     OW39435   9.285   1.257   0.701 -0.1231 -0.0734  0.1807
11158SOL    HW139436   9.353   1.324   0.696 -0.8662  0.7991  1.2664
11158SOL    HW239437   9.207   1.299   0.665 -0.6237 -0.2838  0.9782
11159SOL     OW39438   4.909   2.793   1.134 -0.1909  0.7425 -0.6159
11159SOL    HW139439   4.931   2.733   1.063 -0.8873  1.4226 -1.4455
11159SOL    HW239440   4.813   2.800   1.130 -0.1986  1.0934  0.1348
11160SOL     OW39441   4.260   1.559   6.106 -0.8638  0.7598  0.0366
11160SOL    HW139442   4.200   1.486   6.114 -1.5574  1.3601  0.4186
11160SOL    HW239443   4.239   1.600   6.022  0.1818 -0.0373 -0.6440
11161SOL     OW39444   8.767   9.291   2.858  0.0110  0.0311  0.0887
11161SOL    HW139445   8.813   9.259   2.936 -0.4450 -0.0348  0.3349
11161SOL    HW239446   8.837   9.305   2.794  0.5112  1.0222  0.8202
11162SOL     OW39447   2.963   0.586   3.086  0.0925 -0.7880 -0.1563
11162SOL    HW139448   3.019   0.511   3.108  0.2138 -0.5223  0.4704
11162SOL    HW239449   2.874   0.556   3.102  0.2299 -0.2417  1.8968
11163SOL     OW39450   8.830   0.542   6.058 -0.6933  0.3790 -0.1729
11163SOL    HW139451   8.754   0.567   6.111 -1.3173 -0.3556 -0.7012
11163SOL    HW239452   8.794   0.483   5.991  0.3012  0.2342 -0.5902
11164SOL     OW39453   3.800   6.320   8.472 -0.3410  0.3203 -0.1232
11164SOL    HW139454   3.816   6.287   8.383  0.8014  3.0437 -1.0547
11164SOL    HW239455   3.712   6.357   8.469 -0.9477 -1.0295  0.4084
11165SOL     OW39456   0.770   1.415   3.230  0.1652 -0.0872 -1.0581
11165SOL    HW139457   0.803   1.336   3.271  0.0110  0.0155 -0.7369
11165SOL    HW239458   0.722   1.460   3.299 -1.4409 -0.6838 -1.7358
11166SOL     OW39459   7.395   8.956   5.085  0.3560  0.0159  0.0934
11166SOL    HW139460   7.470   8.915   5.041 -0.1797  1.1973 -2.0818
11166SOL    HW239461   7.414   9.050   5.083 -0.8439  0.2748  0.1739
11167SOL     OW39462   0.412   8.036   3.762 -0.0874 -0.2431 -0.2392
11167SOL    HW139463   0.428   7.959   3.816 -0.5592 -0.8529 -0.9614
11167SOL    HW239464   0.450   8.015   3.677  1.8094  1.2059  0.1644
11168SOL     OW39465   1.886   5.044   4.044 -0.3512  0.6943 -0.0113
11168SOL    HW139466   1.873   4.972   3.982 -0.2653 -0.9170  1.7276
11168SOL    HW239467   1.815   5.034   4.107 -0.4463  2.2827  0.1600
11169SOL     OW39468   6.710   2.603   2.544  0.0703  0.4120  0.1627
11169SOL    HW139469   6.794   2.648   2.540 -0.3839  1.1837 -2.3919
11169SOL    HW239470   6.732   2.512   2.564  1.6302  0.3953 -1.3750
11170SOL     OW39471   2.509   2.907   3.541  0.1810 -0.1585  0.4366
11170SOL    HW139472   2.497   3.002   3.541  2.7618  0.2287  1.2598
11170SOL    HW239473   2.495   2.881   3.632 -0.2078 -0.5494  0.2700
11171SOL     OW39474   0.317   5.686   0.340 -0.5739 -0.0823 -0.1965
11171SOL    HW139475   0.328   5.705   0.433  0.8602  0.8190 -0.5110
11171SOL    HW239476   0.270   5.762   0.305  0.2546  0.3124 -0.4717
11172SOL     OW39477   2.623   6.287   9.183  0.2014 -0.3577 -0.1645
11172SOL    HW139478   2.703   6.320   9.142  0.8991  0.0501  1.4405
11172SOL    HW239479   2.655   6.230   9.253 -0.8943  0.0731  0.7086
11173SOL     OW39480   6.385   0.462   9.230 -0.1281 -0.1616 -0.8170
11173SOL    HW139481   6.449   0.443   9.161 -1.1594 -1.8052 -1.3934
11173SOL    HW239482   6.303   0.476   9.184 -0.9245 -1.6909  0.0449
11174SOL     OW39483   4.780   2.891   9.083 -0.3385  0.0064  0.5388
11174SOL    HW139484   4.852   2.859   9.030 -0.6356 -0.6485  0.5294
11174SOL    HW239485   4.734   2.812   9.112 -1.7340  0.4354 -0.3956
11175SOL     OW39486   5.733   0.471   8.467  0.4904  0.2934 -0.3488
11175SOL    HW139487   5.808   0.529   8.458  0.4120  0.3304 -0.7885
11175SOL    HW239488   5.700   0.488   8.555 -0.0997  1.6169 -0.7973
11176SOL     OW39489   7.871   0.758   0.953  0.3776 -0.0322  0.7155
11176SOL    HW139490   7.795   0.790   1.002 -1.1474 -0.6318 -1.1352
11176SOL    HW239491   7.866   0.663   0.960 -0.1352 -0.1548 -0.8954
11177SOL     OW39492   8.917   2.597   4.811 -0.0645 -0.8385 -0.5365
11177SOL    HW139493   8.846   2.649   4.848  0.3933 -1.1315  0.7909
11177SOL    HW239494   8.991   2.610   4.871  0.5915 -1.6267 -1.1423
11178SOL     OW39495   7.658   7.781   8.382 -0.1880 -0.4889 -0.4703
11178SOL    HW139496   7.750   7.800   8.365 -0.0904 -0.8379 -0.3316
11178SOL    HW239497   7.622   7.865   8.411  0.3714 -0.6299  0.6718
11179SOL     OW39498   3.856   4.449   8.852 -0.3203  0.2252 -0.2952
11179SOL    HW139499   3.844   4.446   8.946 -0.0158 -0.2893 -0.2674
11179SOL    HW239500   3.951   4.443   8.840 -0.4117 -0.6614 -0.6596
11180SOL     OW39501   3.197   5.420   8.571 -0.1748  0.4128 -0.2358
11180SOL    HW139502   3.236   5.334   8.583 -1.2232 -0.1452 -0.6859
11180SOL    HW239503   3.173   5.448   8.659 -0.8487 -0.2646 -0.1927
11181SOL     OW39504   6.162   7.990   5.592 -0.2034 -0.2478 -0.2933
11181SOL    HW139505   6.103   8.050   5.547  0.7633  0.2609 -0.9269
11181SOL    HW239506   6.108   7.913   5.613 -1.0522  0.1666 -0.9142
11182SOL     OW39507   4.554   2.584   9.130 -0.1104 -0.6793 -0.0365
11182SOL    HW139508   4.522   2.664   9.172  1.7226 -0.1239  0.3905
11182SOL    HW239509   4.540   2.598   9.037  2.9766  1.5755 -0.3006
11183SOL     OW39510   5.302   7.180   6.722  0.0670 -0.0429 -0.4554
11183SOL    HW139511   5.362   7.253   6.710 -0.1911  0.0196 -1.4095
11183SOL    HW239512   5.346   7.124   6.786  0.0933  1.1171  0.5814
11184SOL     OW39513   3.011   2.953   0.781 -0.3269  0.3140 -0.1124
11184SOL    HW139514   3.029   3.031   0.834 -1.2560  0.7058 -0.3515
11184SOL    HW239515   3.050   2.972   0.696 -0.3320  0.4094 -0.0933
11185SOL     OW39516   6.081   4.562   5.748 -0.0045  0.2643  0.6985
11185SOL    HW139517   6.077   4.536   5.656  0.9447  0.2122  0.6659
11185SOL    HW239518   6.174   4.556   5.771  0.0798  2.3635  1.0727
11186SOL     OW39519   8.588   8.305   2.462  0.3900  0.1384  0.0772
11186SOL    HW139520   8.597   8.246   2.386 -1.3094 -1.6517  1.1685
11186SOL    HW239521   8.518   8.365   2.438 -1.3760 -1.5359  0.8032
11187SOL     OW39522   8.519   0.842   3.585  0.2978 -0.0695  0.4197
11187SOL    HW139523   8.503   0.791   3.506  0.2148  1.1473 -0.3617
11187SOL    HW239524   8.553   0.778   3.648  0.2681 -1.0693 -0.5574
11188SOL     OW39525   5.871   4.470   7.366 -0.2315  0.0517 -0.2532
11188SOL    HW139526   5.964   4.461   7.345 -0.4674 -0.0913 -1.3009
11188SOL    HW239527   5.832   4.387   7.339 -0.8039  0.4480 -0.6737
11189SOL     OW39528   3.838   8.562   0.998 -0.0334 -0.2488  0.0746
11189SOL    HW139529   3.865   8.585   0.910 -1.0037 -1.9371 -0.7116
11189SOL    HW239530   3.750   8.524   0.988 -0.0975 -0.6480  1.7246
11190SOL     OW39531   2.997   2.801   1.006 -0.4675  0.3548  0.3896
11190SOL    HW139532   3.021   2.840   0.922 -2.1333  2.2846  0.7418
11190SOL    HW239533   3.081   2.774   1.045  0.4101  0.3284 -1.4327
11191SOL     OW39534   9.140   5.222   8.642  0.2203  0.1688 -0.0443
11191SOL    HW139535   9.143   5.126   8.650  1.8356  0.1717 -0.2796
11191SOL    HW239536   9.204   5.242   8.574  0.1687  1.4520  0.2621
11192SOL     OW39537   6.718   8.932   4.806 -0.3760 -0.5881  0.7513
11192SOL    HW139538   6.738   8.987   4.882 -0.0731  0.0906  0.1860
11192SOL    HW239539   6.766   8.972   4.734  1.8921 -2.9953  0.7947
11193SOL     OW39540   3.720   6.760   7.361  0.3515  0.0426  0.6733
11193SOL    HW139541   3.667   6.740   7.283  0.9753  1.1086 -0.0500
11193SOL    HW239542   3.712   6.682   7.416  1.8011 -1.7375 -1.4889
11194SOL     OW39543   8.783   4.779   7.317 -0.3045 -0.2992  0.6835
11194SOL    HW139544   8.777   4.705   7.377 -0.3336 -0.7047  0.1893
11194SOL    HW239545   8.860   4.760   7.264 -0.7299 -0.3424  0.0748
11195SOL     OW39546   3.747   4.288   1.271  0.4109 -0.8356 -0.8376
11195SOL    HW139547   3.753   4.193   1.284  2.8789 -0.8646 -1.7042
11195SOL    HW239548   3.828   4.311   1.226  0.1561  1.8012 -0.0890
11196SOL     OW39549   7.344   7.676   2.139  0.1988  0.1885 -0.0286
11196SOL    HW139550   7.308   7.622   2.069  0.4020 -0.6938  0.5398
11196SOL    HW239551   7.416   7.626   2.174 -0.1060  0.4678  1.0391
11197SOL     OW39552   0.685   3.443   0.998 -0.0052  0.3981 -0.8843
11197SOL    HW139553   0.671   3.525   1.045  0.7429  0.3940 -0.6476
11197SOL    HW239554   0.747   3.464   0.929 -2.0803  0.7149 -2.7855
11198SOL     OW39555   3.332   6.046   8.894  0.0371  0.3312 -0.0795
11198SOL    HW139556   3.285   5.985   8.951  0.0117 -1.0534 -1.4866
11198SOL    HW239557   3.274   6.121   8.884 -1.5077 -0.9177 -0.9966
11199SOL     OW39558   7.761   6.781   7.649 -0.0011 -0.4623 -0.2519
11199SOL    HW139559   7.706   6.838   7.703 -0.9148 -1.4112 -0.1432
11199SOL    HW239560   7.808   6.726   7.713 -2.0374 -2.4746 -0.3566
11200SOL     OW39561   3.817   3.562   1.302  0.4613 -0.5844 -0.0330
11200SOL    HW139562   3.739   3.540   1.353  0.1061 -0.0289 -0.3250
11200SOL    HW239563   3.876   3.603   1.366  0.6156 -1.2262  0.2397
11201SOL     OW39564   2.323   3.134   0.812 -0.1434  0.6120  0.6837
11201SOL    HW139565   2.328   3.129   0.717 -0.1903  0.8912  0.6644
11201SOL    HW239566   2.321   3.043   0.841 -0.8714  0.5240  0.3759
11202SOL     OW39567   8.306   3.434   1.195 -0.2230 -0.3707 -0.1222
11202SOL    HW139568   8.249   3.373   1.241  1.8499 -2.8884 -0.6078
11202SOL    HW239569   8.296   3.412   1.102 -0.7197  1.2774 -0.4946
11203SOL     OW39570   7.017   0.653   6.080  0.0973  0.0281  0.5801
11203SOL    HW139571   6.996   0.612   6.164 -1.9706  1.8647  1.0519
11203SOL    HW239572   7.095   0.707   6.098  2.8786 -3.3803 -0.0579
11204SOL     OW39573   4.685   3.329   3.276 -0.7246  0.0765  0.2100
11204SOL    HW139574   4.629   3.328   3.199  0.0126 -0.4653 -0.3334
11204SOL    HW239575   4.769   3.293   3.246 -0.7533 -1.2086  1.5135
11205SOL     OW39576   8.206   9.102   4.978 -0.3777  0.2761 -0.3747
11205SOL    HW139577   8.241   9.127   4.893  0.2508 -0.5791 -0.3764
11205SOL    HW239578   8.223   9.008   4.985 -0.4145  0.3347  0.6974
11206SOL     OW39579   4.658   7.627   7.642 -0.2760 -1.0224  0.6227
11206SOL    HW139580   4.632   7.674   7.722 -0.6922 -0.2269  0.0354
11206SOL    HW239581   4.578   7.619   7.591  0.1412 -0.7382 -0.1033
11207SOL     OW39582   0.785   6.200   3.042  0.4091 -0.5547  0.0052
11207SOL    HW139583   0.851   6.131   3.051  0.8192 -0.0120  1.3387
11207SOL    HW239584   0.835   6.282   3.043 -0.2602 -0.1391  0.9728
11208SOL     OW39585   3.482   8.868   0.862  0.0674 -0.5116  0.2313
11208SOL    HW139586   3.506   8.828   0.945 -1.0668 -2.5117 -0.3408
11208SOL    HW239587   3.401   8.824   0.837 -0.6235  1.3724 -1.0352
11209SOL     OW39588   3.450   0.118   5.421  0.2053  0.5150  0.1184
11209SOL    HW139589   3.518   0.072   5.373  0.8672 -0.2203  1.7136
11209SOL    HW239590   3.389   0.050   5.448 -1.1063  1.1418 -1.1344
11210SOL     OW39591   6.749   3.794   4.428  0.1133  0.0650  0.7053
11210SOL    HW139592   6.706   3.832   4.505  2.0193  2.6021  0.6293
11210SOL    HW239593   6.833   3.839   4.422  1.4743 -2.4476 -0.9752
11211SOL     OW39594   6.896   3.215   1.577 -0.4225 -0.4714 -0.1439
11211SOL    HW139595   6.931   3.206   1.666  0.7892  0.2557 -0.5328
11211SOL    HW239596   6.889   3.309   1.563 -0.6501 -0.5826 -0.8110
11212SOL     OW39597   6.353   4.441   1.969 -0.3270  0.0049  0.2380
11212SOL    HW139598   6.274   4.458   2.020  0.3741  0.2026  1.2838
11212SOL    HW239599   6.347   4.502   1.895 -3.0189 -2.5622 -1.8729
11213SOL     OW39600   4.146   4.685   7.683  0.4607  0.3129 -0.3035
11213SOL    HW139601   4.218   4.743   7.704 -0.2381  1.1886 -0.2491
11213SOL    HW239602   4.186   4.598   7.675  1.1779  0.3981  1.8499
11214SOL     OW39603   1.210   0.476   7.130  0.0604 -0.5676 -0.1929
11214SOL    HW139604   1.124   0.513   7.109 -0.2994 -1.1188  0.2760
11214SOL    HW239605   1.190   0.393   7.174  0.8466 -1.2992 -1.1675
11215SOL     OW39606   8.856   2.479   9.139 -0.1848 -0.2803 -0.2548
11215SOL    HW139607   8.792   2.432   9.193  1.9315 -1.6622  1.2056
11215SOL    HW239608   8.852   2.569   9.172  0.1863 -0.8429  1.4595
11216SOL     OW39609   2.087   4.507   4.141 -0.3676 -0.0449  0.1633
11216SOL    HW139610   2.069   4.425   4.187  1.5274 -0.5177  0.1698
11216SOL    HW239611   2.061   4.576   4.202 -0.5066 -0.6520  0.8018
11217SOL     OW39612   5.611   7.888   6.687 -0.6559 -0.1348  0.3256
11217SOL    HW139613   5.696   7.883   6.642 -1.4177 -0.9197 -1.0878
11217SOL    HW239614   5.611   7.814   6.747 -0.1106  0.2217  0.7786
11218SOL     OW39615   8.174   0.273   5.685 -0.1454 -0.4351  0.6989
11218SOL    HW139616   8.099   0.277   5.744  0.8050 -3.6303  2.3756
11218SOL    HW239617   8.229   0.348   5.709 -1.5716  0.4805  1.1769
11219SOL     OW39618   5.647   4.426   2.801 -0.0622  0.7612 -0.2069
11219SOL    HW139619   5.576   4.440   2.739 -0.4622  0.2795  0.1341
11219SOL    HW239620   5.646   4.332   2.819 -0.0543  0.9073  0.6375
11220SOL     OW39621   4.476   6.287   8.529 -0.0520  0.3388  0.2010
11220SOL    HW139622   4.568   6.266   8.516  0.1520 -0.2652  2.2289
11220SOL    HW239623   4.476   6.381   8.547  0.0624  0.4835 -0.5220
11221SOL     OW39624   8.804   7.480   8.582 -0.0779 -0.2292 -0.1793
11221SOL    HW139625   8.836   7.508   8.496 -1.2350 -0.7784 -0.8184
11221SOL    HW239626   8.708   7.487   8.575 -0.3092 -2.3260  0.3199
11222SOL     OW39627   7.648   0.120   5.439 -0.1139  0.0848 -0.7512
11222SOL    HW139628   7.628   0.028   5.453 -0.0997  0.0325 -1.0866
11222SOL    HW239629   7.734   0.133   5.478  0.6139 -0.4135 -2.1483
11223SOL     OW39630   0.421   9.360   2.342 -0.4159  0.2854  0.0727
11223SOL    HW139631   0.478   9.309   2.399 -0.4650 -0.0766 -0.1960
11223SOL    HW239632   0.359   9.403   2.401 -0.6214 -0.2807  0.2790
11224SOL     OW39633   4.886   7.192   5.426  0.7376 -0.2511 -0.2807
11224SOL    HW139634   4.842   7.210   5.509  0.2299  1.5674 -0.8873
11224SOL    HW239635   4.977   7.173   5.450  0.0257 -2.5289  0.8666
11225SOL     OW39636   5.445   4.938   6.071 -0.1692 -0.4611 -0.0401
11225SOL    HW139637   5.360   4.982   6.061  0.7099  1.1616 -0.8474
11225SOL    HW239638   5.490   4.954   5.988  1.5971  0.2574  0.9982
11226SOL     OW39639   8.650   2.764   4.488 -0.1815 -0.4631  0.1224
11226SOL    HW139640   8.617   2.686   4.443  0.2846 -0.0967 -0.9007
11226SOL    HW239641   8.688   2.817   4.418  1.2984 -0.2340  1.0532
11227SOL     OW39642   5.772   5.307   9.088  0.0740  0.1754  0.4430
11227SOL    HW139643   5.787   5.330   9.180  0.0353 -0.4778  0.6203
11227SOL    HW239644   5.725   5.382   9.052 -2.9777 -0.8978  1.8322
11228SOL     OW39645   1.547   5.247   8.250  0.2226  0.5474 -0.3306
11228SOL    HW139646   1.471   5.199   8.282  0.1751  0.0773 -1.1427
11228SOL    HW239647   1.621   5.210   8.299  0.2116 -0.5017 -1.0775
11229SOL     OW39648   6.772   8.483   2.149  0.4158  0.7102 -1.0045
11229SOL    HW139649   6.762   8.567   2.106  0.2668  0.7670 -0.8603
11229SOL    HW239650   6.722   8.422   2.094 -1.4258  1.1329  0.1254
11230SOL     OW39651   5.385   3.989   0.560 -0.3500 -0.0354  0.4947
11230SOL    HW139652   5.344   3.906   0.585 -0.6254  0.6661  2.5649
11230SOL    HW239653   5.478   3.968   0.549 -0.4554 -0.6763  0.7727
11231SOL     OW39654   7.099   9.307   4.419 -0.2219  0.0983 -0.2723
11231SOL    HW139655   7.104   9.384   4.477 -1.2472  0.5802 -0.8050
11231SOL    HW239656   7.116   9.233   4.477 -1.3203  0.5614  0.6891
11232SOL     OW39657   8.511   2.328   7.157 -0.5893  0.5296  0.4863
11232SOL    HW139658   8.473   2.268   7.093 -0.4709  1.7773 -0.7985
11232SOL    HW239659   8.577   2.275   7.203 -0.0241 -0.1626 -1.0530
11233SOL     OW39660   4.501   0.898   0.117 -0.3746 -1.1190 -0.1377
11233SOL    HW139661   4.559   0.827   0.091  0.8716 -0.6874  1.3443
11233SOL    HW239662   4.438   0.857   0.176  0.9809 -0.8669  1.5667
11234SOL     OW39663   0.580   0.305   3.043  0.0373  0.1888  0.6379
11234SOL    HW139664   0.560   0.390   3.081 -1.2970  0.5964 -0.8617
11234SOL    HW239665   0.496   0.272   3.012  0.7411 -1.0524 -0.0555
11235SOL     OW39666   7.436   2.704   5.124 -0.2542  0.2386 -0.3628
11235SOL    HW139667   7.504   2.638   5.108 -1.1721 -1.0477  0.8344
11235SOL    HW239668   7.354   2.661   5.100 -0.8955  0.8609  0.6240
11236SOL     OW39669   9.368   3.729   2.047 -0.0672 -0.2124  0.0091
11236SOL    HW139670   9.322   3.773   1.976  0.0426 -0.3149 -0.1244
11236SOL    HW239671   9.367   3.636   2.023 -0.2751 -0.2821  0.2750
11237SOL     OW39672   7.987   2.100   3.230  0.4114  0.1546 -0.1803
11237SOL    HW139673   8.081   2.081   3.235 -0.1322 -4.0141 -1.8503
11237SOL    HW239674   7.952   2.064   3.311 -0.1001 -2.1911 -1.3507
11238SOL     OW39675   5.775   6.092   8.414 -0.0115 -0.2916 -0.4006
11238SOL    HW139676   5.846   6.109   8.352 -0.4552 -1.0383 -1.1365
11238SOL    HW239677   5.792   6.003   8.445 -0.1451 -0.1520  0.0710
11239SOL     OW39678   5.844   9.286   2.961 -0.3271 -0.0535  0.1226
11239SOL    HW139679   5.924   9.297   3.014 -0.3523 -1.4495  0.5087
11239SOL    HW239680   5.777   9.262   3.025 -0.1542 -2.7006 -0.5598
11240SOL     OW39681   6.635   7.600   2.026  0.7106  0.0195 -0.1116
11240SOL    HW139682   6.707   7.539   2.037 -0.2189 -1.6085 -2.2383
11240SOL    HW239683   6.659   7.652   1.949  1.0255  1.7198  1.0792
11241SOL     OW39684   3.769   7.686   8.286 -0.1412 -0.3893 -0.7562
11241SOL    HW139685   3.711   7.611   8.272  0.9187 -1.4551  0.3879
11241SOL    HW239686   3.747   7.717   8.374  0.1146  0.0228 -0.8383
11242SOL     OW39687   4.374   7.611   7.557  0.6757  0.0664  0.1579
11242SOL    HW139688   4.373   7.515   7.560  1.1676  0.0564  0.1750
11242SOL    HW239689   4.347   7.639   7.644  0.7481 -0.0590  0.2203
11243SOL     OW39690   2.606   5.741   3.890 -0.2729  0.3801  0.6522
11243SOL    HW139691   2.670   5.754   3.821  0.1552  1.2639  1.1948
11243SOL    HW239692   2.546   5.674   3.855  0.3176  0.3194 -0.2841
11244SOL     OW39693   2.590   3.368   9.098 -0.3118  0.6075 -0.4103
11244SOL    HW139694   2.593   3.406   9.186  0.6504 -0.2256 -0.0640
11244SOL    HW239695   2.561   3.278   9.112 -0.7068  0.6363 -1.0175
11245SOL     OW39696   6.353   3.271   4.256  0.5464 -0.2767 -0.1342
11245SOL    HW139697   6.381   3.357   4.225 -1.4135  0.7080  0.6579
11245SOL    HW239698   6.349   3.217   4.177  0.6456  0.7054 -0.8312
11246SOL     OW39699   8.287   6.435   3.159  0.4538  0.8087  0.1517
11246SOL    HW139700   8.360   6.434   3.097  0.4607 -0.7624  0.1502
11246SOL    HW239701   8.214   6.395   3.110  0.1035  0.7062  0.7490
11247SOL     OW39702   0.523   6.491   4.411  0.3837 -0.2379 -0.4799
11247SOL    HW139703   0.439   6.477   4.455  0.6519  0.4909  0.2928
11247SOL    HW239704   0.500   6.539   4.331  0.3355  3.3222  1.4916
11248SOL     OW39705   7.576   2.850   9.047  0.1145 -0.0406 -0.9214
11248SOL    HW139706   7.528   2.857   8.965 -3.0924  0.7190  0.8587
11248SOL    HW239707   7.651   2.909   9.036 -1.7760  2.2766 -2.3419
11249SOL     OW39708   7.786   1.026   9.171 -0.4379 -0.0235 -0.9226
11249SOL    HW139709   7.713   1.086   9.153 -0.7303  0.5253  1.6550
11249SOL    HW239710   7.859   1.084   9.195 -0.5445 -0.6421  1.0156
11250SOL     OW39711   4.704   7.292   3.696 -0.2729  0.0104 -0.1232
11250SOL    HW139712   4.787   7.340   3.691  0.2383 -0.9307 -0.8042
11250SOL    HW239713   4.700   7.241   3.616 -0.3838 -1.7558  0.9431
11251SOL     OW39714   2.207   8.090   0.621 -0.2789 -0.4924 -0.7608
11251SOL    HW139715   2.149   8.020   0.590 -0.4568 -0.4161 -0.6053
11251SOL    HW239716   2.224   8.067   0.713 -0.1559 -0.4513 -0.7733
11252SOL     OW39717   5.051   1.526   8.876 -0.2870  0.2530  0.7202
11252SOL    HW139718   5.118   1.572   8.826 -0.9067  0.7037  0.2941
11252SOL    HW239719   5.018   1.590   8.939 -2.0260  0.8232 -0.7041
11253SOL     OW39720   4.694   7.571   8.591  0.2383  0.3802  1.2425
11253SOL    HW139721   4.677   7.572   8.497 -0.8342  0.9763  1.4277
11253SOL    HW239722   4.790   7.566   8.598  0.2626 -1.1136  0.1497
11254SOL     OW39723   2.829   6.019   5.390  0.3732 -0.6383  0.1266
11254SOL    HW139724   2.875   5.999   5.471  0.6355 -0.7421 -0.0479
11254SOL    HW239725   2.779   6.098   5.410  0.7028 -0.4693  0.2881
11255SOL     OW39726   0.659   3.159   0.174 -0.6419  0.0487  0.0196
11255SOL    HW139727   0.714   3.210   0.115  0.5927 -1.0163  0.2067
11255SOL    HW239728   0.646   3.217   0.250 -0.1725  0.4923 -0.2298
11256SOL     OW39729   2.689   4.590   3.906  0.6458  0.1300 -0.2693
11256SOL    HW139730   2.740   4.559   3.831  2.2282  0.3535  0.6695
11256SOL    HW239731   2.646   4.670   3.874  3.1053  1.5232 -0.3676
11257SOL     OW39732   1.759   4.153   4.221  0.1133 -0.7569  0.4397
11257SOL    HW139733   1.679   4.191   4.259 -0.5859 -1.8281  0.0664
11257SOL    HW239734   1.728   4.103   4.146  1.4329  1.0242 -1.3963
11258SOL     OW39735   7.108   8.460   5.811 -0.1015  0.0480 -0.1998
11258SOL    HW139736   7.043   8.396   5.840 -0.0565  0.1122  0.0412
11258SOL    HW239737   7.097   8.535   5.870 -1.8905  1.3193 -2.0153
11259SOL     OW39738   5.394   1.978   0.678 -0.7484  0.1982  0.5020
11259SOL    HW139739   5.377   2.040   0.607 -0.8306  1.2093  1.3795
11259SOL    HW239740   5.308   1.939   0.696 -0.5048 -0.9960 -0.7683
11260SOL     OW39741   1.673   0.189   5.788  0.3849  0.3409 -0.6310
11260SOL    HW139742   1.714   0.187   5.875  0.1458 -0.5120 -0.5248
11260SOL    HW239743   1.628   0.273   5.784  0.8888  0.6388 -0.1608
11261SOL     OW39744   8.361   6.882   7.044 -0.5065 -0.3926 -0.1696
11261SOL    HW139745   8.368   6.967   7.087 -0.2453 -0.3815 -0.2372
11261SOL    HW239746   8.428   6.828   7.087 -0.1830 -0.3557 -0.6274
11262SOL     OW39747   3.044   0.205   4.180 -0.1307  1.3155 -0.4552
11262SOL    HW139748   2.994   0.229   4.102 -2.5295  1.3443  1.0055
11262SOL    HW239749   3.049   0.286   4.231  1.5331  1.3327 -0.5855
11263SOL     OW39750   9.107   8.088   0.384  0.5951 -0.3733 -0.3421
11263SOL    HW139751   9.119   8.166   0.329 -1.0373 -0.4247 -0.8101
11263SOL    HW239752   9.166   8.023   0.346  0.6954  0.0949 -1.0217
11264SOL     OW39753   7.143   1.012   0.731  0.5373  0.2573 -0.2102
11264SOL    HW139754   7.099   1.020   0.647 -0.2613  1.5185  0.3007
11264SOL    HW239755   7.205   0.940   0.719 -0.9921 -0.9466 -1.2326
11265SOL     OW39756   6.567   5.213   8.203 -0.0713 -0.4921 -0.1922
11265SOL    HW139757   6.517   5.141   8.165 -0.9919 -0.2929  0.6157
11265SOL    HW239758   6.511   5.249   8.271  0.4538  0.8651 -0.4280
11266SOL     OW39759   0.558   3.766   5.348  0.2541 -0.6306 -0.4848
11266SOL    HW139760   0.639   3.735   5.390 -0.5234 -1.4453  0.4375
11266SOL    HW239761   0.488   3.724   5.397 -0.8821  2.2979  0.6766
11267SOL     OW39762   5.933   6.622   6.693  0.3587  0.3263  0.0504
11267SOL    HW139763   6.000   6.658   6.635 -0.1024 -0.0820 -0.7471
11267SOL    HW239764   5.971   6.539   6.724  0.5618  0.4934  0.2499
11268SOL     OW39765   6.595   5.422   1.717  0.5540 -0.1586 -0.4309
11268SOL    HW139766   6.555   5.480   1.782  1.4742  1.3667 -1.1814
11268SOL    HW239767   6.676   5.466   1.692 -0.3603 -0.0314 -3.5342
11269SOL     OW39768   1.950   3.061   0.029  0.5532 -0.0099 -0.1120
11269SOL    HW139769   1.928   3.038  -0.061 -0.7039  2.4035 -0.4849
11269SOL    HW239770   2.012   3.133   0.020  1.1124 -0.3397  0.9816
11270SOL     OW39771   9.218   1.732   8.538 -0.2228 -0.0458 -0.2203
11270SOL    HW139772   9.285   1.729   8.606 -0.5889  0.7491  0.1817
11270SOL    HW239773   9.263   1.767   8.461  0.0954 -0.5837 -0.2873
11271SOL     OW39774   1.803   6.800   3.088 -0.3302  0.2215 -0.4844
11271SOL    HW139775   1.852   6.746   3.150  0.5594  1.3825 -0.1370
11271SOL    HW239776   1.745   6.853   3.144  0.3417  1.1376 -0.6404
11272SOL     OW39777   1.437   5.451   1.335  0.7972  0.3416 -0.1713
11272SOL    HW139778   1.387   5.514   1.283  1.4587  2.1872  1.3012
11272SOL    HW239779   1.376   5.380   1.353 -0.9143  1.9060  0.4504
11273SOL     OW39780   5.320   6.031   1.216  0.6011  0.2318  0.0538
11273SOL    HW139781   5.281   5.958   1.265 -0.7985 -0.3750 -1.8566
11273SOL    HW239782   5.360   6.086   1.283 -1.0290 -0.6664  1.8637
11274SOL     OW39783   4.104   0.063   0.297 -0.0239 -0.1810  0.4596
11274SOL    HW139784   4.009   0.065   0.285 -0.0632 -0.0440  0.7762
11274SOL    HW239785   4.116   0.026   0.384  0.2258 -0.4751  0.3033
11275SOL     OW39786   1.203   1.582   6.137 -0.1381  0.1011 -0.2989
11275SOL    HW139787   1.179   1.647   6.071 -0.6711 -0.4208 -0.6372
11275SOL    HW239788   1.196   1.498   6.091  1.3995 -0.1576 -0.1277
11276SOL     OW39789   5.010   8.060   8.176 -0.2365 -0.3158 -0.1141
11276SOL    HW139790   5.061   8.132   8.139 -0.9068 -0.0454 -0.5202
11276SOL    HW239791   4.942   8.041   8.111 -3.6138  2.4060  2.2421
11277SOL     OW39792   7.258   4.411   3.361 -0.4512 -0.1008 -0.8914
11277SOL    HW139793   7.293   4.479   3.304 -0.1308 -0.9331 -1.7116
11277SOL    HW239794   7.322   4.403   3.432 -0.2499  0.1121 -1.0493
11278SOL     OW39795   5.246   0.552   1.064  0.4699  0.0795  0.6694
11278SOL    HW139796   5.297   0.633   1.056  0.5763  0.1510  1.9018
11278SOL    HW239797   5.272   0.500   0.988  1.1127  0.8067  0.3752
11279SOL     OW39798   1.786   5.083   6.279 -0.2408 -0.2457  0.0450
11279SOL    HW139799   1.847   5.010   6.286  0.0710  0.1392  1.9573
11279SOL    HW239800   1.702   5.048   6.310  0.3672  0.6323  3.0207
11280SOL     OW39801   8.963   5.591   0.917  0.0848 -0.2552  0.3671
11280SOL    HW139802   9.013   5.509   0.909 -0.5329 -0.6915  0.8973
11280SOL    HW239803   8.872   5.565   0.900  0.1477  0.7425 -1.8821
11281SOL     OW39804   5.245   3.236   7.703  0.0956  0.1082 -0.2876
11281SOL    HW139805   5.297   3.195   7.773  3.5640  1.3257 -1.9204
11281SOL    HW239806   5.212   3.162   7.652  0.7264 -0.7252  0.4608
11282SOL     OW39807   7.618   1.803   1.533  0.1305  0.2822 -0.4258
11282SOL    HW139808   7.668   1.846   1.463 -1.0908 -1.5325 -2.5620
11282SOL    HW239809   7.527   1.830   1.518  0.0301  1.1485  1.5269
11283SOL     OW39810   8.178   7.453   1.363  0.3666 -0.0828 -0.3012
11283SOL    HW139811   8.105   7.497   1.407 -0.1824 -0.5066 -0.7677
11283SOL    HW239812   8.185   7.368   1.406  1.2433  0.3300  0.4082
11284SOL     OW39813   4.813   6.195   0.229 -0.2397 -0.1729  0.4192
11284SOL    HW139814   4.762   6.274   0.245  0.7714  0.7746 -0.8795
11284SOL    HW239815   4.783   6.134   0.297 -1.3703  1.1415  1.1648
11285SOL     OW39816   3.990   3.622   8.618  0.3439 -0.1684  0.1460
11285SOL    HW139817   3.987   3.570   8.537 -0.9669  0.1411 -0.0290
11285SOL    HW239818   4.082   3.621   8.644  0.6485 -0.9709 -0.8984
11286SOL     OW39819   4.574   5.813   7.898 -0.0691  0.5217 -0.3168
11286SOL    HW139820   4.643   5.875   7.873  0.7933 -0.4990 -0.5453
11286SOL    HW239821   4.613   5.727   7.882 -1.6006 -0.0756 -0.9784
11287SOL     OW39822   4.442   8.865   6.683  0.2128 -0.0342 -0.7750
11287SOL    HW139823   4.457   8.841   6.775  0.7775  0.8699 -0.6147
11287SOL    HW239824   4.365   8.922   6.686 -0.9428 -1.5123 -1.1174
11288SOL     OW39825   7.014   1.647   7.742 -0.1562 -0.6398 -0.2636
11288SOL    HW139826   6.946   1.669   7.805 -0.2622  1.8010 -1.1201
11288SOL    HW239827   7.095   1.677   7.784 -0.2950  1.5878 -1.4323
11289SOL     OW39828   6.643   3.675   4.992 -0.0719  0.1348 -0.4414
11289SOL    HW139829   6.714   3.739   4.991 -1.1869  1.4315 -0.5917
11289SOL    HW239830   6.567   3.723   4.958 -0.8158 -1.4560 -1.1207
11290SOL     OW39831   0.558   9.167   8.780 -0.1805  0.1450  0.5250
11290SOL    HW139832   0.630   9.142   8.839  0.6126  1.2326  0.0436
11290SOL    HW239833   0.559   9.100   8.711  0.3273  0.1256  0.5510
11291SOL     OW39834   0.509   2.511   1.591  0.1230  0.5181 -0.1840
11291SOL    HW139835   0.509   2.430   1.642 -2.5373 -0.2171 -1.1987
11291SOL    HW239836   0.575   2.497   1.523  1.8302  0.4721  1.4134
11292SOL     OW39837   4.916   8.636   2.787  0.1489 -0.2410  0.5990
11292SOL    HW139838   4.959   8.564   2.739 -1.6299  0.8015 -2.9181
11292SOL    HW239839   4.919   8.709   2.726 -3.2780  0.9399  1.6335
11293SOL     OW39840   8.807   1.664   2.054  0.1388  0.0110 -0.0890
11293SOL    HW139841   8.720   1.651   2.016 -0.3478  1.3589  0.4996
11293SOL    HW239842   8.817   1.593   2.118 -1.4241  1.0068  1.3452
11294SOL     OW39843   1.482   4.717   3.742 -0.5748  0.0721  0.2802
11294SOL    HW139844   1.414   4.652   3.755 -0.5748 -0.4686 -1.9634
11294SOL    HW239845   1.485   4.730   3.647 -0.2779  3.0297  0.5778
11295SOL     OW39846   4.202   4.216   9.185  0.0254 -0.6050  0.3087
11295SOL    HW139847   4.153   4.134   9.195 -0.0003 -0.5687  0.4794
11295SOL    HW239848   4.143   4.283   9.220 -2.1457  0.2534 -4.1839
11296SOL     OW39849   5.145   0.600   6.300  0.4291  0.0941 -0.1681
11296SOL    HW139850   5.227   0.558   6.274  0.4337  1.1408 -2.0039
11296SOL    HW239851   5.104   0.538   6.361  2.1996 -0.7972  0.1680
11297SOL     OW39852   5.545   2.860   8.980 -0.1344  0.0735  0.4711
11297SOL    HW139853   5.516   2.903   8.900  1.3831  1.6747  0.7112
11297SOL    HW239854   5.544   2.767   8.960  1.3297  0.4794 -1.8302
11298SOL     OW39855   3.047   8.576   7.704 -0.3023  0.0699  0.2944
11298SOL    HW139856   2.999   8.502   7.741 -0.5857 -0.9503 -1.9373
11298SOL    HW239857   3.045   8.561   7.610  3.1205  0.7777 -0.0294
11299SOL     OW39858   3.186   7.236   2.090  0.0998 -0.1538 -0.6782
11299SOL    HW139859   3.158   7.177   2.160  1.6980  0.4915  0.5681
11299SOL    HW239860   3.193   7.322   2.131  2.1131  0.0414 -1.3025
11300SOL     OW39861   0.631   3.322   8.605 -0.0504  0.7509  0.0810
11300SOL    HW139862   0.667   3.394   8.552  1.6448 -0.1463 -0.0433
11300SOL    HW239863   0.586   3.366   8.677  1.8952  1.9528  0.6246
11301SOL     OW39864   5.498   7.394   9.212  0.2322 -0.1811 -0.7233
11301SOL    HW139865   5.527   7.471   9.261  0.2403  0.3168 -1.4933
11301SOL    HW239866   5.557   7.389   9.137  0.3331 -1.0384 -0.5957
11302SOL     OW39867   2.104   6.413   2.303  0.0158  0.1092  0.1208
11302SOL    HW139868   2.030   6.472   2.290 -1.6363 -1.4410  1.8896
11302SOL    HW239869   2.086   6.369   2.386  2.3767 -1.1736  0.0572
11303SOL     OW39870   0.856   1.400   7.661  0.1315 -0.3452  0.5177
11303SOL    HW139871   0.944   1.418   7.694  0.4236 -1.8549  0.6459
11303SOL    HW239872   0.824   1.329   7.716 -0.5064 -0.9534 -0.6019
11304SOL     OW39873   8.516   5.197   3.073  0.1696 -0.3465  0.2035
11304SOL    HW139874   8.444   5.260   3.070  1.0779  0.7254  0.3521
11304SOL    HW239875   8.581   5.239   3.129  0.4895 -1.7556  0.9163
11305SOL     OW39876   4.683   6.114   0.812  0.4960  0.3551 -0.3168
11305SOL    HW139877   4.759   6.056   0.817  0.7976  0.6147 -1.4845
11305SOL    HW239878   4.632   6.080   0.738 -0.2821  0.4699  0.1554
11306SOL     OW39879   3.211   7.499   0.077  0.2173  0.5261  0.6307
11306SOL    HW139880   3.220   7.423   0.134 -3.2909 -1.2199 -0.8531
11306SOL    HW239881   3.147   7.555   0.121 -0.9225  0.1797 -0.5338
11307SOL     OW39882   7.828   9.178   1.250  0.0193 -0.0146 -0.0751
11307SOL    HW139883   7.810   9.265   1.215 -1.8393 -0.0596  0.6695
11307SOL    HW239884   7.769   9.120   1.203  0.9562 -0.8259 -0.2709
11308SOL     OW39885   5.307   8.329   3.767 -0.4487 -0.1511  0.3889
11308SOL    HW139886   5.333   8.421   3.779 -0.5183 -0.0089 -0.4849
11308SOL    HW239887   5.359   8.281   3.832  0.7403  0.3325 -0.1629
11309SOL     OW39888   5.354   7.553   5.302 -0.0124  0.2554  0.5232
11309SOL    HW139889   5.398   7.559   5.387  1.9765  0.8751 -0.4765
11309SOL    HW239890   5.425   7.560   5.238 -1.3308 -1.2683 -1.1974
11310SOL     OW39891   1.775   1.548   0.673  0.0467 -0.1252 -0.1689
11310SOL    HW139892   1.808   1.637   0.667 -1.1863  0.3422 -0.4966
11310SOL    HW239893   1.772   1.530   0.767  1.4332 -0.2871 -0.1396
11311SOL     OW39894   8.561   6.865   4.091 -0.0754  0.4710 -0.0853
11311SOL    HW139895   8.551   6.912   4.008 -0.9617 -1.1574 -0.9368
11311SOL    HW239896   8.472   6.856   4.124  0.1822  0.2305  0.5588
11312SOL     OW39897   6.089   9.190   3.116  0.2589 -0.3382  0.3779
11312SOL    HW139898   6.134   9.229   3.042 -0.6650  0.0399  0.0041
11312SOL    HW239899   6.136   9.222   3.193  1.3460 -0.8930 -0.0360
11313SOL     OW39900   9.073   0.332   4.826 -0.6267 -0.8114 -0.0539
11313SOL    HW139901   9.006   0.399   4.811 -1.2670 -1.5624 -0.6061
11313SOL    HW239902   9.023   0.253   4.848 -0.0680 -1.9238 -2.4463
11314SOL     OW39903   4.378   6.584   8.389 -0.8437 -0.1877 -0.1603
11314SOL    HW139904   4.437   6.604   8.462 -1.0890  0.6804 -0.1846
11314SOL    HW239905   4.292   6.617   8.419 -0.6771  1.4826 -1.3807
11315SOL     OW39906   4.679   3.465   7.888 -0.0751  0.1226 -0.1482
11315SOL    HW139907   4.681   3.434   7.979  0.8456  2.6684  0.7997
11315SOL    HW239908   4.587   3.479   7.869 -0.2524 -0.0270  0.5609
11316SOL     OW39909   5.891   5.217   6.250  0.8996 -0.1644  0.8148
11316SOL    HW139910   5.853   5.136   6.285  0.7852  0.0371  1.1668
11316SOL    HW239911   5.863   5.220   6.159 -1.2698  0.7710  1.4607
11317SOL     OW39912   2.301   3.725   0.798 -0.0349 -0.1739 -0.4765
11317SOL    HW139913   2.217   3.689   0.770  0.4536 -1.3582 -0.4838
11317SOL    HW239914   2.279   3.809   0.839 -1.4170 -1.2778  1.1590
11318SOL     OW39915   2.174   6.743   6.945  0.2064 -0.4282 -0.4265
11318SOL    HW139916   2.152   6.836   6.952 -0.2071 -0.5064 -0.6244
11318SOL    HW239917   2.185   6.727   6.852  3.3155  0.0798 -0.2391
11319SOL     OW39918   2.808   5.263   9.209 -0.0090  0.5073  0.6763
11319SOL    HW139919   2.853   5.326   9.265  0.7085  0.1459  0.5099
11319SOL    HW239920   2.720   5.258   9.246  0.3060  0.6487  1.4746
11320SOL     OW39921   8.685   8.399   6.971 -0.6466 -0.4530  0.6392
11320SOL    HW139922   8.654   8.470   6.915 -1.8055 -0.6907  0.9461
11320SOL    HW239923   8.721   8.443   7.048 -2.7284 -0.1844  1.5257
11321SOL     OW39924   6.642   3.532   4.439  0.1204 -0.6572  0.1844
11321SOL    HW139925   6.691   3.613   4.426 -3.0149  1.7915  2.1433
11321SOL    HW239926   6.681   3.493   4.517  0.3493  0.1115  0.4727
11322SOL     OW39927   1.064   2.958   0.735 -0.2852  0.2530  0.4525
11322SOL    HW139928   0.993   2.918   0.685  0.2120 -0.0069 -0.0520
11322SOL    HW239929   1.143   2.911   0.707  0.0926  0.5691  0.9722
11323SOL     OW39930   1.249   2.536   2.494 -0.0216  0.1856  0.4025
11323SOL    HW139931   1.228   2.626   2.520 -0.4066  0.1481  0.2373
11323SOL    HW239932   1.339   2.541   2.464  0.2715  0.3221  1.2859
11324SOL     OW39933   9.350   5.901   1.457 -0.3724  0.4653  0.0546
11324SOL    HW139934   9.302   5.925   1.536 -1.4189  1.6130 -0.8858
11324SOL    HW239935   9.284   5.862   1.400  0.4948 -0.9214 -0.0473
11325SOL     OW39936   7.102   0.827   2.456  0.4843  0.1808 -0.3210
11325SOL    HW139937   7.013   0.860   2.440 -0.3555 -1.6572  0.2174
11325SOL    HW239938   7.155   0.865   2.386 -0.9411  0.5366 -1.2504
11326SOL     OW39939   6.667   1.405   4.134 -0.4475 -0.0953  0.3553
11326SOL    HW139940   6.644   1.488   4.092 -2.0004  0.0735  1.4576
11326SOL    HW239941   6.589   1.381   4.184  0.6232 -1.3154  1.5100
11327SOL     OW39942   4.863   7.398   1.537  0.4505 -0.4522 -0.5715
11327SOL    HW139943   4.952   7.381   1.505  0.4315 -1.4611 -0.1309
11327SOL    HW239944   4.824   7.311   1.546 -0.1006 -0.1087  0.5955
11328SOL     OW39945   5.059   1.586   2.277 -0.2332  0.1277 -0.2930
11328SOL    HW139946   5.060   1.540   2.360 -0.5365  0.3027 -0.1898
11328SOL    HW239947   5.134   1.552   2.229  1.5594  1.9063  1.0683
11329SOL     OW39948   8.657   3.005   0.088  0.4652  0.1225  0.1194
11329SOL    HW139949   8.676   2.974  -0.001 -1.4279 -2.5166  0.5205
11329SOL    HW239950   8.586   3.067   0.077  0.4615  0.0554 -0.2492
11330SOL     OW39951   3.138   1.330   2.177 -0.1395  0.3757 -0.5637
11330SOL    HW139952   3.102   1.412   2.142 -1.2485  0.7701  1.3839
11330SOL    HW239953   3.065   1.268   2.174 -0.0147  0.1772  0.2402
11331SOL     OW39954   6.547   8.975   7.033 -0.7065 -0.1414  0.4398
11331SOL    HW139955   6.452   8.988   7.042 -0.4795  0.7237  2.0422
11331SOL    HW239956   6.585   9.044   7.088  0.8366 -0.8441  0.2866
11332SOL     OW39957   6.664   3.402   9.197  0.3364  0.2781 -0.0267
11332SOL    HW139958   6.579   3.446   9.199 -1.4971 -2.9548 -0.0009
11332SOL    HW239959   6.669   3.354   9.279  0.1083 -2.9422 -1.7149
11333SOL     OW39960   9.190   9.006   2.054  0.1440  0.6433 -0.0477
11333SOL    HW139961   9.198   9.101   2.057 -0.6738  0.8047 -1.8424
11333SOL    HW239962   9.252   8.975   2.120 -0.6876  2.4458  1.6879
11334SOL     OW39963   5.999   0.328   2.718 -0.0935  0.0239  0.5642
11334SOL    HW139964   5.970   0.244   2.753 -0.4334 -0.1482 -0.1211
11334SOL    HW239965   5.920   0.382   2.717 -0.3995 -0.3994 -1.1698
11335SOL     OW39966   1.852   5.198   8.706  0.3969  0.3892 -0.0033
11335SOL    HW139967   1.875   5.106   8.690 -0.0574 -0.4911  3.5102
11335SOL    HW239968   1.775   5.193   8.763 -0.5048  3.0358 -0.8580
11336SOL     OW39969   5.936   6.968   7.949 -0.0444 -0.2940 -0.1942
11336SOL    HW139970   5.995   6.935   7.881  1.2855 -0.8295  1.1799
11336SOL    HW239971   5.859   6.999   7.900  1.4452  0.6688 -2.0646
11337SOL     OW39972   2.914   0.651   2.582  0.0398 -0.6574 -0.2544
11337SOL    HW139973   2.878   0.601   2.509  0.1278 -2.2557  0.7351
11337SOL    HW239974   2.853   0.634   2.654  0.6170 -0.1281  0.3650
11338SOL     OW39975   8.211   7.762   2.507  0.5079 -0.4478  0.5820
11338SOL    HW139976   8.258   7.686   2.541 -0.0615 -0.9735  0.2219
11338SOL    HW239977   8.239   7.767   2.415 -0.6855 -1.2215  0.1548
11339SOL     OW39978   4.717   3.290   3.606 -0.2466 -0.3338  0.4784
11339SOL    HW139979   4.728   3.334   3.522  0.6616 -0.5805  0.4589
11339SOL    HW239980   4.726   3.197   3.586 -1.1317 -0.4650  0.6788
11340SOL     OW39981   3.933   5.434   4.034 -0.1815  0.6553 -0.8411
11340SOL    HW139982   3.908   5.389   4.115 -0.4532 -0.5448 -1.5691
11340SOL    HW239983   3.874   5.509   4.030  0.0899  0.9571  0.2568
11341SOL     OW39984   5.384   4.360   0.373 -0.1767  0.0149 -0.1776
11341SOL    HW139985   5.467   4.407   0.372 -0.1406 -0.0000 -2.2798
11341SOL    HW239986   5.327   4.412   0.316 -0.8075 -1.3291 -0.8054
11342SOL     OW39987   3.384   7.313   3.690  0.0521 -0.5222 -0.1659
11342SOL    HW139988   3.351   7.227   3.717  0.4213 -0.4106  0.6773
11342SOL    HW239989   3.369   7.316   3.595  0.5962 -1.7708 -0.3090
11343SOL     OW39990   2.046   6.071   7.000  0.0876 -0.5610  0.2102
11343SOL    HW139991   1.988   6.130   6.952  0.5502 -0.3950 -0.1456
11343SOL    HW239992   2.030   6.092   7.092 -1.6361 -1.6505  0.2078
11344SOL     OW39993   2.625   2.057   4.072 -0.7850  0.6643  0.5012
11344SOL    HW139994   2.569   1.982   4.092  3.1344 -2.8565 -0.5836
11344SOL    HW239995   2.633   2.057   3.977  1.2826  0.7887  0.6311
11345SOL     OW39996   8.531   2.336   5.578  0.8420 -0.2937 -0.5145
11345SOL    HW139997   8.605   2.350   5.519  1.7919 -1.4333  0.3428
11345SOL    HW239998   8.543   2.246   5.610 -1.7799 -1.0889 -1.5061
11346SOL     OW39999   1.278   2.835   4.585  0.4358  0.0405 -0.3736
11346SOL    HW140000   1.234   2.771   4.641  0.3355  1.1317  0.8194
11346SOL    HW240001   1.209   2.898   4.562  0.9400  0.7111 -0.0665
11347SOL     OW40002   3.444   0.804   6.021  0.2125  0.3633  0.3444
11347SOL    HW140003   3.531   0.781   6.051  0.2849  0.1580 -0.0227
11347SOL    HW240004   3.437   0.765   5.934 -0.7773 -0.8630  0.9518
11348SOL     OW40005   4.971   0.488   7.926  0.6259  0.0670 -0.9024
11348SOL    HW140006   5.041   0.423   7.918  0.1239 -0.3354 -2.2585
11348SOL    HW240007   4.957   0.497   8.020  1.7619 -0.6383 -0.6521
11349SOL     OW40008   5.609   9.108   3.853  0.0889 -0.8688  0.3190
11349SOL    HW140009   5.627   9.149   3.938  1.6439  0.6068 -0.6652
11349SOL    HW240010   5.613   9.014   3.871  2.4792 -0.6074  1.5321
11350SOL     OW40011   6.287   6.189   4.305 -0.1944  0.1152  0.0256
11350SOL    HW140012   6.284   6.267   4.248 -2.2522 -0.8932 -1.3752
11350SOL    HW240013   6.236   6.214   4.382  0.7665  0.7560  0.4758
11351SOL     OW40014   6.865   7.934   3.160 -0.5353  0.5840 -0.3384
11351SOL    HW140015   6.945   7.975   3.195 -1.1775  2.1969 -0.6916
11351SOL    HW240016   6.869   7.843   3.192  1.6235  0.5017 -0.6591
11352SOL     OW40017   3.139   8.413   6.547  0.1807 -0.1042 -0.1972
11352SOL    HW140018   3.103   8.329   6.573 -1.3577 -0.2496 -2.5106
11352SOL    HW240019   3.188   8.395   6.467 -0.8018  1.2708 -1.1665
11353SOL     OW40020   6.353   2.992   7.845  0.3672  0.5717  0.1456
11353SOL    HW140021   6.362   3.001   7.750 -0.7988  0.9632  0.0560
11353SOL    HW240022   6.409   2.917   7.868 -3.0508 -2.8657 -1.5668
11354SOL     OW40023   7.041   1.834   5.210 -0.5456 -0.0611 -0.8526
11354SOL    HW140024   7.114   1.789   5.253 -0.6278  0.6802  0.0998
11354SOL    HW240025   6.963   1.786   5.239 -0.7622  1.4022  1.2406
11355SOL     OW40026   6.579   3.431   4.177 -0.4022  0.1570  0.2861
11355SOL    HW140027   6.606   3.479   4.256  0.2157  0.2991 -0.0071
11355SOL    HW240028   6.538   3.498   4.122  2.1503  0.8173 -0.9510
11356SOL     OW40029   1.035   4.716   4.781 -0.3284 -0.0705  0.2599
11356SOL    HW140030   0.989   4.798   4.766 -1.3450 -0.4654  1.1302
11356SOL    HW240031   1.076   4.726   4.867 -0.3796 -0.4334  0.3298
11357SOL     OW40032   4.135   1.709   8.509 -0.3337  0.2284 -0.0696
11357SOL    HW140033   4.223   1.687   8.539 -0.4773 -1.1330 -0.5544
11357SOL    HW240034   4.083   1.715   8.590  0.1859  1.0457  0.2175
11358SOL     OW40035   7.331   1.724   7.264  0.0678  0.1221 -0.2949
11358SOL    HW140036   7.288   1.754   7.184 -0.3175  0.2719 -0.0304
11358SOL    HW240037   7.311   1.790   7.329  1.3127  0.5807 -0.3444
11359SOL     OW40038   2.797   7.269   4.745 -0.2448 -0.2284  0.4961
11359SOL    HW140039   2.758   7.201   4.800 -1.5800 -0.5880 -0.8283
11359SOL    HW240040   2.726   7.334   4.734 -0.2883 -0.5434 -1.3888
11360SOL     OW40041   1.257   5.981   5.202  0.1970 -0.3603  0.0466
11360SOL    HW140042   1.273   5.940   5.287  0.0943  1.1787  0.8395
11360SOL    HW240043   1.328   6.044   5.192  0.2135 -0.5351 -1.0332
11361SOL     OW40044   4.839   2.195   9.022 -0.4023  0.1678 -0.1071
11361SOL    HW140045   4.841   2.280   8.979 -1.5168  0.4819  0.4119
11361SOL    HW240046   4.862   2.214   9.113  0.9337 -0.3386 -0.3204
11362SOL     OW40047   8.627   8.108   8.594  0.4854 -0.5189  0.1964
11362SOL    HW140048   8.563   8.172   8.562  1.3855  0.7804  0.9149
11362SOL    HW240049   8.626   8.119   8.689  1.1733 -1.0829  0.2752
11363SOL     OW40050   1.286   0.104   8.908 -0.4033  0.1059 -0.1682
11363SOL    HW140051   1.244   0.181   8.948 -0.6784  0.1234 -0.4879
11363SOL    HW240052   1.330   0.138   8.831 -0.6178 -0.0725 -0.3719
11364SOL     OW40053   4.445   4.270   2.934  0.1098  0.1593 -0.2182
11364SOL    HW140054   4.437   4.342   2.872 -0.1762  1.6708  1.5041
11364SOL    HW240055   4.390   4.295   3.008  2.3328 -0.3603  1.7476
11365SOL     OW40056   0.105   5.792   0.674  0.3655  0.2423 -0.3347
11365SOL    HW140057   0.052   5.843   0.613 -0.6864  1.4008  1.4703
11365SOL    HW240058   0.183   5.845   0.688  0.2609  0.3322 -0.0958
11366SOL     OW40059   4.134   3.429   6.725 -0.0203 -0.5318 -0.4219
11366SOL    HW140060   4.186   3.418   6.646  1.2137  0.7561  0.1606
11366SOL    HW240061   4.146   3.521   6.750 -0.4292 -0.8761  1.2102
11367SOL     OW40062   3.089   3.011   0.337  0.1454 -0.1307 -0.5724
11367SOL    HW140063   3.119   3.071   0.269  1.0480  1.6029  1.2544
11367SOL    HW240064   2.997   3.036   0.351  0.4170  0.6280 -0.0650
11368SOL     OW40065   7.558   3.318   2.111 -0.4028  0.2476  0.2654
11368SOL    HW140066   7.579   3.393   2.167 -1.6226  0.8827 -0.0961
11368SOL    HW240067   7.495   3.352   2.047 -0.1192 -0.8170 -0.6112
11369SOL     OW40068   3.408   5.446   4.891 -0.2728  0.5271 -0.1358
11369SOL    HW140069   3.403   5.539   4.869 -0.1084  0.6964  0.5231
11369SOL    HW240070   3.465   5.442   4.967 -0.5890 -0.0786  0.0778
11370SOL     OW40071   6.717   3.163   0.832  0.5081  0.3874 -0.5860
11370SOL    HW140072   6.630   3.126   0.821  1.4262 -1.5809 -1.7588
11370SOL    HW240073   6.772   3.089   0.856  1.9224  1.5440 -0.0841
11371SOL     OW40074   3.050   3.313   6.984  0.1060  0.1385  0.3788
11371SOL    HW140075   2.961   3.318   7.017  0.5381  1.0530  1.4710
11371SOL    HW240076   3.043   3.261   6.904 -1.6658  1.5622 -0.4782
11372SOL     OW40077   7.370   3.412   1.912  0.0381  0.3959 -0.1813
11372SOL    HW140078   7.339   3.431   1.823  0.0880 -0.4133 -0.3808
11372SOL    HW240079   7.408   3.494   1.943 -0.4420  0.8251 -0.7171
11373SOL     OW40080   0.541   4.777   1.643  0.4061 -0.5238  0.0592
11373SOL    HW140081   0.567   4.774   1.735  3.1965 -1.5693 -0.6558
11373SOL    HW240082   0.544   4.686   1.614  1.0803 -0.0641 -1.4140
11374SOL     OW40083   2.979   2.685   5.999 -0.3646  0.8341  0.0842
11374SOL    HW140084   2.912   2.626   5.963  0.6649 -1.0647  1.0970
11374SOL    HW240085   2.980   2.760   5.940 -2.5786  0.3924 -0.5894
11375SOL     OW40086   7.680   0.440   7.514 -0.0313  0.7007  0.0711
11375SOL    HW140087   7.606   0.495   7.540 -1.2337  0.4911 -2.5810
11375SOL    HW240088   7.726   0.492   7.447  3.7975  1.8705  3.1944
11376SOL     OW40089   7.887   6.488   0.519  0.2425 -0.5300  0.1653
11376SOL    HW140090   7.913   6.535   0.598 -2.1314 -0.2542  0.8762
11376SOL    HW240091   7.921   6.542   0.447 -1.1645  1.5931  0.9867
11377SOL     OW40092   9.364   6.526   9.243 -0.0213 -0.3798 -0.2312
11377SOL    HW140093   9.324   6.439   9.253 -1.5375  0.3028 -0.1100
11377SOL    HW240094   9.309   6.571   9.180  1.1700  0.2751 -0.8370
11378SOL     OW40095   8.489   6.043   3.662 -0.3035  0.2587  0.1390
11378SOL    HW140096   8.398   6.035   3.692 -0.1363  1.5750  1.0553
11378SOL    HW240097   8.541   6.035   3.742  0.3304  0.5580 -0.2435
11379SOL     OW40098   5.770   1.512   3.450  0.2905 -0.3728  0.2581
11379SOL    HW140099   5.847   1.562   3.477 -0.6135  0.6142  1.1050
11379SOL    HW240100   5.706   1.578   3.424 -0.2832 -1.1761 -0.4130
11380SOL     OW40101   9.089   0.052   6.595 -0.5123 -0.2875 -0.0250
11380SOL    HW140102   9.075   0.073   6.503 -2.0949  0.9422  0.4582
11380SOL    HW240103   9.182   0.029   6.600 -0.0305  1.0989 -1.6520
11381SOL     OW40104   4.860   2.642   2.677  0.3901 -0.5659 -0.2393
11381SOL    HW140105   4.859   2.679   2.588  0.6707 -1.1524 -0.4981
11381SOL    HW240106   4.950   2.612   2.688  0.8444  1.1202  0.9458
11382SOL     OW40107   2.400   7.361   2.065  0.1603  0.0500  0.2922
11382SOL    HW140108   2.481   7.403   2.037  0.0503 -0.1404 -0.3209
11382SOL    HW240109   2.420   7.267   2.063 -0.6561 -0.1334 -1.8148
11383SOL     OW40110   1.569   8.457   0.422 -0.3395  0.4039  0.0267
11383SOL    HW140111   1.521   8.481   0.343  1.2582 -0.1289 -1.1596
11383SOL    HW240112   1.604   8.370   0.403  0.0010  0.2232  1.3772
11384SOL     OW40113   6.207   1.492   8.997 -0.6352 -0.0263 -0.6788
11384SOL    HW140114   6.232   1.429   8.929 -0.1928  1.4496 -1.9454
11384SOL    HW240115   6.276   1.484   9.063  0.4462  0.4236 -1.7210
11385SOL     OW40116   6.020   2.863   1.953  0.1295 -0.3621 -0.2311
11385SOL    HW140117   6.070   2.931   1.909 -1.1842  0.6547 -0.2385
11385SOL    HW240118   6.085   2.808   1.995  1.2818  0.2352 -1.1856
11386SOL     OW40119   6.725   4.138   1.641 -0.2893 -0.5632 -0.7454
11386SOL    HW140120   6.648   4.195   1.640  0.0133 -0.1464 -0.6062
11386SOL    HW240121   6.798   4.197   1.658 -0.2608 -1.3368  2.3181
11387SOL     OW40122   5.401   8.848   4.069  0.5568  0.0024 -0.0405
11387SOL    HW140123   5.483   8.827   4.023 -0.8440 -0.6430 -2.3996
11387SOL    HW240124   5.343   8.774   4.050 -1.1588  1.2752  0.0398
11388SOL     OW40125   5.623   2.019   0.324 -0.1265 -0.5223 -0.2593
11388SOL    HW140126   5.584   1.986   0.243  0.6294 -0.8095 -0.5102
11388SOL    HW240127   5.547   2.041   0.379 -0.6563 -1.4386 -0.5895
11389SOL     OW40128   2.602   5.995   2.142 -0.2729 -0.1622 -0.0350
11389SOL    HW140129   2.558   5.926   2.093  1.7662 -1.8706  0.3944
11389SOL    HW240130   2.592   6.073   2.088 -1.9469 -0.9303 -0.9241
11390SOL     OW40131   3.256   6.110   6.997  0.2693  0.2763  0.4018
11390SOL    HW140132   3.206   6.143   6.923 -0.5285 -0.6258  0.5151
11390SOL    HW240133   3.227   6.164   7.071 -0.9318 -0.5352  0.5626
11391SOL     OW40134   2.366   7.878   2.023  0.1469  0.0197 -0.4419
11391SOL    HW140135   2.280   7.885   2.065  1.1751  1.7266  1.5764
11391SOL    HW240136   2.368   7.951   1.961 -1.1656 -2.1901 -3.3466
11392SOL     OW40137   5.717   0.421   1.920  0.1444 -0.6627  0.2063
11392SOL    HW140138   5.732   0.436   1.827 -0.6617 -1.7812 -0.1314
11392SOL    HW240139   5.630   0.457   1.937  0.7428  0.5470  0.7994
11393SOL     OW40140   7.481   6.753   1.402 -0.5792 -0.2861 -0.5073
11393SOL    HW140141   7.484   6.657   1.397 -0.8195 -0.2251 -2.1279
11393SOL    HW240142   7.479   6.782   1.311 -2.7767  1.2031 -0.0551
11394SOL     OW40143   3.859   6.016   4.320 -0.4017  0.3528 -0.8310
11394SOL    HW140144   3.860   6.060   4.236  2.3568 -1.0204 -1.6392
11394SOL    HW240145   3.951   6.005   4.343 -1.0473 -0.7794  1.5741
11395SOL     OW40146   4.131   4.883   8.073 -0.2498  0.2804 -1.0549
11395SOL    HW140147   4.116   4.936   8.151 -0.1354 -1.1544 -0.0044
11395SOL    HW240148   4.043   4.865   8.039 -1.0540 -4.0887  2.3136
11396SOL     OW40149   5.305   6.929   1.572  0.0998  0.0188 -0.3969
11396SOL    HW140150   5.221   6.885   1.581 -0.6153  1.0711 -1.5348
11396SOL    HW240151   5.336   6.904   1.485  0.8373 -0.1504 -0.0920
11397SOL     OW40152   2.571   4.886   1.034  0.5849  0.0582  0.6162
11397SOL    HW140153   2.482   4.872   1.066  0.4137 -0.3218 -0.0180
11397SOL    HW240154   2.610   4.947   1.097  0.4026 -1.0009  1.7883
11398SOL     OW40155   1.886   7.678   1.600  0.3730 -0.6631 -0.0895
11398SOL    HW140156   1.836   7.626   1.663 -1.7724  1.0622 -0.2736
11398SOL    HW240157   1.964   7.704   1.648 -0.9419  0.1538  1.7338
11399SOL     OW40158   8.688   5.920   7.835 -0.2181  0.4977  0.1315
11399SOL    HW140159   8.706   5.896   7.926 -0.4055 -0.0077  0.0389
11399SOL    HW240160   8.612   5.866   7.811  1.5543 -1.5709 -1.2443
11400SOL     OW40161   4.347   6.007   7.918 -0.0625 -0.1257  0.4350
11400SOL    HW140162   4.393   6.089   7.898 -0.4266 -0.0674 -0.2049
11400SOL    HW240163   4.416   5.943   7.932  0.2708  0.5729  2.2845
11401SOL     OW40164   1.602   6.415   3.884 -0.5360 -0.2550  0.0382
11401SOL    HW140165   1.590   6.390   3.793 -1.0592 -0.1675  0.0790
11401SOL    HW240166   1.687   6.460   3.886 -0.2662 -0.7458 -0.2980
11402SOL     OW40167   4.851   4.935   6.815 -0.0574  0.4411 -0.3776
11402SOL    HW140168   4.934   4.967   6.778 -0.9041  1.8916 -1.1141
11402SOL    HW240169   4.857   4.955   6.908  1.2097 -1.2950 -0.0203
11403SOL     OW40170   6.251   1.800   6.592 -0.0175 -0.2540  0.3027
11403SOL    HW140171   6.191   1.734   6.627  0.0817 -0.9598 -0.7825
11403SOL    HW240172   6.269   1.859   6.665 -0.9061 -0.8572  1.0244
11404SOL     OW40173   5.186   1.144   7.413  0.3174  0.4364  0.0584
11404SOL    HW140174   5.244   1.081   7.455  2.0615  1.7238 -0.3119
11404SOL    HW240175   5.101   1.130   7.455  1.4714  0.1877  2.4759
11405SOL     OW40176   5.137   1.954   3.047  0.4438  0.2520  0.2060
11405SOL    HW140177   5.118   2.016   2.977  1.0067  1.4293  1.0582
11405SOL    HW240178   5.219   1.912   3.020 -0.1785 -0.4720 -0.5952
11406SOL     OW40179   0.245   8.177   6.198 -0.3117  0.5474 -0.5512
11406SOL    HW140180   0.280   8.234   6.267  1.6639  0.6607 -1.5984
11406SOL    HW240181   0.240   8.090   6.239  0.8863  0.6035 -0.2512
11407SOL     OW40182   0.818   0.409   7.837  0.5317 -0.0413 -0.5741
11407SOL    HW140183   0.899   0.364   7.811  1.4561 -0.1055  2.0666
11407SOL    HW240184   0.759   0.339   7.863 -0.1811  0.0358 -1.9490
11408SOL     OW40185   2.976   5.183   1.766 -0.1376 -0.3405 -0.2015
11408SOL    HW140186   2.884   5.206   1.754  0.2446  0.4496 -1.8223
11408SOL    HW240187   3.010   5.251   1.824 -0.4987 -0.5202  0.2379
11409SOL     OW40188   5.485   4.741   6.260  0.0896  0.3392 -0.2909
11409SOL    HW140189   5.438   4.671   6.215 -3.4508  2.5733 -0.4086
11409SOL    HW240190   5.489   4.812   6.197 -0.9463  1.9461  1.3623
11410SOL     OW40191   1.510   9.148   8.085 -0.0173  0.3984  0.6246
11410SOL    HW140192   1.550   9.234   8.098 -0.8331  0.7844  0.6251
11410SOL    HW240193   1.481   9.121   8.172 -0.1860  0.3391  0.5515
11411SOL     OW40194   4.205   9.322   0.529 -0.0958 -0.0190 -0.3745
11411SOL    HW140195   4.184   9.294   0.618 -1.0664 -1.7031 -1.0807
11411SOL    HW240196   4.294   9.357   0.535 -0.6546  1.2714  1.5052
11412SOL     OW40197   7.917   6.149   8.472  0.5476 -0.4734  0.2644
11412SOL    HW140198   7.891   6.199   8.550 -0.3281  0.4275 -0.5685
11412SOL    HW240199   7.977   6.082   8.505 -0.3424 -0.5587  1.8164
11413SOL     OW40200   6.464   5.178   1.641  0.7083  0.4819 -0.3687
11413SOL    HW140201   6.503   5.258   1.677 -1.5010  2.1429 -1.4881
11413SOL    HW240202   6.372   5.199   1.629  0.1785 -2.0511 -1.3088
11414SOL     OW40203   9.107   4.057   3.384  0.4844  0.4828 -0.0313
11414SOL    HW140204   9.181   4.004   3.413  0.4134  0.3702 -0.0584
11414SOL    HW240205   9.110   4.054   3.288  1.2182  1.5358 -0.0629
11415SOL     OW40206   3.914   0.324   3.735  0.3618 -0.6348  0.1982
11415SOL    HW140207   3.850   0.389   3.764  0.5460 -0.1006 -0.5739
11415SOL    HW240208   3.861   0.255   3.694  0.2498 -0.3998 -0.0545
11416SOL     OW40209   9.248   4.745   7.751 -0.0549  0.0774 -0.0979
11416SOL    HW140210   9.317   4.699   7.799 -0.2913  0.5822  0.7544
11416SOL    HW240211   9.229   4.822   7.805 -0.2997  0.6938 -1.0393
11417SOL     OW40212   0.154   6.963   5.266 -0.5771 -0.1425  0.2133
11417SOL    HW140213   0.108   6.883   5.240  0.1397 -0.1484 -1.1395
11417SOL    HW240214   0.227   6.933   5.320  0.3825 -0.5599 -1.2419
11418SOL     OW40215   7.493   8.079   3.147 -0.4418  0.2440  0.3656
11418SOL    HW140216   7.463   8.070   3.238  1.2508 -0.1279  0.9398
11418SOL    HW240217   7.509   7.989   3.118 -1.7746  0.3018 -0.6256
11419SOL     OW40218   0.922   3.653   6.266 -0.0326 -0.3509 -0.4187
11419SOL    HW140219   0.888   3.565   6.281 -0.2444 -0.1835  0.0742
11419SOL    HW240220   1.000   3.658   6.321 -0.2104 -0.1104 -0.1896
11420SOL     OW40221   6.362   0.360   7.584  0.3362  0.3388 -0.2850
11420SOL    HW140222   6.434   0.374   7.645  1.0895 -1.1934 -0.7764
11420SOL    HW240223   6.291   0.326   7.637  0.0547  1.5290  0.1437
11421SOL     OW40224   5.245   4.562   0.724 -0.0843  0.3898 -0.7852
11421SOL    HW140225   5.226   4.519   0.807  1.0299  1.6363  0.1530
11421SOL    HW240226   5.329   4.605   0.738  0.8024 -0.4570 -3.0034
11422SOL     OW40227   0.837   2.706   7.884 -0.2328 -0.5238  0.9973
11422SOL    HW140228   0.791   2.657   7.816 -1.0640 -2.0950  2.6102
11422SOL    HW240229   0.771   2.765   7.920  0.0611 -0.0750  0.8148
11423SOL     OW40230   5.824   8.375   6.898  0.2467 -0.4694  0.0003
11423SOL    HW140231   5.759   8.309   6.874 -1.3990  0.9835  0.1682
11423SOL    HW240232   5.814   8.443   6.832 -0.3324  0.9898  1.4973
11424SOL     OW40233   8.545   0.803   6.529  0.1504 -0.3220  0.7819
11424SOL    HW140234   8.461   0.793   6.485  0.7524  0.2268 -0.5763
11424SOL    HW240235   8.531   0.769   6.617 -1.4138 -0.4666  0.5062
11425SOL     OW40236   7.481   8.640   1.125 -0.3271 -0.5901 -0.1887
11425SOL    HW140237   7.556   8.674   1.076 -1.5362  1.3939 -0.7648
11425SOL    HW240238   7.425   8.599   1.059 -0.5976 -0.4691 -0.0376
11426SOL     OW40239   7.969   2.807   4.145  0.1280  0.3349 -0.9056
11426SOL    HW140240   7.907   2.761   4.202 -1.5033  1.3769 -1.7363
11426SOL    HW240241   7.914   2.865   4.093  1.8822  1.5979 -1.4408
11427SOL     OW40242   7.631   5.821   7.482 -0.0542  0.1257  0.7726
11427SOL    HW140243   7.719   5.806   7.516 -0.7739 -1.5289  2.0106
11427SOL    HW240244   7.591   5.881   7.545 -0.6788 -1.2688  1.7566
11428SOL     OW40245   4.673   2.041   5.598 -0.5234  0.2403  0.7274
11428SOL    HW140246   4.763   2.025   5.572 -0.5858  1.4193 -0.3380
11428SOL    HW240247   4.663   2.136   5.591 -2.4984 -0.0375 -1.4839
11429SOL     OW40248   6.534   7.562   5.024 -0.1373  0.6433  0.1102
11429SOL    HW140249   6.623   7.543   5.051 -0.9847 -1.7975  1.5355
11429SOL    HW240250   6.512   7.491   4.963 -1.8063 -0.2345  1.6218
11430SOL     OW40251   4.546   9.231   9.350 -0.3856  0.3858 -0.2421
11430SOL    HW140252   4.512   9.321   9.355  0.9753  0.8949  0.7646
11430SOL    HW240253   4.600   9.231   9.271  0.1774  0.6873  0.1326
11431SOL     OW40254   6.825   9.333   8.388 -0.5261 -0.5384 -0.7781
11431SOL    HW140255   6.831   9.418   8.344 -1.7083 -0.9739 -1.8685
11431SOL    HW240256   6.745   9.294   8.353  0.4128 -2.4539 -0.9361
11432SOL     OW40257   7.271   6.387   6.865 -0.0330  0.0441  0.4169
11432SOL    HW140258   7.352   6.398   6.815 -0.8163 -0.6037 -1.0530
11432SOL    HW240259   7.300   6.369   6.954  1.3999  1.8739  0.3604
11433SOL     OW40260   4.743   2.311   2.544  0.2584 -0.5817  0.0412
11433SOL    HW140261   4.724   2.398   2.509 -2.0119 -0.5620  1.1086
11433SOL    HW240262   4.836   2.314   2.566 -0.2290  2.5538  2.4823
11434SOL     OW40263   0.336   4.231   3.743  0.1995 -0.2413  0.5725
11434SOL    HW140264   0.395   4.259   3.673  0.2430  1.0543  1.0916
11434SOL    HW240265   0.321   4.138   3.726  1.6314 -0.3766 -0.1119
11435SOL     OW40266   7.525   0.512   5.658  0.4020  0.1081 -0.0918
11435SOL    HW140267   7.470   0.580   5.697  0.4348  0.5537 -0.8100
11435SOL    HW240268   7.553   0.548   5.574  2.8566  0.4473  0.7892
11436SOL     OW40269   5.779   5.875   7.551  0.0963  0.6103  0.0733
11436SOL    HW140270   5.714   5.874   7.480  0.7360  0.2742 -0.5229
11436SOL    HW240271   5.740   5.931   7.618 -0.9925  0.0887 -0.0933
11437SOL     OW40272   9.280   0.261   5.063  0.0659  0.1500 -0.1079
11437SOL    HW140273   9.326   0.339   5.095  0.4411  0.3841 -1.1697
11437SOL    HW240274   9.226   0.293   4.990 -0.3235 -0.4552 -0.0866
11438SOL     OW40275   0.556   2.914   4.312 -0.5617 -0.1607 -0.2236
11438SOL    HW140276   0.503   2.835   4.324  0.0439 -0.6633 -0.7495
11438SOL    HW240277   0.641   2.881   4.280  0.7861  0.4250  2.4489
11439SOL     OW40278   7.135   2.793   0.187  0.3871 -0.1921  0.5633
11439SOL    HW140279   7.096   2.872   0.151 -0.1642 -1.0415 -0.7758
11439SOL    HW240280   7.221   2.821   0.218  0.9186  0.6128 -1.4712
11440SOL     OW40281   5.484   2.804   3.874 -0.3508 -0.0805 -0.8934
11440SOL    HW140282   5.408   2.751   3.898  1.1836 -1.5212  1.2704
11440SOL    HW240283   5.449   2.892   3.859 -2.3263 -0.4512  1.0256
11441SOL     OW40284   5.069   4.034   7.417  0.8764 -0.6232 -0.2967
11441SOL    HW140285   5.044   3.945   7.445 -0.3631 -0.5489 -1.1008
11441SOL    HW240286   5.042   4.090   7.490  1.8638 -0.9154  0.3097
11442SOL     OW40287   5.877   7.841   8.854 -0.7927 -0.6165 -0.1455
11442SOL    HW140288   5.954   7.785   8.842 -1.1143 -0.9178 -0.8590
11442SOL    HW240289   5.906   7.907   8.917  0.5892  0.2551 -1.5942
11443SOL     OW40290   2.943   1.970   5.251  0.2709  0.2895  0.3253
11443SOL    HW140291   2.912   1.946   5.338  0.6274  1.6047  0.8485
11443SOL    HW240292   2.887   2.043   5.225  3.0317  3.0562  1.5059
11444SOL     OW40293   5.957   1.953   8.914 -0.2293  0.4037 -0.3170
11444SOL    HW140294   5.907   1.905   8.981 -1.0841 -0.7992 -1.7416
11444SOL    HW240295   6.042   1.969   8.954 -0.2468 -1.4930  0.5685
11445SOL     OW40296   8.401   8.027   9.102 -0.2476 -0.2890  0.1581
11445SOL    HW140297   8.423   8.022   9.195  0.3808 -1.0631 -0.0203
11445SOL    HW240298   8.360   8.113   9.092  1.0926  0.4564  0.8528
11446SOL     OW40299   7.790   3.205   6.183  0.1651 -0.1338 -0.4213
11446SOL    HW140300   7.737   3.137   6.226 -1.0422  0.7700 -0.4160
11446SOL    HW240301   7.846   3.239   6.253  1.8192 -2.0307 -0.7247
11447SOL     OW40302   5.186   0.525   5.896  0.6049  0.3374 -0.4622
11447SOL    HW140303   5.278   0.501   5.904 -0.1908 -2.7276  0.8602
11447SOL    HW240304   5.166   0.510   5.803  0.9655 -1.0566 -0.3345
11448SOL     OW40305   6.465   5.009   5.540  0.3143 -0.0858  0.1458
11448SOL    HW140306   6.393   5.000   5.603 -0.8142  0.3654 -1.0377
11448SOL    HW240307   6.508   5.091   5.565 -0.7682  0.6367 -0.2564
11449SOL     OW40308   8.888   4.616   2.494  0.1152  0.7056 -0.0245
11449SOL    HW140309   8.930   4.533   2.472  2.0911  2.1966 -2.4691
11449SOL    HW240310   8.801   4.610   2.455  0.4066 -0.0551 -0.5712
11450SOL     OW40311   8.242   3.536   5.868 -0.1052  0.0505 -0.0271
11450SOL    HW140312   8.170   3.501   5.920  0.0432  0.4840  0.4767
11450SOL    HW240313   8.210   3.534   5.777  0.1862 -2.1165 -0.1285
11451SOL     OW40314   0.927   3.135   5.281  0.0074  0.1742  0.3284
11451SOL    HW140315   0.993   3.101   5.221 -0.5826  0.3869 -0.4559
11451SOL    HW240316   0.856   3.164   5.225  0.1160  1.9187  1.0168
11452SOL     OW40317   4.258   7.826   8.671  0.0540 -0.4682 -0.1036
11452SOL    HW140318   4.224   7.752   8.621  2.6175 -1.7425 -0.1222
11452SOL    HW240319   4.351   7.830   8.647  0.1492  2.3069  0.4788
11453SOL     OW40320   5.952   6.258   0.725 -0.4489  0.1552  0.3250
11453SOL    HW140321   5.955   6.163   0.726 -1.0380  0.1329  0.2167
11453SOL    HW240322   5.960   6.283   0.817 -1.6030 -0.0494  0.4955
11454SOL     OW40323   6.716   7.618   7.639  0.2712  0.0434 -0.3530
11454SOL    HW140324   6.795   7.663   7.611  1.0958 -1.4392 -0.5009
11454SOL    HW240325   6.739   7.525   7.638 -0.1643 -0.2533  3.5367
11455SOL     OW40326   6.234   6.112   5.837 -0.0198 -0.0440 -0.2779
11455SOL    HW140327   6.175   6.165   5.783  1.7094  1.6344 -0.5989
11455SOL    HW240328   6.277   6.053   5.775 -0.1690 -0.1518 -0.2800
11456SOL     OW40329   7.581   2.805   8.614  0.2610 -0.1272 -0.4063
11456SOL    HW140330   7.592   2.757   8.532  0.3050 -1.0189  0.1014
11456SOL    HW240331   7.523   2.750   8.666  0.4541  0.2952  0.2662
11457SOL     OW40332   3.106   8.776   4.478  0.1857  0.1110 -0.3798
11457SOL    HW140333   3.178   8.747   4.535  0.3695 -0.9429 -1.1222
11457SOL    HW240334   3.150   8.823   4.407  0.0372  0.4692 -0.2394
11458SOL     OW40335   7.298   2.452   5.041 -0.0952  0.2023  0.1448
11458SOL    HW140336   7.264   2.496   4.963 -0.5839  1.7401  1.1617
11458SOL    HW240337   7.334   2.369   5.009 -0.2965  0.7785 -1.6887
11459SOL     OW40338   3.353   4.546   1.576  0.2995 -0.3070  0.1453
11459SOL    HW140339   3.437   4.549   1.530  0.5885  1.1953  0.7282
11459SOL    HW240340   3.288   4.565   1.509  0.6562  1.0967  0.1651
11460SOL     OW40341   0.392   7.748   3.729 -0.4965  0.1963  0.4223
11460SOL    HW140342   0.399   7.728   3.636 -1.4375  1.5947  0.0169
11460SOL    HW240343   0.298   7.747   3.748 -0.3638  0.6200  1.1869
11461SOL     OW40344   8.295   5.532   5.860 -0.7139 -0.3103  0.0724
11461SOL    HW140345   8.377   5.563   5.898 -0.4300 -0.2910 -0.5512
11461SOL    HW240346   8.320   5.458   5.804 -1.1496 -0.4629  0.0730
11462SOL     OW40347   6.362   6.576   5.464  0.4672  0.5224 -0.2909
11462SOL    HW140348   6.447   6.544   5.436  0.7605  0.6737  0.3934
11462SOL    HW240349   6.375   6.602   5.555 -0.0345  1.6058 -0.5136
11463SOL     OW40350   8.110   1.179   7.928  0.7658  0.4942  0.0502
11463SOL    HW140351   8.126   1.176   7.833 -0.1116 -1.8872 -0.0996
11463SOL    HW240352   8.140   1.266   7.955  3.8718  0.1704 -1.8726
11464SOL     OW40353   5.170   5.431   0.343 -0.5134  0.0573  0.0951
11464SOL    HW140354   5.118   5.503   0.305 -1.8037 -0.3778  0.9787
11464SOL    HW240355   5.159   5.441   0.437  2.5523  1.0444  0.4379
11465SOL     OW40356   2.419   0.808   8.867  0.1845  0.1830 -1.0674
11465SOL    HW140357   2.492   0.757   8.901 -0.9044 -0.7437 -0.0370
11465SOL    HW240358   2.347   0.746   8.860 -1.6273  1.7806  1.6182
11466SOL     OW40359   1.287   9.067   1.424 -0.5974  0.2582 -0.4604
11466SOL    HW140360   1.233   9.146   1.429 -1.5577 -0.4436  3.0695
11466SOL    HW240361   1.243   9.004   1.481  0.6986 -2.5406 -2.3088
11467SOL     OW40362   6.023   2.924   0.170 -0.3339  0.0493 -0.9736
11467SOL    HW140363   6.066   3.000   0.131 -0.4675  1.4974  1.4783
11467SOL    HW240364   6.024   2.858   0.101  1.0205  1.8041 -2.7589
11468SOL     OW40365   8.902   6.899   5.128 -0.2539 -0.1057 -0.3168
11468SOL    HW140366   8.934   6.973   5.179  0.4090  1.5311 -2.9092
11468SOL    HW240367   8.807   6.911   5.125 -0.3353 -0.4065  0.7429
11469SOL     OW40368   3.686   5.252   6.273 -0.1592 -0.6044 -0.0100
11469SOL    HW140369   3.744   5.239   6.198  0.0059  0.8517 -0.1708
11469SOL    HW240370   3.598   5.249   6.235 -0.0663  0.5753 -0.3831
11470SOL     OW40371   6.691   8.228   8.116 -0.1822 -0.2511 -0.0206
11470SOL    HW140372   6.721   8.314   8.086  0.2182 -0.3479  0.0981
11470SOL    HW240373   6.686   8.235   8.211 -0.0989 -0.3764 -0.0070
11471SOL     OW40374   8.743   8.064   7.947  0.2197  0.1230 -0.0262
11471SOL    HW140375   8.793   8.134   7.989  0.5536 -0.3049  0.2990
11471SOL    HW240376   8.744   8.086   7.854 -1.4101  1.6387  0.2727
11472SOL     OW40377   0.140   0.767   7.341 -0.1468  0.4341 -0.0934
11472SOL    HW140378   0.186   0.804   7.416 -0.2295 -0.5641  0.4643
11472SOL    HW240379   0.109   0.682   7.371  1.7316 -1.0160 -1.8802
11473SOL     OW40380   0.605   7.419   1.235 -0.1521 -0.1871  0.4271
11473SOL    HW140381   0.615   7.372   1.152  0.9972 -0.6058  0.7861
11473SOL    HW240382   0.544   7.364   1.286  0.9255 -1.1468  0.7194
11474SOL     OW40383   8.251   0.278   4.446 -0.0213  0.2056 -0.0256
11474SOL    HW140384   8.321   0.268   4.381  0.6700  2.8398  0.1813
11474SOL    HW240385   8.193   0.344   4.408 -0.7597  0.2234  1.0947
11475SOL     OW40386   8.750   1.659   0.926 -0.2916 -0.1094 -0.5763
11475SOL    HW140387   8.657   1.640   0.934 -0.4846 -0.1935 -2.5884
11475SOL    HW240388   8.784   1.591   0.868  0.5066  1.3143 -1.8477
11476SOL     OW40389   0.710   8.686   4.731  0.2920  0.0213  0.1102
11476SOL    HW140390   0.650   8.631   4.681  0.2832  1.1790 -1.2053
11476SOL    HW240391   0.792   8.638   4.731 -0.5752 -1.6134  1.9830
11477SOL     OW40392   4.014   9.070   0.938  0.0731  0.0152  0.1827
11477SOL    HW140393   4.085   9.028   0.988 -0.0574 -0.1818  0.2043
11477SOL    HW240394   3.949   9.093   1.004 -0.0029 -0.0487  0.1302
11478SOL     OW40395   3.629   5.989   7.952  0.0427  0.1697  0.1936
11478SOL    HW140396   3.645   5.973   8.045  0.5572  1.5553  0.3630
11478SOL    HW240397   3.570   6.065   7.951 -1.0492 -0.6604 -0.5933
11479SOL     OW40398   7.468   0.937   1.754  0.2079 -0.7931  0.3147
11479SOL    HW140399   7.375   0.949   1.774  0.9122  2.2637  2.4386
11479SOL    HW240400   7.509   0.919   1.838  1.6759 -1.4038 -0.4914
11480SOL     OW40401   1.303   2.882   0.015 -0.7071  0.2128 -0.0725
11480SOL    HW140402   1.364   2.880   0.088  1.1045  1.1105 -1.4636
11480SOL    HW240403   1.275   2.791   0.005  0.1334 -0.1695  0.8567
11481SOL     OW40404   6.381   7.888   6.401 -0.0399 -0.0936 -0.0411
11481SOL    HW140405   6.295   7.925   6.417  0.6960  0.7483  2.3924
11481SOL    HW240406   6.441   7.962   6.410  1.2649 -1.3351  2.6304
11482SOL     OW40407   8.760   5.458   6.736  0.2201  0.1553 -0.3133
11482SOL    HW140408   8.777   5.491   6.824 -0.0601 -0.5689  0.0142
11482SOL    HW240409   8.710   5.378   6.749 -1.3256  0.9372 -1.1942
11483SOL     OW40410   0.166   4.987   3.633  0.4346  1.4097  0.4041
11483SOL    HW140411   0.228   4.926   3.594 -0.9007  0.1674  0.1182
11483SOL    HW240412   0.159   4.959   3.725 -1.3919  0.0058 -0.1014
11484SOL     OW40413   7.528   4.286   4.630  0.0090 -0.7745 -0.3848
11484SOL    HW140414   7.514   4.343   4.706 -1.7688 -0.4756 -0.8866
11484SOL    HW240415   7.493   4.336   4.556  1.2250 -1.2744 -1.3360
11485SOL     OW40416   0.499   7.166   3.328  0.0094  0.0885 -0.3670
11485SOL    HW140417   0.416   7.156   3.281  0.8573  0.0486 -1.8904
11485SOL    HW240418   0.488   7.111   3.406 -1.0222 -0.7432 -1.0595
11486SOL     OW40419   8.276   6.752   3.040 -0.1092 -0.0192 -0.0860
11486SOL    HW140420   8.224   6.682   3.001  0.2463  0.5277 -1.5842
11486SOL    HW240421   8.345   6.706   3.088 -0.0076 -0.7051 -0.8680
11487SOL     OW40422   7.796   7.482   4.040 -0.3519  0.2827 -0.0788
11487SOL    HW140423   7.755   7.470   4.126 -0.8417  2.3285  0.0235
11487SOL    HW240424   7.811   7.393   4.008  1.3659 -0.5990  2.8114
11488SOL     OW40425   6.863   4.724   6.721  0.7901  0.1648  0.8194
11488SOL    HW140426   6.880   4.812   6.753 -0.6653  0.0379  2.0409
11488SOL    HW240427   6.848   4.672   6.800 -0.6435 -0.6773  0.0358
11489SOL     OW40428   3.578   9.291   5.683 -0.1688 -0.1169 -0.8530
11489SOL    HW140429   3.556   9.263   5.772 -0.5251  0.6938 -0.6745
11489SOL    HW240430   3.494   9.307   5.641  0.0044 -0.1979 -1.2358
11490SOL     OW40431   2.590   0.859   8.195  0.1183  0.3220 -0.1783
11490SOL    HW140432   2.512   0.914   8.209  0.8424  1.5443 -0.7803
11490SOL    HW240433   2.602   0.814   8.278 -2.8487 -2.0829 -0.8674
11491SOL     OW40434   2.396   3.034   0.556 -0.1626 -0.5380 -0.3267
11491SOL    HW140435   2.400   2.964   0.621  1.2710  0.4049  0.6871
11491SOL    HW240436   2.348   2.997   0.483  1.5641 -3.0092 -0.3299
11492SOL     OW40437   8.772   8.512   7.203 -0.2904 -0.1658 -0.5393
11492SOL    HW140438   8.758   8.607   7.203  0.5882  0.0009 -2.0470
11492SOL    HW240439   8.837   8.498   7.272 -0.3635  0.3474 -0.3586
11493SOL     OW40440   5.046   5.982   0.495  0.1431  0.6656 -0.2437
11493SOL    HW140441   5.133   5.965   0.462  0.0237  0.1030 -0.2725
11493SOL    HW240442   5.022   6.067   0.458 -0.0656 -0.0289 -1.7533
11494SOL     OW40443   5.518   4.227   3.969 -0.4880  0.0984  0.2342
11494SOL    HW140444   5.571   4.152   3.999  0.4746  1.1889  1.3576
11494SOL    HW240445   5.429   4.206   3.997 -0.2118 -0.5766  0.6332
11495SOL     OW40446   3.255   5.535   5.584  0.7090 -0.2440 -0.1115
11495SOL    HW140447   3.279   5.628   5.587  0.7503 -0.2732  1.7037
11495SOL    HW240448   3.297   5.498   5.662  1.0394 -1.8831 -1.0353
11496SOL     OW40449   8.593   9.031   1.213 -0.0698 -0.3892 -0.3434
11496SOL    HW140450   8.657   9.021   1.143  0.2853  1.9876 -0.4252
11496SOL    HW240451   8.551   9.115   1.196  0.4740  0.6004  2.5752
11497SOL     OW40452   4.623   1.237   6.822  0.0808  0.1512 -0.0291
11497SOL    HW140453   4.627   1.326   6.856 -0.5860  0.2762 -0.2640
11497SOL    HW240454   4.530   1.216   6.820  0.2308 -0.5190 -0.0566
11498SOL     OW40455   5.148   3.688   3.225 -0.3476  0.5954 -0.0381
11498SOL    HW140456   5.095   3.624   3.176 -0.2997  0.0054  0.6588
11498SOL    HW240457   5.211   3.634   3.274  0.3100  1.2376 -0.1617
11499SOL     OW40458   7.770   4.484   8.271  0.1288  0.3782 -0.2577
11499SOL    HW140459   7.780   4.441   8.356 -0.4647  0.4365 -0.1589
11499SOL    HW240460   7.825   4.433   8.212  0.0099 -0.0697  0.0140
11500SOL     OW40461   3.234   0.227   2.138 -0.1070 -0.3409 -0.8046
11500SOL    HW140462   3.147   0.195   2.114 -1.5907  3.4646 -1.2083
11500SOL    HW240463   3.268   0.267   2.058  0.5149  1.1928  0.1920
11501SOL     OW40464   3.197   0.255   6.535 -0.3495  0.7743 -0.0545
11501SOL    HW140465   3.169   0.330   6.481 -0.0902  1.1885  0.3762
11501SOL    HW240466   3.116   0.223   6.574 -0.4780  0.7534 -0.3321
11502SOL     OW40467   7.567   0.217   2.277  0.3941 -0.8659  0.2491
11502SOL    HW140468   7.478   0.239   2.305 -0.0111 -0.0255 -1.5051
11502SOL    HW240469   7.554   0.155   2.205  1.2024 -0.4135 -0.2965
11503SOL     OW40470   0.643   1.887   2.675  0.2661 -0.6487 -0.3968
11503SOL    HW140471   0.690   1.961   2.635  1.6520 -0.3889  1.5674
11503SOL    HW240472   0.693   1.867   2.754 -1.3761 -2.2478  0.3073
11504SOL     OW40473   5.733   8.158   3.790 -0.2154 -0.2269  0.0727
11504SOL    HW140474   5.713   8.146   3.697  1.1264 -0.3214 -0.2315
11504SOL    HW240475   5.813   8.106   3.803 -0.3020 -0.0776  1.2408
11505SOL     OW40476   5.910   6.350   5.593  0.1998 -0.1465  0.1388
11505SOL    HW140477   5.873   6.327   5.678  1.1963  2.0356  1.2526
11505SOL    HW240478   5.852   6.418   5.559  1.3873  1.0681  0.4616
11506SOL     OW40479   6.239   6.160   0.837 -0.2389 -0.4862 -0.1420
11506SOL    HW140480   6.297   6.185   0.909 -1.2569 -1.6423  1.1232
11506SOL    HW240481   6.161   6.214   0.850 -0.1251 -0.1276 -0.8725
11507SOL     OW40482   5.310   9.316   8.778  0.2964  0.1381  0.0159
11507SOL    HW140483   5.229   9.283   8.817  0.0689  0.0162 -0.5570
11507SOL    HW240484   5.326   9.259   8.703  1.8251 -0.9090  1.0751
11508SOL     OW40485   5.149   1.524   6.625  0.0014  0.5841  0.2336
11508SOL    HW140486   5.184   1.462   6.560  2.3088  2.1989 -0.1958
11508SOL    HW240487   5.066   1.485   6.653  0.1709 -1.4581 -1.7860
11509SOL     OW40488   1.175   8.607   9.294  0.0084  0.4683  0.4002
11509SOL    HW140489   1.233   8.547   9.340 -1.6600 -0.4330  1.4412
11509SOL    HW240490   1.233   8.673   9.256  2.2452 -3.0440 -3.0102
11510SOL     OW40491   5.175   3.009   3.688  0.3760  0.5882 -0.3320
11510SOL    HW140492   5.214   2.994   3.602 -1.5230 -1.0900 -0.9937
11510SOL    HW240493   5.100   2.949   3.691 -0.8024  2.0371  1.7143
11511SOL     OW40494   8.591   8.119   4.317 -0.6416  0.0717  0.0014
11511SOL    HW140495   8.581   8.203   4.273  0.0518  0.1276 -0.0528
11511SOL    HW240496   8.653   8.136   4.388 -2.6364  0.2843  1.8000
11512SOL     OW40497   1.159   7.587   0.585  0.0981 -0.4363  0.4591
11512SOL    HW140498   1.162   7.682   0.577 -0.4875 -0.4572 -0.0926
11512SOL    HW240499   1.231   7.555   0.530 -1.1367 -0.3908 -1.2629
11513SOL     OW40500   7.790   7.465   2.675  0.5213 -0.0323  0.0960
11513SOL    HW140501   7.838   7.476   2.757  0.8116  0.7089 -0.1676
11513SOL    HW240502   7.854   7.431   2.613  0.7070  0.8804 -0.2335
11514SOL     OW40503   7.599   4.790   2.506 -0.2585 -0.2245 -0.0813
11514SOL    HW140504   7.583   4.850   2.578 -0.2602 -0.2641 -0.0487
11514SOL    HW240505   7.541   4.821   2.436  0.3739  0.3338 -0.3614
11515SOL     OW40506   6.438   8.490   8.038 -0.1696 -0.1787  0.1905
11515SOL    HW140507   6.500   8.501   7.966  0.6470 -0.8399  0.7685
11515SOL    HW240508   6.490   8.504   8.117 -1.0141  0.3700  0.6666
11516SOL     OW40509   8.124   1.518   4.092  0.2880 -0.1489  0.5543
11516SOL    HW140510   8.073   1.443   4.064  1.9052 -1.0103 -0.2645
11516SOL    HW240511   8.075   1.556   4.165 -2.0161 -0.2517 -0.8590
11517SOL     OW40512   6.266   6.056   1.790  0.3064  0.0274 -0.0196
11517SOL    HW140513   6.196   6.116   1.816 -0.5473 -0.5102 -0.9607
11517SOL    HW240514   6.309   6.099   1.717 -0.6785 -0.7152 -1.0738
11518SOL     OW40515   3.662   4.463   2.184  0.2999 -0.1934  0.1856
11518SOL    HW140516   3.716   4.531   2.226 -1.3611  1.2373  0.1267
11518SOL    HW240517   3.682   4.472   2.091 -1.2420  1.5496 -0.0407
11519SOL     OW40518   2.668   7.533   8.476  0.2533  0.7031  0.3237
11519SOL    HW140519   2.744   7.580   8.443  0.5976  0.5076  0.8194
11519SOL    HW240520   2.597   7.597   8.472  0.1896  0.5543 -1.1566
11520SOL     OW40521   5.088   0.220   7.448  0.2639 -0.3843 -0.4030
11520SOL    HW140522   5.183   0.214   7.435  0.0666  0.2770 -2.4363
11520SOL    HW240523   5.055   0.133   7.427  0.1991  0.0345 -2.1245
11521SOL     OW40524   8.378   1.900   8.913 -0.0289 -0.1534  0.0037
11521SOL    HW140525   8.342   1.960   8.848  1.3646 -0.2942 -0.9486
11521SOL    HW240526   8.466   1.880   8.881  0.6925 -0.2621  1.9266
11522SOL     OW40527   5.851   7.114   7.552 -0.1031 -0.7004 -0.2725
11522SOL    HW140528   5.779   7.162   7.511  0.4730  0.6077  0.1646
11522SOL    HW240529   5.904   7.083   7.479 -0.4666 -0.6456 -0.5659
11523SOL     OW40530   2.212   3.423   9.232 -0.4521 -0.0545  0.3613
11523SOL    HW140531   2.251   3.504   9.200  2.0698 -1.2387  0.1073
11523SOL    HW240532   2.120   3.429   9.210  0.1439  1.6235 -2.0064
11524SOL     OW40533   5.737   6.172   9.065 -0.2673  0.2636 -0.6279
11524SOL    HW140534   5.762   6.214   8.983 -1.4238  0.4853 -0.8826
11524SOL    HW240535   5.742   6.078   9.046  0.9052  0.2871 -0.4948
11525SOL     OW40536   5.990   0.608   6.888 -0.1108 -0.3014 -0.4868
11525SOL    HW140537   5.969   0.661   6.965  0.0248  0.7378 -1.1472
11525SOL    HW240538   6.080   0.578   6.903 -0.2739 -0.5582  0.0029
11526SOL     OW40539   2.492   0.791   5.841 -0.3894  0.0058  0.2498
11526SOL    HW140540   2.550   0.738   5.896 -0.2783 -0.4376 -0.2959
11526SOL    HW240541   2.423   0.731   5.813 -0.9078  0.4362  0.5769
11527SOL     OW40542   3.447   6.175   6.134 -0.2418  0.1660  0.3368
11527SOL    HW140543   3.523   6.130   6.172 -0.0029 -0.9624 -1.3920
11527SOL    HW240544   3.380   6.108   6.125 -0.9041  0.8060  0.3925
11528SOL     OW40545   7.504   7.501   5.458 -0.2085  0.2661  0.1957
11528SOL    HW140546   7.486   7.529   5.548  0.4019  0.9511  0.1120
11528SOL    HW240547   7.599   7.508   5.450  0.0294 -2.1477  0.2551
11529SOL     OW40548   7.444   6.852   1.793  0.1871 -0.2369 -0.4295
11529SOL    HW140549   7.367   6.870   1.739 -0.9766  1.9687  1.7627
11529SOL    HW240550   7.431   6.763   1.825 -1.2281 -0.0630 -0.4768
11530SOL     OW40551   4.866   1.567   8.337 -0.2429 -0.0468  0.1092
11530SOL    HW140552   4.859   1.553   8.243 -0.4866  0.5955  0.0273
11530SOL    HW240553   4.775   1.582   8.366 -0.0645  0.7357  0.2834
11531SOL     OW40554   3.540   2.669   8.381  0.1701 -0.0204  0.4564
11531SOL    HW140555   3.476   2.681   8.451 -0.0927  1.1568  0.0406
11531SOL    HW240556   3.540   2.575   8.365  0.8968 -0.4549  2.6279
11532SOL     OW40557   2.941   3.873   7.378  0.3071  0.5248 -0.1540
11532SOL    HW140558   2.881   3.922   7.322 -0.8024 -0.7464 -0.1222
11532SOL    HW240559   2.928   3.782   7.354  1.3615  0.1264  0.7021
11533SOL     OW40560   9.121   0.228   5.978  0.4677  0.3517  0.0149
11533SOL    HW140561   9.186   0.288   6.014  1.0629 -0.8838  1.0905
11533SOL    HW240562   9.153   0.141   6.003 -1.9852 -0.2662  1.2686
11534SOL     OW40563   6.348   4.423   8.198 -0.6053  0.8584  0.2375
11534SOL    HW140564   6.350   4.518   8.187  1.2189  0.8814  0.4343
11534SOL    HW240565   6.391   4.408   8.282 -0.9536 -0.1516  0.2487
11535SOL     OW40566   3.175   1.880   5.147 -0.3804 -0.2103  0.0570
11535SOL    HW140567   3.105   1.934   5.182  1.8060  1.7828  1.6734
11535SOL    HW240568   3.223   1.938   5.088  2.2761 -0.0621  2.1446
11536SOL     OW40569   2.630   4.976   0.423  0.0527  1.1644  0.0164
11536SOL    HW140570   2.562   4.913   0.446  1.3837 -0.7860 -1.0959
11536SOL    HW240571   2.696   4.966   0.492  0.4818  0.9569 -0.4130
11537SOL     OW40572   7.831   0.158   0.523  0.0895  0.2459  0.2432
11537SOL    HW140573   7.747   0.114   0.509  1.0329 -1.0428 -1.9292
11537SOL    HW240574   7.830   0.184   0.615 -2.9052  0.8037  0.1347
11538SOL     OW40575   0.125   8.309   2.310  0.2537  0.4020 -0.9665
11538SOL    HW140576   0.058   8.264   2.258 -0.6475  0.7181 -0.1136
11538SOL    HW240577   0.081   8.329   2.393  1.7703 -0.4520  0.0822
11539SOL     OW40578   1.467   2.759   0.548 -0.3270 -0.6320 -0.1358
11539SOL    HW140579   1.422   2.786   0.468 -0.8626  0.9627  0.6662
11539SOL    HW240580   1.403   2.770   0.617  1.2426  1.9167  1.0737
11540SOL     OW40581   0.462   8.921   7.379  0.5226 -0.1914  0.3627
11540SOL    HW140582   0.383   8.972   7.359 -0.7950 -2.6453 -1.2137
11540SOL    HW240583   0.447   8.888   7.468 -0.0908 -0.3412  0.2118
11541SOL     OW40584   5.672   2.699   7.848  0.4044  0.5887 -0.4319
11541SOL    HW140585   5.578   2.718   7.844  0.4566  1.2678  0.7894
11541SOL    HW240586   5.714   2.781   7.823  0.6443  0.8574  0.7670
11542SOL     OW40587   1.193   3.672   1.502  0.4361 -0.4987  0.0727
11542SOL    HW140588   1.165   3.639   1.417 -0.2911 -0.7120  0.3848
11542SOL    HW240589   1.287   3.654   1.505  0.9950  1.6264 -1.6476
11543SOL     OW40590   2.544   0.425   6.975  0.0117 -0.0554 -0.0739
11543SOL    HW140591   2.451   0.404   6.980 -0.1749  0.9413  1.0819
11543SOL    HW240592   2.570   0.443   7.065  0.5999  2.6159 -0.6734
11544SOL     OW40593   3.764   7.270   7.025  0.2452 -0.5588 -0.1578
11544SOL    HW140594   3.852   7.270   6.987  0.7696  0.3699  0.9983
11544SOL    HW240595   3.738   7.178   7.023  1.0573 -0.7875 -0.9298
11545SOL     OW40596   4.368   5.401   4.414 -0.3499  0.0525 -0.0059
11545SOL    HW140597   4.429   5.333   4.385 -0.2918  0.6516 -1.4198
11545SOL    HW240598   4.289   5.354   4.439  0.0037 -0.6024 -0.0982
11546SOL     OW40599   6.892   7.962   2.891 -0.2301 -0.2010  0.2672
11546SOL    HW140600   6.866   8.052   2.874 -0.9168 -0.3437  0.5291
11546SOL    HW240601   6.919   7.962   2.983  0.5002 -0.1030  0.0590
11547SOL     OW40602   6.173   2.267   6.840  0.3779 -0.6298  0.5876
11547SOL    HW140603   6.163   2.332   6.909  1.4274  0.5224 -0.3095
11547SOL    HW240604   6.261   2.281   6.805  0.6924 -2.6211  0.4287
11548SOL     OW40605   1.943   0.742   9.061 -0.1272  0.1539  0.4053
11548SOL    HW140606   2.013   0.677   9.054 -0.8639 -0.6427  0.1689
11548SOL    HW240607   1.863   0.689   9.071 -0.7246  1.0290  0.3361
11549SOL     OW40608   7.431   1.106   4.971  0.4708  0.2788 -0.4489
11549SOL    HW140609   7.422   1.085   5.064 -1.2946 -2.3324 -1.1061
11549SOL    HW240610   7.503   1.051   4.941 -0.4595 -0.6204 -1.0661
11550SOL     OW40611   4.157   0.908   5.552  0.2465  0.1073 -0.3327
11550SOL    HW140612   4.117   0.910   5.464  0.7532 -1.0267 -0.6127
11550SOL    HW240613   4.212   0.830   5.550  0.1421 -0.0125  1.0573
11551SOL     OW40614   3.021   3.260   8.489  0.0797 -0.1055 -0.7227
11551SOL    HW140615   3.053   3.347   8.513  0.4266 -0.0683 -1.3179
11551SOL    HW240616   3.000   3.219   8.573 -3.0123  1.6333 -0.5066
11552SOL     OW40617   0.448   6.421   0.867 -0.3171 -0.1440  0.1287
11552SOL    HW140618   0.469   6.419   0.774 -1.1047  1.2453 -0.1085
11552SOL    HW240619   0.507   6.486   0.904  0.4858 -1.1907  0.7675
11553SOL     OW40620   8.475   8.880   6.743  0.0188  0.4855 -1.0247
11553SOL    HW140621   8.385   8.900   6.766  0.0998  2.5023 -2.2224
11553SOL    HW240622   8.527   8.910   6.818 -0.2927 -1.3423 -0.0145
11554SOL     OW40623   3.064   8.625   6.879 -0.3336 -0.5366  0.1561
11554SOL    HW140624   3.003   8.609   6.950  1.3118  0.5266  1.8902
11554SOL    HW240625   3.151   8.613   6.918  0.6278 -0.2372 -1.7562
11555SOL     OW40626   6.145   2.237   6.493 -0.6125  0.4619 -0.0815
11555SOL    HW140627   6.106   2.316   6.455 -0.3275  0.5070 -0.2809
11555SOL    HW240628   6.236   2.237   6.462 -0.6515 -0.0279 -0.2157
11556SOL     OW40629   1.004   8.747   8.626  0.2150 -0.0273 -0.0005
11556SOL    HW140630   0.953   8.793   8.559  0.2246  2.0445  1.3083
11556SOL    HW240631   0.974   8.786   8.708  3.1682  0.5800  0.8956
11557SOL     OW40632   9.033   1.004   8.701  0.3044 -0.4639  0.8472
11557SOL    HW140633   9.126   1.005   8.726  0.3059  2.1060  0.9424
11557SOL    HW240634   8.989   0.960   8.774  1.5033 -2.7936  0.2820
11558SOL     OW40635   8.548   9.264   0.468 -0.3099 -0.1692  0.7973
11558SOL    HW140636   8.639   9.243   0.446 -0.7436 -0.5314 -0.8175
11558SOL    HW240637   8.542   9.359   0.454 -0.6298 -0.4215 -1.0272
11559SOL     OW40638   8.209   2.853   0.653  0.8275  0.0507  0.0078
11559SOL    HW140639   8.296   2.893   0.653  0.9197 -0.1261  0.9783
11559SOL    HW240640   8.208   2.796   0.730 -0.1442  0.0582  0.0216
11560SOL     OW40641   3.947   0.061   5.893  0.3705 -0.2875  0.3579
11560SOL    HW140642   3.873   0.040   5.950 -0.2331 -0.7846 -0.5671
11560SOL    HW240643   3.961  -0.020   5.842  0.9942  0.0820 -0.0674
11561SOL     OW40644   9.202   5.088   0.952  0.3912  0.6208  0.6788
11561SOL    HW140645   9.246   5.106   1.035  1.4810  0.6211  0.1161
11561SOL    HW240646   9.272   5.088   0.887 -0.2986 -0.4302 -0.0984
11562SOL     OW40647   5.911   6.032   4.716 -0.5255  0.0766 -0.2369
11562SOL    HW140648   5.885   6.094   4.784  0.1604 -1.8888  1.9848
11562SOL    HW240649   5.846   5.962   4.722  0.4516 -0.8861 -0.4930
11563SOL     OW40650   2.941   6.296   7.214 -0.3729 -0.0547  0.0862
11563SOL    HW140651   2.884   6.365   7.179 -1.7948 -1.7361 -1.1094
11563SOL    HW240652   3.014   6.292   7.152  0.4975  1.2715  0.9497
11564SOL     OW40653   8.276   8.970   8.156 -0.5472  0.0935  0.2841
11564SOL    HW140654   8.277   9.011   8.242  0.2699  0.2684  0.1911
11564SOL    HW240655   8.290   9.042   8.095 -0.5030 -0.1203  0.0401
11565SOL     OW40656   4.354   5.435   8.078 -0.2733 -0.1447  0.5062
11565SOL    HW140657   4.298   5.357   8.081 -1.0649  0.4294  0.8446
11565SOL    HW240658   4.316   5.488   8.008  0.2570 -0.0439  0.2874
11566SOL     OW40659   3.531   3.723   3.568  0.2615 -0.1998  0.5721
11566SOL    HW140660   3.549   3.640   3.523  1.4296  0.1743  0.3067
11566SOL    HW240661   3.447   3.752   3.533  1.1570  0.1035 -1.4337
11567SOL     OW40662   4.384   7.213   5.997  0.2593  0.5515 -0.1577
11567SOL    HW140663   4.319   7.168   6.049 -0.1430  0.3123 -0.8519
11567SOL    HW240664   4.465   7.162   6.008 -0.0828 -0.1006 -0.5911
11568SOL     OW40665   0.642   3.550   0.117 -0.5221  0.1660  0.1284
11568SOL    HW140666   0.678   3.636   0.096 -0.2493 -0.2043 -0.9483
11568SOL    HW240667   0.563   3.544   0.064  1.4718 -1.7891 -2.9213
11569SOL     OW40668   1.635   8.541   2.020 -0.2161  0.2202 -0.1393
11569SOL    HW140669   1.692   8.559   1.945 -0.4051 -0.2451 -0.3958
11569SOL    HW240670   1.633   8.445   2.026 -1.4691  0.2091 -0.5148
11570SOL     OW40671   9.128   6.312   7.444  0.5183  0.3902  0.1197
11570SOL    HW140672   9.034   6.307   7.427  0.4594 -1.3386  0.7580
11570SOL    HW240673   9.147   6.406   7.442 -1.0445  0.7390 -0.8524
11571SOL     OW40674   5.558   3.914   0.321 -0.1135  0.2021  0.0674
11571SOL    HW140675   5.502   3.981   0.283  0.0405 -0.4570 -1.3909
11571SOL    HW240676   5.611   3.960   0.386 -1.4682  1.0639  0.6025
11572SOL     OW40677   1.303   2.963   5.319 -0.0196  0.0935 -0.1656
11572SOL    HW140678   1.261   2.987   5.401  2.4402  1.7519  0.7266
11572SOL    HW240679   1.232   2.963   5.255 -1.9260 -0.7930  1.8149
11573SOL     OW40680   4.198   5.724   1.084 -0.0237 -0.4376 -0.0911
11573SOL    HW140681   4.120   5.747   1.034  0.5669  1.4148 -0.2152
11573SOL    HW240682   4.263   5.789   1.060  1.1173 -1.0691  1.1148
11574SOL     OW40683   1.997   0.584   5.563  0.2858 -0.1227  0.2502
11574SOL    HW140684   2.053   0.660   5.574 -1.4942  1.0371  1.9683
11574SOL    HW240685   2.046   0.511   5.600  0.6765  0.8558  1.7052
11575SOL     OW40686   8.467   7.900   3.555  0.1583 -0.0273 -0.3723
11575SOL    HW140687   8.500   7.950   3.480 -1.5621  1.5300 -0.1563
11575SOL    HW240688   8.490   7.953   3.631  1.0952 -1.1616  0.1804
11576SOL     OW40689   2.232   5.487   7.411 -0.5494 -0.0767  0.1545
11576SOL    HW140690   2.267   5.462   7.496 -0.4379 -1.7481 -0.3513
11576SOL    HW240691   2.186   5.569   7.427  0.6909  0.3850  1.5208
11577SOL     OW40692   8.697   6.382   4.631 -0.4295  0.6229  0.0526
11577SOL    HW140693   8.632   6.436   4.586 -1.1498  0.4509  0.8558
11577SOL    HW240694   8.693   6.410   4.722 -1.2786 -1.1627  0.6184
11578SOL     OW40695   7.136   9.338   3.936  0.0489  0.7779  0.2054
11578SOL    HW140696   7.176   9.424   3.920  0.3901  0.4686 -0.6195
11578SOL    HW240697   7.091   9.348   4.020  1.7752  1.1644  1.1204
11579SOL     OW40698   9.115   3.349   8.236 -0.2098  0.3058 -0.2556
11579SOL    HW140699   9.084   3.265   8.271  0.0918  0.6153  0.8127
11579SOL    HW240700   9.089   3.348   8.144  0.1415 -1.1204 -0.3658
11580SOL     OW40701   5.639   2.226   3.155  0.2609  0.5302  0.0515
11580SOL    HW140702   5.677   2.175   3.083  1.4580  0.8146  0.4592
11580SOL    HW240703   5.669   2.182   3.234 -0.6595  0.4968  0.4004
11581SOL     OW40704   5.936   8.347   4.964 -0.4861  0.1805  0.5967
11581SOL    HW140705   6.000   8.300   5.019 -2.0546 -1.3797  1.1851
11581SOL    HW240706   5.982   8.364   4.882  0.8161 -0.5257  1.1542
11582SOL     OW40707   1.559   1.270   0.593  0.6808  0.0562 -0.7152
11582SOL    HW140708   1.577   1.237   0.681 -1.2600 -0.3761 -0.4376
11582SOL    HW240709   1.641   1.258   0.546  1.8163  0.4303  1.0632
11583SOL     OW40710   6.886   9.280   6.487  0.2172 -0.3309 -0.3499
11583SOL    HW140711   6.975   9.243   6.487  0.3765 -0.0280 -2.1709
11583SOL    HW240712   6.889   9.348   6.554  0.2883 -2.5961  2.1630
11584SOL     OW40713   0.767   3.446   5.722  0.2583  0.6505 -0.0159
11584SOL    HW140714   0.852   3.429   5.682  0.6051  0.1455  0.8915
11584SOL    HW240715   0.705   3.391   5.673  0.3866  1.2839 -0.9010
11585SOL     OW40716   4.406   0.783   1.893 -0.0703  0.2384 -0.2236
11585SOL    HW140717   4.436   0.739   1.973 -1.0258 -1.5241 -0.7843
11585SOL    HW240718   4.412   0.877   1.913  1.4371 -0.1270  1.2548
11586SOL     OW40719   3.090   8.259   3.545 -0.1711 -0.3138  0.1008
11586SOL    HW140720   3.153   8.205   3.497 -0.8949 -0.2024 -1.0020
11586SOL    HW240721   3.139   8.339   3.566  0.8263 -1.2661  1.5236
11587SOL     OW40722   3.296   5.374   0.592 -0.4989 -0.7186 -0.0820
11587SOL    HW140723   3.328   5.429   0.664  1.3000 -2.4757  0.5465
11587SOL    HW240724   3.360   5.385   0.522 -1.6329  0.0992 -1.0235
11588SOL     OW40725   0.126   0.653   4.298  0.0698  0.5442  0.2183
11588SOL    HW140726   0.151   0.745   4.303 -1.3734  0.9631  0.4300
11588SOL    HW240727   0.111   0.627   4.389 -0.2170  0.3118  0.1065
11589SOL     OW40728   6.955   5.624   7.177 -0.1338  0.0699 -0.3621
11589SOL    HW140729   6.887   5.622   7.244 -1.4481  0.2814 -1.6323
11589SOL    HW240730   6.933   5.551   7.118  1.1864 -0.3271 -0.4041
11590SOL     OW40731   5.576   0.045   8.843  0.3201 -0.0715 -0.1197
11590SOL    HW140732   5.585  -0.029   8.903 -1.2000  0.2411  0.5517
11590SOL    HW240733   5.510   0.016   8.779  2.0822 -0.4941 -1.8450
11591SOL     OW40734   6.934   4.064   3.283  0.4211  0.2203  0.7587
11591SOL    HW140735   6.927   4.103   3.196 -0.3006  0.4866  0.9290
11591SOL    HW240736   7.003   4.114   3.327  1.5322 -0.5961 -0.0044
11592SOL     OW40737   4.039   8.278   4.684 -0.6338  0.1394  0.2555
11592SOL    HW140738   4.075   8.194   4.712  2.0041  1.0791 -0.0825
11592SOL    HW240739   3.982   8.306   4.755  0.2515 -0.8842  1.3894
11593SOL     OW40740   0.082   0.509   4.947 -0.2208  0.2386 -0.3076
11593SOL    HW140741   0.039   0.583   4.990  1.1478  1.3471 -0.7739
11593SOL    HW240742   0.037   0.499   4.864  0.3375  1.3604 -0.7712
11594SOL     OW40743   4.226   5.847   4.657  0.3868 -0.1666  0.0499
11594SOL    HW140744   4.209   5.783   4.726  0.0857 -0.5438 -0.3746
11594SOL    HW240745   4.240   5.929   4.704  0.1780 -0.4194  0.5596
11595SOL     OW40746   5.192   4.566   1.885 -0.3552  0.0277 -0.0544
11595SOL    HW140747   5.208   4.487   1.834  0.2119 -0.1733  0.4268
11595SOL    HW240748   5.109   4.549   1.930 -0.9300  0.2637 -0.9989
11596SOL     OW40749   7.147   0.643   4.203  0.1111  0.7896  0.4905
11596SOL    HW140750   7.080   0.695   4.246 -2.0926 -0.8282 -0.7810
11596SOL    HW240751   7.129   0.652   4.109  0.7793 -0.7895  0.1730
11597SOL     OW40752   4.339   4.884   8.838 -0.2357  0.0251 -0.1646
11597SOL    HW140753   4.268   4.888   8.902 -1.0066 -1.9154 -0.8173
11597SOL    HW240754   4.363   4.791   8.835  1.3300  0.4212 -1.0440
11598SOL     OW40755   7.289   1.940   8.638  0.2106 -0.2184 -0.4550
11598SOL    HW140756   7.230   1.876   8.599 -1.5752  0.2589  1.2695
11598SOL    HW240757   7.299   2.008   8.571  0.5059 -1.3161 -1.5467
11599SOL     OW40758   5.723   8.782   5.546 -0.3036 -0.0243 -0.2732
11599SOL    HW140759   5.746   8.840   5.619  0.3950  0.0152 -0.5137
11599SOL    HW240760   5.772   8.818   5.471 -0.1079 -0.7449 -0.4944
11600SOL     OW40761   3.220   6.399   8.207  0.5619  0.2923 -0.0001
11600SOL    HW140762   3.236   6.307   8.186 -0.9000 -0.3881  1.5616
11600SOL    HW240763   3.236   6.405   8.302 -1.3486  1.1274  0.3225
11601SOL     OW40764   3.123   9.322   2.430 -0.1600  0.5494  0.2801
11601SOL    HW140765   3.094   9.411   2.449 -0.4306  0.4366  0.4160
11601SOL    HW240766   3.196   9.307   2.490  1.5498  1.5574 -1.4893
11602SOL     OW40767   8.803   9.207   0.388  0.3675 -0.2246  0.3649
11602SOL    HW140768   8.849   9.123   0.391 -1.8711 -1.6293 -1.7642
11602SOL    HW240769   8.845   9.254   0.316 -1.2365 -1.3997 -1.4049
11603SOL     OW40770   3.470   8.656   8.369 -0.0830 -0.2016 -0.1599
11603SOL    HW140771   3.556   8.623   8.395  0.6609  1.5221 -0.2509
11603SOL    HW240772   3.407   8.603   8.418  1.0902 -0.3864  1.2111
11604SOL     OW40773   2.351   1.524   7.456  0.0647  0.0194  0.0398
11604SOL    HW140774   2.438   1.485   7.444  0.0086 -0.3974  0.8888
11604SOL    HW240775   2.345   1.540   7.550 -1.2536 -1.1533  0.1969
11605SOL     OW40776   0.835   5.775   4.991  0.0556  0.2488 -0.1065
11605SOL    HW140777   0.881   5.858   4.980  0.1190  0.1482 -0.6195
11605SOL    HW240778   0.878   5.733   5.066  0.9834  0.0338 -0.7426
11606SOL     OW40779   2.738   8.784   1.182  0.5137  0.2470  0.1634
11606SOL    HW140780   2.668   8.826   1.132 -1.6590 -2.2372  0.8730
11606SOL    HW240781   2.702   8.698   1.205  3.6769 -0.9764  0.9816
11607SOL     OW40782   7.362   2.918   3.564 -0.1916 -0.1170  0.0746
11607SOL    HW140783   7.378   2.825   3.579 -0.0515 -0.0242  0.5233
11607SOL    HW240784   7.356   2.956   3.652 -2.3156 -0.0332 -0.0712
11608SOL     OW40785   6.553   4.589   5.943 -0.0123  0.1597 -0.9700
11608SOL    HW140786   6.606   4.623   5.871 -0.3478 -1.4721 -2.0358
11608SOL    HW240787   6.611   4.591   6.019  0.3698  1.8465 -1.2653
11609SOL     OW40788   4.532   0.406   5.614  0.3230 -0.2808 -0.2447
11609SOL    HW140789   4.625   0.390   5.629  0.4411  1.7973  1.9535
11609SOL    HW240790   4.488   0.333   5.656  0.9494 -0.0740  0.8107
11610SOL     OW40791   4.278   4.959   6.729  0.3602 -0.1083  0.1255
11610SOL    HW140792   4.230   4.956   6.646  2.1606 -0.1474 -0.9753
11610SOL    HW240793   4.362   4.917   6.709  0.8086 -0.1779  2.0013
11611SOL     OW40794   9.132   3.618   4.199 -0.5676  0.3631 -0.0792
11611SOL    HW140795   9.207   3.646   4.251 -0.0989  0.9416 -1.0397
11611SOL    HW240796   9.126   3.523   4.215  0.3395  0.3173  0.0490
11612SOL     OW40797   9.367   5.431   8.206  0.4099 -0.1927 -1.0709
11612SOL    HW140798   9.276   5.453   8.225  0.3426 -0.8300 -0.6419
11612SOL    HW240799   9.415   5.512   8.219  0.0456 -0.0948 -0.3155
11613SOL     OW40800   8.975   6.831   4.754  0.1040 -0.3814  0.2546
11613SOL    HW140801   8.887   6.866   4.771  0.2081 -0.2077  0.4374
11613SOL    HW240802   9.011   6.888   4.686 -0.0043 -0.5851  0.0225
11614SOL     OW40803   0.645   5.940   8.173  0.0759  0.0725  0.6395
11614SOL    HW140804   0.682   5.943   8.085 -0.8421 -0.0151  0.2409
11614SOL    HW240805   0.552   5.953   8.161 -0.1374 -0.4662  1.5590
11615SOL     OW40806   7.775   7.289   5.010 -0.1033  0.0343  0.5885
11615SOL    HW140807   7.682   7.265   5.001  0.0591 -0.7173  0.8160
11615SOL    HW240808   7.776   7.358   5.076 -0.6847  1.3857 -0.7429
11616SOL     OW40809   6.073   5.792   4.464  0.7108 -0.0293 -0.4850
11616SOL    HW140810   6.010   5.792   4.536 -0.6005  1.2133 -1.5793
11616SOL    HW240811   6.156   5.816   4.505  0.5679 -1.8693  1.0190
11617SOL     OW40812   1.622   3.072   0.497  0.5625  0.5550 -0.1766
11617SOL    HW140813   1.666   3.020   0.565  0.8688  1.0447  0.0051
11617SOL    HW240814   1.626   3.017   0.419  2.0751  0.8436 -0.3290
11618SOL     OW40815   5.283   1.470   6.395 -0.2865  0.3923 -0.0469
11618SOL    HW140816   5.379   1.466   6.397 -0.3447 -1.7856  0.2719
11618SOL    HW240817   5.264   1.562   6.375  1.8729  0.5853 -1.5977
11619SOL     OW40818   6.326   5.303   7.518  0.0974 -0.0350 -0.2506
11619SOL    HW140819   6.337   5.220   7.472  0.8075 -0.6637  1.0008
11619SOL    HW240820   6.260   5.350   7.467 -0.8741 -1.6607 -0.5790
11620SOL     OW40821   7.208   3.692   2.015 -0.1402 -0.1934  0.3701
11620SOL    HW140822   7.189   3.785   2.011 -0.5967 -0.1871  1.9364
11620SOL    HW240823   7.290   3.686   2.065  0.8729 -0.5705 -1.2301
11621SOL     OW40824   3.540   6.530   3.026  0.4633  0.0851  0.2414
11621SOL    HW140825   3.566   6.598   2.963  1.6679  0.0125  0.6328
11621SOL    HW240826   3.594   6.454   3.004  1.4095  0.2678  1.7481
11622SOL     OW40827   8.511   7.845   5.390 -0.1470 -0.1372 -0.3611
11622SOL    HW140828   8.502   7.877   5.479 -0.8463 -1.1792 -0.0372
11622SOL    HW240829   8.565   7.910   5.346  1.4133 -0.3289  1.1929
11623SOL     OW40830   0.898   7.185   0.061  0.3674  0.3065 -0.1407
11623SOL    HW140831   0.942   7.230   0.133  1.4902 -0.0286 -0.5958
11623SOL    HW240832   0.939   7.099   0.058  3.2952  1.5448 -3.6529
11624SOL     OW40833   8.757   2.613   8.876  0.4206  0.3979 -0.1728
11624SOL    HW140834   8.842   2.643   8.844  1.0456  0.0752  1.1226
11624SOL    HW240835   8.731   2.680   8.940 -0.5160  0.7310 -0.8971
11625SOL     OW40836   6.540   8.978   5.667  0.1105  0.3594  0.2323
11625SOL    HW140837   6.508   8.913   5.604 -2.0942  0.1432  1.4839
11625SOL    HW240838   6.507   8.948   5.751  0.9218  1.9581  1.1542
11626SOL     OW40839   6.069   3.033   5.964  0.5864  0.4957 -0.3901
11626SOL    HW140840   6.104   3.077   6.041  1.5967  2.1172 -1.7197
11626SOL    HW240841   5.995   3.087   5.937  0.2514 -0.0500 -0.5722
11627SOL     OW40842   2.210   8.764   1.312 -0.4462  0.3389 -0.3133
11627SOL    HW140843   2.240   8.852   1.333  2.3550 -0.1109 -1.8890
11627SOL    HW240844   2.234   8.711   1.388 -0.3742  0.6221 -0.1404
11628SOL     OW40845   8.949   1.145   1.735  0.2232 -0.0358 -0.1302
11628SOL    HW140846   9.028   1.197   1.749  0.8628 -1.2840  1.1444
11628SOL    HW240847   8.978   1.071   1.682  0.4425 -1.5576  1.9537
11629SOL     OW40848   7.870   5.626   6.228  0.4944  0.0667  0.0974
11629SOL    HW140849   7.801   5.677   6.270  0.0185 -2.7455  3.1790
11629SOL    HW240850   7.829   5.592   6.148 -0.5267  1.1074  0.1496
11630SOL     OW40851   3.859   4.199   8.761  0.2532  0.4418  0.8986
11630SOL    HW140852   3.942   4.223   8.719 -0.3407  0.7445 -0.1498
11630SOL    HW240853   3.814   4.282   8.772 -0.2045  0.2052  0.8122
11631SOL     OW40854   6.580   7.277   0.689  0.6206  0.3270 -0.5291
11631SOL    HW140855   6.601   7.318   0.605 -0.8228 -0.0730 -1.1079
11631SOL    HW240856   6.492   7.241   0.677  1.2187 -1.6249  0.4431
11632SOL     OW40857   2.395   4.110   2.646  0.1608 -0.3869  0.2337
11632SOL    HW140858   2.480   4.085   2.611  0.3201  1.3534 -0.7283
11632SOL    HW240859   2.341   4.031   2.638  0.7683 -0.6417 -2.1614
11633SOL     OW40860   6.557   8.517   6.051  0.3274 -0.0289  0.0587
11633SOL    HW140861   6.571   8.481   6.138  0.3272 -1.0472 -0.3372
11633SOL    HW240862   6.465   8.497   6.031  0.5845 -0.6781 -0.5391
11634SOL     OW40863   0.252   8.442   4.161 -0.1443  0.0002 -0.4782
11634SOL    HW140864   0.183   8.384   4.131  0.7494 -0.0603 -2.6157
11634SOL    HW240865   0.226   8.467   4.250 -1.5545 -2.0442 -0.2557
11635SOL     OW40866   8.268   9.143   8.674  0.5482 -0.3209  0.2226
11635SOL    HW140867   8.282   9.229   8.715 -1.0392  1.1646 -2.0455
11635SOL    HW240868   8.173   9.130   8.679  0.7810 -2.0187  0.5919
11636SOL     OW40869   4.844   7.596   1.966 -0.1951  0.3445 -0.0244
11636SOL    HW140870   4.877   7.686   1.966 -0.4814  0.4520  0.1579
11636SOL    HW240871   4.766   7.600   2.021  1.0884 -0.4792  1.9524
11637SOL     OW40872   6.635   6.246   7.358  0.3208  0.2172 -0.1172
11637SOL    HW140873   6.540   6.243   7.357  0.2930  1.0068 -1.2882
11637SOL    HW240874   6.662   6.154   7.349 -0.3184  0.0274 -0.1601
11638SOL     OW40875   3.831   2.394   0.845  0.0882  0.1811 -0.5044
11638SOL    HW140876   3.786   2.408   0.929  0.3036  0.1543 -0.3826
11638SOL    HW240877   3.760   2.379   0.782 -0.1411  1.4524 -0.5795
11639SOL     OW40878   3.813   1.195   9.154 -0.1592  0.2886 -0.3743
11639SOL    HW140879   3.806   1.157   9.066 -1.5697 -0.8526  0.1806
11639SOL    HW240880   3.757   1.139   9.208  0.4733  1.1303  1.2046
11640SOL     OW40881   1.424   2.743   6.141 -0.0747 -0.1089 -0.0130
11640SOL    HW140882   1.399   2.822   6.189 -0.7491 -0.8690  0.9427
11640SOL    HW240883   1.344   2.690   6.140  0.4260 -0.8684 -0.4388
11641SOL     OW40884   0.327   1.125   0.563 -0.0519 -0.0980 -0.6941
11641SOL    HW140885   0.406   1.083   0.530 -0.1231  0.5161 -1.7273
11641SOL    HW240886   0.268   1.053   0.585  0.4616 -0.5480 -0.7864
11642SOL     OW40887   0.016   3.893   5.876 -0.1915 -0.6410  0.2482
11642SOL    HW140888   0.076   3.872   5.804 -0.3645  0.7146 -0.3237
11642SOL    HW240889  -0.071   3.890   5.836 -0.2205  1.0892  0.1362
11643SOL     OW40890   0.546   4.599   3.146  0.0338 -0.0226  0.1432
11643SOL    HW140891   0.532   4.652   3.067 -0.6327  1.3567  1.1317
11643SOL    HW240892   0.465   4.549   3.156 -1.2035  2.0777  1.5485
11644SOL     OW40893   7.159   4.609   6.330 -0.2129 -0.0934  0.2975
11644SOL    HW140894   7.091   4.629   6.394  1.2949 -0.6293  2.1713
11644SOL    HW240895   7.223   4.680   6.340  0.7508 -0.9601  0.4646
11645SOL     OW40896   7.886   2.328   1.785 -0.0817  0.0461  0.1369
11645SOL    HW140897   7.978   2.354   1.794 -0.2337 -0.0842  3.0613
11645SOL    HW240898   7.888   2.233   1.786 -0.2300  0.0426  0.0415
11646SOL     OW40899   0.804   3.049   8.290  0.0612 -0.5053 -0.0341
11646SOL    HW140900   0.893   3.020   8.310  0.1382  0.1139  0.5467
11646SOL    HW240901   0.759   2.969   8.262  0.7955 -0.8187 -0.3444
11647SOL     OW40902   3.025   1.172   5.516  0.0648  0.4274  0.2028
11647SOL    HW140903   3.033   1.154   5.422 -0.9774 -0.8129  0.3086
11647SOL    HW240904   3.092   1.238   5.535  1.5481 -0.6446 -1.0506
11648SOL     OW40905   2.631   2.088   3.539 -0.5418 -0.3020 -0.6592
11648SOL    HW140906   2.612   2.180   3.556 -0.2928 -0.2618 -0.5969
11648SOL    HW240907   2.654   2.085   3.446  2.5639  0.2407 -0.0332
11649SOL     OW40908   8.813   1.579   3.219  0.4841  0.1216  0.0751
11649SOL    HW140909   8.727   1.561   3.257  0.9086 -2.1380  0.0989
11649SOL    HW240910   8.799   1.569   3.124  0.0213  3.1629 -0.2879
11650SOL     OW40911   3.357   2.325   1.630  0.4880 -0.2077 -0.0008
11650SOL    HW140912   3.281   2.318   1.687 -0.9956  0.8909 -1.7257
11650SOL    HW240913   3.321   2.324   1.541  2.3662  1.2718 -0.8650
11651SOL     OW40914   3.035   6.089   2.225  0.4924 -0.0644 -0.4131
11651SOL    HW140915   3.061   6.028   2.293  0.6188  1.0824  0.6138
11651SOL    HW240916   3.081   6.060   2.146  0.5377 -1.2704  0.0413
11652SOL     OW40917   6.705   2.882   2.073 -0.4165  0.3322  0.2517
11652SOL    HW140918   6.753   2.946   2.126 -2.0498  1.0167  0.9773
11652SOL    HW240919   6.690   2.809   2.132  1.3780 -0.7592 -0.5567
11653SOL     OW40920   2.693   8.441   3.307 -0.2044  0.2132 -0.1221
11653SOL    HW140921   2.599   8.426   3.316 -0.2451  0.3245 -0.3534
11653SOL    HW240922   2.700   8.532   3.278  0.0227  0.5313  0.8820
11654SOL     OW40923   2.570   5.426   1.273  0.0424 -0.1709 -0.2848
11654SOL    HW140924   2.537   5.350   1.321  0.1072 -0.6604 -0.9999
11654SOL    HW240925   2.496   5.454   1.220  0.3117 -0.3495 -0.7641
11655SOL     OW40926   1.112   8.638   1.359  0.0285 -0.4439  0.2120
11655SOL    HW140927   1.195   8.641   1.311  0.0631 -1.1620  0.2100
11655SOL    HW240928   1.056   8.701   1.314  0.4725 -0.1752  0.0237
11656SOL     OW40929   3.394   0.131   2.724 -0.1160  0.6415 -0.0771
11656SOL    HW140930   3.458   0.075   2.681 -1.3103 -0.5804 -0.3371
11656SOL    HW240931   3.393   0.211   2.671  0.1013  0.0724 -0.9604
11657SOL     OW40932   5.130   0.577   2.399 -0.8176 -0.6205  0.1415
11657SOL    HW140933   5.098   0.544   2.315 -1.6871 -1.4426  0.7732
11657SOL    HW240934   5.074   0.535   2.465 -1.1044  1.1165  1.0691
11658SOL     OW40935   2.259   6.541   0.035 -0.3790  0.0080  0.0160
11658SOL    HW140936   2.191   6.532   0.102 -1.2965  1.9074 -0.5692
11658SOL    HW240937   2.308   6.619   0.060  1.0819 -0.8722 -0.0308
11659SOL     OW40938   4.799   9.153   1.219 -0.3312 -0.3064  0.0337
11659SOL    HW140939   4.813   9.147   1.125 -1.6198  1.1437 -0.2828
11659SOL    HW240940   4.883   9.128   1.257 -0.0279 -1.6865 -1.4612
11660SOL     OW40941   3.987   8.364   0.687 -0.2985 -0.0097  0.0294
11660SOL    HW140942   3.964   8.456   0.672 -0.0914 -0.2009 -1.5941
11660SOL    HW240943   4.049   8.343   0.618 -1.1388 -1.6732 -0.2653
11661SOL     OW40944   5.808   0.224   9.115  0.3689 -0.7380  0.5211
11661SOL    HW140945   5.887   0.263   9.153  0.7671 -0.7098 -0.3166
11661SOL    HW240946   5.837   0.188   9.032 -0.4460 -1.0009  0.3434
11662SOL     OW40947   8.239   1.472   1.776  0.2553 -1.3250  0.1542
11662SOL    HW140948   8.273   1.441   1.860 -0.7168  0.5641  1.2893
11662SOL    HW240949   8.146   1.448   1.778 -0.5334  1.5032  1.0725
11663SOL     OW40950   3.425   6.078   4.191 -0.6745  0.5522 -0.5053
11663SOL    HW140951   3.468   6.089   4.106 -0.9722 -0.2394 -0.7671
11663SOL    HW240952   3.461   5.996   4.225 -0.1532  1.1315  0.3844
11664SOL     OW40953   2.457   8.176   4.758 -0.0024  0.1688 -0.1118
11664SOL    HW140954   2.385   8.136   4.710  0.0182  0.5729 -0.4829
11664SOL    HW240955   2.522   8.107   4.766 -0.1924 -0.0304 -0.2815
11665SOL     OW40956   0.649   6.737   6.782  0.1705  0.5836  0.2406
11665SOL    HW140957   0.720   6.672   6.780 -0.2041  0.1840 -0.4095
11665SOL    HW240958   0.654   6.774   6.870  1.2769  0.6680  0.1634
11666SOL     OW40959   0.657   4.596   6.682 -0.5204  0.5429  0.8462
11666SOL    HW140960   0.629   4.687   6.671  0.4120  0.7746  0.3167
11666SOL    HW240961   0.735   4.601   6.737 -0.3834  0.0778  0.6974
11667SOL     OW40962   5.406   4.352   8.207 -0.0356  0.0038 -0.3625
11667SOL    HW140963   5.429   4.336   8.298  0.4548 -0.3243 -0.5416
11667SOL    HW240964   5.487   4.385   8.167 -0.2875  0.2852 -0.6456
11668SOL     OW40965   2.118   0.021   8.697  0.0439  0.4573 -0.2609
11668SOL    HW140966   2.207   0.024   8.661 -0.0096 -0.4062 -0.5063
11668SOL    HW240967   2.119  -0.055   8.755 -0.5317  0.4399 -0.2703
11669SOL     OW40968   2.237   8.500   3.155 -0.2794  0.4092  0.4789
11669SOL    HW140969   2.169   8.464   3.213 -0.7929 -0.4418 -0.5955
11669SOL    HW240970   2.285   8.423   3.125 -1.5473  0.5082 -2.0667
11670SOL     OW40971   5.302   2.703   4.443  0.0581  0.4631  0.3239
11670SOL    HW140972   5.334   2.686   4.532  1.9323 -2.1385 -0.7334
11670SOL    HW240973   5.220   2.653   4.437  0.6009 -0.4415  0.2283
11671SOL     OW40974   1.442   1.716   8.403 -0.3232 -0.2782 -1.1885
11671SOL    HW140975   1.369   1.730   8.343 -0.8277  0.4598 -0.4283
11671SOL    HW240976   1.515   1.690   8.347 -0.9530 -0.2222 -2.0470
11672SOL     OW40977   3.142   4.537   8.101 -0.0617 -0.7878  0.3595
11672SOL    HW140978   3.188   4.499   8.026 -0.8027 -0.9914  0.0037
11672SOL    HW240979   3.141   4.467   8.167 -0.9084 -1.1943 -0.0775
11673SOL     OW40980   5.925   2.606   2.002 -0.1690  0.3926 -0.2430
11673SOL    HW140981   5.938   2.699   1.985  0.0628  0.4159  0.0456
11673SOL    HW240982   5.836   2.601   2.039 -0.5452  0.3780 -1.1225
11674SOL     OW40983   7.270   0.601   0.021 -0.0773  0.2081  0.1898
11674SOL    HW140984   7.284   0.654   0.099  0.1097  1.1074 -0.4433
11674SOL    HW240985   7.228   0.521   0.053 -0.5296  0.8152  1.1408
11675SOL     OW40986   2.743   9.242   1.809 -0.1078 -0.3806  0.1521
11675SOL    HW140987   2.683   9.280   1.874 -0.5849  0.6371 -0.8470
11675SOL    HW240988   2.686   9.194   1.749  0.1282  0.0759 -0.4501
11676SOL     OW40989   1.036   5.133   5.608 -0.1697  0.0509 -0.0564
11676SOL    HW140990   1.125   5.148   5.577 -0.3031 -0.2239 -0.5802
11676SOL    HW240991   0.980   5.147   5.531 -0.4981 -0.7120  0.0268
11677SOL     OW40992   5.639   5.720   4.176  0.3204 -0.3020  0.4604
11677SOL    HW140993   5.607   5.808   4.196  1.5824 -0.2213  2.3694
11677SOL    HW240994   5.720   5.735   4.127  0.6160 -0.3905  0.9193
11678SOL     OW40995   1.572   7.205   3.216  0.1104  0.0012  0.1639
11678SOL    HW140996   1.546   7.228   3.305 -0.5554  0.7842 -0.2171
11678SOL    HW240997   1.667   7.214   3.216  0.2507 -1.2172  1.1182
11679SOL     OW40998   0.779   8.539   0.097  0.1161  0.2082  0.3869
11679SOL    HW140999   0.852   8.482   0.073 -0.3737 -0.5314  0.6166
11679SOL    HW241000   0.711   8.479   0.127 -0.0349  0.9856  1.6644
11680SOL     OW41001   1.100   6.897   8.063  0.4139 -0.3852 -0.5000
11680SOL    HW141002   1.185   6.869   8.098 -0.1044 -0.4393  0.7779
11680SOL    HW241003   1.067   6.820   8.017  0.3028 -0.9578  0.4958
11681SOL     OW41004   3.843   3.605   8.354 -0.1723 -0.0084 -0.2654
11681SOL    HW141005   3.821   3.565   8.270  0.7521  0.2622 -0.6442
11681SOL    HW241006   3.763   3.595   8.407 -0.6766 -0.4001 -1.0845
11682SOL     OW41007   4.198   4.548   2.890 -0.3424  0.0087  0.3558
11682SOL    HW141008   4.291   4.526   2.880 -0.2196  0.5643  0.2492
11682SOL    HW241009   4.159   4.524   2.806 -0.6318 -1.8196  0.9703
11683SOL     OW41010   4.460   6.187   0.406  0.1709 -0.6927 -0.3216
11683SOL    HW141011   4.537   6.223   0.451 -0.9246  1.8264 -0.2938
11683SOL    HW241012   4.496   6.148   0.326  1.4317  1.5028 -0.9167
11684SOL     OW41013   7.486   8.851   4.708  0.2401  0.3577  0.2459
11684SOL    HW141014   7.501   8.882   4.619  0.3235  0.2929  0.2363
11684SOL    HW241015   7.498   8.928   4.763  1.2253  0.1828  0.2917
11685SOL     OW41016   3.464   3.707   7.932  0.1205  0.0421 -0.7370
11685SOL    HW141017   3.543   3.759   7.941 -1.1715  2.3539 -1.7583
11685SOL    HW241018   3.396   3.771   7.908 -2.3606 -1.6186  1.3599
11686SOL     OW41019   9.362   5.667   1.091  0.4545 -0.2088  1.3883
11686SOL    HW141020   9.329   5.637   1.005  3.6987 -1.5394  0.4580
11686SOL    HW241021   9.284   5.702   1.135 -1.5483 -0.3305 -1.7023
11687SOL     OW41022   2.437   5.327   4.347 -0.0918  0.5889 -0.2430
11687SOL    HW141023   2.361   5.379   4.319 -0.5732 -0.1549 -0.3507
11687SOL    HW241024   2.417   5.304   4.438 -0.4628 -0.3985 -0.5541
11688SOL     OW41025   2.651   1.638   2.144  0.0493 -0.3163 -0.1791
11688SOL    HW141026   2.568   1.605   2.179  1.5954 -2.2075  1.9958
11688SOL    HW241027   2.632   1.659   2.052 -2.7327 -0.9623  0.1672
11689SOL     OW41028   6.908   8.550   7.653  0.5449 -0.3122 -0.4553
11689SOL    HW141029   6.886   8.542   7.746  1.7496  0.5251 -0.0718
11689SOL    HW241030   7.004   8.547   7.651  0.6149  1.5320 -1.4633
11690SOL     OW41031   2.958   4.338   7.522  0.0808  0.0848 -0.3014
11690SOL    HW141032   2.895   4.392   7.570 -0.0227 -0.1615 -0.1585
11690SOL    HW241033   3.040   4.385   7.529  0.0887 -0.0022  0.2100
11691SOL     OW41034   8.508   8.018   7.053 -0.1429 -0.3176 -0.4692
11691SOL    HW141035   8.521   8.091   7.113  0.5084 -0.0349 -0.9508
11691SOL    HW241036   8.516   8.056   6.965  0.0592 -0.9364 -0.7268
11692SOL     OW41037   0.294   8.918   1.976 -0.3952  0.2717 -0.2664
11692SOL    HW141038   0.373   8.891   1.931 -0.7615 -0.0310 -0.7333
11692SOL    HW241039   0.325   8.976   2.046  0.1752  0.7182 -0.8797
11693SOL     OW41040   7.630   4.734   6.888 -0.3018 -0.1641  0.4616
11693SOL    HW141041   7.570   4.660   6.879 -1.4622  0.7666  0.2764
11693SOL    HW241042   7.663   4.748   6.799 -1.0745  0.3303  0.2420
11694SOL     OW41043   2.326   5.694   2.272 -0.3475  0.0674  0.0628
11694SOL    HW141044   2.409   5.659   2.303 -0.0460  1.5876  1.0646
11694SOL    HW241045   2.307   5.644   2.192  1.7885  0.0625 -0.4917
11695SOL     OW41046   7.978   7.496   6.430  0.5343  0.0609 -0.3063
11695SOL    HW141047   7.966   7.530   6.342  0.2373  1.2977  0.1840
11695SOL    HW241048   8.009   7.572   6.481  0.8415 -0.6607  0.6146
11696SOL     OW41049   2.093   1.602   7.436  0.3862  0.2177  0.5893
11696SOL    HW141050   2.096   1.654   7.516  1.8178  0.4667  0.4038
11696SOL    HW241051   2.182   1.568   7.426  0.0720 -0.3205 -0.5624
11697SOL     OW41052   0.395   4.710   1.422 -0.4826 -0.6063 -0.1997
11697SOL    HW141053   0.452   4.673   1.354  0.1343 -0.2405  0.1157
11697SOL    HW241054   0.453   4.762   1.476 -1.3757  1.0740 -0.7906
11698SOL     OW41055   0.216   0.852   7.592  0.3322  0.2517 -0.0160
11698SOL    HW141056   0.143   0.854   7.654  0.2976  0.6746 -0.0710
11698SOL    HW241057   0.277   0.787   7.629 -0.7698 -1.2867 -0.7689
11699SOL     OW41058   5.457   1.846   4.717 -0.2033 -0.2712  0.2099
11699SOL    HW141059   5.534   1.860   4.661 -0.2763 -2.2214 -0.4506
11699SOL    HW241060   5.431   1.755   4.701 -0.6503 -0.7187  2.9246
11700SOL     OW41061   2.900   7.112   0.160  0.3875  0.1931 -0.3799
11700SOL    HW141062   2.961   7.115   0.234 -1.7859  2.1714  1.4686
11700SOL    HW241063   2.939   7.170   0.094  1.3819 -0.0292 -0.0081
11701SOL     OW41064   2.541   0.539   0.828  0.2303 -0.0886  0.3422
11701SOL    HW141065   2.547   0.463   0.771 -1.0863 -1.3376  1.7473
11701SOL    HW241066   2.516   0.612   0.770  0.2207 -1.0139 -0.8398
11702SOL     OW41067   9.119   4.956   8.697 -0.7332  0.0145  0.1522
11702SOL    HW141068   9.206   4.920   8.710 -0.5501  0.8861  1.5167
11702SOL    HW241069   9.065   4.913   8.764 -0.5816  1.9463  1.5805
11703SOL     OW41070   0.634   8.445   8.412  0.0277  0.1819 -0.3885
11703SOL    HW141071   0.614   8.490   8.495  0.2962 -0.3677 -0.0194
11703SOL    HW241072   0.677   8.364   8.439 -0.3668 -0.2562 -1.0520
11704SOL     OW41073   3.472   2.473   5.928  0.5987 -0.5444 -0.4190
11704SOL    HW141074   3.403   2.530   5.896  0.4403  0.1013  1.0265
11704SOL    HW241075   3.506   2.517   6.006  1.2129 -1.8729  0.0928
11705SOL     OW41076   7.092   7.184   8.000  0.3022 -0.3887  0.2173
11705SOL    HW141077   7.153   7.140   8.059  1.6463  0.2865 -0.6039
11705SOL    HW241078   7.011   7.135   8.008  1.1085 -1.6603  0.9648
11706SOL     OW41079   7.147   8.572   5.527 -0.1585  0.2112  0.5565
11706SOL    HW141080   7.150   8.509   5.455  0.2984 -0.5017  1.1827
11706SOL    HW241081   7.163   8.519   5.606  0.1561  1.0912  1.0988
11707SOL     OW41082   1.604   1.206   2.442  0.0874  0.9483  0.0674
11707SOL    HW141083   1.542   1.253   2.497 -1.2069 -1.9593  1.3464
11707SOL    HW241084   1.554   1.183   2.364  0.1986  0.4480  0.1382
11708SOL     OW41085   3.955   7.587   8.103 -0.0358 -0.1584  0.2488
11708SOL    HW141086   3.900   7.614   8.176  1.1239 -0.4366  1.2509
11708SOL    HW241087   3.937   7.652   8.034  1.1185  2.0078  1.8455
11709SOL     OW41088   4.151   5.724   2.869 -1.2018  0.6479  0.2604
11709SOL    HW141089   4.164   5.784   2.943  0.8588 -1.3153  1.5921
11709SOL    HW241090   4.078   5.668   2.897 -1.3037  0.7470  0.1981
11710SOL     OW41091   1.856   2.586   8.692 -0.2011 -0.2953  0.0308
11710SOL    HW141092   1.919   2.584   8.764 -0.9142 -1.3182  0.6385
11710SOL    HW241093   1.845   2.680   8.673  2.6658 -0.1002 -1.1450
11711SOL     OW41094   9.062   6.912   6.945 -0.6452 -0.0594  0.1422
11711SOL    HW141095   8.991   6.936   7.004  0.7101  0.4114  1.6453
11711SOL    HW241096   9.125   6.983   6.954 -0.1746 -0.2126 -1.5423
11712SOL     OW41097   8.272   6.438   8.005 -0.1100 -0.5685 -0.1176
11712SOL    HW141098   8.260   6.416   7.912  0.2357 -0.4920 -0.1794
11712SOL    HW241099   8.366   6.449   8.015 -0.0382 -1.6200  0.4799
11713SOL     OW41100   0.714   1.077   5.147  0.0290  0.2332  0.6262
11713SOL    HW141101   0.644   1.106   5.206  0.4524  2.4423  0.1347
11713SOL    HW241102   0.703   1.131   5.069  1.0283 -0.8685 -0.2951
11714SOL     OW41103   2.307   0.728   3.074 -0.4736 -0.0419  0.0292
11714SOL    HW141104   2.402   0.731   3.080 -0.2818 -2.8483 -0.2162
11714SOL    HW241105   2.288   0.755   2.984  0.4066 -2.3767 -0.9338
11715SOL     OW41106   6.986   1.296   1.115 -0.0248 -0.5034 -0.1323
11715SOL    HW141107   7.006   1.389   1.115 -0.0276 -0.4855 -1.6605
11715SOL    HW241108   7.032   1.261   1.038 -0.9661 -1.5462 -0.2430
11716SOL     OW41109   7.736   1.427   7.104  0.7808  0.4569  0.1790
11716SOL    HW141110   7.701   1.472   7.181  2.6721 -2.4616  2.9719
11716SOL    HW241111   7.789   1.494   7.060 -1.4545  2.5999  0.4774
11717SOL     OW41112   2.486   4.800   8.766 -0.0861 -0.1783  0.0261
11717SOL    HW141113   2.542   4.728   8.739 -0.3301 -0.2658 -0.2539
11717SOL    HW241114   2.543   4.877   8.765 -0.4816  0.1746 -2.5868
11718SOL     OW41115   4.943   5.863   4.758  0.0778 -0.8905 -0.0618
11718SOL    HW141116   4.998   5.831   4.687  1.4974 -0.3881  0.7790
11718SOL    HW241117   4.972   5.813   4.835 -0.0855 -0.0543  0.5546
11719SOL     OW41118   8.563   5.983   2.161 -0.7603  0.0654 -0.0683
11719SOL    HW141119   8.480   6.018   2.128 -1.2732 -0.6506  0.4462
11719SOL    HW241120   8.542   5.951   2.249  0.3460  0.9937  0.5628
11720SOL     OW41121   7.026   5.294   2.750  0.3585 -0.3608 -0.1713
11720SOL    HW141122   7.056   5.374   2.709  1.4448 -1.0013 -0.6505
11720SOL    HW241123   6.930   5.302   2.752  0.3371  0.0658 -2.0061
11721SOL     OW41124   7.608   0.195   2.916 -0.3840  0.2107 -0.2647
11721SOL    HW141125   7.518   0.226   2.930  0.0567  2.3373 -1.5926
11721SOL    HW241126   7.603   0.144   2.835 -0.8420 -2.0803  1.1404
11722SOL     OW41127   8.193   6.656   7.271 -0.5141  0.2509  0.0568
11722SOL    HW141128   8.274   6.682   7.313 -0.4575  0.3484 -0.1116
11722SOL    HW241129   8.138   6.735   7.273 -1.0620 -0.1321  1.2405
11723SOL     OW41130   6.627   2.486   0.108  0.7544  0.1215 -0.2478
11723SOL    HW141131   6.709   2.505   0.062 -0.1693  0.8493 -1.6772
11723SOL    HW241132   6.590   2.412   0.060 -0.4544  1.1860 -1.0286
11724SOL     OW41133   4.919   0.792   8.818  0.2701  0.5927 -0.2194
11724SOL    HW141134   4.978   0.840   8.876  1.7273 -0.1167 -1.0509
11724SOL    HW241135   4.834   0.795   8.862  1.4207 -0.4694  2.2979
11725SOL     OW41136   7.030   1.536   1.314  0.3124  0.3253  0.0924
11725SOL    HW141137   7.060   1.445   1.324 -0.5164  0.0185 -0.1300
11725SOL    HW241138   7.011   1.565   1.403  0.6956  0.3224  0.1769
11726SOL     OW41139   0.623   4.401   4.105  0.0374 -0.0775  0.0917
11726SOL    HW141140   0.676   4.468   4.149 -0.9795  0.6727  0.2090
11726SOL    HW241141   0.544   4.394   4.160 -0.0291 -1.1121 -0.1243
11727SOL     OW41142   0.487   6.416   5.044 -0.2937 -0.6880  0.2263
11727SOL    HW141143   0.511   6.482   5.110 -1.7065  0.5496 -0.4432
11727SOL    HW241144   0.393   6.426   5.034 -0.0488 -0.4028 -2.4129
11728SOL     OW41145   2.852   2.947   0.145  0.2518 -0.1641 -0.1887
11728SOL    HW141146   2.939   2.933   0.108  0.2660 -2.9179  0.6571
11728SOL    HW241147   2.824   2.861   0.175 -1.8099  1.0395  1.7081
11729SOL     OW41148   3.496   2.120   8.764 -0.6168 -0.1876  0.1163
11729SOL    HW141149   3.581   2.076   8.763 -0.2039  0.5921 -0.5020
11729SOL    HW241150   3.517   2.213   8.770 -1.3843  0.0865 -1.0519
11730SOL     OW41151   9.258   8.677   2.924  0.2075 -0.0357  0.0544
11730SOL    HW141152   9.165   8.675   2.946  0.2037 -1.1941 -0.0224
11730SOL    HW241153   9.302   8.643   3.001  0.5634  0.3797  0.0399
11731SOL     OW41154   0.503   7.887   8.538  0.3977  0.1491 -0.1654
11731SOL    HW141155   0.564   7.840   8.482  1.3257 -0.0491  0.9785
11731SOL    HW241156   0.460   7.819   8.590 -3.5800 -0.1957 -3.3731
11732SOL     OW41157   0.501   5.802   4.946  0.3357 -0.0548  0.0088
11732SOL    HW141158   0.594   5.822   4.937  0.0213  0.6758 -2.1298
11732SOL    HW241159   0.483   5.814   5.039  1.7976  2.4441  0.0548
11733SOL     OW41160   6.913   7.302   8.505 -0.2272 -0.0287 -0.4463
11733SOL    HW141161   6.937   7.366   8.437 -1.4320 -0.8573 -1.7207
11733SOL    HW241162   6.907   7.219   8.458  0.1695 -0.8766  0.9558
11734SOL     OW41163   8.095   4.475   6.858 -0.2964  0.2964  0.2908
11734SOL    HW141164   8.016   4.458   6.910 -1.2105  1.9556 -0.4613
11734SOL    HW241165   8.168   4.454   6.917 -1.2974  0.4908  1.6387
11735SOL     OW41166   3.088   5.830   4.439 -0.4836  0.0120 -0.1546
11735SOL    HW141167   3.168   5.792   4.475  0.1445 -0.7161 -2.1733
11735SOL    HW241168   3.091   5.922   4.465  1.3613  0.1488 -0.7455
11736SOL     OW41169   4.659   5.054   3.287 -0.1918 -0.4517  0.0255
11736SOL    HW141170   4.620   4.996   3.221  0.1684  0.6870 -1.2258
11736SOL    HW241171   4.752   5.033   3.286 -0.1079 -0.0797 -0.2046
11737SOL     OW41172   0.244   6.488   2.768 -0.0918  0.4306  0.1364
11737SOL    HW141173   0.327   6.526   2.796 -0.1921 -0.5494  1.9130
11737SOL    HW241174   0.268   6.405   2.727 -0.0950  0.9726 -1.0091
11738SOL     OW41175   2.574   7.977   3.707 -0.0704  0.1968  0.5885
11738SOL    HW141176   2.587   8.066   3.676  0.9579  0.1143  0.7485
11738SOL    HW241177   2.481   7.960   3.693 -0.1970  1.1523  0.1984
11739SOL     OW41178   4.465   6.784   2.457 -0.0475 -0.0244 -0.0747
11739SOL    HW141179   4.438   6.701   2.497  0.6454 -1.3041 -2.1006
11739SOL    HW241180   4.547   6.806   2.501  0.9129 -1.6182 -0.9518
11740SOL     OW41181   9.332   2.026   4.435  0.3301 -0.1439 -0.1620
11740SOL    HW141182   9.278   2.058   4.507 -0.0152 -0.9848 -0.0434
11740SOL    HW241183   9.359   1.938   4.462  0.3838 -0.3804 -0.9596
11741SOL     OW41184   5.513   1.391   3.392  0.4534  0.4866 -0.2498
11741SOL    HW141185   5.604   1.408   3.416  0.4028 -2.7165  3.0005
11741SOL    HW241186   5.462   1.449   3.450  0.4455 -0.7833  1.0610
11742SOL     OW41187   1.517   6.834   9.303 -0.5126  0.2378 -0.1310
11742SOL    HW141188   1.585   6.803   9.244  2.6734  3.5651  1.3453
11742SOL    HW241189   1.472   6.903   9.253 -1.5480 -0.6685 -0.4649
11743SOL     OW41190   0.943   9.185   0.426 -0.3957 -0.4682 -1.0856
11743SOL    HW141191   0.991   9.230   0.496 -0.3221  1.4963 -2.2944
11743SOL    HW241192   0.938   9.094   0.455  0.9931 -0.0491  0.7197
11744SOL     OW41193   0.794   3.288   3.154 -0.5692 -0.4127 -0.5805
11744SOL    HW141194   0.752   3.373   3.138 -0.4422 -0.2143  0.1033
11744SOL    HW241195   0.722   3.225   3.150 -1.0934  0.0076  1.3245
11745SOL     OW41196   6.143   4.546   7.405  0.3881 -0.0572  0.3738
11745SOL    HW141197   6.193   4.515   7.329  1.1971  0.4566  0.6771
11745SOL    HW241198   6.167   4.638   7.413 -1.3172  0.4568  0.0037
11746SOL     OW41199   7.174   4.167   3.472 -0.6912  0.2311 -0.0081
11746SOL    HW141200   7.251   4.136   3.519  0.6485 -0.2324 -2.3905
11746SOL    HW241201   7.203   4.245   3.425 -1.4515 -0.3305 -1.4835
11747SOL     OW41202   6.139   0.242   7.763 -0.0681  0.8004  0.2715
11747SOL    HW141203   6.044   0.233   7.763 -0.0719  0.8384  0.1781
11747SOL    HW241204   6.156   0.317   7.819  0.0320 -0.4505  1.9912
11748SOL     OW41205   3.977   2.326   4.696  0.7286 -0.6364 -0.1422
11748SOL    HW141206   3.939   2.252   4.649  0.1423 -0.4333 -0.0057
11748SOL    HW241207   4.041   2.288   4.755 -0.4868 -1.1748  0.8700
11749SOL     OW41208   2.270   2.020   3.821 -0.0236 -0.3267 -0.0297
11749SOL    HW141209   2.322   2.100   3.814  0.5090 -0.6432  0.2466
11749SOL    HW241210   2.271   2.000   3.915 -1.0103 -0.0988  0.0417
11750SOL     OW41211   4.185   9.072   0.404  0.1097 -0.3332  0.1799
11750SOL    HW141212   4.252   9.093   0.339 -0.5701  0.6686 -0.2243
11750SOL    HW241213   4.169   9.155   0.449 -1.5739 -0.3213 -0.4090
11751SOL     OW41214   1.368   5.013   2.772 -0.1506 -0.0667 -0.3870
11751SOL    HW141215   1.324   5.097   2.759  0.4569  0.8227  2.6869
11751SOL    HW241216   1.296   4.950   2.783 -0.5972  0.1564 -1.7925
11752SOL     OW41217   1.807   8.923   0.312 -0.4113 -0.0445  0.1660
11752SOL    HW141218   1.757   8.860   0.261 -0.7036  0.7136 -0.5072
11752SOL    HW241219   1.836   8.988   0.248 -0.7233  0.8952  0.9563
11753SOL     OW41220   4.839   8.765   3.213 -0.9090  0.1612 -0.2550
11753SOL    HW141221   4.744   8.759   3.219 -0.7882 -1.3775  0.8891
11753SOL    HW241222   4.864   8.827   3.282 -1.0295 -0.2232  0.1407
11754SOL     OW41223   6.153   4.087   4.777 -0.2894  0.2968  0.3764
11754SOL    HW141224   6.230   4.090   4.720 -1.7731  1.5638 -1.7011
11754SOL    HW241225   6.161   4.165   4.832  1.4152 -1.2022  2.3901
11755SOL     OW41226   9.366   1.500   0.882  0.3628 -0.3667  0.4126
11755SOL    HW141227   9.343   1.576   0.935  2.3455 -1.0453  2.3940
11755SOL    HW241228   9.293   1.439   0.893 -1.3671  1.2449 -1.3988
11756SOL     OW41229   3.974   6.301   9.032  0.4546 -0.1956  0.1550
11756SOL    HW141230   3.882   6.308   9.006 -0.1999 -1.6193  1.9083
11756SOL    HW241231   3.986   6.371   9.096  0.5245 -0.2139  0.1617
11757SOL     OW41232   3.256   8.630   3.293  0.2040 -0.2656  0.1733
11757SOL    HW141233   3.304   8.704   3.254 -1.0291  1.1381  1.2250
11757SOL    HW241234   3.318   8.558   3.289  1.2167  0.6216 -1.5359
11758SOL     OW41235   4.301   5.601   2.026 -0.0568  0.0240  0.1949
11758SOL    HW141236   4.382   5.614   1.977 -0.0135 -2.5571 -0.5751
11758SOL    HW241237   4.313   5.653   2.106  1.6320  1.0199 -0.6442
11759SOL     OW41238   8.070   5.043   4.951  0.0258  0.5169  0.1927
11759SOL    HW141239   8.007   4.978   4.918  0.2464  0.1443  0.4924
11759SOL    HW241240   8.020   5.093   5.016 -0.1895  0.7479 -0.1494
11760SOL     OW41241   7.017   2.727   4.142  0.1603  0.2742 -0.0355
11760SOL    HW141242   6.923   2.723   4.158  0.0776  0.1104 -0.5726
11760SOL    HW241243   7.050   2.642   4.171 -0.0949 -0.3073 -1.3998
11761SOL     OW41244   4.277   4.585   1.826 -0.0259 -0.0972 -0.4843
11761SOL    HW141245   4.234   4.502   1.848 -1.2419  0.0757 -2.0163
11761SOL    HW241246   4.365   4.577   1.863 -0.8562 -1.1034  1.4215
11762SOL     OW41247   1.536   0.233   0.910  0.5184 -0.2203  0.5008
11762SOL    HW141248   1.515   0.285   0.832 -0.7103  0.2880  1.1423
11762SOL    HW241249   1.505   0.145   0.889 -1.8287  0.3808  1.1908
11763SOL     OW41250   6.398   3.115   9.151  0.4369  0.9751 -0.0460
11763SOL    HW141251   6.482   3.086   9.113  1.0643 -0.2633  2.1026
11763SOL    HW241252   6.337   3.044   9.131  0.9228  0.0201  1.6405
11764SOL     OW41253   3.777   0.794   6.361 -0.3494 -0.0154  0.0861
11764SOL    HW141254   3.812   0.705   6.368 -0.9881 -0.3706 -0.9899
11764SOL    HW241255   3.838   0.839   6.303  1.7098  1.2183  2.9380
11765SOL     OW41256   0.326   4.672   2.588 -0.7088  0.6606 -0.6534
11765SOL    HW141257   0.232   4.671   2.607 -0.8096  0.7557 -1.1299
11765SOL    HW241258   0.368   4.695   2.671 -1.1628  1.4924 -0.6458
11766SOL     OW41259   6.971   6.883   3.302 -0.4199 -0.1251  1.1467
11766SOL    HW141260   6.918   6.958   3.326  0.2799  1.1305 -0.8935
11766SOL    HW241261   6.916   6.832   3.242  0.1171  0.4062  0.1704
11767SOL     OW41262   1.462   3.072   1.617 -0.4518  0.2259 -0.0401
11767SOL    HW141263   1.427   3.131   1.684 -0.2248  1.2593 -0.8103
11767SOL    HW241264   1.435   3.112   1.534  1.7749  0.5706 -0.6415
11768SOL     OW41265   0.803   4.271   6.031  0.0013 -0.2884  0.0008
11768SOL    HW141266   0.858   4.214   5.978 -1.4512 -1.0435 -0.7533
11768SOL    HW241267   0.723   4.282   5.980  0.7338  3.6843 -0.5882
11769SOL     OW41268   1.729   4.979   4.538  0.6749  0.2782 -0.3953
11769SOL    HW141269   1.755   4.889   4.555  1.5973  0.7778  1.0631
11769SOL    HW241270   1.807   5.021   4.501  0.4272  0.6092 -0.5537
11770SOL     OW41271   3.446   4.815   3.680  0.9384  0.5498 -0.2864
11770SOL    HW141272   3.371   4.813   3.620 -0.6960  1.2760  1.5948
11770SOL    HW241273   3.450   4.726   3.716  2.1588  0.0052 -1.6674
11771SOL     OW41274   4.195   6.140   7.135  0.4467 -0.4254  0.3276
11771SOL    HW141275   4.235   6.054   7.118  0.6077 -0.4567  0.8676
11771SOL    HW241276   4.121   6.143   7.074  1.9049  0.1074 -1.5208
11772SOL     OW41277   7.899   1.546   2.528  0.2852 -0.0332  0.3081
11772SOL    HW141278   7.827   1.569   2.588  0.1583 -1.9235  0.9455
11772SOL    HW241279   7.920   1.455   2.550  0.8748 -0.4798 -1.9160
11773SOL     OW41280   8.246   4.528   8.225 -0.0778 -0.1633  0.2097
11773SOL    HW141281   8.217   4.462   8.162  1.7917 -0.4723 -0.3952
11773SOL    HW241282   8.244   4.483   8.310  0.8488 -0.9088 -0.1510
11774SOL     OW41283   7.070   4.954   8.567 -0.2584 -0.2387 -0.2910
11774SOL    HW141284   7.031   4.980   8.650 -3.7068 -1.1319 -1.4767
11774SOL    HW241285   7.053   5.028   8.508  2.0441  0.3388 -0.3502
11775SOL     OW41286   3.980   2.335   6.239 -0.2408 -0.0750 -0.1759
11775SOL    HW141287   3.912   2.387   6.283  0.2132 -0.1453  0.6190
11775SOL    HW241288   4.022   2.397   6.179 -0.0408  0.3506  0.3972
11776SOL     OW41289   6.216   9.321   3.613  0.2789  0.0183 -0.3147
11776SOL    HW141290   6.159   9.265   3.559 -0.6324  0.5903  0.0189
11776SOL    HW241291   6.155   9.376   3.662  1.1022 -0.0076  0.7879
11777SOL     OW41292   8.142   7.022   1.844  0.5083 -0.3703 -0.2833
11777SOL    HW141293   8.063   6.985   1.885  0.7694 -0.1029  0.4751
11777SOL    HW241294   8.172   6.954   1.784  0.6485 -1.1692  0.6684
11778SOL     OW41295   7.439   9.180   0.107  0.4774  0.3857  0.4143
11778SOL    HW141296   7.361   9.134   0.075  0.6353 -0.1338  0.7735
11778SOL    HW241297   7.441   9.261   0.055  0.1932  0.0004 -0.2145
11779SOL     OW41298   5.151   6.029   7.845  0.1166 -0.5900  0.1652
11779SOL    HW141299   5.114   6.083   7.776  0.7569 -1.4284 -0.8777
11779SOL    HW241300   5.124   6.071   7.927 -2.7103 -0.8988 -0.5153
11780SOL     OW41301   7.683   8.450   2.302 -0.2336 -0.7819 -0.3665
11780SOL    HW141302   7.642   8.393   2.237 -2.0823 -0.8066  0.7313
11780SOL    HW241303   7.774   8.422   2.305 -0.4405 -1.7200 -1.9099
11781SOL     OW41304   3.416   3.909   5.331  0.2732  0.1034 -0.5551
11781SOL    HW141305   3.374   3.973   5.273 -0.7580 -0.3465 -0.3295
11781SOL    HW241306   3.432   3.958   5.412 -2.2417 -0.3337  0.3137
11782SOL     OW41307   1.087   5.218   7.528  0.4532 -0.2144  0.4052
11782SOL    HW141308   1.107   5.147   7.467 -3.8905 -0.7936 -0.6616
11782SOL    HW241309   1.060   5.175   7.608  0.7807  0.3847  0.8522
11783SOL     OW41310   8.871   2.885   2.203 -0.3994 -0.1886 -0.3138
11783SOL    HW141311   8.821   2.964   2.183 -0.8996 -0.6120 -0.8089
11783SOL    HW241312   8.946   2.888   2.144 -1.3768 -0.9672 -1.6586
11784SOL     OW41313   1.990   0.355   8.601  0.8090 -0.0544  0.2282
11784SOL    HW141314   1.994   0.413   8.677 -0.5481  0.5544 -0.1380
11784SOL    HW241315   1.898   0.353   8.577  0.8511 -2.1520  0.0307
11785SOL     OW41316   0.440   0.076   9.152 -0.2182  0.5805  0.4820
11785SOL    HW141317   0.381   0.126   9.095 -0.7546 -1.6203 -1.0409
11785SOL    HW241318   0.412  -0.015   9.140  3.4634 -0.6051 -0.3372
11786SOL     OW41319   8.777   7.656   0.143  0.1956  0.0927  0.0677
11786SOL    HW141320   8.830   7.715   0.197 -0.0163 -1.1098  1.6770
11786SOL    HW241321   8.787   7.689   0.054  0.0830  2.5109  0.9012
11787SOL     OW41322   5.277   7.357   7.399  0.2822 -0.3481  0.9193
11787SOL    HW141323   5.214   7.428   7.410  0.0020 -0.5439  0.6157
11787SOL    HW241324   5.318   7.347   7.485  1.6442  1.4106  0.5247
11788SOL     OW41325   7.274   7.919   7.904 -0.1128 -0.2704  0.0705
11788SOL    HW141326   7.219   7.997   7.896  1.0555  0.5066 -0.7380
11788SOL    HW241327   7.308   7.922   7.993 -1.5692 -0.9190  0.6793
11789SOL     OW41328   5.694   5.907   8.070 -0.3139  0.2156 -0.1754
11789SOL    HW141329   5.696   5.854   8.150 -1.5235  0.5984  0.1258
11789SOL    HW241330   5.786   5.930   8.054  0.3275 -2.2576 -0.5281
11790SOL     OW41331   4.946   1.513   4.286  0.3659  0.4655  0.3297
11790SOL    HW141332   4.967   1.464   4.366  1.8212  0.6031  0.0688
11790SOL    HW241333   4.897   1.451   4.233  2.2176 -0.8120 -0.0159
11791SOL     OW41334   7.920   7.570   2.244  0.2528  0.1806  0.2587
11791SOL    HW141335   7.828   7.589   2.262  0.2679  1.0973 -0.5871
11791SOL    HW241336   7.933   7.482   2.281 -1.0731 -0.1523  0.0073
11792SOL     OW41337   2.870   5.317   3.771  0.3803 -0.1889 -0.3521
11792SOL    HW141338   2.897   5.227   3.792 -0.1008 -0.2353  0.0893
11792SOL    HW241339   2.849   5.314   3.678  3.0538  0.1503 -1.0399
11793SOL     OW41340   0.651   5.662   9.152 -0.1110  0.0779 -0.4456
11793SOL    HW141341   0.559   5.648   9.174 -0.6607  1.6691 -1.5861
11793SOL    HW241342   0.650   5.701   9.065  1.6944 -0.5196 -0.7897
11794SOL     OW41343   4.356   7.263   7.849 -0.6931 -0.0139 -0.1818
11794SOL    HW141344   4.322   7.327   7.911 -0.7934 -0.4574  0.2271
11794SOL    HW241345   4.412   7.206   7.902  0.7808  0.7524 -0.8428
11795SOL     OW41346   3.902   0.089   6.243 -0.5804  0.2470 -0.2522
11795SOL    HW141347   3.889   0.184   6.236  0.4674  0.5733  1.4528
11795SOL    HW241348   3.996   0.077   6.234 -0.6265 -0.5398  0.2123
11796SOL     OW41349   6.822   3.923   1.851 -0.3740 -0.2675 -0.1890
11796SOL    HW141350   6.868   3.901   1.770 -0.0958  1.2610 -0.4709
11796SOL    HW241351   6.869   3.999   1.885 -1.3550 -0.0292  0.6809
11797SOL     OW41352   2.685   5.084   4.834 -0.1381 -0.4187 -0.3365
11797SOL    HW141353   2.668   5.128   4.751 -2.1511 -1.3850 -0.4923
11797SOL    HW241354   2.768   5.122   4.865  0.9685 -0.4294 -3.0167
11798SOL     OW41355   6.332   0.993   7.864 -0.3159 -0.1467 -0.2702
11798SOL    HW141356   6.287   0.909   7.855 -0.1132 -0.2079 -0.7565
11798SOL    HW241357   6.297   1.030   7.945  0.9137 -1.5210  0.9636
11799SOL     OW41358   2.696   4.623   0.019 -0.3858 -0.4456 -0.0041
11799SOL    HW141359   2.617   4.662  -0.019 -0.4415  0.3023  0.8322
11799SOL    HW241360   2.735   4.693   0.071  0.8579 -0.7936 -0.4187
11800SOL     OW41361   5.414   5.467   3.424  0.8750  0.0716 -0.6002
11800SOL    HW141362   5.404   5.430   3.337  1.5611 -1.5142 -0.0497
11800SOL    HW241363   5.390   5.396   3.483  0.1541  1.2043  0.5114
11801SOL     OW41364   2.757   5.236   3.413 -0.3848 -0.2072  0.4556
11801SOL    HW141365   2.683   5.297   3.401  0.5707  1.0860  0.8780
11801SOL    HW241366   2.726   5.172   3.477 -0.7308  1.0687  1.6084
11802SOL     OW41367   1.189   3.561   4.351 -0.1701  0.1326  0.3664
11802SOL    HW141368   1.167   3.550   4.444 -1.8390 -0.7799 -0.0923
11802SOL    HW241369   1.108   3.541   4.305  0.8418 -0.2178 -1.3448
11803SOL     OW41370   1.149   4.158   6.353  0.3935 -0.6537  0.0401
11803SOL    HW141371   1.084   4.094   6.326  0.2756  0.0196 -1.3689
11803SOL    HW241372   1.215   4.157   6.284  1.7403 -1.0750  1.2677
11804SOL     OW41373   8.668   6.360   5.510 -0.0705  0.1885  0.1026
11804SOL    HW141374   8.754   6.319   5.510 -0.2173 -0.1420  1.1219
11804SOL    HW241375   8.686   6.453   5.520  0.1571  0.0811  0.7289
11805SOL     OW41376   0.213   0.843   9.175  0.3329 -0.2652 -0.5853
11805SOL    HW141377   0.294   0.824   9.126  0.0166 -2.4377 -0.3595
11805SOL    HW241378   0.237   0.914   9.234  1.8804 -0.3744 -1.0312
11806SOL     OW41379   6.920   0.358   1.555  0.0265 -0.4713 -0.0985
11806SOL    HW141380   6.901   0.319   1.640  0.5364 -1.1569 -0.2805
11806SOL    HW241381   7.010   0.332   1.537 -0.0376 -0.2310 -0.7909
11807SOL     OW41382   5.972   1.872   3.709 -0.8834 -0.2317 -0.2623
11807SOL    HW141383   6.051   1.854   3.760 -1.5209 -0.6699  0.6054
11807SOL    HW241384   5.951   1.963   3.729 -1.9064 -0.7871  1.4123
11808SOL     OW41385   8.489   2.549   6.136  0.3748 -0.5826  0.0916
11808SOL    HW141386   8.555   2.590   6.080 -0.6753  0.6293 -0.3052
11808SOL    HW241387   8.474   2.611   6.206  0.2140 -1.2055  0.6227
11809SOL     OW41388   6.063   3.449   5.810  0.1867 -0.3035 -0.4162
11809SOL    HW141389   6.078   3.541   5.789  1.4327 -0.4458 -0.2682
11809SOL    HW241390   6.119   3.433   5.886 -2.2049 -0.4642  1.4059
11810SOL     OW41391   0.071   8.865   2.819  0.1343  0.9800  0.2989
11810SOL    HW141392   0.032   8.952   2.834 -0.7277  0.8269 -0.9335
11810SOL    HW241393   0.009   8.804   2.859  1.4452  0.9506  2.4757
11811SOL     OW41394   5.912   8.915   2.427 -0.1483  0.0458  0.5059
11811SOL    HW141395   5.988   8.960   2.391  0.2141 -0.9865 -0.0737
11811SOL    HW241396   5.929   8.909   2.521  0.2952  0.1846  0.4348
11812SOL     OW41397   2.798   6.097   1.161  0.0690  0.3589 -0.3715
11812SOL    HW141398   2.739   6.149   1.216 -1.3406 -1.7113  0.1750
11812SOL    HW241399   2.883   6.105   1.205 -0.3225  1.3620  0.2580
11813SOL     OW41400   3.166   3.116   2.769 -0.5551  0.3191  0.1668
11813SOL    HW141401   3.261   3.130   2.765 -0.3023 -1.0921  0.4750
11813SOL    HW241402   3.130   3.174   2.703  0.8038 -1.0766 -1.9333
11814SOL     OW41403   9.215   0.454   7.648 -0.5751  0.1475 -0.5076
11814SOL    HW141404   9.243   0.520   7.712  1.1624 -0.7898 -0.2235
11814SOL    HW241405   9.222   0.371   7.695  0.9724 -0.5887 -1.9339
11815SOL     OW41406   5.474   2.286   2.319 -0.1973  0.1317 -0.1585
11815SOL    HW141407   5.522   2.368   2.305  1.9092 -0.9046  0.5631
11815SOL    HW241408   5.491   2.235   2.240  0.3701 -0.4462  0.3254
11816SOL     OW41409   4.726   6.070   5.810 -0.3316  0.4217  0.3216
11816SOL    HW141410   4.758   6.040   5.725 -1.5586 -1.3689  0.4296
11816SOL    HW241411   4.715   6.165   5.800 -0.3069  0.2685 -1.4568
11817SOL     OW41412   6.969   4.135   1.328  0.5710 -0.0955  0.1124
11817SOL    HW141413   6.921   4.066   1.374 -0.4500  0.2188 -0.4488
11817SOL    HW241414   7.042   4.089   1.286  0.1680 -0.7628  0.1200
11818SOL     OW41415   5.927   6.052   7.317 -0.4223  0.0770 -0.4155
11818SOL    HW141416   5.893   5.999   7.389 -1.1565  0.1221 -0.7188
11818SOL    HW241417   5.854   6.059   7.256  0.1294  0.2016 -1.0761
11819SOL     OW41418   6.408   4.056   7.120 -0.8017 -0.2610 -0.3658
11819SOL    HW141419   6.319   4.067   7.152 -1.3536  0.9475 -2.1567
11819SOL    HW241420   6.431   4.141   7.082  0.7663 -0.8207 -0.7840
11820SOL     OW41421   7.457   7.229   0.550  0.1929 -0.5915 -0.1550
11820SOL    HW141422   7.525   7.289   0.518  1.1478 -1.7712 -0.3914
11820SOL    HW241423   7.491   7.195   0.632 -1.3209  0.8030  1.1216
11821SOL     OW41424   3.059   6.432   2.628 -0.4806 -0.3401  0.2973
11821SOL    HW141425   3.100   6.452   2.544  1.4767 -0.9651  1.0310
11821SOL    HW241426   3.044   6.338   2.625 -0.3518 -0.3729  0.6686
11822SOL     OW41427   1.787   8.828   2.022 -0.0686  0.1639  0.4344
11822SOL    HW141428   1.789   8.806   2.115 -1.5902 -0.3076  0.3819
11822SOL    HW241429   1.698   8.808   1.994  0.5674 -0.4691 -1.3136
11823SOL     OW41430   1.113   4.294   9.315 -0.3380 -1.0222  0.1986
11823SOL    HW141431   1.096   4.353   9.242 -0.2364  0.2669  1.1689
11823SOL    HW241432   1.187   4.333   9.361 -0.1990 -1.9707  0.8139
11824SOL     OW41433   7.089   6.059   6.875  0.1383 -0.3715 -0.2901
11824SOL    HW141434   7.121   6.107   6.799 -1.0134 -0.0330 -0.5823
11824SOL    HW241435   6.994   6.056   6.863  0.0871 -1.7586  0.2907
11825SOL     OW41436   1.212   6.341   6.806  0.2146  0.2400  0.0822
11825SOL    HW141437   1.142   6.285   6.839  0.3211 -0.1982 -0.4171
11825SOL    HW241438   1.289   6.314   6.854 -0.1190  1.3409  1.2876
11826SOL     OW41439   8.107   7.421   8.858  0.4165 -0.5861  0.6209
11826SOL    HW141440   8.047   7.486   8.896  0.3770 -1.1931  1.6309
11826SOL    HW241441   8.056   7.379   8.789  0.5155  0.5968 -0.2029
11827SOL     OW41442   1.982   0.831   0.659  0.5717  0.1542 -0.5330
11827SOL    HW141443   1.913   0.794   0.604  1.0296  1.2934 -1.9134
11827SOL    HW241444   2.060   0.779   0.638  0.7507  0.5990 -0.9642
11828SOL     OW41445   8.535   0.793   1.879 -0.4483  0.2671  0.2468
11828SOL    HW141446   8.448   0.816   1.911 -0.3387 -0.3135  0.9904
11828SOL    HW241447   8.567   0.729   1.942 -0.0693 -0.6275 -0.8365
11829SOL     OW41448   3.177   6.652   0.859  0.6698  0.0955  0.4485
11829SOL    HW141449   3.230   6.732   0.858  0.0230  0.5300  0.3660
11829SOL    HW241450   3.151   6.639   0.768 -1.3309  1.2307  0.8069
11830SOL     OW41451   0.028   4.233   8.445  1.0441  0.4113 -0.4495
11830SOL    HW141452  -0.032   4.299   8.480  0.1751 -0.3687 -0.4153
11830SOL    HW241453  -0.029   4.171   8.399  1.7169 -0.8537  0.3688
11831SOL     OW41454   2.824   6.514   6.722 -0.2885  0.7042  1.2539
11831SOL    HW141455   2.739   6.532   6.681  0.0614  1.1309  0.6993
11831SOL    HW241456   2.868   6.599   6.723  1.4173 -0.0174 -1.4552
11832SOL     OW41457   5.270   8.957   2.718  0.0894  0.2126  0.3941
11832SOL    HW141458   5.262   8.862   2.711 -0.8754  0.3323 -0.3049
11832SOL    HW241459   5.347   8.979   2.665 -0.4231 -0.0592 -0.4739
11833SOL     OW41460   3.175   5.293   5.462  0.1645 -0.4155  0.0606
11833SOL    HW141461   3.144   5.367   5.515 -0.1239  0.5187 -1.3618
11833SOL    HW241462   3.270   5.291   5.478  0.4144  1.1972 -0.9485
11834SOL     OW41463   1.726   3.712   0.295 -0.0943  0.2766  0.5230
11834SOL    HW141464   1.719   3.808   0.290  1.0481  0.3895  0.7550
11834SOL    HW241465   1.707   3.682   0.207 -0.5135  0.7186  0.4610
11835SOL     OW41466   6.337   5.447   3.786  0.0018 -0.1095 -0.7343
11835SOL    HW141467   6.241   5.449   3.782 -0.0851  0.5759  0.7911
11835SOL    HW241468   6.366   5.477   3.700 -1.1742  0.4798 -0.9438
11836SOL     OW41469   3.615   8.515   2.547 -0.2874 -0.0686 -0.0225
11836SOL    HW141470   3.633   8.485   2.636 -0.7364 -0.6932 -0.1315
11836SOL    HW241471   3.616   8.610   2.552  0.7722 -0.0951  0.4225
11837SOL     OW41472   9.251   9.338   5.287  0.3888 -0.0445  0.5924
11837SOL    HW141473   9.267   9.378   5.373  0.3204  0.3113  0.4417
11837SOL    HW241474   9.219   9.410   5.233 -2.6935 -0.8695  1.1142
11838SOL     OW41475   2.754   2.604   7.868  0.2859 -0.3920  0.1169
11838SOL    HW141476   2.785   2.694   7.878 -3.4014  1.0484  0.0862
11838SOL    HW241477   2.692   2.592   7.939  0.2563 -2.7689 -0.2297
11839SOL     OW41478   4.686   7.737   6.382  0.3549  0.4579  0.5083
11839SOL    HW141479   4.736   7.662   6.415 -1.5277 -0.4926  1.3759
11839SOL    HW241480   4.645   7.774   6.460 -1.4707  0.2652 -0.3123
11840SOL     OW41481   2.003   7.826   1.163  0.3677 -0.1849  0.4511
11840SOL    HW141482   2.062   7.763   1.205  0.7432  0.0411  0.2731
11840SOL    HW241483   1.926   7.829   1.220 -0.0129 -1.4167  0.0214
11841SOL     OW41484   6.841   0.484   4.828  0.8505  0.4741  0.2329
11841SOL    HW141485   6.800   0.567   4.853  0.7669  0.0468  1.5701
11841SOL    HW241486   6.917   0.509   4.776 -0.8993  1.3080 -2.1321
11842SOL     OW41487   1.444   3.638   8.916 -0.1435 -0.1756  0.2757
11842SOL    HW141488   1.510   3.629   8.984 -0.2788 -0.8998  0.3255
11842SOL    HW241489   1.435   3.550   8.880  1.4265  0.5587 -2.1203
11843SOL     OW41490   2.268   0.660   0.141  0.0817  0.1527  0.2027
11843SOL    HW141491   2.363   0.673   0.136  0.0849  0.1059  0.1399
11843SOL    HW241492   2.247   0.611   0.061  0.4247 -2.3589  1.5634
11844SOL     OW41493   3.657   8.132   3.053  0.6501 -0.2616  0.2458
11844SOL    HW141494   3.634   8.053   3.102  0.1628  0.3886  1.0912
11844SOL    HW241495   3.742   8.158   3.089 -0.3476  1.0196  1.8276
11845SOL     OW41496   1.590   0.769   1.830 -0.1409  0.3046 -0.2980
11845SOL    HW141497   1.615   0.785   1.739  0.2860  1.1127 -0.0474
11845SOL    HW241498   1.503   0.809   1.838 -0.4108 -0.2378 -0.4879
11846SOL     OW41499   8.203   5.469   7.480  0.7294 -0.3160  0.0418
11846SOL    HW141500   8.111   5.444   7.473  0.0514  1.8562  0.3978
11846SOL    HW241501   8.228   5.493   7.391  1.1351 -1.4059 -0.1514
11847SOL     OW41502   1.546   2.100   8.590  0.0556 -0.0709 -0.2055
11847SOL    HW141503   1.542   2.143   8.675  0.9501  0.4902 -0.4359
11847SOL    HW241504   1.507   2.014   8.605  0.1873  0.0285  0.7687
11848SOL     OW41505   2.925   8.392   0.022 -0.0428 -0.4046 -0.7792
11848SOL    HW141506   2.848   8.384   0.078 -0.4118  1.4867 -0.9768
11848SOL    HW241507   2.918   8.478  -0.018  0.9390 -1.1384 -2.6843
11849SOL     OW41508   9.217   2.069   6.933  0.3852  0.2756 -0.6862
11849SOL    HW141509   9.244   1.995   6.988  0.5805 -0.0447 -1.2112
11849SOL    HW241510   9.264   2.144   6.970 -0.4682  0.3118  0.3844
11850SOL     OW41511   1.654   8.161   3.993 -0.1796 -0.6589 -0.3328
11850SOL    HW141512   1.709   8.182   4.068  0.1667  0.8194 -0.9577
11850SOL    HW241513   1.585   8.228   3.995  0.0570 -0.3555 -1.5340
11851SOL     OW41514   8.416   7.867   4.238  0.0538 -0.1448  0.5272
11851SOL    HW141515   8.448   7.802   4.301  0.1613  0.0499  0.6731
11851SOL    HW241516   8.487   7.931   4.231 -0.2852  0.2664  0.8173
11852SOL     OW41517   2.617   0.691   9.265 -0.1164  0.4873  0.4955
11852SOL    HW141518   2.525   0.666   9.268 -0.3884  1.3897  0.0096
11852SOL    HW241519   2.639   0.692   9.172  0.6781 -0.7152  0.6463
11853SOL     OW41520   3.443   1.483   6.428  0.5708 -0.7052 -0.0904
11853SOL    HW141521   3.524   1.496   6.379  0.5602 -1.1951 -0.2479
11853SOL    HW241522   3.398   1.413   6.381 -0.5729  0.4661 -0.7893
11854SOL     OW41523   7.536   1.421   4.628 -0.6910 -0.5063 -0.0338
11854SOL    HW141524   7.441   1.410   4.633 -0.7110 -0.4942 -0.3457
11854SOL    HW241525   7.557   1.486   4.695 -0.7377 -1.4686  0.9335
11855SOL     OW41526   3.076   6.267   5.315  0.0140 -0.1867 -0.2696
11855SOL    HW141527   3.169   6.263   5.339  0.1117  0.5971 -0.4843
11855SOL    HW241528   3.031   6.221   5.386  0.6749 -1.8897 -0.8956
11856SOL     OW41529   1.790   7.417   8.118  0.3606 -0.1216  0.6899
11856SOL    HW141530   1.723   7.374   8.065  0.1357 -0.9222  1.5839
11856SOL    HW241531   1.741   7.468   8.183  0.6304  0.8363  0.1597
11857SOL     OW41532   2.573   4.006   3.312 -0.4231 -0.6667 -0.1442
11857SOL    HW141533   2.497   4.022   3.256  0.6024  1.4222 -1.0405
11857SOL    HW241534   2.646   4.048   3.267  0.9544 -1.1259  1.5415
11858SOL     OW41535   8.970   2.007   5.710  0.2343 -0.2489  0.5444
11858SOL    HW141536   8.889   1.985   5.756 -1.1341  3.0315 -0.0634
11858SOL    HW241537   9.031   2.031   5.780 -0.5494  0.8700  0.8660
11859SOL     OW41538   0.368   6.532   5.748 -0.2756  0.0241  0.6494
11859SOL    HW141539   0.303   6.601   5.760  0.1392  0.7444 -1.0000
11859SOL    HW241540   0.325   6.468   5.692 -0.4020 -0.7384  1.5834
11860SOL     OW41541   2.916   3.846   3.637  0.2501 -0.4737  0.1629
11860SOL    HW141542   2.987   3.889   3.591 -0.0929 -0.5672 -0.4593
11860SOL    HW241543   2.836   3.875   3.593  0.0456 -2.3173 -0.8002
11861SOL     OW41544   7.906   9.319   8.533 -0.4298 -0.4154 -0.5178
11861SOL    HW141545   7.982   9.376   8.519 -0.3687 -0.5404 -0.6931
11861SOL    HW241546   7.890   9.323   8.627 -1.1820  0.8707 -0.6762
11862SOL     OW41547   7.615   8.322   7.511  0.3097 -0.2821 -0.4974
11862SOL    HW141548   7.548   8.264   7.476  0.9874  0.0325 -2.4588
11862SOL    HW241549   7.590   8.335   7.603 -1.3875 -1.4366 -0.7452
11863SOL     OW41550   5.381   3.403   1.123  0.7676 -0.0151 -0.4124
11863SOL    HW141551   5.338   3.360   1.048  1.4659 -0.5360 -0.5246
11863SOL    HW241552   5.418   3.483   1.087  0.9463 -0.1743 -0.5822
11864SOL     OW41553   5.406   3.865   9.183  0.1575  0.3786  0.6511
11864SOL    HW141554   5.435   3.908   9.263 -0.1998 -2.1483  2.2451
11864SOL    HW241555   5.312   3.883   9.179 -0.0377 -0.4218  1.4400
11865SOL     OW41556   6.271   0.104   4.255  0.2205  0.6333  0.1338
11865SOL    HW141557   6.271   0.076   4.347 -1.8507 -1.1615 -0.3335
11865SOL    HW241558   6.300   0.195   4.258 -0.7516  0.9538  2.7021
11866SOL     OW41559   3.303   6.881   7.912  0.2956 -0.0142 -0.0073
11866SOL    HW141560   3.261   6.928   7.840  0.3807  0.2723  0.1286
11866SOL    HW241561   3.309   6.790   7.881 -2.6218 -0.6066  0.8984
11867SOL     OW41562   1.770   0.789   6.106  0.3994 -0.1134  0.0457
11867SOL    HW141563   1.813   0.705   6.092 -0.3298 -0.5577  0.3571
11867SOL    HW241564   1.817   0.829   6.179  1.5266  0.3171 -0.8789
11868SOL     OW41565   5.253   4.284   0.058 -0.3505  0.2078  0.9150
11868SOL    HW141566   5.299   4.368   0.060  0.1069  0.0195 -0.5952
11868SOL    HW241567   5.283   4.242  -0.022 -2.6211 -0.2424  0.2223
11869SOL     OW41568   7.207   2.308   3.578 -0.3608  0.2793  0.5086
11869SOL    HW141569   7.198   2.401   3.558 -0.8153  0.1366  0.0013
11869SOL    HW241570   7.299   2.297   3.604 -0.5637  1.0423  1.5871
11870SOL     OW41571   4.042   1.294   9.288  0.4281  0.1223  0.1354
11870SOL    HW141572   3.973   1.267   9.227  1.7757 -0.6122 -1.1221
11870SOL    HW241573   4.078   1.213   9.322  0.9126  0.4794  0.4918
11871SOL     OW41574   7.016   0.345   4.993  0.1351 -0.0386 -0.2086
11871SOL    HW141575   7.064   0.420   5.027  0.2951 -0.5870  0.8234
11871SOL    HW241576   6.955   0.383   4.930  0.7354  0.8639 -0.2705
11872SOL     OW41577   7.030   7.983   1.861 -0.0513 -0.9607 -0.0106
11872SOL    HW141578   7.012   8.006   1.952 -0.4322 -0.5501 -0.1848
11872SOL    HW241579   7.121   8.007   1.848 -0.2894 -0.0116 -0.0329
11873SOL     OW41580   6.164   6.799   5.827  0.0596 -0.3537 -0.2486
11873SOL    HW141581   6.240   6.783   5.771 -0.6012 -0.5271 -1.1054
11873SOL    HW241582   6.142   6.712   5.862  0.4068 -0.2620  0.2098
11874SOL     OW41583   6.918   7.063   3.768  0.5394 -0.3034 -0.1154
11874SOL    HW141584   6.928   6.997   3.699  1.1060 -0.8863  0.5102
11874SOL    HW241585   6.957   7.022   3.846 -0.0373  0.3659  0.5354
11875SOL     OW41586   9.048   3.782   3.119  0.2342  0.0803 -0.7550
11875SOL    HW141587   9.125   3.819   3.075 -1.5043  1.4485 -2.8619
11875SOL    HW241588   9.016   3.716   3.058  1.3324 -2.6988  1.4449
11876SOL     OW41589   3.400   4.649   0.203 -0.5702  0.0262  0.1681
11876SOL    HW141590   3.319   4.599   0.210 -0.6244  0.1708  0.5583
11876SOL    HW241591   3.383   4.729   0.252 -0.3654  0.2826 -0.1728
11877SOL     OW41592   3.754   4.059   2.828  0.1760 -0.4853  0.4626
11877SOL    HW141593   3.762   4.151   2.852  1.7786 -0.4720  0.0302
11877SOL    HW241594   3.702   4.020   2.899  0.1799  0.5834  1.0795
11878SOL     OW41595   3.286   4.919   4.189 -0.4412  0.2980  0.3603
11878SOL    HW141596   3.294   5.014   4.190  0.6551  0.2380 -0.4798
11878SOL    HW241597   3.197   4.902   4.219 -0.6567  1.5851  0.5092
11879SOL     OW41598   1.210   8.512   2.934 -0.0191  0.0628 -0.3972
11879SOL    HW141599   1.265   8.521   3.012 -1.5407 -0.2240  0.7495
11879SOL    HW241600   1.200   8.417   2.923 -1.1058  0.1138  0.0296
11880SOL     OW41601   1.934   7.586   6.295  0.3131  0.0553  0.8219
11880SOL    HW141602   1.853   7.534   6.298 -0.1948  0.8358  0.7148
11880SOL    HW241603   2.004   7.520   6.294 -0.2758 -0.6153  2.0752
11881SOL     OW41604   4.511   0.896   1.578  1.0765  0.3770  0.3272
11881SOL    HW141605   4.536   0.903   1.486  1.0635 -2.2222  0.0676
11881SOL    HW241606   4.451   0.970   1.592  0.9690  0.7513 -1.7758
11882SOL     OW41607   5.045   1.650   0.033  0.7206  0.1119 -0.0404
11882SOL    HW141608   4.974   1.714   0.035  0.5249 -0.1004 -0.0884
11882SOL    HW241609   5.093   1.665   0.115 -0.0570 -0.4946  0.5468
11883SOL     OW41610   3.476   3.506   9.284  0.6485 -0.1264 -0.2058
11883SOL    HW141611   3.511   3.468   9.204  0.0487 -0.1751 -0.4501
11883SOL    HW241612   3.459   3.598   9.262 -1.4986 -0.6183 -0.8089
11884SOL     OW41613   8.067   2.935   9.023  0.1671 -0.3871  0.6681
11884SOL    HW141614   8.117   2.859   8.995  0.3316  0.1345 -0.4897
11884SOL    HW241615   8.087   3.003   8.958  0.5984  0.8861  2.0652
11885SOL     OW41616   6.201   8.389   5.518 -0.1554  0.4121 -0.3782
11885SOL    HW141617   6.288   8.349   5.525 -0.6757 -1.1504 -2.0709
11885SOL    HW241618   6.143   8.316   5.498 -1.3673  1.8309 -2.3715
11886SOL     OW41619   7.433   7.587   1.470  0.4801 -0.2906 -0.3686
11886SOL    HW141620   7.342   7.557   1.464 -0.5980  2.3377  1.1032
11886SOL    HW241621   7.461   7.561   1.558  0.8216 -0.2107 -0.4538
11887SOL     OW41622   2.478   5.093   7.419  0.5038  0.4636  0.1441
11887SOL    HW141623   2.526   5.010   7.408  1.1845  0.8005  0.5024
11887SOL    HW241624   2.490   5.137   7.335  0.2681  0.2639  0.0047
11888SOL     OW41625   4.288   4.477   7.627 -0.0561  0.4985  0.0159
11888SOL    HW141626   4.373   4.439   7.648 -1.1958 -0.7512  2.8754
11888SOL    HW241627   4.259   4.431   7.549  1.3366  0.0609 -0.2667
11889SOL     OW41628   6.329   6.137   0.590 -0.0622 -0.1253 -0.4537
11889SOL    HW141629   6.285   6.143   0.675  1.9525  2.4318  0.5680
11889SOL    HW241630   6.363   6.225   0.574  2.4587 -1.2973 -2.3125
11890SOL     OW41631   2.663   7.552   5.362  0.0054  0.0730 -0.3523
11890SOL    HW141632   2.569   7.550   5.381  0.4339  2.1022  2.6530
11890SOL    HW241633   2.695   7.466   5.389 -0.6419  0.2759  1.1699
11891SOL     OW41634   3.160   0.469   8.452  0.4257  0.1256  0.0726
11891SOL    HW141635   3.185   0.405   8.385  1.2117  0.5635 -0.0708
11891SOL    HW241636   3.196   0.434   8.533  1.8596  0.9144 -0.1843
11892SOL     OW41637   4.310   7.453   2.061 -0.0359  0.1674 -0.2363
11892SOL    HW141638   4.297   7.377   2.118  0.7870 -0.0813 -0.3639
11892SOL    HW241639   4.402   7.448   2.036 -0.3246  0.4005 -1.3956
11893SOL     OW41640   7.456   0.218   8.636 -0.0054  0.1146  0.3010
11893SOL    HW141641   7.419   0.134   8.665  0.2028 -1.3269 -3.1585
11893SOL    HW241642   7.547   0.198   8.615 -0.2571  0.8322 -1.7165
11894SOL     OW41643   2.053   8.211   3.664  0.0737  0.2592  1.1383
11894SOL    HW141644   2.033   8.175   3.750 -2.7516  0.3382  0.6298
11894SOL    HW241645   2.060   8.305   3.679  1.4922  0.1008  1.5484
11895SOL     OW41646   8.453   2.766   6.745 -0.6463 -0.2781  0.2069
11895SOL    HW141647   8.539   2.806   6.733  0.1094 -2.0006 -0.4628
11895SOL    HW241648   8.402   2.794   6.669  0.0107 -0.9121 -0.4809
11896SOL     OW41649   3.473   7.650   1.257  0.5112  0.0767 -0.0191
11896SOL    HW141650   3.549   7.593   1.267  0.3704 -0.0137  0.5346
11896SOL    HW241651   3.506   7.738   1.272  0.2800 -0.0643  1.4102
11897SOL     OW41652   1.398   7.075   8.018 -0.9179  0.1074 -0.1306
11897SOL    HW141653   1.363   7.050   7.933  0.4040 -0.9075 -0.4132
11897SOL    HW241654   1.401   6.993   8.067 -2.2590  0.7728  1.1641
11898SOL     OW41655   7.784   3.037   9.035 -0.1958 -0.4124  0.1943
11898SOL    HW141656   7.877   3.022   9.056  0.1235 -0.0635 -0.9171
11898SOL    HW241657   7.785   3.107   8.970 -1.3104  0.2759  0.8902
11899SOL     OW41658   7.069   6.464   7.651  0.6246  0.0523 -0.2017
11899SOL    HW141659   7.010   6.403   7.608 -0.5107  1.0920 -0.1583
11899SOL    HW241660   7.131   6.408   7.697 -0.4851 -1.0688 -0.0154
11900SOL     OW41661   0.289   7.347   5.559  0.0956  0.1377  0.2932
11900SOL    HW141662   0.258   7.258   5.578 -0.1577  0.1315 -0.1345
11900SOL    HW241663   0.257   7.400   5.632  0.7895 -0.2299  0.8850
11901SOL     OW41664   3.103   7.240   8.571 -0.2485 -0.2044  0.0705
11901SOL    HW141665   3.174   7.251   8.509  0.7163 -0.9843  1.0090
11901SOL    HW241666   3.088   7.328   8.607 -0.2277  0.0812 -0.6075
11902SOL     OW41667   8.274   5.360   0.528 -0.2936  0.2380  0.3205
11902SOL    HW141668   8.343   5.378   0.465  0.9732 -1.0166  1.3089
11902SOL    HW241669   8.200   5.329   0.475  0.3959  0.1545 -0.6070
11903SOL     OW41670   7.418   8.327   5.164  0.0750  0.4151  0.2969
11903SOL    HW141671   7.492   8.308   5.222 -0.1594  1.7952  1.1030
11903SOL    HW241672   7.451   8.313   5.076  1.5469  1.6786  0.5993
11904SOL     OW41673   9.310   3.357   1.367  0.1147 -0.4974 -0.4439
11904SOL    HW141674   9.251   3.411   1.315 -0.1849 -0.1787  0.2167
11904SOL    HW241675   9.384   3.341   1.309 -1.1397 -1.9353 -1.7365
11905SOL     OW41676   5.012   2.403   2.455 -0.0529 -0.6400  0.0706
11905SOL    HW141677   5.003   2.460   2.379 -1.1161 -2.4162 -1.2032
11905SOL    HW241678   5.043   2.461   2.525  1.7533  0.9047 -1.8769
11906SOL     OW41679   9.178   8.023   6.279  0.1373  0.0586 -0.1335
11906SOL    HW141680   9.241   7.964   6.321  0.4401  0.4049 -0.0996
11906SOL    HW241681   9.226   8.104   6.265 -0.6980  0.8167  1.1599
11907SOL     OW41682   0.272   4.964   5.621  0.2527 -0.0636  0.0580
11907SOL    HW141683   0.288   5.045   5.669 -0.6860  0.3213 -0.2736
11907SOL    HW241684   0.230   4.906   5.686  2.0121 -0.7592  0.6633
11908SOL     OW41685   4.628   6.592   1.195  0.3572  0.3854 -0.4687
11908SOL    HW141686   4.662   6.659   1.254  0.4000 -0.5068  0.5479
11908SOL    HW241687   4.703   6.537   1.175  0.5317  1.1412 -2.0491
11909SOL     OW41688   6.322   4.940   0.480 -0.5999 -0.5627 -0.2711
11909SOL    HW141689   6.268   4.862   0.466 -1.0396 -0.2595 -0.2856
11909SOL    HW241690   6.393   4.932   0.416 -0.7522 -0.8514 -0.4077
11910SOL     OW41691   1.835   0.328   6.377 -0.4282  0.2700  0.0740
11910SOL    HW141692   1.823   0.310   6.284 -2.0152 -0.8934  0.4675
11910SOL    HW241693   1.848   0.242   6.417  0.3652  0.7622  0.9303
11911SOL     OW41694   0.381   6.436   9.047 -0.0661  0.2698 -0.1101
11911SOL    HW141695   0.331   6.514   9.067 -0.0136  0.4636 -0.7104
11911SOL    HW241696   0.414   6.451   8.958  1.2044  0.2311  0.3335
11912SOL     OW41697   5.591   8.295   0.702  0.2569 -0.0711 -0.3384
11912SOL    HW141698   5.653   8.345   0.755  0.0618 -0.4941  0.3027
11912SOL    HW241699   5.507   8.308   0.744  0.0106  0.0181 -0.8585
11913SOL     OW41700   2.622   5.737   6.350  0.0113 -0.0357 -0.5206
11913SOL    HW141701   2.661   5.783   6.276 -0.9290  0.7567 -0.5412
11913SOL    HW241702   2.570   5.667   6.310 -2.1044  1.5815 -0.7934
11914SOL     OW41703   0.152   7.629   0.380  0.0835 -0.1356  0.5234
11914SOL    HW141704   0.125   7.703   0.325 -2.3669  0.2200  2.0626
11914SOL    HW241705   0.205   7.668   0.449 -0.2579  0.0237  0.6969
11915SOL     OW41706   8.436   5.268   7.165  0.5892  0.2398  0.6651
11915SOL    HW141707   8.519   5.235   7.132  1.0312  1.0231  0.9591
11915SOL    HW241708   8.403   5.199   7.223 -0.1424 -1.1085 -1.2649
11916SOL     OW41709   1.812   6.519   6.052  0.3653 -0.1461  0.2575
11916SOL    HW141710   1.893   6.470   6.068 -1.0482 -2.0600  2.1616
11916SOL    HW241711   1.779   6.540   6.139 -0.7528  1.4107 -0.4918
11917SOL     OW41712   5.816   1.742   8.703  0.1881 -0.7730 -0.2819
11917SOL    HW141713   5.878   1.783   8.763  0.4059 -0.7247 -0.5417
11917SOL    HW241714   5.746   1.711   8.760  0.7250 -1.3407  0.0720
11918SOL     OW41715   2.505   1.292   8.205 -0.1199  0.2073  0.3022
11918SOL    HW141716   2.584   1.240   8.195 -0.0254  0.6030 -1.3805
11918SOL    HW241717   2.534   1.382   8.191 -0.9927  0.2717 -1.3757
11919SOL     OW41718   4.839   8.648   6.481  0.3821 -0.2093 -0.0323
11919SOL    HW141719   4.748   8.664   6.507 -0.3530 -1.3690 -1.7511
11919SOL    HW241720   4.832   8.597   6.400  2.5591  0.7686 -0.8956
11920SOL     OW41721   0.471   7.861   7.193 -0.0252  0.1982 -0.2712
11920SOL    HW141722   0.535   7.904   7.136  1.0437 -1.8336 -0.7109
11920SOL    HW241723   0.471   7.770   7.164 -3.3318  0.1251 -0.4123
11921SOL     OW41724   7.094   6.588   6.855  0.4024 -0.3138 -0.0385
11921SOL    HW141725   7.142   6.638   6.789  0.4727 -0.0147  0.2390
11921SOL    HW241726   7.141   6.505   6.861  2.4309  0.8660  2.0071
11922SOL     OW41727   1.385   8.244   2.145 -0.0562 -0.7788  0.6884
11922SOL    HW141728   1.461   8.302   2.136 -0.0262 -0.8353  0.5824
11922SOL    HW241729   1.405   8.168   2.091 -0.8715 -0.0937 -0.6266
11923SOL     OW41730   7.094   0.300   6.779 -0.1644  0.1470  0.6979
11923SOL    HW141731   7.154   0.328   6.710 -0.1792  2.6327  1.5783
11923SOL    HW241732   7.151   0.263   6.847  0.0298 -0.5423  0.1667
11924SOL     OW41733   3.337   1.421   1.439 -0.3817  0.7123  0.1823
11924SOL    HW141734   3.326   1.414   1.534  0.2193  1.5386  0.3282
11924SOL    HW241735   3.392   1.346   1.416  1.8268  1.9885  0.9374
11925SOL     OW41736   0.917   3.385   6.305 -0.2802  0.2948  0.1669
11925SOL    HW141737   0.877   3.327   6.240 -2.2458  1.1003  0.6006
11925SOL    HW241738   0.917   3.333   6.386 -1.2712  0.5739  0.3607
11926SOL     OW41739   0.365   7.261   9.273 -0.2682  0.8650 -0.8561
11926SOL    HW141740   0.436   7.204   9.302 -1.4038 -1.1241 -1.8161
11926SOL    HW241741   0.298   7.254   9.342 -0.1262  1.6583 -0.6202
11927SOL     OW41742   2.543   4.465   5.486  0.2035 -0.1029 -0.0021
11927SOL    HW141743   2.623   4.433   5.443 -1.0881 -1.1349 -1.7509
11927SOL    HW241744   2.540   4.558   5.464  0.1620 -0.3800 -1.2118
11928SOL     OW41745   9.324   1.979   0.568 -0.5673  1.0240 -0.3319
11928SOL    HW141746   9.236   1.957   0.539 -0.7810 -2.4662  2.2462
11928SOL    HW241747   9.312   2.044   0.638 -1.3215 -0.3422  0.8663
11929SOL     OW41748   4.640   2.365   0.357 -0.0035 -0.2252 -0.3361
11929SOL    HW141749   4.644   2.382   0.451  1.2013  0.5175 -0.4988
11929SOL    HW241750   4.583   2.289   0.348 -0.8983  0.2669  0.9152
11930SOL     OW41751   8.104   9.281   7.157  0.0232 -0.5930 -0.2732
11930SOL    HW141752   8.020   9.295   7.113 -0.4335 -1.0420  0.4447
11930SOL    HW241753   8.124   9.188   7.141  0.6432 -0.3666 -0.8755
11931SOL     OW41754   4.778   6.453   1.658  0.4109  0.4549 -0.4888
11931SOL    HW141755   4.785   6.548   1.664 -2.7380  0.8383 -1.3702
11931SOL    HW241756   4.831   6.430   1.581  1.7359  1.3609  0.1135
11932SOL     OW41757   8.926   7.838   0.281  0.0547  0.2556  0.5636
11932SOL    HW141758   8.898   7.913   0.332 -2.4793  0.2457 -0.6562
11932SOL    HW241759   8.945   7.874   0.194  1.0559 -0.2120  0.5738
11933SOL     OW41760   7.097   8.012   6.431  0.1027  0.3065 -0.1327
11933SOL    HW141761   7.073   8.072   6.501 -1.1949  0.5409 -0.7429
11933SOL    HW241762   7.089   8.063   6.351  2.2142  0.2292 -0.4405
11934SOL     OW41763   1.346   2.830   2.881  0.7651  0.2473  0.0034
11934SOL    HW141764   1.438   2.824   2.857  0.7690  3.2707 -1.2033
11934SOL    HW241765   1.344   2.892   2.954 -0.2745 -0.1700  0.3416
11935SOL     OW41766   8.857   5.000   3.542 -0.0171 -0.4749  0.1065
11935SOL    HW141767   8.907   4.918   3.547  0.2930 -0.3735 -1.0407
11935SOL    HW241768   8.825   5.004   3.452  0.6196  1.0255 -0.0913
11936SOL     OW41769   4.873   3.617   4.645  0.1171  0.6150 -0.5064
11936SOL    HW141770   4.961   3.594   4.674  0.4517  0.9831 -1.2309
11936SOL    HW241771   4.874   3.604   4.550 -0.1853  1.9847 -0.7179
11937SOL     OW41772   2.723   7.333   1.300 -0.0148  0.6752 -0.0292
11937SOL    HW141773   2.720   7.417   1.254  0.4856  1.1288  0.7347
11937SOL    HW241774   2.812   7.328   1.336 -0.4831  0.5051  1.1596
11938SOL     OW41775   1.414   3.383   1.165  0.3093  0.3386 -0.2870
11938SOL    HW141776   1.469   3.460   1.151  0.6318  0.2836  0.5688
11938SOL    HW241777   1.331   3.418   1.196  1.2579  0.3298  2.6291
11939SOL     OW41778   8.267   9.017   3.287 -0.2121  0.2167 -0.2585
11939SOL    HW141779   8.222   9.084   3.237 -0.9846 -0.8746 -1.0869
11939SOL    HW241780   8.213   8.938   3.276  1.4378 -0.9374 -0.6041
11940SOL     OW41781   7.696   8.403   5.288 -0.1597 -0.1541  0.3428
11940SOL    HW141782   7.650   8.426   5.369  0.4204 -0.2974  0.7173
11940SOL    HW241783   7.773   8.355   5.317 -0.3427 -0.8831 -0.3416
11941SOL     OW41784   8.962   4.593   6.403  0.8626 -0.7535 -0.3145
11941SOL    HW141785   9.049   4.606   6.442  1.1949  1.5316 -1.6035
11941SOL    HW241786   8.920   4.679   6.409 -1.1914 -1.7171 -0.0881
11942SOL     OW41787   0.933   5.394   6.769  0.3069 -0.1673  0.2884
11942SOL    HW141788   0.878   5.316   6.758 -0.0163  0.2161 -0.9994
11942SOL    HW241789   0.914   5.447   6.692  0.3035  1.3328  1.2796
11943SOL     OW41790   7.267   7.543   6.941 -0.3665  0.3543 -0.0647
11943SOL    HW141791   7.207   7.477   6.905  1.2722 -1.3236  0.0800
11943SOL    HW241792   7.212   7.600   6.994 -1.7893 -1.3345  0.3630
11944SOL     OW41793   6.751   5.697   5.684  0.7788 -1.1003 -0.2181
11944SOL    HW141794   6.722   5.641   5.612  1.2086 -0.1656 -1.1513
11944SOL    HW241795   6.709   5.781   5.668  0.9062 -0.8687  0.6127
11945SOL     OW41796   2.265   2.161   7.697 -0.1804  0.0756  0.2278
11945SOL    HW141797   2.270   2.113   7.779 -0.9962  2.3613  1.6913
11945SOL    HW241798   2.342   2.218   7.697 -0.5289  0.5637 -0.2852
11946SOL     OW41799   3.889   7.237   7.337  0.5316 -0.0338  0.0550
11946SOL    HW141800   3.825   7.180   7.379  1.0751 -0.4310  0.3367
11946SOL    HW241801   3.867   7.232   7.243  0.5091 -0.6116  0.0891
11947SOL     OW41802   0.835   6.912   6.337  0.1144 -0.2340 -0.3586
11947SOL    HW141803   0.926   6.936   6.355  0.5061 -2.1909  0.5045
11947SOL    HW241804   0.790   6.922   6.421  0.5373 -3.3320  0.3412
11948SOL     OW41805   4.064   1.735   2.282  0.0237 -0.6404  0.1979
11948SOL    HW141806   4.027   1.821   2.262  0.7789 -0.7763 -2.0416
11948SOL    HW241807   3.998   1.673   2.250  0.4907 -0.8819 -0.3050
11949SOL     OW41808   6.522   1.647   5.575 -0.0008 -0.3188  0.2494
11949SOL    HW141809   6.481   1.720   5.622  0.9136 -0.8972  2.0394
11949SOL    HW241810   6.513   1.572   5.634  0.0535 -1.4089 -1.0764
11950SOL     OW41811   2.696   3.004   7.263 -0.6751 -0.3115 -0.2003
11950SOL    HW141812   2.650   3.045   7.190  2.2307 -0.8238 -2.5381
11950SOL    HW241813   2.726   3.078   7.317 -0.6097  0.2586 -1.0069
11951SOL     OW41814   9.053   4.660   0.578 -0.4494  0.1147  0.3093
11951SOL    HW141815   9.071   4.605   0.501 -0.1882 -0.2887  0.6590
11951SOL    HW241816   9.088   4.611   0.652  1.2901  1.4897  0.4699
11952SOL     OW41817   9.338   5.653   5.576 -0.3778 -0.0840 -0.6342
11952SOL    HW141818   9.245   5.632   5.569 -0.2446 -0.1911 -2.5475
11952SOL    HW241819   9.362   5.684   5.489  1.1660  0.8915  0.0968
11953SOL     OW41820   2.079   7.544   3.022  0.1637 -0.4237  0.4672
11953SOL    HW141821   2.069   7.615   3.086  0.4446  0.0260  0.0235
11953SOL    HW241822   2.172   7.546   3.000  0.4901 -1.9255  1.5614
11954SOL     OW41823   7.899   6.487   4.399 -0.1401  0.4480 -0.2401
11954SOL    HW141824   7.901   6.511   4.492 -0.8124  1.8933 -0.5800
11954SOL    HW241825   7.954   6.553   4.356  1.9926 -1.4542 -0.6573
11955SOL     OW41826   5.935   8.674   2.602 -0.1559 -0.0446  0.3671
11955SOL    HW141827   5.936   8.650   2.509  1.0412  0.9685  0.0907
11955SOL    HW241828   6.017   8.640   2.637  0.3523  1.3217  0.5602
11956SOL     OW41829   0.902   3.770   3.567  0.2886  0.3622  0.2111
11956SOL    HW141830   0.879   3.808   3.482  0.6562  0.4188  0.1358
11956SOL    HW241831   0.935   3.683   3.546  1.3405  0.7502  0.1957
11957SOL     OW41832   6.977   6.186   5.341 -0.0167  0.2357  0.2387
11957SOL    HW141833   7.029   6.136   5.404 -0.3728 -0.0654  0.2959
11957SOL    HW241834   6.971   6.273   5.380  0.3522  0.2458  0.2823
11958SOL     OW41835   0.953   3.384   8.292 -0.3352 -0.1107 -0.5731
11958SOL    HW141836   0.945   3.479   8.297 -0.1653 -0.1079 -0.3546
11958SOL    HW241837   0.933   3.354   8.381  1.2406 -0.1699 -0.2233
11959SOL     OW41838   7.184   5.040   1.408  0.0116 -0.2235 -0.3131
11959SOL    HW141839   7.251   4.993   1.359  0.4584  0.0128  0.0645
11959SOL    HW241840   7.183   4.999   1.494  0.7847  0.7743  0.2037
11960SOL     OW41841   5.302   4.272   4.716  0.2061 -0.1128 -0.0720
11960SOL    HW141842   5.358   4.205   4.677  1.0563 -0.0307  0.9431
11960SOL    HW241843   5.331   4.277   4.807 -0.7137  0.7293  0.1957
11961SOL     OW41844   6.974   8.729   1.571 -0.3291 -0.2343 -0.6267
11961SOL    HW141845   6.927   8.812   1.571  0.2263  0.0894 -1.1844
11961SOL    HW241846   6.948   8.687   1.653  2.9524  2.5363  2.1546
11962SOL     OW41847   1.784   1.438   4.364 -0.0097 -0.0146 -0.2483
11962SOL    HW141848   1.822   1.430   4.276  0.1896  0.6373 -0.2311
11962SOL    HW241849   1.820   1.520   4.398 -2.2015  1.1922 -0.6180
11963SOL     OW41850   0.594   4.473   2.842 -0.0433  0.0358 -0.2624
11963SOL    HW141851   0.516   4.527   2.846 -0.1206 -0.1676  2.1944
11963SOL    HW241852   0.666   4.535   2.832 -0.2377  0.5407  1.2633
11964SOL     OW41853   0.798   1.482   4.519 -0.0842 -0.4827 -0.2683
11964SOL    HW141854   0.788   1.566   4.474  1.7453 -0.3284 -0.4482
11964SOL    HW241855   0.840   1.424   4.455 -1.8549 -1.7618 -0.3575
11965SOL     OW41856   9.332   5.771   5.866 -0.0594  0.4316 -0.0431
11965SOL    HW141857   9.353   5.863   5.850 -0.5720  0.6934  0.7011
11965SOL    HW241858   9.322   5.733   5.779 -0.3585  1.2051 -0.3551
11966SOL     OW41859   2.044   6.920   2.262 -0.1728 -0.1171 -0.2162
11966SOL    HW141860   2.087   6.841   2.229  1.4148 -0.2986  2.0003
11966SOL    HW241861   1.974   6.886   2.318  0.4610  0.0120  0.6750
11967SOL     OW41862   0.320   7.009   5.755  0.0129 -0.0452 -0.1709
11967SOL    HW141863   0.415   7.005   5.745  0.1441  3.1901 -1.5886
11967SOL    HW241864   0.306   7.043   5.843  0.2869  1.1663 -0.5801
11968SOL     OW41865   1.052   7.845   2.524  0.3168 -0.2094 -0.5611
11968SOL    HW141866   1.068   7.885   2.438  1.0275 -0.0239 -0.3524
11968SOL    HW241867   0.960   7.865   2.543  0.5159  0.9056 -0.6911
11969SOL     OW41868   3.700   5.033   9.163 -0.3491  0.0684 -0.1100
11969SOL    HW141869   3.604   5.038   9.166 -0.5411 -2.5248  0.0540
11969SOL    HW241870   3.721   5.018   9.071 -0.0069  1.2892 -0.2555
11970SOL     OW41871   3.756   5.368   8.643 -0.2365  0.0602 -0.5421
11970SOL    HW141872   3.678   5.351   8.695 -0.1084 -2.0696 -0.9412
11970SOL    HW241873   3.821   5.399   8.706 -1.5016  2.5060 -0.2989
11971SOL     OW41874   1.329   1.916   8.651 -0.1998 -0.3912  0.6380
11971SOL    HW141875   1.245   1.909   8.607 -0.6326  0.5849  1.2663
11971SOL    HW241876   1.307   1.917   8.744  0.7251 -2.9703  0.9776
11972SOL     OW41877   5.773   6.514   5.886 -0.0997  0.0338 -0.6883
11972SOL    HW141878   5.714   6.441   5.907 -0.6322  0.5837 -0.2268
11972SOL    HW241879   5.734   6.554   5.808 -0.9139  0.9888  0.1733
11973SOL     OW41880   6.226   0.885   8.634  0.6031 -0.0391 -0.5551
11973SOL    HW141881   6.175   0.901   8.713 -0.1172 -1.1517 -0.7608
11973SOL    HW241882   6.205   0.957   8.575  1.5755  1.1007  0.4501
11974SOL     OW41883   9.346   7.271   4.373  0.3175 -0.0730  0.0545
11974SOL    HW141884   9.352   7.360   4.338  2.8541  0.2834  1.1684
11974SOL    HW241885   9.298   7.280   4.455  0.1370  0.2019 -0.0835
11975SOL     OW41886   4.664   4.963   5.762 -0.3195 -0.2795 -0.4669
11975SOL    HW141887   4.706   4.961   5.847 -2.0477 -1.0403  0.4290
11975SOL    HW241888   4.732   4.937   5.700  1.3426  1.6742  0.4671
11976SOL     OW41889   6.022   9.217   7.745  0.1201 -0.1914 -0.4324
11976SOL    HW141890   6.054   9.134   7.708 -0.7308 -0.9911  0.5639
11976SOL    HW241891   6.102   9.263   7.772  0.5702 -1.3173  0.2822
11977SOL     OW41892   3.863   3.427   2.148 -0.1153  0.4509 -0.3925
11977SOL    HW141893   3.772   3.422   2.118 -0.5714 -0.2339  0.9975
11977SOL    HW241894   3.868   3.362   2.219  1.8340 -0.5171 -1.3526
11978SOL     OW41895   8.818   9.141   4.589 -0.2002  0.0250  0.1305
11978SOL    HW141896   8.788   9.126   4.679 -0.9464 -0.9605 -0.2589
11978SOL    HW241897   8.912   9.127   4.592 -0.1674  0.3680  0.8367
11979SOL     OW41898   8.016   5.707   5.388  0.3168 -0.5713 -0.2746
11979SOL    HW141899   7.988   5.786   5.342  0.9365  0.8030  1.5457
11979SOL    HW241900   8.102   5.730   5.425  0.4151 -2.0147  0.4662
11980SOL     OW41901   8.638   5.913   1.399 -0.0086 -0.0158 -0.6906
11980SOL    HW141902   8.602   6.002   1.399  1.0923  0.4475 -0.2726
11980SOL    HW241903   8.667   5.900   1.308 -2.1808 -0.8326 -1.3382
11981SOL     OW41904   8.149   5.910   0.053 -0.1812  0.0455 -0.3260
11981SOL    HW141905   8.222   5.960   0.091 -1.3993  1.2051  0.6193
11981SOL    HW241906   8.072   5.939   0.103 -1.2082 -1.5801 -0.8842
11982SOL     OW41907   6.140   1.395   1.696 -0.0527 -0.5952  0.2967
11982SOL    HW141908   6.148   1.477   1.648 -0.8486 -1.7814 -2.0167
11982SOL    HW241909   6.213   1.341   1.665  0.7691 -0.6409  2.1655
11983SOL     OW41910   2.067   4.946   3.450 -0.4772 -0.1899 -0.1691
11983SOL    HW141911   2.089   5.011   3.384  1.5220 -2.0020 -1.4230
11983SOL    HW241912   2.129   4.874   3.435  0.7033 -0.4091  4.1895
11984SOL     OW41913   4.820   3.604   1.842  0.1732  0.1064 -0.5773
11984SOL    HW141914   4.824   3.698   1.824  2.3413 -0.1600 -1.8300
11984SOL    HW241915   4.729   3.580   1.824 -0.0348  1.6759 -1.8849
11985SOL     OW41916   8.437   9.015   4.377  0.2729  0.9341  0.1368
11985SOL    HW141917   8.348   9.043   4.400 -0.6060  0.0191 -1.9076
11985SOL    HW241918   8.466   8.962   4.452 -1.6040 -0.1836  0.1264
11986SOL     OW41919   4.994   2.163   3.234  0.0217  0.2192  0.2578
11986SOL    HW141920   5.007   2.089   3.294 -0.8422 -0.4912 -0.3919
11986SOL    HW241921   5.017   2.127   3.148  0.7293  1.0682  0.0743
11987SOL     OW41922   8.424   6.747   1.127 -0.2307  0.7888  0.2097
11987SOL    HW141923   8.431   6.830   1.173  0.4496  0.3506  0.9290
11987SOL    HW241924   8.490   6.752   1.058  2.1753 -0.3531  2.2409
11988SOL     OW41925   7.177   4.513   9.074  0.0878  0.2367  0.1737
11988SOL    HW141926   7.201   4.444   9.012 -2.9004 -0.1564 -0.6875
11988SOL    HW241927   7.207   4.594   9.034  1.5116 -0.3203  0.0571
11989SOL     OW41928   5.681   3.451   7.691  0.3522  0.1394 -0.3556
11989SOL    HW141929   5.716   3.513   7.628 -0.1942 -0.7739 -1.6223
11989SOL    HW241930   5.660   3.503   7.768 -0.2637  1.5642 -1.4423
11990SOL     OW41931   4.250   3.710   8.922  0.3657 -0.1565 -0.3154
11990SOL    HW141932   4.234   3.772   8.851  0.3543 -0.3058 -0.4436
11990SOL    HW241933   4.205   3.630   8.894 -1.0423  0.2724  0.5926
11991SOL     OW41934   4.423   5.101   3.527 -0.1874  0.1317 -0.4014
11991SOL    HW141935   4.432   5.108   3.622 -0.1968 -0.3463 -0.3657
11991SOL    HW241936   4.331   5.120   3.510  0.0296  1.2593 -0.4184
11992SOL     OW41937   8.658   7.515   1.496  0.4287  0.5546  0.1254
11992SOL    HW141938   8.717   7.579   1.456 -0.3839  1.7124  0.7457
11992SOL    HW241939   8.674   7.522   1.590 -0.6161  0.8069  0.2910
11993SOL     OW41940   5.816   7.879   3.354  0.4731  0.3800 -0.1980
11993SOL    HW141941   5.774   7.898   3.270 -0.1500  2.1602  0.4489
11993SOL    HW241942   5.783   7.793   3.380 -3.4193  1.9163  0.5630
11994SOL     OW41943   8.017   1.294   7.112 -0.2242  0.1372  0.1476
11994SOL    HW141944   8.004   1.380   7.071  1.9724 -0.6540 -2.4722
11994SOL    HW241945   7.962   1.235   7.062 -0.0197 -0.3370  0.4785
11995SOL     OW41946   7.556   5.082   8.881 -0.4299 -0.2936 -0.6493
11995SOL    HW141947   7.472   5.058   8.842 -0.7140  0.0693 -0.2766
11995SOL    HW241948   7.609   5.110   8.807 -0.8926  0.1767 -0.8184
11996SOL     OW41949   1.205   7.939   9.202  0.1479 -1.5153  0.1483
11996SOL    HW141950   1.214   7.915   9.110  1.8864  0.4105 -0.2449
11996SOL    HW241951   1.288   7.980   9.225 -1.9018  2.6088  1.1461
11997SOL     OW41952   3.840   2.593   8.473  0.4123 -0.6929  0.5056
11997SOL    HW141953   3.911   2.653   8.492 -1.3420  1.9975 -0.7861
11997SOL    HW241954   3.776   2.607   8.543 -1.3426  1.3937 -1.3237
11998SOL     OW41955   2.388   6.466   0.496 -0.4053  0.8023  0.0116
11998SOL    HW141956   2.462   6.407   0.479 -0.9371  0.0851  0.1631
11998SOL    HW241957   2.422   6.552   0.473  0.1976  0.3696 -0.8051
11999SOL     OW41958   1.676   9.062   8.434 -0.1794  0.1908 -0.3862
11999SOL    HW141959   1.669   8.978   8.481  0.7263 -0.8713 -2.0593
11999SOL    HW241960   1.590   9.073   8.392 -0.5943  0.5627  0.5272
12000SOL     OW41961   2.956   7.865   0.686 -0.5574 -0.2029 -0.2487
12000SOL    HW141962   2.892   7.879   0.756 -0.0768 -0.6871  0.3059
12000SOL    HW241963   3.023   7.932   0.702  0.6982 -1.7218  1.1527
12001SOL     OW41964   6.423   8.760   0.327 -0.5662 -0.1975 -0.2549
12001SOL    HW141965   6.513   8.744   0.355 -0.5590 -0.7232 -0.5693
12001SOL    HW241966   6.370   8.741   0.405 -0.5057 -1.1472 -0.4450
12002SOL     OW41967   3.426   3.092   2.118  0.3988  0.1771  0.9649
12002SOL    HW141968   3.391   3.050   2.039 -0.5328 -1.1557  2.0426
12002SOL    HW241969   3.362   3.073   2.186  1.4144  0.8861  2.1696
12003SOL     OW41970   4.947   1.832   0.302 -0.1853  0.1868  0.0260
12003SOL    HW141971   5.038   1.821   0.274  0.1586 -1.9306  1.6712
12003SOL    HW241972   4.896   1.776   0.244 -0.2826  0.5036 -0.1930
12004SOL     OW41973   7.264   4.688   4.661 -0.6020  0.0398  0.0017
12004SOL    HW141974   7.241   4.764   4.714 -1.4270 -0.1240 -0.1061
12004SOL    HW241975   7.190   4.628   4.672 -0.0647 -0.6542 -0.0935
12005SOL     OW41976   7.480   3.607   3.011  0.4853 -0.3418 -0.2894
12005SOL    HW141977   7.517   3.569   3.090  1.8380  1.0680 -0.2119
12005SOL    HW241978   7.443   3.691   3.039 -4.3719 -2.2173 -0.0124
12006SOL     OW41979   0.680   5.513   5.081 -0.1755  0.0750  0.1632
12006SOL    HW141980   0.680   5.447   5.012 -0.5547  1.0170 -0.7832
12006SOL    HW241981   0.606   5.490   5.137  1.5255 -2.0568  1.6681
12007SOL     OW41982   4.316   7.258   3.582 -0.3410  0.5185  0.0279
12007SOL    HW141983   4.351   7.308   3.508 -1.3011  0.7799 -0.2646
12007SOL    HW241984   4.234   7.302   3.603 -0.6064 -0.2191  0.5527
12008SOL     OW41985   7.742   2.691   5.347 -0.3466 -0.5350  0.2509
12008SOL    HW141986   7.772   2.760   5.407 -1.8228  1.8350 -1.5534
12008SOL    HW241987   7.747   2.731   5.260 -1.5284 -2.6498 -0.8731
12009SOL     OW41988   2.814   1.736   4.252  0.7260  0.2400 -0.1783
12009SOL    HW141989   2.847   1.812   4.301 -0.0767  0.8896 -0.6211
12009SOL    HW241990   2.719   1.747   4.252  0.6266 -0.5394 -0.6317
12010SOL     OW41991   1.975   0.309   1.119  0.4686 -0.5848 -0.0341
12010SOL    HW141992   1.933   0.349   1.195 -0.3172  1.3579 -1.3969
12010SOL    HW241993   2.067   0.302   1.142  0.0899 -0.9776  1.4418
12011SOL     OW41994   8.530   4.076   1.794  0.3398 -0.3396 -0.1475
12011SOL    HW141995   8.599   4.010   1.803 -2.0081 -2.8341  1.1793
12011SOL    HW241996   8.530   4.122   1.878 -2.2470 -3.3262  1.6999
12012SOL     OW41997   6.825   6.812   4.905  0.2715 -0.1120 -0.3863
12012SOL    HW141998   6.805   6.783   4.994  0.7338  0.1806 -0.1796
12012SOL    HW241999   6.897   6.755   4.877 -0.0023 -0.3333 -0.6482
12013SOL     OW42000   1.873   4.389   0.909 -0.0675 -0.4271 -0.0901
12013SOL    HW142001   1.845   4.407   0.999 -1.9222 -1.3096 -0.4345
12013SOL    HW242002   1.919   4.468   0.881 -3.4723  1.8702  0.1233
12014SOL     OW42003   0.046   2.341   1.635  0.6168 -0.4889 -0.2923
12014SOL    HW142004   0.116   2.300   1.585  0.2719 -1.3679 -0.0773
12014SOL    HW242005   0.026   2.422   1.588  1.1725 -0.6648 -0.8399
12015SOL     OW42006   8.275   2.946   0.095  0.5043  0.2202  0.1303
12015SOL    HW142007   8.243   2.994   0.019 -1.4700  0.2398  0.9118
12015SOL    HW242008   8.282   3.012   0.164 -0.8110 -0.3280  0.8111
12016SOL     OW42009   1.277   9.118   6.828 -0.5568  0.0251  0.1092
12016SOL    HW142010   1.219   9.060   6.877 -0.2733 -1.6611 -1.4364
12016SOL    HW242011   1.310   9.063   6.756  1.0818  1.6233 -0.4281
12017SOL     OW42012   4.371   8.732   2.544  0.5427  0.0892 -0.0461
12017SOL    HW142013   4.437   8.788   2.503 -0.0419  0.9066  0.0940
12017SOL    HW242014   4.417   8.650   2.563  1.7191  0.8899  0.7175
12018SOL     OW42015   0.701   8.832   5.765 -0.4892  0.2255 -0.2234
12018SOL    HW142016   0.704   8.781   5.683 -1.5979  0.0622 -0.1822
12018SOL    HW242017   0.633   8.898   5.749 -0.2464  0.6143  0.3379
12019SOL     OW42018   6.813   9.147   1.215 -0.3363  1.1621  0.0777
12019SOL    HW142019   6.802   9.191   1.131  0.7054  0.2916 -0.5415
12019SOL    HW242020   6.735   9.172   1.265 -0.5915  2.3309 -0.8430
12020SOL     OW42021   2.470   9.238   6.494  0.3226  0.6182 -0.0930
12020SOL    HW142022   2.523   9.221   6.416 -0.4878 -2.1241 -0.1169
12020SOL    HW242023   2.409   9.307   6.466  1.2558  1.0230 -1.2568
12021SOL     OW42024   1.905   5.339   5.892 -0.1486 -0.0731  0.0407
12021SOL    HW142025   1.922   5.299   5.807 -0.8989  1.2849 -0.7811
12021SOL    HW242026   1.922   5.269   5.955  1.4967 -0.7923 -1.1380
12022SOL     OW42027   8.772   4.562   7.501 -0.5471 -0.1554 -0.1236
12022SOL    HW142028   8.724   4.491   7.544 -0.8383  0.5156  0.6897
12022SOL    HW242029   8.862   4.529   7.494 -0.6794 -0.6175  0.2331
12023SOL     OW42030   4.054   3.860   0.511  0.5432  0.4707 -0.2312
12023SOL    HW142031   3.994   3.915   0.561 -0.6352  0.2623 -1.3847
12023SOL    HW242032   3.998   3.808   0.453  1.8352  0.5292 -1.5953
12024SOL     OW42033   5.747   7.194   5.973  0.6631 -0.2592 -0.3573
12024SOL    HW142034   5.761   7.104   6.002  1.2574  0.4170  1.6226
12024SOL    HW242035   5.698   7.185   5.891  0.4157 -2.3646 -0.0492
12025SOL     OW42036   1.117   6.625   1.491 -0.5138  0.2934  0.1668
12025SOL    HW142037   1.072   6.674   1.422 -2.2785 -0.6715  0.5617
12025SOL    HW242038   1.146   6.544   1.449  1.4145  1.1513 -0.2202
12026SOL     OW42039   6.948   0.443   0.368 -0.0611  0.3392 -0.1363
12026SOL    HW142040   6.900   0.430   0.449  0.8472 -0.0924  0.3443
12026SOL    HW242041   7.002   0.521   0.385 -0.1803  0.4961 -0.4740
12027SOL     OW42042   9.337   5.667   9.013  0.0922  0.3065 -0.3101
12027SOL    HW142043   9.416   5.678   8.960  1.7691  0.4009  2.0238
12027SOL    HW242044   9.265   5.676   8.951  1.8940  0.0638 -2.5895
12028SOL     OW42045   6.705   5.344   1.996  0.1900  0.3664  0.5032
12028SOL    HW142046   6.778   5.321   2.053  1.3014  0.4165 -0.8480
12028SOL    HW242047   6.734   5.422   1.950  0.5142 -1.1948 -2.1291
12029SOL     OW42048   3.992   5.609   4.971  0.0919  0.2691  0.3470
12029SOL    HW142049   4.030   5.582   4.888 -0.4413  0.8213 -0.0889
12029SOL    HW242050   4.014   5.702   4.978  0.1760  0.2152  0.8515
12030SOL     OW42051   0.559   2.741   3.696  0.1438 -0.5139  0.4263
12030SOL    HW142052   0.589   2.666   3.645  1.8641 -0.1116  0.7673
12030SOL    HW242053   0.612   2.739   3.775 -1.2913 -0.1505  1.4315
12031SOL     OW42054   1.379   3.893   1.823 -0.6607  0.4586  0.0932
12031SOL    HW142055   1.309   3.863   1.765 -0.0771 -0.1643 -0.3083
12031SOL    HW242056   1.406   3.977   1.786 -1.0040  0.5664  0.0858
12032SOL     OW42057   9.163   4.083   8.373 -0.5270  0.3499 -0.2275
12032SOL    HW142058   9.179   4.005   8.319  0.9479  1.2887 -1.2182
12032SOL    HW242059   9.086   4.124   8.334 -0.7165 -0.0925 -0.3201
12033SOL     OW42060   6.260   2.409   0.590 -0.0955 -0.2877 -0.2515
12033SOL    HW142061   6.287   2.368   0.508 -1.6436  0.5044 -1.2018
12033SOL    HW242062   6.167   2.389   0.598 -0.1317  0.2504  0.9490
12034SOL     OW42063   9.024   4.330   2.485  0.0572 -0.8417  0.2684
12034SOL    HW142064   9.098   4.375   2.525  1.4811 -0.9630 -2.0669
12034SOL    HW242065   8.988   4.276   2.555  0.9081  0.7292  1.9994
12035SOL     OW42066   6.185   1.438   8.670  0.6616 -0.4110 -0.0521
12035SOL    HW142067   6.102   1.401   8.701  0.4912  1.5823  2.2062
12035SOL    HW242068   6.251   1.375   8.698  0.1512 -0.3971  1.2902
12036SOL     OW42069   6.114   4.416   7.984  0.0962  0.1172 -0.0100
12036SOL    HW142070   6.169   4.423   8.061  3.0366 -3.6794 -1.4521
12036SOL    HW242071   6.175   4.421   7.910 -1.5932 -2.7016 -1.7797
12037SOL     OW42072   4.574   5.316   1.644 -0.1135  0.4133 -0.2011
12037SOL    HW142073   4.591   5.247   1.580 -1.6339  0.4140 -0.6599
12037SOL    HW242074   4.571   5.270   1.728  1.0458  0.2818 -0.2135
12038SOL     OW42075   3.652   8.549   5.146  0.2079  0.0837 -0.4596
12038SOL    HW142076   3.621   8.539   5.056 -1.2736  0.4434 -0.0290
12038SOL    HW242077   3.642   8.642   5.164  1.0338  0.1105 -0.0931
12039SOL     OW42078   5.701   8.111   2.834 -0.1322  0.2960 -0.3313
12039SOL    HW142079   5.650   8.035   2.803  0.6509 -0.8881  1.1427
12039SOL    HW242080   5.791   8.080   2.837  0.1925  1.2541  0.3828
12040SOL     OW42081   4.632   4.416   5.153 -0.2265 -0.0551 -0.0339
12040SOL    HW142082   4.718   4.439   5.187 -0.5807  0.9243  0.2542
12040SOL    HW242083   4.591   4.366   5.223  0.1390 -0.5987 -0.2070
12041SOL     OW42084   3.710   3.547   6.816 -0.2822  0.0970 -0.3103
12041SOL    HW142085   3.665   3.496   6.748  0.4972 -1.7271  0.4961
12041SOL    HW242086   3.708   3.492   6.894  0.1207  1.5448  0.7789
12042SOL     OW42087   0.854   7.037   6.102  0.3471  0.0038  0.6492
12042SOL    HW142088   0.824   7.127   6.114 -1.7924 -0.7409  1.1305
12042SOL    HW242089   0.852   6.999   6.189  0.6033 -0.7173  0.3482
12043SOL     OW42090   5.283   1.596   8.677 -0.1191  0.3750  0.0818
12043SOL    HW142091   5.350   1.602   8.609  1.5232  0.3195  1.6275
12043SOL    HW242092   5.206   1.561   8.632  0.8368  0.5495 -1.7737
12044SOL     OW42093   0.388   4.245   8.844 -0.2933 -0.6819  0.0575
12044SOL    HW142094   0.296   4.267   8.860  0.0203  0.4063  0.4670
12044SOL    HW242095   0.437   4.315   8.887  0.7211 -1.0228 -0.5127
12045SOL     OW42096   8.736   1.682   3.686  0.2875  0.2688  0.4081
12045SOL    HW142097   8.734   1.744   3.613 -0.7749 -2.1510 -1.8160
12045SOL    HW242098   8.829   1.669   3.704  0.6281  0.2599 -1.1893
12046SOL     OW42099   8.283   5.479   7.219 -0.2641  0.0219 -0.7747
12046SOL    HW142100   8.347   5.412   7.192  0.9388  0.9003 -0.1759
12046SOL    HW242101   8.330   5.562   7.212 -1.2514  0.6725 -0.0250
12047SOL     OW42102   5.296   7.375   8.663 -0.0504 -0.4286  0.0869
12047SOL    HW142103   5.261   7.376   8.573 -0.7720 -0.3390  0.3646
12047SOL    HW242104   5.354   7.300   8.664 -1.7230 -1.7803  0.1576
12048SOL     OW42105   6.720   7.384   3.026 -0.3128  0.0172  0.5337
12048SOL    HW142106   6.672   7.454   3.070  1.6348  0.3803  2.1910
12048SOL    HW242107   6.743   7.420   2.940 -0.0614  1.0998  1.0489
12049SOL     OW42108   4.378   3.432   1.092  0.3094 -0.2785  0.4033
12049SOL    HW142109   4.435   3.480   1.153  0.2406 -0.3229  0.5023
12049SOL    HW242110   4.289   3.450   1.122  0.2695 -0.1968  0.2383
12050SOL     OW42111   6.034   2.160   3.158 -0.4959 -0.0264  0.4370
12050SOL    HW142112   6.016   2.226   3.091 -1.3146  0.2314  0.8961
12050SOL    HW242113   5.969   2.092   3.142 -0.1055 -0.3944  0.4066
12051SOL     OW42114   9.210   3.449   9.292 -0.1123 -0.0770 -0.1236
12051SOL    HW142115   9.214   3.370   9.345  1.0422  1.1236  1.7125
12051SOL    HW242116   9.296   3.454   9.250  0.3050  0.8142  0.7874
12052SOL     OW42117   1.739   7.415   6.326 -0.4426 -0.4122 -0.0619
12052SOL    HW142118   1.789   7.361   6.265 -0.7542  0.9404 -1.5945
12052SOL    HW242119   1.680   7.354   6.370 -1.2775 -1.2549 -2.2310
12053SOL     OW42120   1.470   8.500   7.880 -0.2983 -0.1862 -0.1830
12053SOL    HW142121   1.438   8.589   7.898 -0.6062 -0.5612  1.2232
12053SOL    HW242122   1.410   8.467   7.813  0.6850  1.1359 -1.8141
12054SOL     OW42123   9.155   5.900   8.525  0.1475  0.6056  0.1909
12054SOL    HW142124   9.129   5.993   8.523  1.2943  1.0590  2.5279
12054SOL    HW242125   9.109   5.861   8.451 -1.1883  2.8339 -0.2647
12055SOL     OW42126   5.841   8.025   0.577 -0.6636 -0.4072 -0.2805
12055SOL    HW142127   5.910   8.072   0.531  2.5568 -2.3923  2.0841
12055SOL    HW242128   5.846   7.935   0.545  0.0643 -1.2835  2.0885
12056SOL     OW42129   5.641   3.874   6.847  0.1046  0.2147 -0.2021
12056SOL    HW142130   5.655   3.931   6.772 -0.2213  0.2066 -0.2687
12056SOL    HW242131   5.606   3.932   6.915 -1.6340 -0.1558 -0.7274
12057SOL     OW42132   7.089   2.666   5.305  0.1908  0.1036 -0.0077
12057SOL    HW142133   7.122   2.577   5.297 -0.9570 -0.2318 -1.5066
12057SOL    HW242134   7.083   2.697   5.215 -0.4395  1.3189  0.4319
12058SOL     OW42135   1.644   1.383   7.633 -1.0801  0.0492  0.2572
12058SOL    HW142136   1.688   1.313   7.681  0.6997  1.3682  0.6644
12058SOL    HW242137   1.687   1.384   7.547 -0.0540  1.5055  0.7364
12059SOL     OW42138   1.774   0.206   4.564 -0.2717  0.0191  0.0785
12059SOL    HW142139   1.818   0.253   4.635  1.6045  2.2260 -2.3571
12059SOL    HW242140   1.817   0.120   4.562  2.2086  1.1778 -0.5075
12060SOL     OW42141   3.327   6.019   8.334  0.1019  0.2302 -0.1929
12060SOL    HW142142   3.234   6.025   8.354  0.0936  1.6115 -0.5413
12060SOL    HW242143   3.346   6.098   8.282  1.3481 -0.2917 -0.5802
12061SOL     OW42144   0.845   1.016   8.535  0.2314 -0.6831  0.2390
12061SOL    HW142145   0.766   1.064   8.509 -0.6541 -1.3696  1.5150
12061SOL    HW242146   0.910   1.083   8.553 -0.2607 -0.0733 -0.2083
12062SOL     OW42147   5.378   6.895   3.590 -0.2273 -0.1831  0.1505
12062SOL    HW142148   5.378   6.914   3.684  0.0494  1.8426 -0.2151
12062SOL    HW242149   5.314   6.824   3.580 -0.3219 -0.3798  1.8479
12063SOL     OW42150   5.019   4.560   0.468 -0.2584  0.0507  0.2187
12063SOL    HW142151   5.012   4.484   0.410  1.5505  0.1109 -0.1397
12063SOL    HW242152   5.000   4.526   0.555  2.4666 -1.3321  0.3749
12064SOL     OW42153   7.835   5.325   8.721  0.5983  0.3450  0.0983
12064SOL    HW142154   7.771   5.276   8.670 -0.1151 -0.1739  1.4501
12064SOL    HW242155   7.784   5.381   8.779  1.3784  0.6308  0.5368
12065SOL     OW42156   8.666   2.685   5.992 -0.3677  0.6024  0.0440
12065SOL    HW142157   8.704   2.650   5.912  1.9188 -0.1757  1.3703
12065SOL    HW242158   8.711   2.769   6.006 -0.4133  0.5213  0.7296
12066SOL     OW42159   0.328   4.643   7.760  0.8906  0.4831 -0.4285
12066SOL    HW142160   0.368   4.694   7.690  1.8495  1.1534  0.5738
12066SOL    HW242161   0.376   4.669   7.839 -1.2430  1.0347  0.7786
12067SOL     OW42162   0.745   4.099   2.811 -0.0963 -0.0763  0.4241
12067SOL    HW142163   0.701   4.013   2.810  1.0133 -0.6677  0.7757
12067SOL    HW242164   0.700   4.150   2.744 -0.7063 -0.9703  0.1366
12068SOL     OW42165   6.731   5.295   7.315 -0.6660 -0.5953 -0.1448
12068SOL    HW142166   6.657   5.348   7.346  0.1841  0.6147 -0.1226
12068SOL    HW242167   6.724   5.298   7.220 -0.6534 -0.5024 -0.1426
12069SOL     OW42168   5.401   8.638   1.636 -0.2251  0.6626 -0.3391
12069SOL    HW142169   5.438   8.660   1.721  2.7682  2.6255 -1.9560
12069SOL    HW242170   5.470   8.659   1.574 -1.9930 -1.3798 -3.2474
12070SOL     OW42171   8.211   7.457   2.884  0.3272 -0.0304  0.5236
12070SOL    HW142172   8.210   7.367   2.916 -0.3571  0.1840  1.1325
12070SOL    HW242173   8.120   7.479   2.868  0.5365  0.3723 -0.1656
12071SOL     OW42174   0.103   9.249   0.467  0.4676  0.1259 -0.7826
12071SOL    HW142175   0.083   9.331   0.511 -0.2550  0.6750 -2.0960
12071SOL    HW242176   0.053   9.252   0.386  1.5389 -0.9848 -1.5209
12072SOL     OW42177   1.467   1.075   5.872 -0.4256 -0.2068  0.0067
12072SOL    HW142178   1.519   1.150   5.901 -0.4210 -0.1003 -0.2720
12072SOL    HW242179   1.503   1.001   5.921 -2.2950  0.3912  2.4503
12073SOL     OW42180   0.130   7.057   2.789  0.4600 -0.2143 -0.3994
12073SOL    HW142181   0.042   7.039   2.822  0.1378  0.3872 -0.9144
12073SOL    HW242182   0.118   7.130   2.728  1.5886  1.1813  0.9757
12074SOL     OW42183   9.191   0.422   8.293  0.1960 -0.3703  0.0522
12074SOL    HW142184   9.284   0.400   8.291  0.0292 -1.1706  0.6092
12074SOL    HW242185   9.153   0.373   8.220  0.0273 -0.9798  0.5397
12075SOL     OW42186   2.516   6.113   0.310 -0.0898  0.3677 -0.2498
12075SOL    HW142187   2.517   6.021   0.286 -1.3721  0.3643 -0.3279
12075SOL    HW242188   2.491   6.159   0.230  1.0214  0.8544 -0.3478
12076SOL     OW42189   1.434   7.832   6.554 -0.2384 -0.2471  0.2471
12076SOL    HW142190   1.477   7.821   6.639  0.8433 -0.7259 -0.3313
12076SOL    HW242191   1.404   7.745   6.531  0.2452 -0.2891 -0.2442
12077SOL     OW42192   2.094   0.800   0.297 -0.5331 -0.3285  0.4137
12077SOL    HW142193   2.179   0.840   0.318 -0.6594 -0.8092  1.9791
12077SOL    HW242194   2.116   0.712   0.266 -0.3940  0.0599 -0.6214
12078SOL     OW42195   5.888   0.668   8.648 -0.3953  0.5541  0.3189
12078SOL    HW142196   5.820   0.613   8.688 -2.5760  1.7670 -1.4293
12078SOL    HW242197   5.882   0.751   8.695  0.2049  0.5119  0.4661
12079SOL     OW42198   6.148   8.880   7.519  0.7042 -0.3457 -0.2773
12079SOL    HW142199   6.082   8.873   7.450  0.4982  0.9208 -0.2314
12079SOL    HW242200   6.137   8.800   7.571 -0.0827 -0.6461 -0.8873
12080SOL     OW42201   4.207   1.218   1.999  0.0732  0.1119  0.3380
12080SOL    HW142202   4.190   1.163   1.923  0.1660  0.9574 -0.2997
12080SOL    HW242203   4.135   1.199   2.059 -1.6090  1.5305 -1.1443
12081SOL     OW42204   0.367   0.419   5.405 -0.0091  0.4732  0.2253
12081SOL    HW142205   0.298   0.417   5.337  0.0003 -3.2690  0.0874
12081SOL    HW242206   0.326   0.462   5.479 -1.7708  0.3208 -0.5989
12082SOL     OW42207   2.972   6.452   5.975 -0.3518 -0.0904  0.0220
12082SOL    HW142208   2.948   6.533   5.930  0.1860  0.1676  0.2006
12082SOL    HW242209   3.064   6.438   5.952 -0.2900 -0.3622  0.4293
12083SOL     OW42210   9.310   1.129   7.889  0.3185 -0.3341  0.1299
12083SOL    HW142211   9.255   1.097   7.961  0.9338  0.2237  0.8710
12083SOL    HW242212   9.370   1.057   7.871  0.4292 -0.3285  0.4644
12084SOL     OW42213   0.856   2.118   0.957 -0.0048 -0.2150 -0.1277
12084SOL    HW142214   0.819   2.089   1.041 -1.3173 -1.8931 -1.2305
12084SOL    HW242215   0.940   2.074   0.951  0.3136  0.2899  0.4995
12085SOL     OW42216   1.542   6.729   3.938 -0.5471  0.1144 -0.7184
12085SOL    HW142217   1.509   6.807   3.981  0.6263  0.2092  0.0339
12085SOL    HW242218   1.472   6.664   3.948 -0.5684  0.3361  0.7712
12086SOL     OW42219   5.991   3.251   0.590  0.3076 -0.4915 -0.5402
12086SOL    HW142220   5.914   3.207   0.553 -0.7706  0.3256  0.6411
12086SOL    HW242221   6.012   3.200   0.669 -0.2393  0.3857  0.1984
12087SOL     OW42222   4.081   5.745   8.715  0.0186 -0.3707  0.0474
12087SOL    HW142223   4.101   5.780   8.628 -1.1488  1.4705  0.4701
12087SOL    HW242224   4.166   5.743   8.759  0.2317  1.3723 -0.2244
12088SOL     OW42225   4.942   1.875   1.994 -0.0830  0.6365 -0.2181
12088SOL    HW142226   4.971   1.954   1.948 -1.7420  1.9492  0.8925
12088SOL    HW242227   4.853   1.860   1.964  0.8902 -2.1485 -2.0383
12089SOL     OW42228   1.840   0.837   1.965 -0.1074 -0.1609  0.4923
12089SOL    HW142229   1.749   0.809   1.963 -1.0973  2.6822  0.6355
12089SOL    HW242230   1.886   0.775   1.907 -2.4308 -0.6801 -0.9339
12090SOL     OW42231   1.726   2.869   0.641 -0.5871 -0.3170  0.1362
12090SOL    HW142232   1.709   2.849   0.733  0.9902 -1.2508  0.2577
12090SOL    HW242233   1.675   2.805   0.592 -0.4055 -0.6512  0.3879
12091SOL     OW42234   5.589   2.985   3.101 -0.0445 -0.2380 -0.3781
12091SOL    HW142235   5.644   3.062   3.085  1.9926 -1.2262  1.3207
12091SOL    HW242236   5.564   2.955   3.013  2.0643  0.3740 -1.2618
12092SOL     OW42237   7.577   4.607   6.403 -0.6173 -0.3123 -0.4617
12092SOL    HW142238   7.532   4.637   6.325 -1.3804  1.3290  0.5563
12092SOL    HW242239   7.511   4.615   6.473  0.5537 -0.0354  0.6449
12093SOL     OW42240   0.680   3.552   6.694 -0.0752  0.2653 -0.0752
12093SOL    HW142241   0.655   3.607   6.769  1.3459  1.6093 -0.5208
12093SOL    HW242242   0.775   3.561   6.689  0.0015 -0.9099 -1.2270
12094SOL     OW42243   5.171   1.525   3.299 -0.6188  0.3860 -0.3154
12094SOL    HW142244   5.201   1.448   3.250 -0.2123  0.7566 -0.6635
12094SOL    HW242245   5.242   1.589   3.288 -0.9138  0.7776  0.0427
12095SOL     OW42246   5.461   0.430   5.943  0.2342  0.4395  0.0256
12095SOL    HW142247   5.498   0.342   5.950 -1.1307 -0.1604 -0.0985
12095SOL    HW242248   5.466   0.465   6.032  0.0674 -0.0581  0.2325
12096SOL     OW42249   8.194   3.940   6.333  0.0866 -0.6199  0.0832
12096SOL    HW142250   8.284   3.910   6.338  1.0260  1.5305 -1.8809
12096SOL    HW242251   8.172   3.934   6.240 -1.5436 -0.4113  0.4267
12097SOL     OW42252   4.924   7.798   7.948  0.2856 -0.4783 -0.6897
12097SOL    HW142253   4.874   7.775   8.026  0.7121 -0.4018 -0.3895
12097SOL    HW242254   4.970   7.717   7.924 -0.0482 -0.5715 -1.0147
12098SOL     OW42255   4.899   8.750   2.542  0.5254  0.2159 -0.4400
12098SOL    HW142256   4.840   8.825   2.541 -1.0458 -0.9269 -2.4546
12098SOL    HW242257   4.949   8.758   2.460 -0.2790 -1.3226 -1.1250
12099SOL     OW42258   1.484   6.094   2.872  0.2925  0.2229  0.4065
12099SOL    HW142259   1.566   6.053   2.846  1.7633  2.9418  0.4232
12099SOL    HW242260   1.447   6.034   2.937  2.6150 -0.7544  0.9225
12100SOL     OW42261   5.185   9.265   3.913  0.5200  0.0408 -0.6315
12100SOL    HW142262   5.105   9.315   3.896  0.4719  0.3212  0.3514
12100SOL    HW242263   5.161   9.175   3.890  0.2787  0.2955 -1.4093
12101SOL     OW42264   1.755   9.305   9.245  0.0390 -0.6381 -0.0792
12101SOL    HW142265   1.802   9.295   9.162  0.6369  2.1989 -0.2060
12101SOL    HW242266   1.824   9.320   9.310 -0.5232  1.4284  0.1121
12102SOL     OW42267   7.917   4.236   9.186 -0.4817  0.0623  0.6599
12102SOL    HW142268   8.003   4.271   9.163 -0.5228 -0.8648 -1.1289
12102SOL    HW242269   7.921   4.221   9.280  1.6892 -0.8412  0.4852
12103SOL     OW42270   7.934   2.079   1.825  0.3941  0.0519 -0.0053
12103SOL    HW142271   7.964   2.012   1.764 -1.4575  0.6079 -1.5950
12103SOL    HW242272   7.853   2.044   1.862  0.1780  0.7910  0.2431
12104SOL     OW42273   2.473   6.835   5.941  0.6227  0.0445  0.5813
12104SOL    HW142274   2.386   6.795   5.940  0.4163  0.5072 -0.1554
12104SOL    HW242275   2.467   6.909   5.881  1.2139  0.7414  1.3517
12105SOL     OW42276   0.279   3.561   7.458  0.5457  0.2596 -0.3694
12105SOL    HW142277   0.235   3.554   7.373 -0.2145  1.6692 -0.1437
12105SOL    HW242278   0.210   3.592   7.517  1.0225 -0.8507  0.8108
12106SOL     OW42279   0.989   7.536   7.035  0.2977 -0.1181  0.1354
12106SOL    HW142280   1.068   7.514   6.985 -0.9995  0.9298 -2.5435
12106SOL    HW242281   1.020   7.597   7.102  1.4832  2.4056 -2.5052
12107SOL     OW42282   8.634   1.754   8.954  0.0055  0.8202  0.5407
12107SOL    HW142283   8.651   1.665   8.985 -1.1820  1.0970  2.1366
12107SOL    HW242284   8.615   1.744   8.861 -1.9733 -0.9169  1.0357
12108SOL     OW42285   6.827   7.381   8.804 -0.2437  0.2093 -0.2150
12108SOL    HW142286   6.830   7.321   8.878  2.4165  1.4477  0.7922
12108SOL    HW242287   6.869   7.333   8.732  3.5654  1.2913  1.0772
12109SOL     OW42288   4.227   7.728   1.652  0.7231 -0.4945  0.3543
12109SOL    HW142289   4.187   7.645   1.677  0.9495 -0.7777 -0.2081
12109SOL    HW242290   4.271   7.710   1.569 -2.0377  0.9977 -1.6145
12110SOL     OW42291   0.179   2.537   3.036 -0.4401  0.3954  0.0991
12110SOL    HW142292   0.229   2.455   3.036  0.2260  0.7921  0.7681
12110SOL    HW242293   0.208   2.583   2.957 -1.3067 -0.2937 -0.6413
12111SOL     OW42294   2.808   5.693   9.098 -0.5569  0.1552 -0.0397
12111SOL    HW142295   2.804   5.682   9.003  0.1984  1.1506 -0.2046
12111SOL    HW242296   2.733   5.749   9.119 -0.4281  0.3539 -0.1134
12112SOL     OW42297   6.381   7.354   7.598  0.3412  0.5209  0.0190
12112SOL    HW142298   6.474   7.352   7.574  0.1350  2.1256 -1.0254
12112SOL    HW242299   6.374   7.428   7.658 -0.3201  0.6184 -0.1796
12113SOL     OW42300   6.506   2.314   4.871  0.3167 -0.0307  0.1303
12113SOL    HW142301   6.592   2.333   4.908  0.5881  0.0484 -0.5368
12113SOL    HW242302   6.505   2.359   4.787 -0.3257 -0.1520  0.0655
12114SOL     OW42303   7.472   0.868   2.892  0.0918  0.0831 -0.3474
12114SOL    HW142304   7.404   0.918   2.937  0.3949  0.2120 -0.0286
12114SOL    HW242305   7.426   0.792   2.856 -0.1448 -0.0532  0.2329
12115SOL     OW42306   4.413   4.605   8.803  0.1247  0.1449 -0.5547
12115SOL    HW142307   4.374   4.554   8.874  0.6180  0.7064  0.1289
12115SOL    HW242308   4.367   4.575   8.724 -0.8826 -0.0236  0.0817
12116SOL     OW42309   9.174   8.313   8.540  0.0082 -0.0292 -0.1504
12116SOL    HW142310   9.197   8.310   8.633  0.7925  1.5083 -0.2734
12116SOL    HW242311   9.079   8.328   8.540  0.3498  2.6471  0.4845
12117SOL     OW42312   5.202   5.602   1.458 -0.2857  0.4418  1.0270
12117SOL    HW142313   5.130   5.565   1.508 -0.6314 -2.4106 -1.3428
12117SOL    HW242314   5.281   5.566   1.498 -0.5901 -2.4990 -0.7525
12118SOL     OW42315   1.078   1.666   2.807 -0.8619 -0.3189  0.3660
12118SOL    HW142316   1.097   1.622   2.724 -0.0810  1.5407 -0.5004
12118SOL    HW242317   0.998   1.715   2.790 -1.5754 -1.1523  1.2354
12119SOL     OW42318   6.627   7.556   2.510  0.1059 -0.1852 -0.3180
12119SOL    HW142319   6.581   7.572   2.428 -0.4620  1.2765  0.2514
12119SOL    HW242320   6.718   7.579   2.492 -0.0568  0.3301 -0.4789
12120SOL     OW42321   1.335   2.104   2.231  0.0996  0.6103  0.4721
12120SOL    HW142322   1.315   2.097   2.138  2.2239  2.3325 -0.1916
12120SOL    HW242323   1.259   2.150   2.268 -1.2775 -1.0603 -0.1419
12121SOL     OW42324   0.143   7.365   7.456 -0.3310  0.5236 -0.1336
12121SOL    HW142325   0.221   7.317   7.428  0.2380  1.2533  0.1560
12121SOL    HW242326   0.177   7.434   7.513 -1.2178  0.6969  0.2050
12122SOL     OW42327   0.587   3.017   7.214 -0.4305  0.6787  0.4268
12122SOL    HW142328   0.673   3.059   7.208  0.1911 -0.3330  1.6951
12122SOL    HW242329   0.592   2.962   7.293 -0.8006 -2.6474 -1.6780
12123SOL     OW42330   4.341   6.544   1.279 -0.0750  0.5398 -0.6388
12123SOL    HW142331   4.300   6.475   1.227 -0.4605  1.4600 -1.5961
12123SOL    HW242332   4.435   6.529   1.269 -0.0844 -1.3916  1.3032
12124SOL     OW42333   1.145   5.852   2.149 -0.0811  0.0089  0.4347
12124SOL    HW142334   1.209   5.865   2.218  0.0932 -0.4960  0.3692
12124SOL    HW242335   1.187   5.888   2.070 -1.0903  2.5180  0.9529
12125SOL     OW42336   7.510   8.731   2.115 -0.6129 -0.3901 -0.0390
12125SOL    HW142337   7.593   8.690   2.091 -1.0114  0.6218 -3.7445
12125SOL    HW242338   7.456   8.659   2.147  1.0842 -1.3721  0.7302
12126SOL     OW42339   7.444   8.799   3.201 -0.0823 -0.1386  0.0301
12126SOL    HW142340   7.365   8.853   3.201  0.2424  0.3460 -0.8306
12126SOL    HW242341   7.461   8.782   3.294 -0.7366  0.4269  0.2607
12127SOL     OW42342   1.922   7.403   3.481  0.7720  0.6390  0.6546
12127SOL    HW142343   1.975   7.465   3.432  0.7652 -0.5125 -0.8869
12127SOL    HW242344   1.977   7.325   3.488 -0.4756 -0.3885 -0.5079
12128SOL     OW42345   4.226   8.141   2.096  0.0536 -0.2177 -0.0260
12128SOL    HW142346   4.137   8.138   2.061  0.0315  0.0690  0.0045
12128SOL    HW242347   4.271   8.205   2.041  0.5276 -1.0988 -0.6887
12129SOL     OW42348   3.839   1.501   3.990  0.3532  0.5215  0.1292
12129SOL    HW142349   3.787   1.579   4.011 -1.1563 -1.0979  3.0189
12129SOL    HW242350   3.929   1.525   4.013 -0.1593  1.3085  1.3830
12130SOL     OW42351   3.458   3.780   0.650 -0.0358 -0.3744 -0.4694
12130SOL    HW142352   3.371   3.786   0.690  0.9930  1.0361  1.7007
12130SOL    HW242353   3.517   3.758   0.722  1.3412 -2.2151 -2.0604
12131SOL     OW42354   2.724   5.506   2.106 -0.0166 -0.2470 -0.1032
12131SOL    HW142355   2.703   5.519   2.013  3.1890 -0.2100 -0.9307
12131SOL    HW242356   2.817   5.482   2.106 -0.4675 -2.5254  2.9574
12132SOL     OW42357   3.470   5.771   5.069  0.3422  0.0203  0.4040
12132SOL    HW142358   3.554   5.735   5.044  0.0167  0.3922 -1.3206
12132SOL    HW242359   3.490   5.857   5.107  0.6652  0.7422 -1.3267
12133SOL     OW42360   1.585   2.790   8.979  0.2506 -0.0471  0.1884
12133SOL    HW142361   1.569   2.731   8.906  0.7419 -0.8117  0.6853
12133SOL    HW242362   1.574   2.878   8.942 -1.9396 -0.4499 -0.2203
12134SOL     OW42363   5.578   9.173   6.073  0.0027 -0.2361  0.2797
12134SOL    HW142364   5.571   9.087   6.114 -0.5580 -0.5071 -0.3612
12134SOL    HW242365   5.537   9.161   5.987  1.8656  0.0801 -0.7074
12135SOL     OW42366   0.008   3.783   8.933 -0.5454 -0.0595 -0.2916
12135SOL    HW142367   0.024   3.705   8.880  4.3357  0.5785 -0.2332
12135SOL    HW242368  -0.036   3.844   8.873 -2.6119 -2.0211 -0.9307
12136SOL     OW42369   5.256   7.461   8.116 -0.1185  0.2590  0.3948
12136SOL    HW142370   5.346   7.479   8.087 -0.8959  1.6419 -1.3857
12136SOL    HW242371   5.251   7.366   8.121  0.9815  0.0769 -1.1787
12137SOL     OW42372   2.327   8.150   7.111  0.6315  0.5045 -0.1026
12137SOL    HW142373   2.296   8.061   7.100  0.7890  0.6947 -2.6655
12137SOL    HW242374   2.358   8.154   7.202 -1.2314 -1.4098  0.7051
12138SOL     OW42375   3.927   3.555   7.810  0.4267 -0.5471 -0.2963
12138SOL    HW142376   4.012   3.526   7.842 -0.1687 -2.8697 -0.6598
12138SOL    HW242377   3.866   3.488   7.839 -1.3872  1.2523  0.2755
12139SOL     OW42378   5.080   6.900   8.426  0.3510 -0.3527 -0.1670
12139SOL    HW142379   5.063   6.806   8.428  1.1761 -0.5088  2.4313
12139SOL    HW242380   5.002   6.940   8.464  0.5897 -0.1133  0.0810
12140SOL     OW42381   7.272   1.423   8.993  0.2481 -0.0833 -0.0275
12140SOL    HW142382   7.194   1.462   9.034  0.4960  0.4944 -0.0889
12140SOL    HW242383   7.240   1.342   8.954 -0.5026  0.5209 -0.7184
12141SOL     OW42384   0.390   8.915   6.498  0.2746  0.6629  0.2781
12141SOL    HW142385   0.399   8.900   6.592 -2.2369  1.5801  0.7218
12141SOL    HW242386   0.380   8.827   6.461  0.0426  0.3736  1.0054
12142SOL     OW42387   8.223   5.986   3.723  0.4005  0.0719 -0.0513
12142SOL    HW142388   8.131   5.973   3.702  0.4572 -1.8331  0.6985
12142SOL    HW242389   8.224   6.061   3.783 -1.0138 -1.5576  2.1537
12143SOL     OW42390   7.234   9.240   4.902  0.2208 -0.3078  0.1709
12143SOL    HW142391   7.158   9.254   4.960  0.0805  0.3335 -0.1609
12143SOL    HW242392   7.221   9.152   4.867 -0.4194 -0.1771  0.0563
12144SOL     OW42393   9.350   2.459   3.218  0.3291 -0.0396  0.3310
12144SOL    HW142394   9.422   2.483   3.160 -0.9267 -1.0929 -1.8107
12144SOL    HW242395   9.319   2.542   3.254  2.0590  0.5055  0.6629
12145SOL     OW42396   7.662   3.312   3.605  0.4721 -0.4946  0.0303
12145SOL    HW142397   7.694   3.396   3.573 -0.4307  0.2846  1.0900
12145SOL    HW242398   7.602   3.282   3.537  1.1033 -0.4901 -0.5385
12146SOL     OW42399   3.938   5.247   8.332  0.3689  0.4122  0.2807
12146SOL    HW142400   3.964   5.339   8.325  1.5261  0.0955  0.3185
12146SOL    HW242401   3.846   5.251   8.360 -0.0379  1.5647 -1.0956
12147SOL     OW42402   2.873   7.684   6.736  0.2598  0.4152 -0.2510
12147SOL    HW142403   2.819   7.744   6.683 -0.1465 -0.0205 -0.3361
12147SOL    HW242404   2.921   7.742   6.795  0.2888  0.8688 -0.7082
12148SOL     OW42405   4.549   3.997   8.808  0.7241 -0.5920 -0.3017
12148SOL    HW142406   4.479   4.046   8.765 -0.5919 -0.7089  1.5889
12148SOL    HW242407   4.600   4.063   8.854  0.1542 -0.7847  0.6150
12149SOL     OW42408   2.463   8.611   2.606 -0.4817  0.0962 -0.1555
12149SOL    HW142409   2.423   8.698   2.600 -3.0033 -1.0352 -3.5245
12149SOL    HW242410   2.532   8.612   2.540 -0.6189 -0.4718 -0.3134
12150SOL     OW42411   0.930   5.936   6.673  0.3598  0.6682  0.2078
12150SOL    HW142412   0.878   5.866   6.633 -0.1726  0.6626  0.9035
12150SOL    HW242413   0.893   5.947   6.760  0.5835  1.6721  0.1865
12151SOL     OW42414   8.817   3.121   8.317 -0.2436  0.6761  0.2431
12151SOL    HW142415   8.766   3.201   8.323 -0.4952  0.5957 -0.7318
12151SOL    HW242416   8.841   3.114   8.225  0.2154 -0.0949  0.4105
12152SOL     OW42417   4.221   3.766   4.048 -0.4737 -0.0853 -0.4323
12152SOL    HW142418   4.223   3.854   4.011  0.0577 -0.1782 -0.6272
12152SOL    HW242419   4.312   3.748   4.073 -0.6645 -0.3835  0.0641
12153SOL     OW42420   3.218   7.437   1.352 -0.2002  0.1320 -0.7178
12153SOL    HW142421   3.212   7.430   1.256  0.3107 -1.4117 -0.6566
12153SOL    HW242422   3.312   7.445   1.369 -0.2215 -0.5094 -0.2907
12154SOL     OW42423   6.579   9.316   2.478  0.5217  0.4923 -0.1839
12154SOL    HW142424   6.578   9.257   2.403 -0.9773  0.1318  0.0777
12154SOL    HW242425   6.621   9.265   2.548  0.0117  0.0325 -0.2022
12155SOL     OW42426   0.824   4.789   7.658  0.1328 -0.3201 -0.3138
12155SOL    HW142427   0.837   4.788   7.563  1.2201 -0.4312 -0.1776
12155SOL    HW242428   0.872   4.712   7.690 -1.2910 -1.0222  0.2139
12156SOL     OW42429   7.495   7.756   0.848 -0.0664 -0.1757 -0.1675
12156SOL    HW142430   7.462   7.800   0.770 -0.1096  0.7692  0.3682
12156SOL    HW242431   7.528   7.672   0.816  0.2174  0.3298 -1.2474
12157SOL     OW42432   6.168   1.373   3.121 -0.1828  0.0582 -0.3518
12157SOL    HW142433   6.089   1.426   3.129 -0.3909 -0.2910 -0.0512
12157SOL    HW242434   6.191   1.352   3.212 -1.0966 -1.8196 -0.5217
12158SOL     OW42435   0.668   7.928   3.142  0.3152  0.3111  0.5056
12158SOL    HW142436   0.585   7.937   3.095  0.5991 -0.1234 -0.0858
12158SOL    HW242437   0.695   7.838   3.126  0.7873  0.3842  0.8884
12159SOL     OW42438   0.014   0.538   7.003 -0.0229  0.0098 -0.0867
12159SOL    HW142439   0.085   0.477   7.023 -0.4584 -1.1808 -1.9169
12159SOL    HW242440   0.051   0.624   7.021  0.7022 -0.7099  2.3161
12160SOL     OW42441   0.716   8.020   4.225  0.5364  0.2089  0.1154
12160SOL    HW142442   0.636   7.971   4.243  0.5610  0.0117 -0.3113
12160SOL    HW242443   0.686   8.100   4.181  0.4271  0.9540  1.4866
12161SOL     OW42444   2.595   2.356   0.525  0.3585  0.6080  0.6514
12161SOL    HW142445   2.660   2.346   0.456  1.7803  0.0671  1.9986
12161SOL    HW242446   2.568   2.267   0.545 -1.0641  0.8479 -0.0964
12162SOL     OW42447   3.800   6.263   8.198 -1.1363 -0.6012  0.5249
12162SOL    HW142448   3.814   6.344   8.149 -0.1104 -0.0773  1.6422
12162SOL    HW242449   3.879   6.212   8.183 -1.4404 -1.0671  0.4751
12163SOL     OW42450   5.363   0.767   2.707 -0.3581  0.3857  0.2526
12163SOL    HW142451   5.415   0.688   2.720  1.1449  1.1833 -0.6655
12163SOL    HW242452   5.354   0.776   2.612  0.1408  1.7019  0.3024
12164SOL     OW42453   5.304   2.831   0.534  0.1138  0.0517  0.0518
12164SOL    HW142454   5.246   2.757   0.551  1.2306 -0.7404  0.5771
12164SOL    HW242455   5.287   2.892   0.606  0.0844 -0.2815  0.3333
12165SOL     OW42456   0.131   0.343   1.132  0.4178  0.0134 -0.3724
12165SOL    HW142457   0.044   0.314   1.106  0.3819  0.8827 -1.2872
12165SOL    HW242458   0.149   0.418   1.076  2.0703 -0.6053 -0.7309
12166SOL     OW42459   2.125   8.694   5.792  0.0554  0.5590 -0.4944
12166SOL    HW142460   2.073   8.693   5.711  0.6585 -0.8873 -0.8851
12166SOL    HW242461   2.137   8.787   5.811 -3.0798  1.0259 -0.1115
12167SOL     OW42462   1.344   4.380   3.198 -0.0393  0.0187 -0.2034
12167SOL    HW142463   1.311   4.450   3.256  2.2662 -0.3074  1.6445
12167SOL    HW242464   1.267   4.327   3.179 -1.5559  2.1124 -0.3573
12168SOL     OW42465   0.182   4.364   3.995 -0.4405 -0.5855 -0.2704
12168SOL    HW142466   0.090   4.371   4.018 -0.5618 -1.3285 -0.4769
12168SOL    HW242467   0.189   4.279   3.951 -0.1618  0.5424 -2.5873
12169SOL     OW42468   5.837   1.798   2.407  0.2331 -0.3678 -0.0245
12169SOL    HW142469   5.777   1.835   2.342  0.8509 -1.2708 -1.1492
12169SOL    HW242470   5.886   1.874   2.439  0.0879  0.0731 -0.8049
12170SOL     OW42471   1.530   7.462   9.204  0.4181  0.7847 -0.1939
12170SOL    HW142472   1.516   7.553   9.180 -0.8880  0.4495 -0.7670
12170SOL    HW242473   1.599   7.465   9.270 -0.7971  2.3385  1.0710
12171SOL     OW42474   8.769   1.649   4.515  0.6027  0.8020 -0.3462
12171SOL    HW142475   8.694   1.686   4.469  0.6413  1.1497 -0.1270
12171SOL    HW242476   8.760   1.554   4.502 -0.7543  0.7047  1.0135
12172SOL     OW42477   6.249   5.670   0.144 -0.2275  0.3193 -0.7405
12172SOL    HW142478   6.212   5.728   0.077  1.1436 -0.1578 -1.9550
12172SOL    HW242479   6.187   5.597   0.150 -2.0325  1.8673  0.8803
12173SOL     OW42480   4.926   8.133   4.665  0.0193 -0.0038  0.4093
12173SOL    HW142481   4.957   8.101   4.580 -1.1738 -0.0940 -0.0053
12173SOL    HW242482   4.945   8.061   4.725  0.0106 -0.3267  0.0375
12174SOL     OW42483   3.225   2.089   2.686 -0.4686  0.0481  0.0603
12174SOL    HW142484   3.227   2.138   2.768  1.4132  0.8501 -0.4275
12174SOL    HW242485   3.131   2.078   2.668 -0.9675  2.4816  0.7854
12175SOL     OW42486   0.344   3.980   6.754 -0.6597 -0.1811  0.7438
12175SOL    HW142487   0.292   4.060   6.749  0.1319  0.2989 -0.1573
12175SOL    HW242488   0.290   3.919   6.805 -2.0627  0.3201 -0.0855
12176SOL     OW42489   3.365   0.071   0.377  0.7959 -0.0675  0.3203
12176SOL    HW142490   3.456   0.052   0.351  0.4328 -1.9403  0.2562
12176SOL    HW242491   3.368   0.076   0.472  0.9502 -0.2923  0.3296
12177SOL     OW42492   5.309   9.108   0.298  0.1962  0.0218 -0.0837
12177SOL    HW142493   5.275   9.124   0.210 -3.8567  2.2129  1.5730
12177SOL    HW242494   5.371   9.036   0.288  1.5187  1.4837 -4.9265
12178SOL     OW42495   6.224   9.139   4.422 -0.4202  0.0798  0.3195
12178SOL    HW142496   6.205   9.232   4.433 -0.3877  0.3253 -1.4793
12178SOL    HW242497   6.176   9.096   4.493  0.1548  1.5009  1.6330
12179SOL     OW42498   5.954   6.519   7.592 -0.4830 -0.3443 -0.5401
12179SOL    HW142499   5.973   6.585   7.659 -0.4925 -1.3937  0.5318
12179SOL    HW242500   5.868   6.485   7.616 -0.2151 -1.1650 -0.7338
12180SOL     OW42501   0.666   2.447   8.963 -0.5595 -0.0396  0.4225
12180SOL    HW142502   0.585   2.447   8.912 -0.2650 -0.5221 -0.0619
12180SOL    HW242503   0.638   2.455   9.054 -1.1890 -0.9152  0.3153
12181SOL     OW42504   2.508   0.155   6.616  0.1399 -0.2794  0.5948
12181SOL    HW142505   2.499   0.071   6.662  1.2467 -1.2482 -0.8425
12181SOL    HW242506   2.432   0.160   6.559  0.8986 -1.1790 -0.5571
12182SOL     OW42507   7.654   8.222   1.825 -0.7805  0.3173  0.0300
12182SOL    HW142508   7.707   8.145   1.803 -1.7299 -0.3910  0.1783
12182SOL    HW242509   7.610   8.245   1.743  0.4734  1.5010 -0.3442
12183SOL     OW42510   5.640   1.914   8.094 -0.5287 -0.0608 -0.8537
12183SOL    HW142511   5.677   1.921   8.182 -1.3769 -3.3550 -0.0870
12183SOL    HW242512   5.714   1.927   8.035  0.8979 -1.5869  0.4995
12184SOL     OW42513   7.688   8.246   0.720 -0.6792  0.2339  0.3006
12184SOL    HW142514   7.778   8.274   0.733 -0.8783  1.1792 -0.2413
12184SOL    HW242515   7.683   8.161   0.762  0.4353  0.2177  0.4352
12185SOL     OW42516   0.121   8.019   5.602  0.6212 -0.0036  0.1216
12185SOL    HW142517   0.166   7.981   5.677 -0.6448 -0.0744  0.8805
12185SOL    HW242518   0.028   8.001   5.618  0.1271  1.8923 -0.3521
12186SOL     OW42519   1.122   8.310   5.434  0.2797  0.1801 -0.7237
12186SOL    HW142520   1.165   8.260   5.503  0.0261  0.2166 -0.5402
12186SOL    HW242521   1.043   8.344   5.474 -0.1663 -0.2803 -1.1926
12187SOL     OW42522   2.776   6.114   7.037 -0.1848 -0.1017 -0.0377
12187SOL    HW142523   2.717   6.159   6.977 -0.5976 -0.6755 -0.0705
12187SOL    HW242524   2.722   6.093   7.113  0.5299  1.3551  0.9290
12188SOL     OW42525   8.888   7.873   1.838  0.0675  0.3629  0.1962
12188SOL    HW142526   8.811   7.816   1.847 -0.6547  1.4167  1.0375
12188SOL    HW242527   8.851   7.958   1.813  1.0890  0.5584 -0.6877
12189SOL     OW42528   8.724   6.812   6.439 -0.1818 -0.0908 -0.6011
12189SOL    HW142529   8.667   6.861   6.499 -2.4464 -2.3889 -0.6810
12189SOL    HW242530   8.802   6.792   6.492 -0.5653  0.9387  0.4045
12190SOL     OW42531   4.687   4.723   7.353 -0.3191  0.1120 -0.0709
12190SOL    HW142532   4.719   4.697   7.266 -0.0645  0.0562  0.0381
12190SOL    HW242533   4.710   4.815   7.361  0.7363 -0.1834  0.4163
12191SOL     OW42534   3.583   6.415   3.971  0.3163 -0.1684 -0.5018
12191SOL    HW142535   3.645   6.411   4.044 -0.5055  1.1218  0.3038
12191SOL    HW242536   3.623   6.476   3.909 -0.2485  0.8878  0.1481
12192SOL     OW42537   1.449   7.129   2.079  0.1826  0.1194  0.5248
12192SOL    HW142538   1.396   7.097   2.007 -2.2490  3.3145  0.6200
12192SOL    HW242539   1.509   7.192   2.039 -0.5711  1.2477  1.1073
12193SOL     OW42540   7.927   8.339   2.283  0.0731 -0.5346 -0.1384
12193SOL    HW142541   7.957   8.388   2.207 -0.2301 -0.7575 -0.4070
12193SOL    HW242542   7.999   8.279   2.302 -0.2928 -1.2754 -0.9652
12194SOL     OW42543   6.538   6.333   3.803  0.2286 -0.0083 -0.0947
12194SOL    HW142544   6.516   6.297   3.717  0.8579 -0.0713 -0.2339
12194SOL    HW242545   6.470   6.300   3.861  0.2594 -0.6394 -0.4095
12195SOL     OW42546   3.866   2.861   1.744  0.1041 -0.2108  0.0244
12195SOL    HW142547   3.850   2.877   1.651  0.4241  2.9351  0.4030
12195SOL    HW242548   3.782   2.878   1.786  0.0405 -1.3116  0.3772
12196SOL     OW42549   7.368   8.309   4.419  0.7903 -0.1215  0.9740
12196SOL    HW142550   7.353   8.254   4.342  1.1195 -0.3097  1.0405
12196SOL    HW242551   7.447   8.359   4.396 -0.0526  1.0561  0.5053
12197SOL     OW42552   8.119   5.546   6.291 -0.2674 -0.0739  0.2440
12197SOL    HW142553   8.173   5.625   6.293 -0.0657 -0.2078  0.1184
12197SOL    HW242554   8.034   5.576   6.258  0.0830 -0.0662 -0.6721
12198SOL     OW42555   1.966   1.552   1.585  0.0964 -0.0700  0.3380
12198SOL    HW142556   1.960   1.572   1.492 -0.1373 -0.5473  0.2481
12198SOL    HW242557   1.876   1.538   1.613  0.1539  0.2026  0.6688
12199SOL     OW42558   7.419   0.794   0.969  0.0591 -0.0448 -0.6294
12199SOL    HW142559   7.353   0.856   1.001  0.4363 -0.7736  1.6800
12199SOL    HW242560   7.388   0.709   0.997  0.9068 -0.6413 -1.4363
12200SOL     OW42561   1.395   4.829   8.933 -0.5351  0.0185  0.1247
12200SOL    HW142562   1.394   4.808   9.027 -0.9800 -0.4892  0.0123
12200SOL    HW242563   1.354   4.915   8.928  0.3530  0.4762  0.4876
12201SOL     OW42564   0.058   0.144   0.543  0.2399  0.3064  0.1786
12201SOL    HW142565   0.091   0.198   0.615 -0.0765 -1.3273  1.6417
12201SOL    HW242566  -0.010   0.090   0.584  0.5910 -1.2256 -1.1552
12202SOL     OW42567   8.967   6.344   2.733 -0.0565 -0.1423  0.2627
12202SOL    HW142568   8.883   6.387   2.714  0.1603 -0.5632 -1.8856
12202SOL    HW242569   8.946   6.251   2.734  0.3591 -0.2423 -0.1879
12203SOL     OW42570   3.980   8.229   1.246  0.0626  0.4152  0.1048
12203SOL    HW142571   3.917   8.222   1.317  1.6877 -0.7296  1.5246
12203SOL    HW242572   3.977   8.145   1.202 -0.6991  1.0044 -1.0070
12204SOL     OW42573   8.385   6.547   8.839  0.3682 -0.3622 -0.4963
12204SOL    HW142574   8.425   6.541   8.752  0.3189  2.9751 -0.8703
12204SOL    HW242575   8.293   6.528   8.825  0.3911  0.0095 -1.1702
12205SOL     OW42576   2.358   1.005   1.903 -0.2378  0.1885  0.1710
12205SOL    HW142577   2.370   0.917   1.868 -0.9947 -0.5146  1.5826
12205SOL    HW242578   2.447   1.040   1.913  0.0188  0.3718 -2.2022
12206SOL     OW42579   4.002   5.286   4.242 -0.1881  0.1220 -0.2957
12206SOL    HW142580   4.025   5.281   4.334 -0.4970 -1.3861 -0.2677
12206SOL    HW242581   4.068   5.233   4.197 -0.2084  0.6003 -0.9140
12207SOL     OW42582   1.882   7.932   1.438  0.5070  0.4173 -0.1161
12207SOL    HW142583   1.792   7.932   1.406  1.1778  0.5581 -2.1392
12207SOL    HW242584   1.886   7.857   1.497 -1.0417  0.6987  0.4054
12208SOL     OW42585   6.197   4.481   5.084  0.0024 -0.3327  0.0206
12208SOL    HW142586   6.254   4.542   5.130 -0.3581 -0.3450  0.4855
12208SOL    HW242587   6.143   4.536   5.027  0.8151 -0.3605 -0.7996
12209SOL     OW42588   1.331   0.086   3.055  0.0581 -0.0016 -0.4589
12209SOL    HW142589   1.375   0.001   3.055 -2.6762 -1.5432 -1.8466
12209SOL    HW242590   1.274   0.084   3.132 -0.6120  0.2457 -0.9425
12210SOL     OW42591   0.551   1.334   1.543  0.0856 -0.1433  0.5068
12210SOL    HW142592   0.575   1.261   1.599  3.4840  0.7972  0.4598
12210SOL    HW242593   0.581   1.412   1.589 -0.4993  0.9842 -0.9119
12211SOL     OW42594   1.173   6.867   8.650 -0.0219 -0.4547  0.1914
12211SOL    HW142595   1.206   6.950   8.617 -1.6099  0.7769  1.5362
12211SOL    HW242596   1.121   6.831   8.579 -0.6024  0.4943  0.1181
12212SOL     OW42597   8.237   4.516   5.690  0.2402  0.3982  0.5675
12212SOL    HW142598   8.285   4.569   5.754  0.2229 -0.8108  1.6201
12212SOL    HW242599   8.178   4.462   5.742  1.3383 -1.7640 -0.2821
12213SOL     OW42600   1.004   1.918   4.433 -0.7263  0.5821 -0.1322
12213SOL    HW142601   0.976   1.972   4.359 -0.7316 -0.6644 -1.0798
12213SOL    HW242602   0.936   1.851   4.441  0.1016 -0.2637 -0.0516
12214SOL     OW42603   0.748   2.741   4.229 -0.3795 -0.1310 -0.2890
12214SOL    HW142604   0.786   2.713   4.146  1.4095 -0.3652  0.5691
12214SOL    HW242605   0.777   2.675   4.293  0.7492  1.5815  1.0558
12215SOL     OW42606   1.297   4.412   5.121  0.4117 -0.1517  0.2044
12215SOL    HW142607   1.321   4.322   5.145 -0.2396  0.1706  2.2974
12215SOL    HW242608   1.363   4.438   5.058  1.4520 -1.6275  0.6126
12216SOL     OW42609   8.429   9.269   5.635 -0.0434  0.0704  0.2263
12216SOL    HW142610   8.491   9.340   5.654 -0.7181  0.7005  0.1170
12216SOL    HW242611   8.402   9.237   5.721 -1.7619  1.7493  0.3606
12217SOL     OW42612   3.562   3.972   7.639 -1.0080 -0.0782 -0.6855
12217SOL    HW142613   3.628   3.911   7.671 -0.6324 -0.4109 -2.0221
12217SOL    HW242614   3.590   4.058   7.672 -1.5191 -0.5931  1.1734
12218SOL     OW42615   6.639   7.591   0.928 -0.4403 -0.0374  0.0040
12218SOL    HW142616   6.690   7.518   0.962  0.1759  0.0750 -0.6585
12218SOL    HW242617   6.579   7.614   0.999 -0.4250 -0.9792  0.3325
12219SOL     OW42618   7.849   9.066   2.956  0.2073  0.3580 -0.1544
12219SOL    HW142619   7.770   9.047   3.007  0.3235 -0.4654 -0.2579
12219SOL    HW242620   7.830   9.148   2.911 -0.3960  0.4230  0.2124
12220SOL     OW42621   9.113   3.705   7.188 -0.5231  0.2802  0.3389
12220SOL    HW142622   9.162   3.749   7.119  0.8741  0.0696  1.1563
12220SOL    HW242623   9.064   3.775   7.231  1.0851  0.9859  1.1407
12221SOL     OW42624   1.408   1.962   5.589  0.0131 -0.3202  0.2919
12221SOL    HW142625   1.389   2.034   5.530 -0.6420 -0.0216  0.8599
12221SOL    HW242626   1.464   2.000   5.656  1.2100 -0.7875 -0.4193
12222SOL     OW42627   6.556   4.693   5.536 -0.4601  0.2802 -0.2303
12222SOL    HW142628   6.540   4.744   5.616  0.3336  1.2042 -0.6534
12222SOL    HW242629   6.533   4.752   5.465 -0.0803 -0.1513 -0.7181
12223SOL     OW42630   5.834   2.586   2.553 -0.1277  0.1058 -0.4313
12223SOL    HW142631   5.845   2.621   2.464 -0.2218  0.2177 -0.3988
12223SOL    HW242632   5.742   2.559   2.557 -0.3870  1.0103 -0.0435
12224SOL     OW42633   8.238   8.018   4.909 -0.3878  0.5336  0.4358
12224SOL    HW142634   8.324   8.060   4.900  0.5289 -0.7467  2.5549
12224SOL    HW242635   8.176   8.089   4.894  0.9574  1.3154 -2.0742
12225SOL     OW42636   6.362   4.600   4.851 -0.4116  0.2774  0.5841
12225SOL    HW142637   6.304   4.530   4.883 -0.2546 -0.7955 -1.3178
12225SOL    HW242638   6.325   4.624   4.767  1.5398 -0.0065 -0.4034
12226SOL     OW42639   2.959   7.157   5.787 -0.2949  0.4695  0.2231
12226SOL    HW142640   3.043   7.112   5.800 -0.8100 -0.0782  2.0186
12226SOL    HW242641   2.978   7.249   5.804 -0.3046  0.1564  2.2727
12227SOL     OW42642   6.388   0.550   7.999  0.0150  0.0794 -0.2777
12227SOL    HW142643   6.330   0.479   7.973  0.6225 -0.7937  0.6742
12227SOL    HW242644   6.330   0.615   8.039 -0.2016 -1.4075  1.9828
12228SOL     OW42645   2.357   7.473   0.782  0.1870 -0.1228  0.1149
12228SOL    HW142646   2.353   7.554   0.730  2.0537  0.5457  0.9121
12228SOL    HW242647   2.421   7.419   0.735  0.9126 -0.0398  0.9814
12229SOL     OW42648   0.053   5.167   8.736  0.1476  0.0915  0.8904
12229SOL    HW142649   0.002   5.087   8.735  0.4560 -0.1504 -1.3242
12229SOL    HW242650   0.029   5.212   8.654 -0.5473  2.6266  2.3646
12230SOL     OW42651   0.592   2.512   5.606 -0.3186  0.0657  0.2403
12230SOL    HW142652   0.545   2.541   5.528  1.6400  1.9258 -0.3587
12230SOL    HW242653   0.610   2.593   5.654  1.8773 -0.5643  0.5994
12231SOL     OW42654   0.159   5.528   6.756  0.4730 -0.5582  0.2066
12231SOL    HW142655   0.131   5.487   6.674 -1.9890  1.3637 -0.0434
12231SOL    HW242656   0.168   5.620   6.735 -0.8167  0.0865  2.1624
12232SOL     OW42657   2.805   7.054   5.352  0.1536 -0.2944  0.0729
12232SOL    HW142658   2.724   7.076   5.306  0.7753 -0.9173 -1.3792
12232SOL    HW242659   2.875   7.076   5.290  1.0465 -0.8219  0.8592
12233SOL     OW42660   1.372   1.491   8.534 -0.0530  0.2819  0.2037
12233SOL    HW142661   1.417   1.570   8.502 -0.6986  0.6265  0.1268
12233SOL    HW242662   1.442   1.439   8.574  0.4361  0.7518 -0.0101
12234SOL     OW42663   2.613   8.730   2.372  0.2900  1.0853 -0.7769
12234SOL    HW142664   2.660   8.739   2.289  0.1303  0.9461 -0.8829
12234SOL    HW242665   2.648   8.799   2.428  2.3141 -0.4304 -0.0438
12235SOL     OW42666   5.922   2.817   2.775  0.0717 -0.0859  0.0424
12235SOL    HW142667   5.961   2.780   2.696 -0.0637  1.4832 -0.7992
12235SOL    HW242668   5.850   2.871   2.743  0.1751  0.7985  1.2238
12236SOL     OW42669   6.511   3.727   7.569  0.3821 -0.0425 -0.1107
12236SOL    HW142670   6.451   3.788   7.612 -1.9688 -1.4559 -1.1814
12236SOL    HW242671   6.470   3.710   7.484  2.2879 -1.1696 -0.8450
12237SOL     OW42672   5.425   4.632   5.296  0.3625  0.0491  0.2373
12237SOL    HW142673   5.369   4.697   5.339 -2.3835 -2.9640  1.6123
12237SOL    HW242674   5.487   4.604   5.364  1.5585  1.1348 -0.3599
12238SOL     OW42675   8.473   0.152   5.321  0.4575  0.2565 -0.3591
12238SOL    HW142676   8.532   0.183   5.391  0.4157 -0.3441 -0.0538
12238SOL    HW242677   8.446   0.065   5.349 -0.9739  0.7089 -0.2560
12239SOL     OW42678   5.298   7.975   2.848  0.0854 -0.0640  0.0588
12239SOL    HW142679   5.264   7.962   2.936 -1.3113  0.5987 -0.3471
12239SOL    HW242680   5.393   7.978   2.858  0.0050 -1.2402  1.3506
12240SOL     OW42681   1.772   3.463   6.390 -0.1094 -0.0461  0.1793
12240SOL    HW142682   1.768   3.459   6.486 -0.9770  0.2616  0.1677
12240SOL    HW242683   1.684   3.438   6.362  0.3086 -0.7011 -0.5631
12241SOL     OW42684   0.347   3.960   1.068  0.1737 -0.2585 -0.2153
12241SOL    HW142685   0.356   3.920   1.155  0.4276  0.3577  0.0467
12241SOL    HW242686   0.282   4.029   1.080  0.7137  0.2821 -0.3470
12242SOL     OW42687   6.428   0.843   7.129 -0.7446  0.3566 -0.0646
12242SOL    HW142688   6.460   0.757   7.156 -0.1867  1.2386  2.3613
12242SOL    HW242689   6.485   0.867   7.055  0.6168 -0.4129  0.6793
12243SOL     OW42690   4.748   3.253   0.435  0.2720  0.0721 -0.1204
12243SOL    HW142691   4.653   3.249   0.443  0.2183 -0.0097 -0.7623
12243SOL    HW242692   4.781   3.229   0.522 -0.3114  2.2680  0.7564
12244SOL     OW42693   4.606   7.413   2.690  0.4035 -0.5655 -0.3520
12244SOL    HW142694   4.531   7.454   2.645  0.5483 -0.0157 -0.1091
12244SOL    HW242695   4.568   7.374   2.768  0.5701  1.0383  0.5773
12245SOL     OW42696   6.260   1.032   3.406 -0.3585 -0.0970 -0.4648
12245SOL    HW142697   6.338   1.018   3.353  0.9901  1.6528  0.9392
12245SOL    HW242698   6.265   0.966   3.476 -0.9109 -0.8864 -1.1492
12246SOL     OW42699   4.836   6.558   9.036  0.4393  0.7766 -0.2978
12246SOL    HW142700   4.855   6.616   8.962  1.4475  0.6945 -0.1077
12246SOL    HW242701   4.753   6.516   9.012  0.7369  0.7755 -1.3687
12247SOL     OW42702   0.876   9.179   4.770 -0.2051  0.1284 -0.4304
12247SOL    HW142703   0.893   9.171   4.864  0.9624 -0.4801 -0.6813
12247SOL    HW242704   0.857   9.089   4.741 -1.2514  0.4058 -0.6678
12248SOL     OW42705   4.886   8.557   7.725 -0.0577 -0.0476  0.2155
12248SOL    HW142706   4.837   8.535   7.646 -0.1913  1.0043 -0.0104
12248SOL    HW242707   4.846   8.503   7.794  0.4208 -1.3807 -0.5188
12249SOL     OW42708   0.998   5.426   4.876 -0.4881 -0.3106 -0.1891
12249SOL    HW142709   1.026   5.515   4.856  1.7593 -1.1777 -1.3773
12249SOL    HW242710   0.913   5.417   4.833 -0.8223  1.2849  0.0848
12250SOL     OW42711   8.929   5.640   9.091 -0.4462  0.1550 -0.9726
12250SOL    HW142712   8.981   5.693   9.030 -0.4236  2.3510  0.8440
12250SOL    HW242713   8.874   5.586   9.034  0.8141  0.8079 -2.9255
12251SOL     OW42714   8.796   5.735   6.463 -0.2177  0.0170 -0.3509
12251SOL    HW142715   8.785   5.643   6.486 -1.1583 -0.4176 -2.3504
12251SOL    HW242716   8.868   5.735   6.400 -1.4279  0.3796 -1.7662
12252SOL     OW42717   1.753   0.503   8.254  0.0717 -0.3820 -0.1029
12252SOL    HW142718   1.776   0.417   8.290 -1.2225 -0.5080  0.4894
12252SOL    HW242719   1.740   0.558   8.331 -0.8239 -0.1333 -0.4219
12253SOL     OW42720   3.501   2.783   2.447 -0.1500  0.2259 -0.0614
12253SOL    HW142721   3.426   2.821   2.401 -1.6723  0.0231  2.1194
12253SOL    HW242722   3.535   2.855   2.500  1.7918  0.5466 -1.6429
12254SOL     OW42723   1.286   8.634   8.879  0.1071 -0.2747  0.4117
12254SOL    HW142724   1.286   8.728   8.894  2.5118  0.0570 -1.1358
12254SOL    HW242725   1.204   8.603   8.917 -1.2348  2.5718  0.0550
12255SOL     OW42726   4.159   2.291   1.613 -0.1684  0.7254 -0.1868
12255SOL    HW142727   4.069   2.307   1.586 -0.1998  1.6491  0.4402
12255SOL    HW242728   4.155   2.211   1.665 -0.5169  0.4212 -0.6703
12256SOL     OW42729   2.357   4.614   3.071  0.1637  0.0404 -0.3421
12256SOL    HW142730   2.451   4.620   3.092  0.4559  0.3235 -1.6460
12256SOL    HW242731   2.313   4.639   3.152  1.2087 -0.1218  0.3029
12257SOL     OW42732   6.175   4.431   4.244 -0.0181 -0.5217 -0.2748
12257SOL    HW142733   6.209   4.509   4.200 -0.8347 -0.6457 -1.1326
12257SOL    HW242734   6.081   4.444   4.247  0.0179 -0.4253  1.6377
12258SOL     OW42735   1.421   2.120   1.641  0.0950 -0.6467  0.5936
12258SOL    HW142736   1.472   2.082   1.569 -0.7167  1.0461 -0.9565
12258SOL    HW242737   1.346   2.062   1.651 -0.1795 -0.5026 -0.4801
12259SOL     OW42738   6.839   6.239   5.715 -0.1172  0.1845 -0.6716
12259SOL    HW142739   6.859   6.146   5.704 -0.3533  0.2971 -2.2959
12259SOL    HW242740   6.744   6.244   5.705 -0.2787  0.4517  0.7723
12260SOL     OW42741   2.362   0.336   9.198  0.3275  0.3062 -0.3767
12260SOL    HW142742   2.364   0.369   9.109  0.3946 -0.5194 -0.6873
12260SOL    HW242743   2.380   0.242   9.190  2.2777  0.5437  0.6558
12261SOL     OW42744   0.791   7.708   3.866  0.1785  0.2414 -0.9339
12261SOL    HW142745   0.825   7.769   3.930  0.9465  1.4437 -2.4147
12261SOL    HW242746   0.867   7.684   3.813 -0.7385  0.9184 -2.6630
12262SOL     OW42747   2.870   2.159   6.313 -0.4090 -0.1629  0.6041
12262SOL    HW142748   2.825   2.081   6.280 -0.4004 -0.1738  0.6179
12262SOL    HW242749   2.871   2.219   6.238 -0.5284 -0.1267  0.6304
12263SOL     OW42750   8.197   2.338   5.516 -0.2161  0.0884  0.3010
12263SOL    HW142751   8.103   2.352   5.527 -0.3840 -1.9724  2.1483
12263SOL    HW242752   8.238   2.393   5.582 -0.3972 -1.5908  1.8982
12264SOL     OW42753   4.805   7.557   3.599 -0.3703 -0.0509 -0.0255
12264SOL    HW142754   4.870   7.496   3.633 -0.5274 -0.5242 -0.5515
12264SOL    HW242755   4.830   7.571   3.508 -0.4174  0.5612  0.0557
12265SOL     OW42756   8.186   2.426   8.580 -0.1668 -0.4497  0.3921
12265SOL    HW142757   8.261   2.486   8.580 -0.0112 -0.6287 -0.2580
12265SOL    HW242758   8.223   2.342   8.607 -0.1415 -0.5206  0.1442
12266SOL     OW42759   5.813   5.500   3.618 -0.1810  0.2510 -0.0508
12266SOL    HW142760   5.825   5.406   3.627 -0.0518  0.2960  0.2441
12266SOL    HW242761   5.775   5.528   3.701 -1.2257  0.2943 -0.5370
12267SOL     OW42762   6.164   7.605   1.684 -0.1482 -0.5314 -0.0024
12267SOL    HW142763   6.212   7.630   1.764  1.6905  0.9268 -1.4743
12267SOL    HW242764   6.124   7.521   1.706  0.5544 -0.3263  2.3556
12268SOL     OW42765   3.876   6.402   0.182 -0.6632 -0.6598  0.3299
12268SOL    HW142766   3.810   6.361   0.126 -0.1940 -0.7242 -0.1789
12268SOL    HW242767   3.898   6.484   0.138 -0.2285 -0.7512  0.3752
12269SOL     OW42768   1.002   5.314   9.062 -0.3223 -0.0744  0.2641
12269SOL    HW142769   1.044   5.357   9.137  1.9548 -0.7639 -0.5275
12269SOL    HW242770   1.005   5.380   8.992 -0.5448 -0.1367  0.1960
12270SOL     OW42771   6.890   4.141   2.704 -0.2029  0.7684 -0.2661
12270SOL    HW142772   6.929   4.085   2.637  1.7286  1.5687  0.1225
12270SOL    HW242773   6.886   4.227   2.663  0.6442  1.1840  0.4986
12271SOL     OW42774   8.848   8.695   1.919  0.1462 -0.2938  0.4012
12271SOL    HW142775   8.775   8.746   1.884 -0.6539 -2.0568 -0.6838
12271SOL    HW242776   8.925   8.730   1.875 -0.4275 -0.2021 -0.5679
12272SOL     OW42777   8.463   8.378   1.283  0.1455 -0.6743 -0.4269
12272SOL    HW142778   8.457   8.289   1.318  1.0984 -1.0479 -1.1487
12272SOL    HW242779   8.547   8.411   1.317  0.3469 -0.4820 -1.0982
12273SOL     OW42780   6.670   8.151   1.446  0.4601  0.7622 -0.9352
12273SOL    HW142781   6.575   8.150   1.441  0.3564 -1.9771 -0.0148
12273SOL    HW242782   6.692   8.235   1.485 -1.6490  0.9999 -0.1716
12274SOL     OW42783   7.372   2.625   8.184 -0.2271 -0.2372  0.1060
12274SOL    HW142784   7.337   2.541   8.212 -0.9794  0.1617  0.3810
12274SOL    HW242785   7.394   2.612   8.092 -0.7495 -0.6055  0.0306
12275SOL     OW42786   2.570   7.266   2.725 -0.6626  0.4708  0.0262
12275SOL    HW142787   2.620   7.254   2.645 -1.1431 -0.0883 -0.2040
12275SOL    HW242788   2.551   7.359   2.728  2.7735  1.2533  1.6040
12276SOL     OW42789   4.826   3.682   3.613  0.8113 -0.9442  0.0766
12276SOL    HW142790   4.911   3.642   3.593  0.6072 -1.4328  0.1615
12276SOL    HW242791   4.768   3.651   3.544  0.9513  0.2798 -0.6196
12277SOL     OW42792   2.865   3.825   1.492 -0.8235 -0.2007 -0.3640
12277SOL    HW142793   2.901   3.736   1.494 -0.0364  0.1105 -0.2032
12277SOL    HW242794   2.835   3.836   1.402 -3.6038 -1.6352  0.2759
12278SOL     OW42795   1.186   3.665   6.851 -0.4501 -0.0585 -0.7426
12278SOL    HW142796   1.189   3.710   6.936 -1.2050 -0.2198 -0.6297
12278SOL    HW242797   1.230   3.581   6.867 -0.0659  0.1526 -0.6657
12279SOL     OW42798   9.120   3.509   6.949 -0.2595  0.4056 -0.1570
12279SOL    HW142799   9.120   3.525   7.043 -0.9638  0.5060 -0.1641
12279SOL    HW242800   9.047   3.449   6.935  1.0791 -1.2329 -0.3922
12280SOL     OW42801   4.205   1.165   7.917  0.5717  0.2231 -0.1602
12280SOL    HW142802   4.243   1.111   7.986  1.4949  1.6180  0.4618
12280SOL    HW242803   4.213   1.255   7.950 -1.1270  0.7518 -1.0532
12281SOL     OW42804   7.306   2.590   2.153  0.1331  0.2282  0.4386
12281SOL    HW142805   7.238   2.523   2.155  0.1293  0.1172 -1.3667
12281SOL    HW242806   7.329   2.597   2.060  2.6856  0.1710  0.9963
12282SOL     OW42807   0.279   7.019   8.135 -0.2749 -0.3923  0.3605
12282SOL    HW142808   0.204   7.061   8.177  0.2374 -0.4346  1.3530
12282SOL    HW242809   0.353   7.075   8.159 -0.0940  0.1700 -1.3666
12283SOL     OW42810   8.177   6.995   3.794  0.0654  0.4588 -0.5584
12283SOL    HW142811   8.244   7.057   3.764  2.2549 -0.7686  1.4969
12283SOL    HW242812   8.181   6.923   3.731  1.0888  0.1501 -0.1548
12284SOL     OW42813   3.932   2.912   0.371  0.1414 -0.2917  0.1227
12284SOL    HW142814   3.894   2.948   0.452 -1.8109 -0.8484 -0.5049
12284SOL    HW242815   4.007   2.969   0.353 -0.7584  1.2657  1.0819
12285SOL     OW42816   3.870   2.426   9.274 -0.4351  0.1112  0.1143
12285SOL    HW142817   3.917   2.345   9.252 -0.0541  0.7777 -1.7366
12285SOL    HW242818   3.932   2.496   9.252 -0.4945  0.9459  2.3208
12286SOL     OW42819   4.606   2.697   3.599  0.2668  0.2138  0.1088
12286SOL    HW142820   4.661   2.631   3.558  1.1521  0.5037  0.7884
12286SOL    HW242821   4.623   2.688   3.693  0.4066  1.4063  0.2117
12287SOL     OW42822   6.625   7.934   0.409  0.1842  0.1003  0.4572
12287SOL    HW142823   6.554   7.899   0.463  1.0372  1.3604  2.5170
12287SOL    HW242824   6.581   7.988   0.344 -0.9097 -1.8061 -0.4847
12288SOL     OW42825   1.694   1.526   1.707 -0.5762  0.0861 -0.6590
12288SOL    HW142826   1.628   1.584   1.745  0.2182  0.1501  0.6753
12288SOL    HW242827   1.644   1.452   1.673 -1.2761 -0.7558  1.9375
12289SOL     OW42828   6.421   5.945   9.146 -0.2905 -0.2183  0.6104
12289SOL    HW142829   6.428   5.951   9.051  1.0311 -0.6621  0.6570
12289SOL    HW242830   6.484   5.878   9.170  3.7911  3.6986  2.2861
12290SOL     OW42831   4.635   5.153   2.564 -0.0660  0.0274 -0.1941
12290SOL    HW142832   4.621   5.068   2.607 -0.7052  0.1290 -0.1833
12290SOL    HW242833   4.680   5.206   2.630  3.0601 -1.1861 -1.1900
12291SOL     OW42834   5.010   8.257   1.234 -1.0704  0.5029  0.1249
12291SOL    HW142835   5.054   8.209   1.304 -0.1357  1.0773 -0.0544
12291SOL    HW242836   4.945   8.311   1.279 -1.9247 -0.6569  0.3554
12292SOL     OW42837   6.660   4.977   1.028 -0.1473 -0.0120  0.0402
12292SOL    HW142838   6.666   5.010   0.939  0.5690  2.0175  0.7892
12292SOL    HW242839   6.747   4.941   1.045 -0.2284 -0.2322 -0.0033
12293SOL     OW42840   4.837   4.925   8.240  0.2409  0.2250 -0.0185
12293SOL    HW142841   4.821   4.871   8.162  0.6260  0.4190 -0.2306
12293SOL    HW242842   4.758   4.977   8.250 -0.9091 -1.5953  1.1941
12294SOL     OW42843   6.745   5.360   2.770 -0.1730 -0.2528 -0.1903
12294SOL    HW142844   6.687   5.397   2.704 -0.2931  1.4339  0.7934
12294SOL    HW242845   6.694   5.363   2.851  1.1301  0.9807  0.6297
12295SOL     OW42846   4.822   9.255   8.682 -0.6325 -0.4784 -0.6194
12295SOL    HW142847   4.731   9.266   8.712 -1.3402  0.3792 -2.8885
12295SOL    HW242848   4.836   9.327   8.621  1.9636 -0.0028  0.4226
12296SOL     OW42849   0.879   8.709   3.804  0.0426 -0.4981  0.4900
12296SOL    HW142850   0.810   8.648   3.780  0.0968  0.3002 -1.8896
12296SOL    HW242851   0.846   8.751   3.884 -1.2800 -1.5726  0.5467
12297SOL     OW42852   7.473   3.750   6.785 -0.6402 -0.5509  0.2524
12297SOL    HW142853   7.382   3.761   6.812 -0.2324 -1.0557  1.9623
12297SOL    HW242854   7.524   3.766   6.865  0.8950  1.2198 -0.9966
12298SOL     OW42855   3.610   6.066   8.795  0.2988  0.4646 -0.8331
12298SOL    HW142856   3.686   6.030   8.840 -0.1586  1.4274  0.8102
12298SOL    HW242857   3.537   6.011   8.822 -0.1553  1.6587  0.5120
12299SOL     OW42858   9.036   0.289   5.718 -0.3321  0.0277  0.3127
12299SOL    HW142859   9.074   0.227   5.655 -0.7745 -0.0054  0.0703
12299SOL    HW242860   9.087   0.276   5.798 -1.3819 -1.7365  0.7442
12300SOL     OW42861   6.783   9.147   7.802 -0.1375  0.2737  0.0981
12300SOL    HW142862   6.847   9.077   7.788  0.2130  0.9824 -2.2332
12300SOL    HW242863   6.709   9.123   7.746 -1.5521 -0.0169  2.0039
12301SOL     OW42864   8.660   5.700   5.206  0.2823  0.3338 -0.1412
12301SOL    HW142865   8.614   5.616   5.195  2.4996 -0.7673 -1.8791
12301SOL    HW242866   8.712   5.689   5.285  1.8861 -0.6984 -1.2623
12302SOL     OW42867   0.269   3.481   4.755 -0.2503  0.0058 -0.3531
12302SOL    HW142868   0.328   3.495   4.681 -0.9116  1.4953 -0.6364
12302SOL    HW242869   0.202   3.421   4.721  0.7107 -1.1825 -0.2189
12303SOL     OW42870   7.043   1.022   8.529  0.1378  0.1479  0.2355
12303SOL    HW142871   7.028   1.083   8.601 -0.9388  0.4712 -0.2506
12303SOL    HW242872   7.082   0.945   8.570  2.0055  1.3270  0.8013
12304SOL     OW42873   8.132   5.417   2.775 -0.2648  0.0727 -0.0223
12304SOL    HW142874   8.122   5.510   2.795 -1.4860  0.2251 -1.1364
12304SOL    HW242875   8.215   5.392   2.814 -0.6447  1.2498  1.6451
12305SOL     OW42876   2.175   6.186   1.732 -0.6294 -0.0178 -1.0402
12305SOL    HW142877   2.190   6.092   1.737 -2.4383 -0.3773 -1.5279
12305SOL    HW242878   2.230   6.223   1.801 -0.2511 -1.4855 -0.5238
12306SOL     OW42879   6.954   7.335   5.207  0.1200  0.6747 -0.3095
12306SOL    HW142880   6.934   7.427   5.190  1.1717  1.1501  0.9156
12306SOL    HW242881   6.979   7.332   5.299 -1.8604 -1.2024  0.2288
12307SOL     OW42882   2.215   6.096   5.564 -0.0854 -0.3462  0.2233
12307SOL    HW142883   2.285   6.031   5.558 -0.3098 -0.6761  1.0876
12307SOL    HW242884   2.261   6.180   5.571  0.2134 -0.5171  0.3109
12308SOL     OW42885   3.330   2.122   5.118 -0.4618  0.2179 -0.1261
12308SOL    HW142886   3.256   2.181   5.134 -2.5723 -2.6179  1.5514
12308SOL    HW242887   3.364   2.103   5.206  0.5329 -0.6124 -0.6722
12309SOL     OW42888   5.125   3.879   8.739  0.2643 -0.3435 -0.3271
12309SOL    HW142889   5.079   3.961   8.726 -0.6398 -0.9601 -1.0903
12309SOL    HW242890   5.098   3.850   8.827  0.3087 -0.0006 -0.2021
12310SOL     OW42891   0.652   2.553   2.331  0.1185  0.6093  0.6677
12310SOL    HW142892   0.700   2.616   2.384 -1.0777  0.4294  2.0288
12310SOL    HW242893   0.706   2.541   2.253  1.4766  1.5838  1.4199
12311SOL     OW42894   7.963   3.647   3.155 -0.1231  0.2641  0.1301
12311SOL    HW142895   7.983   3.574   3.213  1.4112 -0.0113 -0.6844
12311SOL    HW242896   7.931   3.605   3.074  2.9713  0.2407 -1.2306
12312SOL     OW42897   0.688   1.284   8.527  0.0149 -0.2481 -0.0881
12312SOL    HW142898   0.594   1.291   8.547 -0.4869 -0.7392 -2.0232
12312SOL    HW242899   0.723   1.371   8.546 -1.1600  0.4129 -0.7859
12313SOL     OW42900   7.120   6.065   1.091 -0.1583  0.4270 -0.7002
12313SOL    HW142901   7.092   6.077   1.181  2.5114  0.6717  0.1809
12313SOL    HW242902   7.055   6.006   1.053 -0.3514 -1.2146  1.9467
12314SOL     OW42903   9.175   5.896   7.815  0.3133  0.4158  0.4673
12314SOL    HW142904   9.247   5.955   7.791  1.4028 -0.4870  1.4488
12314SOL    HW242905   9.217   5.814   7.840 -1.1123 -0.4349  0.2307
12315SOL     OW42906   5.473   1.107   4.742  0.5043 -0.0640  0.7065
12315SOL    HW142907   5.537   1.089   4.674 -0.6494  1.2388 -0.7986
12315SOL    HW242908   5.390   1.116   4.695 -0.1976  1.6902  2.1656
12316SOL     OW42909   2.395   4.533   7.319  0.9017  0.1639  0.0063
12316SOL    HW142910   2.396   4.484   7.237 -0.0061 -0.1694  0.1836
12316SOL    HW242911   2.366   4.469   7.384  0.7774  0.6503  0.4285
12317SOL     OW42912   4.987   0.188   7.700 -0.2227  0.4552 -0.1797
12317SOL    HW142913   5.037   0.191   7.618 -0.5190 -0.3236 -0.3982
12317SOL    HW242914   4.920   0.255   7.689 -0.5142  0.0779 -0.7513
12318SOL     OW42915   7.885   8.007   8.423 -0.0422  0.3605 -0.2204
12318SOL    HW142916   7.884   8.099   8.448  1.2160 -0.4780  3.5421
12318SOL    HW242917   7.978   7.984   8.419 -0.2664 -1.4134  2.3402
12319SOL     OW42918   0.293   1.649   4.072 -0.1843 -0.0318 -0.0702
12319SOL    HW142919   0.263   1.636   3.982 -0.5313 -1.2940  0.2056
12319SOL    HW242920   0.278   1.742   4.089  1.1994  0.5626 -1.7681
12320SOL     OW42921   4.481   6.682   0.978  0.0620 -0.4275 -0.1164
12320SOL    HW142922   4.526   6.639   1.050 -0.8332 -0.8256  0.2248
12320SOL    HW242923   4.470   6.773   1.006  1.1058 -0.1964 -0.4303
12321SOL     OW42924   1.979   2.921   0.732 -0.4670 -0.1104 -0.5449
12321SOL    HW142925   2.041   2.849   0.728 -1.6474 -1.1587 -0.6485
12321SOL    HW242926   1.903   2.890   0.682 -0.1758  2.0820 -2.5487
12322SOL     OW42927   7.075   2.058   3.144  0.3644  0.3121 -0.4476
12322SOL    HW142928   7.123   2.138   3.165  0.4696 -0.3007  2.0296
12322SOL    HW242929   6.983   2.082   3.155  0.3896  0.1622  0.1517
12323SOL     OW42930   6.235   4.482   0.642  0.3181  0.6276 -0.3049
12323SOL    HW142931   6.220   4.545   0.572  1.0560 -0.2537 -1.3042
12323SOL    HW242932   6.320   4.443   0.620  0.4290  0.1298  0.9351
12324SOL     OW42933   7.550   4.292   2.379 -0.3501  0.3710  0.2339
12324SOL    HW142934   7.619   4.236   2.416 -0.3405  1.0494  1.2871
12324SOL    HW242935   7.594   4.340   2.309 -0.5204 -1.3892 -1.1679
12325SOL     OW42936   4.601   4.640   7.774  0.5074 -0.2074 -0.7141
12325SOL    HW142937   4.526   4.668   7.720 -0.6476 -0.7617  0.5551
12325SOL    HW242938   4.579   4.551   7.801  1.2603 -0.0788  0.3506
12326SOL     OW42939   7.312   5.132   2.190 -0.3765 -0.4034 -0.2127
12326SOL    HW142940   7.374   5.083   2.245 -0.4111  0.0559  0.2422
12326SOL    HW242941   7.230   5.131   2.239  0.4070  2.8835  1.4612
12327SOL     OW42942   8.422   3.657   6.012 -0.1829  0.2259 -0.0138
12327SOL    HW142943   8.352   3.615   5.962 -0.4811  0.5876  0.1019
12327SOL    HW242944   8.499   3.650   5.955  0.2699 -2.2040  0.7738
12328SOL     OW42945   6.325   0.591   2.318 -0.2189 -0.0152  0.2936
12328SOL    HW142946   6.264   0.546   2.375  0.0267  0.3739  0.8719
12328SOL    HW242947   6.383   0.640   2.377 -0.3593  0.9020 -0.2963
12329SOL     OW42948   0.348   2.650   7.932 -0.4079 -0.6690 -0.4604
12329SOL    HW142949   0.327   2.645   8.025 -0.1933 -0.1557 -0.3822
12329SOL    HW242950   0.408   2.577   7.918  0.5886  0.0233  0.0884
12330SOL     OW42951   8.486   3.598   5.389 -0.5214  0.4404 -0.2452
12330SOL    HW142952   8.406   3.546   5.378 -0.9001  0.9315  0.1595
12330SOL    HW242953   8.456   3.681   5.425  0.3141  0.1198  1.2455
12331SOL     OW42954   9.210   0.468   0.853  0.2791 -0.1976  0.3801
12331SOL    HW142955   9.137   0.417   0.818 -0.6696  0.2091  1.6607
12331SOL    HW242956   9.249   0.412   0.920 -0.5075  0.5389  1.5032
12332SOL     OW42957   8.240   8.366   6.995  0.2785  0.0691  0.2418
12332SOL    HW142958   8.211   8.415   7.072  1.2870  1.5298 -0.2519
12332SOL    HW242959   8.324   8.327   7.021 -0.3233 -1.0924  0.4968
12333SOL     OW42960   5.794   2.502   3.556 -0.0397 -0.6393 -0.4821
12333SOL    HW142961   5.780   2.412   3.585  0.2017 -0.5546 -0.0874
12333SOL    HW242962   5.770   2.556   3.631 -1.6554 -0.2861 -1.2187
12334SOL     OW42963   6.244   1.765   6.991  0.3685  0.6915 -0.1345
12334SOL    HW142964   6.260   1.674   6.968 -1.3204 -0.1824  1.8030
12334SOL    HW242965   6.259   1.813   6.909  1.3357 -1.2885 -1.1997
12335SOL     OW42966   6.424   5.707   6.184 -0.3627  0.2878 -0.0107
12335SOL    HW142967   6.379   5.697   6.100  0.5086 -0.0289 -0.4532
12335SOL    HW242968   6.419   5.621   6.225  0.3831  0.0709 -0.3522
12336SOL     OW42969   3.069   4.528   2.092 -0.1319  0.4499  0.5250
12336SOL    HW142970   3.029   4.595   2.147  0.4653  1.7800 -0.5994
12336SOL    HW242971   3.161   4.555   2.086 -0.0289 -0.0988 -0.4912
12337SOL     OW42972   5.308   7.047   4.828  0.4944  0.0175  0.9837
12337SOL    HW142973   5.295   7.119   4.765 -0.2271 -0.2652  0.7997
12337SOL    HW242974   5.390   7.006   4.801  1.1033  0.9843  1.3043
12338SOL     OW42975   6.312   6.989   9.079  0.2582  0.2769 -0.6096
12338SOL    HW142976   6.231   7.040   9.088 -0.3146 -0.8050  0.7013
12338SOL    HW242977   6.380   7.048   9.112 -0.5775 -0.1736  2.2497
12339SOL     OW42978   5.044   3.446   2.288 -0.1245 -0.6541 -0.1696
12339SOL    HW142979   5.042   3.353   2.311  0.4207 -0.1830  1.9537
12339SOL    HW242980   5.098   3.486   2.355 -1.4296  1.4194 -0.2862
12340SOL     OW42981   6.026   6.062   1.065 -0.0267 -0.4928 -0.1946
12340SOL    HW142982   5.948   6.067   1.121  1.3172 -0.0368  1.7390
12340SOL    HW242983   6.067   6.148   1.073  0.9321 -0.8695 -0.8201
12341SOL     OW42984   7.940   2.737   3.683  0.0685  0.0805 -0.1125
12341SOL    HW142985   7.937   2.668   3.616 -0.5694 -0.2593  0.2599
12341SOL    HW242986   8.013   2.711   3.740 -1.3889 -1.4107  1.1890
12342SOL     OW42987   9.342   5.323   7.161 -0.1573  0.2627 -0.6196
12342SOL    HW142988   9.378   5.298   7.246  0.2988  2.9099  0.0484
12342SOL    HW242989   9.260   5.274   7.154  1.0325 -1.9531  0.1456
12343SOL     OW42990   1.988   8.363   4.370  0.3582 -0.0389 -0.5216
12343SOL    HW142991   1.916   8.425   4.361 -0.6969 -1.3538 -1.7089
12343SOL    HW242992   1.957   8.285   4.323  1.7542 -1.3375  0.6490
12344SOL     OW42993   7.495   5.658   0.640 -0.5057  0.0666  0.7510
12344SOL    HW142994   7.506   5.565   0.661  0.8847 -1.1766 -4.0934
12344SOL    HW242995   7.584   5.691   0.631 -0.8971  0.7399 -1.1528
12345SOL     OW42996   6.525   5.338   5.210 -0.4340  0.0664 -0.8001
12345SOL    HW142997   6.565   5.409   5.159 -1.4553  1.1270 -0.1970
12345SOL    HW242998   6.432   5.359   5.210 -0.4249  0.5109  2.0534
12346SOL     OW42999   7.375   9.281   3.273  0.4694  0.5823 -0.4610
12346SOL    HW143000   7.386   9.371   3.303  2.8217  0.2395 -0.1208
12346SOL    HW243001   7.396   9.284   3.179  0.6335  0.3856 -0.4326
12347SOL     OW43002   1.397   3.299   4.665  0.1088  0.5806  1.0748
12347SOL    HW143003   1.338   3.229   4.637 -0.6467  0.8079  2.0479
12347SOL    HW243004   1.341   3.361   4.711  0.8632  1.5603  0.7278
12348SOL     OW43005   3.252   0.493   1.599  0.3315  0.3518  0.1776
12348SOL    HW143006   3.218   0.474   1.511 -0.3876 -2.0907  0.9122
12348SOL    HW243007   3.338   0.532   1.583 -0.0770  0.6203 -1.6154
12349SOL     OW43008   3.236   8.903   5.397  0.2634  0.3119 -0.1521
12349SOL    HW143009   3.240   8.955   5.317  2.5498  0.9151  0.2959
12349SOL    HW243010   3.317   8.923   5.444 -0.6537 -0.5978  1.9764
12350SOL     OW43011   7.473   6.575   9.364 -0.1359 -0.5578 -0.0309
12350SOL    HW143012   7.521   6.535   9.436 -1.2491  1.1125  1.7208
12350SOL    HW243013   7.539   6.624   9.316  0.3790 -0.5034  0.7170
12351SOL     OW43014   4.489   5.280   2.023 -0.3683 -0.5908  0.7208
12351SOL    HW143015   4.516   5.214   1.959  0.6473  0.4717  0.0204
12351SOL    HW243016   4.403   5.250   2.052 -1.1120 -0.8538 -1.5158
12352SOL     OW43017   1.301   2.331   1.979  0.1404  0.2683  0.1402
12352SOL    HW143018   1.294   2.357   1.887 -0.5336  0.5116  0.2537
12352SOL    HW243019   1.236   2.262   1.990  1.2065 -0.7551  0.0987
12353SOL     OW43020   1.135   4.864   7.589  0.0278 -0.3319  0.5327
12353SOL    HW143021   1.065   4.904   7.538  0.4068 -0.8897 -0.4520
12353SOL    HW243022   1.204   4.845   7.524  0.8711 -0.2738  1.3865
12354SOL     OW43023   0.030   3.324   7.962 -0.2138  0.0002 -0.5599
12354SOL    HW143024   0.085   3.390   8.004  2.2331 -1.3496 -1.4308
12354SOL    HW243025   0.067   3.315   7.874 -1.1058 -1.8333 -0.7818
12355SOL     OW43026   0.502   6.902   0.573 -0.1866  0.3177 -0.2623
12355SOL    HW143027   0.453   6.926   0.495 -0.5638  0.6624  0.0790
12355SOL    HW243028   0.491   6.807   0.580  0.5255  0.1640 -1.0820
12356SOL     OW43029   0.319   1.208   2.504  0.7383  0.2291 -0.3505
12356SOL    HW143030   0.330   1.282   2.444  0.5841  0.8506  0.3760
12356SOL    HW243031   0.301   1.133   2.447 -2.4358  1.3248 -0.9832
12357SOL     OW43032   5.075   3.585   3.557  0.0379 -0.4880 -0.0419
12357SOL    HW143033   5.120   3.645   3.497  1.1322 -0.3495  0.8909
12357SOL    HW243034   5.135   3.511   3.567 -0.2713 -0.6591  0.6171
12358SOL     OW43035   8.083   7.614   8.508 -0.0052  0.0280 -0.5342
12358SOL    HW143036   8.090   7.662   8.425  0.5464  0.1832 -0.4047
12358SOL    HW243037   8.133   7.533   8.492 -2.1956 -1.2551 -1.2628
12359SOL     OW43038   5.442   9.130   5.854  0.1888 -0.4090 -0.4930
12359SOL    HW143039   5.471   9.043   5.829 -0.9919 -1.0252  0.2108
12359SOL    HW243040   5.347   9.127   5.847  0.0636  0.5159  0.4806
12360SOL     OW43041   5.108   7.735   2.784  0.0875 -0.0224 -0.4836
12360SOL    HW143042   5.124   7.643   2.765 -1.2323 -0.5251  0.7004
12360SOL    HW243043   5.180   7.760   2.842 -0.2315 -0.6843  0.2231
12361SOL     OW43044   3.007   8.911   1.849  0.8427  0.0021  0.3450
12361SOL    HW143045   3.021   8.945   1.761  2.7958 -2.2543 -0.3179
12361SOL    HW243046   3.088   8.931   1.896 -0.3653  1.6287  1.8509
12362SOL     OW43047   7.418   2.159   3.626 -0.4580 -0.3165 -0.1665
12362SOL    HW143048   7.500   2.134   3.585  0.4728 -2.2252  2.5743
12362SOL    HW243049   7.354   2.096   3.593 -0.7658  0.7992 -1.8350
12363SOL     OW43050   6.867   7.052   7.967  0.4692 -0.2493 -0.1293
12363SOL    HW143051   6.820   6.972   7.991  0.7033 -0.2503  0.3332
12363SOL    HW243052   6.808   7.097   7.907  0.0050 -0.3984  0.2082
12364SOL     OW43053   0.020   4.929   7.386  0.3165  0.0022  0.5872
12364SOL    HW143054  -0.052   4.882   7.429  0.0099  1.2560  1.4789
12364SOL    HW243055  -0.013   5.017   7.372  1.1259  0.1664 -0.4633
12365SOL     OW43056   7.700   5.879   6.579 -0.0998  0.1794  0.2083
12365SOL    HW143057   7.781   5.927   6.592 -0.2457  0.2517  0.8660
12365SOL    HW243058   7.718   5.820   6.505 -0.0466  1.5020 -0.8791
12366SOL     OW43059   5.657   6.760   4.514  0.2540  0.1191 -0.0994
12366SOL    HW143060   5.736   6.789   4.467  0.5848  0.6681  0.7665
12366SOL    HW243061   5.585   6.799   4.465  0.4668 -0.9200 -1.2806
12367SOL     OW43062   7.565   7.091   2.690  0.1193  0.3952 -0.1761
12367SOL    HW143063   7.657   7.077   2.669  1.1439 -0.5654  4.0028
12367SOL    HW243064   7.561   7.183   2.716  0.2095  0.1716  0.6720
12368SOL     OW43065   3.987   0.702   2.396 -0.1387  0.3919 -0.2947
12368SOL    HW143066   4.081   0.717   2.410  0.2509 -2.2047  0.4491
12368SOL    HW243067   3.983   0.650   2.316 -0.6406 -1.7493  1.0459
12369SOL     OW43068   3.697   9.117   0.863  0.0027 -0.1956  0.0515
12369SOL    HW143069   3.671   9.178   0.794  1.7011 -0.4764 -0.8792
12369SOL    HW243070   3.645   9.038   0.845 -0.8738  0.3361  0.1855
12370SOL     OW43071   5.729   9.318   2.103  0.1737 -0.0840 -0.1786
12370SOL    HW143072   5.695   9.407   2.114 -0.2610 -0.2911  0.1988
12370SOL    HW243073   5.704   9.293   2.014 -1.8537 -0.7064  0.4855
12371SOL     OW43074   6.270   0.582   4.085  0.2281 -0.0470 -0.4203
12371SOL    HW143075   6.333   0.547   4.021  0.8787  0.1673  0.0986
12371SOL    HW243076   6.237   0.662   4.045  1.2434  0.5280 -0.1524
12372SOL     OW43077   3.302   8.598   5.089  0.3560  0.1968 -0.6940
12372SOL    HW143078   3.214   8.600   5.050  1.2089 -3.6159 -3.3306
12372SOL    HW243079   3.361   8.591   5.014  2.7011  0.0215  1.0865
12373SOL     OW43080   2.359   4.242   9.318  0.0315 -0.1935 -0.1598
12373SOL    HW143081   2.443   4.288   9.307  0.4242  0.3274  3.6143
12373SOL    HW243082   2.293   4.311   9.312 -0.0371 -0.3750 -1.7215
12374SOL     OW43083   1.036   6.706   4.060 -0.4416 -0.0137 -0.0462
12374SOL    HW143084   1.096   6.651   4.011  0.0600  0.6323 -0.1755
12374SOL    HW243085   1.035   6.789   4.013 -0.0036  0.5992  0.9868
12375SOL     OW43086   5.636   4.022   2.199  0.5907 -0.2619 -0.1227
12375SOL    HW143087   5.728   3.994   2.203  0.3826 -0.8379  1.0225
12375SOL    HW243088   5.589   3.956   2.249 -0.4376  0.1160 -0.5771
12376SOL     OW43089   5.622   5.819   1.004  0.4214 -0.1172 -0.5088
12376SOL    HW143090   5.542   5.771   1.030  0.1811  0.0977 -0.8458
12376SOL    HW243091   5.691   5.779   1.057 -0.0528  0.2864  0.4470
12377SOL     OW43092   0.406   7.550   3.074 -0.0276 -0.2868 -0.0746
12377SOL    HW143093   0.362   7.480   3.123  1.4275 -0.1634  1.4704
12377SOL    HW243094   0.489   7.512   3.047  1.6977  1.3726  2.5147
12378SOL     OW43095   0.266   3.106   7.994  0.0256 -0.3360 -0.4352
12378SOL    HW143096   0.318   3.183   7.971 -1.6615  1.3354  0.9905
12378SOL    HW243097   0.200   3.100   7.926 -1.1361  0.8362  0.5219
12379SOL     OW43098   3.235   6.585   1.906 -0.1868 -0.4402 -0.3189
12379SOL    HW143099   3.237   6.627   1.992  0.1208  2.8704 -1.7785
12379SOL    HW243100   3.143   6.589   1.880  0.0789  0.8089 -1.1050
12380SOL     OW43101   2.130   2.435   3.270  0.0601  0.0596 -0.6150
12380SOL    HW143102   2.222   2.433   3.295  0.1642 -0.8842 -1.0111
12380SOL    HW243103   2.129   2.414   3.177 -0.6689 -2.3558 -0.1351
12381SOL     OW43104   6.451   2.549   8.409 -0.2864 -0.5646  0.2036
12381SOL    HW143105   6.481   2.600   8.334 -3.3887 -0.3564 -1.0492
12381SOL    HW243106   6.454   2.458   8.380 -0.6930 -0.5528  0.1166
12382SOL     OW43107   4.798   5.351   5.031 -0.0606 -0.1500  0.5276
12382SOL    HW143108   4.833   5.397   4.955  0.3751  0.4335  1.0687
12382SOL    HW243109   4.748   5.418   5.078 -3.2811 -1.2501 -0.9886
12383SOL     OW43110   0.170   7.386   0.516 -0.0600 -0.1542  0.2932
12383SOL    HW143111   0.133   7.457   0.463  0.9435  1.3951  1.5764
12383SOL    HW243112   0.132   7.398   0.603  0.7703 -0.6690  0.7422
12384SOL     OW43113   5.871   4.911   9.353  0.2848 -0.1902 -0.0744
12384SOL    HW143114   5.864   4.871   9.266  0.9935 -0.1428 -0.1635
12384SOL    HW243115   5.781   4.919   9.383  0.0646 -0.7210 -0.5726
12385SOL     OW43116   5.311   7.772   0.754  0.1318 -0.2723 -0.2436
12385SOL    HW143117   5.339   7.739   0.839 -0.2290 -0.1783 -0.0864
12385SOL    HW243118   5.275   7.859   0.773 -1.8862 -1.0714 -0.1612
12386SOL     OW43119   9.263   7.431   7.655  0.7501  0.2820 -0.1151
12386SOL    HW143120   9.282   7.525   7.663  2.2169  0.1090 -1.2461
12386SOL    HW243121   9.347   7.388   7.666  0.1675 -0.8863 -0.0907
12387SOL     OW43122   0.598   2.850   5.486 -0.2512 -0.0341 -0.3262
12387SOL    HW143123   0.620   2.943   5.487  0.2717 -0.1634  0.4740
12387SOL    HW243124   0.653   2.813   5.417  0.5958 -0.0024  0.3247
12388SOL     OW43125   7.314   0.682   1.329 -0.3412 -0.0428  0.1609
12388SOL    HW143126   7.319   0.593   1.293 -0.0080 -0.4215  1.1252
12388SOL    HW243127   7.289   0.670   1.420 -1.2990  0.9204  0.0489
12389SOL     OW43128   4.414   5.759   5.636  0.3561  0.4340  0.4981
12389SOL    HW143129   4.473   5.753   5.560  0.2506 -0.5540  0.4910
12389SOL    HW243130   4.376   5.847   5.629  2.0519  1.2325  0.6735
12390SOL     OW43131   5.742   4.638   3.024 -0.0470  0.3974  0.4765
12390SOL    HW143132   5.764   4.561   3.076  1.6284  0.4056 -0.1686
12390SOL    HW243133   5.687   4.604   2.953  3.3503 -0.9586 -1.8030
12391SOL     OW43134   7.582   7.104   4.498 -0.4030 -0.9527  0.2873
12391SOL    HW143135   7.655   7.053   4.535 -1.0685 -2.6238 -0.5718
12391SOL    HW243136   7.591   7.091   4.403  0.2882  1.8491 -0.1061
12392SOL     OW43137   0.887   6.502   8.571  0.6368 -0.2594  0.0776
12392SOL    HW143138   0.953   6.448   8.615 -0.1268 -2.2614 -1.0699
12392SOL    HW243139   0.804   6.462   8.597 -0.2234  2.3233  1.6714
12393SOL     OW43140   1.725   5.980   2.961 -0.4279  0.0886  0.1859
12393SOL    HW143141   1.763   6.068   2.965 -0.6857  0.4820 -3.2744
12393SOL    HW243142   1.800   5.921   2.954 -0.2634  0.4174 -1.2222
12394SOL     OW43143   7.286   1.362   1.817  0.8908  0.2832  0.2013
12394SOL    HW143144   7.296   1.308   1.739  0.9490  0.1728  0.2847
12394SOL    HW243145   7.308   1.304   1.890 -1.3676 -0.3195  0.4824
12395SOL     OW43146   1.821   9.094   1.125  0.6890  0.0813 -0.0078
12395SOL    HW143147   1.761   9.104   1.050  0.4342  0.8411  0.2881
12395SOL    HW243148   1.878   9.022   1.100 -0.9186 -1.2973  0.0624
12396SOL     OW43149   0.932   7.993   4.401 -0.1506  0.2088  0.5603
12396SOL    HW143150   0.939   8.079   4.442  2.9395  0.1752  0.3427
12396SOL    HW243151   0.860   8.002   4.339 -0.1309  2.5463  0.7904
12397SOL     OW43152   4.392   5.065   2.890  0.3473 -0.4828 -0.8377
12397SOL    HW143153   4.383   5.156   2.916  0.4014 -0.7080 -0.0006
12397SOL    HW243154   4.328   5.018   2.943  1.2656 -1.1011 -0.2344
12398SOL     OW43155   3.807   4.540   2.639 -0.2278 -0.0582  0.3394
12398SOL    HW143156   3.736   4.551   2.576 -1.0195 -1.6070  0.9018
12398SOL    HW243157   3.801   4.616   2.697 -1.2819 -0.0540  0.2376
12399SOL     OW43158   3.007   3.660   1.993  0.1587  0.3315 -0.2627
12399SOL    HW143159   3.032   3.710   1.914 -1.8783  0.6141 -0.7846
12399SOL    HW243160   2.991   3.572   1.961 -3.9166  1.1258 -0.9635
12400SOL     OW43161   1.823   5.472   8.171 -0.6433  0.2029 -1.0081
12400SOL    HW143162   1.757   5.505   8.232  0.3156  0.0546  0.1433
12400SOL    HW243163   1.849   5.388   8.208  0.0718  0.1824 -1.5493
12401SOL     OW43164   8.722   1.303   3.636 -0.3241  0.3981  0.2818
12401SOL    HW143165   8.756   1.232   3.691 -0.6636 -0.7707 -0.9514
12401SOL    HW243166   8.799   1.340   3.594 -0.3142 -0.5655 -0.5753
12402SOL     OW43167   6.632   8.164   5.353  0.8353 -0.3776  0.3182
12402SOL    HW143168   6.722   8.184   5.379  1.1992 -0.9465 -0.4853
12402SOL    HW243169   6.578   8.218   5.412  1.5706 -2.2481  2.8903
12403SOL     OW43170   2.572   4.054   6.626 -0.1112 -0.3255  0.0200
12403SOL    HW143171   2.478   4.067   6.615 -0.0353 -1.2108 -2.2209
12403SOL    HW243172   2.581   4.015   6.713 -1.6720  0.9323  0.7817
12404SOL     OW43173   2.630   3.036   9.127  1.0728 -0.4600  0.9379
12404SOL    HW143174   2.640   2.998   9.040  0.0014 -0.5212  0.8312
12404SOL    HW243175   2.551   2.997   9.162 -0.7428  2.4211  0.3952
12405SOL     OW43176   5.112   3.647   8.609 -0.5467  0.3308  0.0720
12405SOL    HW143177   5.121   3.728   8.660 -0.6451 -0.6341  1.6938
12405SOL    HW243178   5.202   3.623   8.586 -0.4404  0.3847  0.4286
12406SOL     OW43179   4.283   4.406   3.212  0.1676  0.0566 -0.6197
12406SOL    HW143180   4.234   4.400   3.129  0.1112 -1.9569 -0.4898
12406SOL    HW243181   4.217   4.390   3.280  0.7092 -1.2497 -0.3717
12407SOL     OW43182   8.555   2.842   3.866  0.0099  0.4426 -0.5966
12407SOL    HW143183   8.467   2.870   3.843 -0.0879 -0.1812 -0.9951
12407SOL    HW243184   8.547   2.749   3.886  0.6420  0.3010 -0.9800
12408SOL     OW43185   8.900   2.975   0.567 -0.0350  0.1640  0.3101
12408SOL    HW143186   8.919   3.065   0.594  1.5129  0.2027 -0.8275
12408SOL    HW243187   8.910   2.924   0.648 -1.8193  1.0748  1.1789
12409SOL     OW43188   4.634   3.943   4.241  0.3833  0.4543  0.8426
12409SOL    HW143189   4.624   3.958   4.147  0.2235 -0.4730  0.6975
12409SOL    HW243190   4.602   4.024   4.282 -0.0633  0.6572  0.1176
12410SOL     OW43191   7.558   0.208   5.023 -0.1873  1.2857 -0.0870
12410SOL    HW143192   7.468   0.197   4.992  0.1678 -2.9655 -0.2660
12410SOL    HW243193   7.549   0.236   5.114 -1.7333  0.6050 -0.0016
12411SOL     OW43194   2.001   3.010   8.885 -0.3115 -0.1931 -0.4391
12411SOL    HW143195   2.087   3.051   8.892  0.1222 -1.0760 -0.4541
12411SOL    HW243196   1.956   3.060   8.817  1.3200 -1.6395 -2.7144
12412SOL     OW43197   9.286   4.420   4.109 -0.1894 -0.1242  0.1450
12412SOL    HW143198   9.271   4.507   4.071  0.9715  0.1512  0.2832
12412SOL    HW243199   9.211   4.368   4.080  0.6260  0.0748 -2.5652
12413SOL     OW43200   7.984   1.100   4.560  0.0628  0.3368  0.4712
12413SOL    HW143201   8.017   1.128   4.474  0.3920  1.5720  0.9837
12413SOL    HW243202   8.029   1.017   4.577 -3.4056 -2.5574 -2.6069
12414SOL     OW43203   4.269   5.600   0.072  0.2420  0.2928 -0.2657
12414SOL    HW143204   4.275   5.584   0.166 -2.3848 -1.0453 -0.2292
12414SOL    HW243205   4.323   5.532   0.032 -0.7897 -0.8826  0.2642
12415SOL     OW43206   3.649   5.667   8.942 -0.4323 -0.3493  0.4458
12415SOL    HW143207   3.587   5.698   8.876 -0.3085  1.4190  1.1176
12415SOL    HW243208   3.597   5.612   9.001 -0.7303 -1.1955 -0.5632
12416SOL     OW43209   1.848   7.848   5.466 -0.1492  0.4339  0.3211
12416SOL    HW143210   1.899   7.891   5.398 -0.5802 -1.4191 -1.2494
12416SOL    HW243211   1.784   7.913   5.494 -1.6441  0.5168 -2.8865
12417SOL     OW43212   0.981   1.633   2.262  0.1018  0.6971  0.1681
12417SOL    HW143213   1.006   1.655   2.351 -1.2597  0.0397  0.7469
12417SOL    HW243214   1.063   1.607   2.219  0.6987  0.5504  1.3624
12418SOL     OW43215   4.181   0.583   1.907  0.9386 -0.0019  0.5825
12418SOL    HW143216   4.194   0.493   1.936  2.1037  0.4452  1.5621
12418SOL    HW243217   4.269   0.622   1.909  0.4484  1.1791  0.2662
12419SOL     OW43218   0.398   8.200   5.506  0.6357 -0.0708 -0.0540
12419SOL    HW143219   0.387   8.107   5.487 -1.7632  0.3107 -0.8807
12419SOL    HW243220   0.385   8.207   5.601 -0.1791 -0.4602 -0.1335
12420SOL     OW43221   1.605   4.981   3.332  0.0816 -0.5757 -0.1667
12420SOL    HW143222   1.558   4.927   3.396 -1.8510  1.1143 -0.0481
12420SOL    HW243223   1.539   5.005   3.267  0.9065  1.3064 -0.4020
12421SOL     OW43224   4.650   1.528   3.533  0.1634  0.3611  0.6670
12421SOL    HW143225   4.649   1.541   3.438  3.1147 -1.7267  0.2095
12421SOL    HW243226   4.687   1.441   3.545  0.3803  0.7555  3.7847
12422SOL     OW43227   0.367   1.775   2.257  0.3155 -0.1235  0.1411
12422SOL    HW143228   0.276   1.803   2.270  0.2607  0.4249 -1.2155
12422SOL    HW243229   0.402   1.766   2.345 -1.4839 -1.8022  0.7701
12423SOL     OW43230   8.877   1.594   6.998  0.2114  0.4651 -0.2467
12423SOL    HW143231   8.846   1.541   7.071  0.9095 -0.9931 -0.9720
12423SOL    HW243232   8.913   1.531   6.936  0.5541  1.7518 -1.4044
12424SOL     OW43233   6.126   4.233   0.005 -0.0122  0.0759 -0.2717
12424SOL    HW143234   6.112   4.217  -0.089 -0.9005 -0.1422 -0.1086
12424SOL    HW243235   6.169   4.318   0.008 -1.4546  0.8529 -0.8076
12425SOL     OW43236   2.632   6.373   3.465 -0.1852  0.3749  1.1002
12425SOL    HW143237   2.641   6.447   3.525 -0.6858 -0.1829  1.8851
12425SOL    HW243238   2.714   6.324   3.474  0.3641  1.0907  0.1948
12426SOL     OW43239   4.953   5.155   7.308  0.1112 -0.1023  0.2482
12426SOL    HW143240   5.025   5.209   7.278 -0.4649  0.3654 -0.3410
12426SOL    HW243241   4.919   5.200   7.385  0.7017 -0.5497  0.7824
12427SOL     OW43242   4.779   7.966   0.934  0.6006  0.2174  0.4789
12427SOL    HW143243   4.845   7.907   0.970  0.5707  0.6912  1.3249
12427SOL    HW243244   4.827   8.045   0.911  0.5148  0.1445  0.0312
12428SOL     OW43245   6.525   7.734   9.152  0.0184  0.3010 -0.1410
12428SOL    HW143246   6.506   7.760   9.062  1.0899  1.2713 -0.1167
12428SOL    HW243247   6.485   7.803   9.206 -0.6781 -0.3107  0.1356
12429SOL     OW43248   2.837   8.768   5.527  0.1571 -0.4752  0.0655
12429SOL    HW143249   2.801   8.853   5.500  1.9466 -0.1664 -1.5981
12429SOL    HW243250   2.779   8.738   5.596 -0.4832  2.1479  0.7769
12430SOL     OW43251   6.081   5.466   6.229 -0.3843  0.0197 -0.1820
12430SOL    HW143252   6.166   5.457   6.186  0.0665 -0.2799  0.7639
12430SOL    HW243253   6.042   5.379   6.221 -1.5074  0.6392 -2.4172
12431SOL     OW43254   0.083   3.068   5.560 -0.1847  0.6759 -0.8338
12431SOL    HW143255   0.056   3.151   5.599 -1.4733  0.6422 -1.6196
12431SOL    HW243256   0.046   3.001   5.617  0.3419  0.6300 -0.5398
12432SOL     OW43257   7.915   6.085   6.594 -0.0618 -0.0942  0.1619
12432SOL    HW143258   7.845   6.143   6.564  1.3732  1.8162  0.3174
12432SOL    HW243259   7.993   6.115   6.547  1.5126  0.5987  2.9668
12433SOL     OW43260   4.293   4.683   1.040 -0.0054 -0.0895  0.3692
12433SOL    HW143261   4.272   4.733   0.961 -1.9619 -1.5600 -0.1075
12433SOL    HW243262   4.211   4.678   1.088 -0.1487 -3.4098  0.0279
12434SOL     OW43263   6.814   5.707   4.785  0.7688  0.7223 -0.2829
12434SOL    HW143264   6.859   5.778   4.740  0.0399  1.1817 -0.3025
12434SOL    HW243265   6.877   5.634   4.785  1.1367  1.0316 -1.1699
12435SOL     OW43266   4.140   1.742   8.192 -0.2653 -0.4389 -0.1510
12435SOL    HW143267   4.141   1.711   8.283  0.9400  0.0780  0.0268
12435SOL    HW243268   4.163   1.665   8.141 -0.6795 -0.6662 -0.0015
12436SOL     OW43269   6.901   5.438   2.328 -0.4677  0.2167  0.7538
12436SOL    HW143270   6.933   5.388   2.254 -1.4554  0.2155  0.3174
12436SOL    HW243271   6.806   5.429   2.325 -0.6146  1.4059  1.1627
12437SOL     OW43272   6.942   3.469   6.023 -0.0331 -0.0212  0.3443
12437SOL    HW143273   6.918   3.499   5.935  1.9901 -0.9522 -0.5897
12437SOL    HW243274   6.916   3.377   6.026 -0.7002  0.1801  0.9790
12438SOL     OW43275   6.705   0.232   5.631 -0.1140  0.3334 -0.0713
12438SOL    HW143276   6.781   0.182   5.601  0.2136  0.5402  0.4097
12438SOL    HW243277   6.741   0.298   5.690 -0.4032  1.9351 -1.6030
12439SOL     OW43278   1.310   9.205   8.846 -0.1371 -0.1757 -0.1678
12439SOL    HW143279   1.317   9.300   8.852  0.1262 -0.2660  1.8692
12439SOL    HW243280   1.262   9.189   8.765  0.6655  1.6285 -1.0646
12440SOL     OW43281   8.300   0.681   6.176  0.2188  0.1859  0.4779
12440SOL    HW143282   8.210   0.689   6.147  0.5304 -0.6025 -0.7601
12440SOL    HW243283   8.351   0.732   6.112  0.7763 -0.4740  0.3776
12441SOL     OW43284   6.785   6.827   6.347  0.2272 -0.4539  0.0236
12441SOL    HW143285   6.804   6.739   6.313 -0.4806  0.0574 -1.8063
12441SOL    HW243286   6.690   6.829   6.357  0.0411  0.6343 -1.6158
12442SOL     OW43287   0.861   3.103   7.736  0.0444  0.7807 -0.6055
12442SOL    HW143288   0.847   3.198   7.740 -0.5063  0.6799  0.0172
12442SOL    HW243289   0.916   3.090   7.658  1.2785  1.7420  0.0735
12443SOL     OW43290   6.210   8.756   3.150  0.0347  0.1658 -0.0617
12443SOL    HW143291   6.119   8.771   3.173 -0.6563 -0.1465 -2.3043
12443SOL    HW243292   6.228   8.666   3.178 -0.6930 -0.1339 -0.5352
12444SOL     OW43293   4.265   7.848   3.172 -0.4298 -0.0379  0.4453
12444SOL    HW143294   4.225   7.880   3.091  1.4111 -1.2414 -1.0290
12444SOL    HW243295   4.288   7.927   3.220  0.5744  0.8079 -1.3327
12445SOL     OW43296   8.753   5.438   2.558 -0.0491  0.3683 -0.6131
12445SOL    HW143297   8.706   5.380   2.617 -0.9722 -0.0983 -1.7620
12445SOL    HW243298   8.685   5.483   2.509  0.6793  1.5153 -0.6050
12446SOL     OW43299   8.605   6.350   3.127  0.4407 -0.5148 -0.4622
12446SOL    HW143300   8.645   6.362   3.214 -0.6299 -0.5118  0.0485
12446SOL    HW243301   8.615   6.436   3.085  0.1434 -0.2417  0.0161
12447SOL     OW43302   3.650   4.143   9.043 -0.6110  0.4279 -0.4948
12447SOL    HW143303   3.745   4.141   9.045 -0.5454  2.3812  0.2200
12447SOL    HW243304   3.627   4.208   8.977 -1.4708  0.0073 -0.6398
12448SOL     OW43305   4.247   6.809   5.068  0.2041 -0.1689 -0.0938
12448SOL    HW143306   4.223   6.870   5.137 -0.2646  0.6763 -0.9698
12448SOL    HW243307   4.342   6.816   5.061  0.0557  1.7493 -1.2616
12449SOL     OW43308   5.809   7.406   6.697 -0.4634 -0.5500 -0.2408
12449SOL    HW143309   5.816   7.311   6.689 -1.1221 -0.6882  0.6746
12449SOL    HW243310   5.874   7.429   6.763 -0.1189 -0.3258 -0.6532
12450SOL     OW43311   1.336   7.668   7.752 -0.1333 -0.1878 -0.4924
12450SOL    HW143312   1.244   7.685   7.730  0.0083  0.9150 -0.2959
12450SOL    HW243313   1.384   7.740   7.710  0.3333  0.9351  1.8170
12451SOL     OW43314   5.641   8.742   9.349 -0.1802 -0.0569  0.1640
12451SOL    HW143315   5.546   8.754   9.353 -0.2669 -0.2817 -0.7996
12451SOL    HW243316   5.666   8.716   9.437 -0.9657  0.3547  0.5162
12452SOL     OW43317   9.181   0.835   8.443  0.1328  0.1406 -0.4324
12452SOL    HW143318   9.192   0.918   8.397 -0.0097 -0.7125 -2.1035
12452SOL    HW243319   9.090   0.835   8.472 -0.0438  0.3236 -0.9715
12453SOL     OW43320   3.467   2.147   0.879 -0.2278 -0.3035  0.1636
12453SOL    HW143321   3.489   2.235   0.848  0.8809  0.0890  1.8811
12453SOL    HW243322   3.424   2.105   0.805  0.2506  1.2964 -1.0820
12454SOL     OW43323   4.763   3.879   2.808  0.3998  0.1284 -0.0692
12454SOL    HW143324   4.826   3.860   2.878  1.3384  0.4254 -0.8085
12454SOL    HW243325   4.689   3.920   2.853  0.4554 -0.7878  0.8998
12455SOL     OW43326   8.325   5.868   2.812 -0.3880  0.6924  0.0415
12455SOL    HW143327   8.259   5.913   2.758 -0.7583 -0.5038 -0.5365
12455SOL    HW243328   8.288   5.870   2.901 -1.3826 -0.2223 -0.3220
12456SOL     OW43329   2.977   3.762   2.831 -0.5559  0.0343 -0.8863
12456SOL    HW143330   2.999   3.817   2.907  1.8055 -0.6776 -0.9563
12456SOL    HW243331   2.908   3.704   2.863 -1.9383  1.8990 -0.3196
12457SOL     OW43332   4.582   1.501   8.414  0.2265  0.1964 -0.7307
12457SOL    HW143333   4.544   1.430   8.361 -0.4698 -0.0230  0.0502
12457SOL    HW243334   4.638   1.456   8.477  0.0476  0.3668 -0.4515
12458SOL     OW43335   4.743   1.237   1.420 -0.4217  0.2668  0.4900
12458SOL    HW143336   4.689   1.309   1.453  0.0715  0.7407  0.2748
12458SOL    HW243337   4.812   1.280   1.370  1.5063 -0.1757  2.6260
12459SOL     OW43338   3.223   8.189   4.773  0.1121  0.3324  0.0813
12459SOL    HW143339   3.176   8.260   4.729 -0.1789  0.7728  1.0733
12459SOL    HW243340   3.175   8.110   4.750  1.5693  0.1247 -2.6736
12460SOL     OW43341   6.413   4.282   2.446  0.4703  0.4535 -0.7102
12460SOL    HW143342   6.473   4.261   2.518  0.2053  0.6752 -0.4258
12460SOL    HW243343   6.466   4.331   2.383  0.6979  0.2691 -0.6623
12461SOL     OW43344   4.003   9.055   7.992 -0.3289  0.1958  0.1679
12461SOL    HW143345   3.971   9.012   8.071  1.5380 -2.4180 -0.3499
12461SOL    HW243346   3.971   9.001   7.920  0.4876  0.8014 -0.6788
12462SOL     OW43347   8.123   8.537   6.811  0.6158 -0.7859 -0.1609
12462SOL    HW143348   8.162   8.610   6.860 -0.6942 -0.3416  0.2664
12462SOL    HW243349   8.157   8.459   6.854  1.2544 -0.4258  0.0087
12463SOL     OW43350   6.837   6.017   2.756  0.0875 -0.5742 -0.2896
12463SOL    HW143351   6.902   5.954   2.788 -1.4161 -2.2060 -0.2535
12463SOL    HW243352   6.888   6.083   2.709  2.1392  0.5387  3.1784
12464SOL     OW43353   8.912   1.974   4.433 -0.0538 -0.1951  0.5085
12464SOL    HW143354   8.880   1.963   4.522  1.4627 -0.0442  1.0873
12464SOL    HW243355   8.836   1.952   4.378 -0.5089 -2.0357  1.7758
12465SOL     OW43356   9.302   2.677   7.831 -0.3292 -0.4563  0.3369
12465SOL    HW143357   9.286   2.754   7.776 -0.7958  1.7200  3.2623
12465SOL    HW243358   9.225   2.622   7.816  0.0278 -0.4805 -1.8592
12466SOL     OW43359   0.326   1.997   2.836  0.4287 -0.2818 -0.0929
12466SOL    HW143360   0.382   1.924   2.863  0.3888  0.1066  1.0509
12466SOL    HW243361   0.244   1.954   2.809  0.5249 -0.6849  0.2432
12467SOL     OW43362   5.370   9.332   5.495  0.8131 -0.1779  0.5293
12467SOL    HW143363   5.359   9.291   5.409  2.0851 -0.3936  0.4443
12467SOL    HW243364   5.451   9.383   5.486  0.1756  0.9794  1.1618
12468SOL     OW43365   8.720   2.390   6.381 -0.1176 -0.2827 -0.0295
12468SOL    HW143366   8.732   2.340   6.300  2.9588 -1.0755  0.7545
12468SOL    HW243367   8.733   2.481   6.355 -0.7705 -0.3653 -0.6771
12469SOL     OW43368   6.574   3.215   3.499 -0.1244 -0.4099 -0.3495
12469SOL    HW143369   6.627   3.242   3.424 -1.2917  0.3088 -0.9376
12469SOL    HW243370   6.638   3.193   3.567  0.9378 -0.4233 -1.3221
12470SOL     OW43371   7.098   1.489   1.991  0.3094  1.5245  0.2900
12470SOL    HW143372   7.078   1.570   1.945 -2.4447  0.1520 -1.2002
12470SOL    HW243373   7.178   1.456   1.949 -0.5232  1.7632 -1.6042
12471SOL     OW43374   3.736   7.959   7.843  0.3941 -0.5270 -0.1089
12471SOL    HW143375   3.704   7.919   7.923 -0.5044  0.1786 -0.1085
12471SOL    HW243376   3.773   8.043   7.870 -1.3143  0.4191 -0.6125
12472SOL     OW43377   4.787   2.247   2.233 -0.1248  0.2803  0.7657
12472SOL    HW143378   4.844   2.228   2.307 -0.0425 -1.9880  0.2118
12472SOL    HW243379   4.736   2.166   2.221 -0.9079  0.9686 -0.9679
12473SOL     OW43380   0.542   5.169   5.019 -0.9212 -0.3844  0.1109
12473SOL    HW143381   0.615   5.108   5.016 -0.7913 -0.3445  1.7258
12473SOL    HW243382   0.562   5.234   4.951  1.3034  0.4298  1.4399
12474SOL     OW43383   3.383   5.742   8.105 -0.2508 -0.0511 -0.2752
12474SOL    HW143384   3.319   5.780   8.166 -1.0220  0.1655 -1.2044
12474SOL    HW243385   3.462   5.795   8.118 -0.4491  0.0847  0.4266
12475SOL     OW43386   7.212   8.877   4.116 -0.0723  0.6754 -0.3500
12475SOL    HW143387   7.186   8.969   4.125  1.2947  1.1707 -1.1092
12475SOL    HW243388   7.276   8.877   4.045  1.1525 -0.6045  0.6906
12476SOL     OW43389   4.806   1.570   1.035 -0.1288  0.3645  0.3002
12476SOL    HW143390   4.810   1.523   1.119 -1.9859  0.5144  0.5331
12476SOL    HW243391   4.849   1.512   0.973  3.5898  1.3122  1.7002
12477SOL     OW43392   8.404   0.307   7.822  0.3463 -0.3401  0.0665
12477SOL    HW143393   8.488   0.305   7.867  0.1699  0.9135  0.4918
12477SOL    HW243394   8.343   0.263   7.882 -0.0067  1.8026  1.3854
12478SOL     OW43395   8.373   6.147   1.531  0.5804 -0.3846 -0.0825
12478SOL    HW143396   8.359   6.090   1.606  1.6419 -1.4325 -0.6540
12478SOL    HW243397   8.334   6.231   1.557 -1.1298 -1.3859  0.7061
12479SOL     OW43398   7.834   3.612   9.164  0.5932  0.4905 -0.3153
12479SOL    HW143399   7.784   3.673   9.109  0.2044  1.1548  0.7373
12479SOL    HW243400   7.767   3.568   9.217  1.0471  0.9163  0.6422
12480SOL     OW43401   0.454   6.100   8.281 -0.3735  0.1417  0.1600
12480SOL    HW143402   0.435   6.142   8.365 -1.9305  4.9671 -2.2045
12480SOL    HW243403   0.369   6.073   8.247 -0.5278  2.4317 -1.5780
12481SOL     OW43404   3.778   1.445   3.669 -0.0385  0.0524  0.7676
12481SOL    HW143405   3.748   1.400   3.748  0.3179 -0.8495  0.4029
12481SOL    HW243406   3.874   1.443   3.675  0.0493 -1.7511 -0.6056
12482SOL     OW43407   3.916   1.409   8.023  0.4055  0.2740 -0.2264
12482SOL    HW143408   3.930   1.489   7.973 -1.2886  0.9886  0.3372
12482SOL    HW243409   4.004   1.378   8.045  1.1193  2.2501 -0.0596
12483SOL     OW43410   7.216   8.805   5.410  0.2690 -0.6562  0.3049
12483SOL    HW143411   7.245   8.756   5.333  0.9014 -0.7548  0.6062
12483SOL    HW243412   7.204   8.739   5.478 -1.8987 -0.8106 -0.1387
12484SOL     OW43413   1.457   0.520   1.584  0.4936 -0.4515 -0.2925
12484SOL    HW143414   1.483   0.429   1.573 -1.1690 -0.8214 -1.5178
12484SOL    HW243415   1.410   0.542   1.504 -1.2152  0.7490  0.9620
12485SOL     OW43416   7.416   1.249   4.345  0.1055 -0.0231 -0.2068
12485SOL    HW143417   7.475   1.225   4.417 -0.9878 -1.0789  0.3741
12485SOL    HW243418   7.418   1.344   4.343 -0.5619  0.0857  1.8758
12486SOL     OW43419   8.288   1.878   4.848 -0.8036 -0.4889 -0.0502
12486SOL    HW143420   8.268   1.786   4.833  1.2939 -1.0136  0.0721
12486SOL    HW243421   8.239   1.902   4.927  0.8912 -2.3642  1.6742
12487SOL     OW43422   0.044   8.443   5.083 -0.3078  0.0783  0.1156
12487SOL    HW143423  -0.038   8.454   5.131  0.7521  0.0378  2.0265
12487SOL    HW243424   0.060   8.529   5.043 -1.5109 -0.0653 -0.7141
12488SOL     OW43425   5.081   7.263   4.888 -0.1199 -0.3685 -0.5523
12488SOL    HW143426   5.090   7.247   4.982  1.7804  1.6765 -0.2889
12488SOL    HW243427   5.145   7.204   4.848  0.2798 -0.0685 -0.3774
12489SOL     OW43428   4.781   5.790   3.286  0.3579  0.2974  0.0682
12489SOL    HW143429   4.709   5.840   3.323  1.4171  2.2409 -0.3317
12489SOL    HW243430   4.860   5.838   3.314  1.5929 -2.2909  1.3301
12490SOL     OW43431   4.977   4.467   2.021 -0.3767 -0.1402 -0.1212
12490SOL    HW143432   4.983   4.381   2.062  0.4508  0.6045  1.4292
12490SOL    HW243433   4.922   4.518   2.081  0.1499  0.7570 -0.3876
12491SOL     OW43434   8.506   8.853   7.399 -0.1805 -0.1226 -0.4206
12491SOL    HW143435   8.535   8.942   7.419  3.6253 -1.3432  0.3945
12491SOL    HW243436   8.411   8.856   7.408 -0.0213  3.2521  2.1453
12492SOL     OW43437   2.417   4.361   1.045  0.2100 -0.5112  0.4099
12492SOL    HW143438   2.391   4.417   0.972 -0.9615 -1.4317  0.1023
12492SOL    HW243439   2.347   4.369   1.109  0.5164 -0.8620  0.7994
12493SOL     OW43440   3.564   5.757   4.244 -0.4401 -0.1751  0.1091
12493SOL    HW143441   3.645   5.803   4.226 -0.8006 -0.0740 -1.3725
12493SOL    HW243442   3.588   5.664   4.240 -0.5233 -0.1658 -1.1514
12494SOL     OW43443   2.784   9.366   0.326 -0.6159  0.1961  0.0958
12494SOL    HW143444   2.816   9.298   0.384 -1.6638 -0.1782  0.2609
12494SOL    HW243445   2.702   9.331   0.291 -0.5216  0.8452 -0.8105
12495SOL     OW43446   9.290   1.601   9.077 -0.1809  0.1154  0.2098
12495SOL    HW143447   9.355   1.549   9.030 -0.6549  1.3318 -1.9153
12495SOL    HW243448   9.318   1.598   9.169  1.5519 -1.2593 -0.3191
12496SOL     OW43449   9.133   2.956   4.616  0.6140 -0.2618  0.4750
12496SOL    HW143450   9.057   2.993   4.572  0.3628 -0.4269  0.7657
12496SOL    HW243451   9.145   2.870   4.575  0.5292 -0.3146  0.5613
12497SOL     OW43452   7.464   8.328   1.170  0.1747  0.2231  0.2782
12497SOL    HW143453   7.411   8.408   1.168 -0.1140  0.0440  0.5929
12497SOL    HW243454   7.552   8.357   1.190  0.1900  0.5239 -0.2094
12498SOL     OW43455   7.184   8.792   2.360 -0.2186  0.3504 -0.0850
12498SOL    HW143456   7.150   8.722   2.305  1.0133 -0.0855 -0.3215
12498SOL    HW243457   7.145   8.777   2.446 -1.5731  0.6029 -0.6287
12499SOL     OW43458   9.298   5.548   6.040 -0.5481 -0.0197  0.0807
12499SOL    HW143459   9.387   5.519   6.057 -0.6600 -0.0948  0.5323
12499SOL    HW243460   9.309   5.629   5.989 -0.2357 -1.8941 -3.0872
12500SOL     OW43461   5.692   3.156   1.156 -0.6844 -0.5802  0.5854
12500SOL    HW143462   5.741   3.162   1.074 -0.3629 -1.6126  0.6850
12500SOL    HW243463   5.692   3.245   1.191 -0.7084 -0.1550 -0.4624
12501SOL     OW43464   8.663   7.413   3.157 -0.6196  0.3646  0.0504
12501SOL    HW143465   8.710   7.423   3.074  0.4860 -0.9504  0.4729
12501SOL    HW243466   8.573   7.439   3.137 -0.2270  0.7207 -1.3816
12502SOL     OW43467   7.795   5.818   0.200 -0.0907 -0.0390  0.4544
12502SOL    HW143468   7.855   5.892   0.194 -0.1072 -0.0203  0.5154
12502SOL    HW243469   7.709   5.855   0.178 -0.6068  0.5983  3.0973
12503SOL     OW43470   3.285   2.594   4.408  0.0024 -0.0253  0.2849
12503SOL    HW143471   3.220   2.577   4.340 -0.6410 -3.4245  1.5402
12503SOL    HW243472   3.345   2.658   4.369 -1.2584 -0.5540 -2.8112
12504SOL     OW43473   2.961   7.480   8.081 -0.9461 -0.0356 -0.2121
12504SOL    HW143474   2.939   7.440   7.997 -2.5328 -0.4813  0.3850
12504SOL    HW243475   3.011   7.558   8.057 -0.8096 -0.4920 -1.5312
12505SOL     OW43476   8.177   6.014   6.389 -0.3735 -0.5688 -0.0465
12505SOL    HW143477   8.259   6.056   6.413 -0.8925 -0.1760  1.1205
12505SOL    HW243478   8.164   5.947   6.456 -0.7846 -0.9252 -0.4767
12506SOL     OW43479   4.205   9.117   5.012  0.0907  0.5200 -0.0715
12506SOL    HW143480   4.240   9.055   4.948 -0.0988  1.9362 -1.6151
12506SOL    HW243481   4.111   9.121   4.993 -0.3223 -0.4091  1.5479
12507SOL     OW43482   9.073   0.088   8.203 -0.2058 -0.0760  0.3918
12507SOL    HW143483   9.026   0.132   8.133 -1.3375 -1.9850 -0.1247
12507SOL    HW243484   9.162   0.123   8.198 -0.1914 -0.3260 -2.1765
12508SOL     OW43485   8.933   1.976   2.983 -0.2959 -0.0568 -0.2547
12508SOL    HW143486   8.977   1.927   2.914  2.9274  0.8632  0.9511
12508SOL    HW243487   8.912   2.061   2.943  0.1220 -0.0933 -0.5581
12509SOL     OW43488   7.912   3.315   1.607  0.3635 -0.5020 -0.2296
12509SOL    HW143489   7.882   3.335   1.519  1.1219 -0.4393 -0.4806
12509SOL    HW243490   7.883   3.226   1.624  2.1688 -1.3908 -1.4359
12510SOL     OW43491   3.060   2.950   5.676  0.8191 -1.1158 -0.2402
12510SOL    HW143492   3.038   2.876   5.619 -0.1090 -0.1081 -1.2457
12510SOL    HW243493   3.007   2.936   5.755 -0.9156 -0.5236 -1.2403
12511SOL     OW43494   4.760   2.879   4.929  0.1740 -0.1974  0.0568
12511SOL    HW143495   4.666   2.890   4.919  0.4653  1.6900 -1.0025
12511SOL    HW243496   4.772   2.855   5.021 -1.3715 -1.3756 -0.0021
12512SOL     OW43497   9.199   6.789   9.347  0.0894 -0.6257  0.3848
12512SOL    HW143498   9.139   6.858   9.321 -1.5066 -1.8012  0.8178
12512SOL    HW243499   9.147   6.709   9.343  2.2315 -2.0717 -1.5116
12513SOL     OW43500   0.825   1.627   7.534  0.6007  0.1264  0.0236
12513SOL    HW143501   0.838   1.548   7.587  0.8836 -0.2103 -0.5398
12513SOL    HW243502   0.748   1.608   7.480  0.3403  0.4518  0.2733
12514SOL     OW43503   8.225   8.223   0.676  0.2098  0.2328  0.4448
12514SOL    HW143504   8.290   8.166   0.718 -0.9486 -0.2879  1.6236
12514SOL    HW243505   8.245   8.310   0.710  1.6087  0.4826 -0.8922
12515SOL     OW43506   3.606   0.340   5.352  0.3566 -0.3397  0.4344
12515SOL    HW143507   3.584   0.332   5.259  0.1494  1.1393  0.3288
12515SOL    HW243508   3.555   0.272   5.395 -0.9755  0.1535 -0.3233
12516SOL     OW43509   6.025   1.112   3.752  0.3682 -0.0512 -0.4200
12516SOL    HW143510   6.027   1.069   3.667  0.7949 -0.7865 -0.0522
12516SOL    HW243511   5.931   1.119   3.773  0.2173 -3.4280  0.7511
12517SOL     OW43512   3.528   2.062   1.848  0.0375 -0.3483  0.0340
12517SOL    HW143513   3.512   2.118   1.772 -2.5273 -1.3401 -0.2533
12517SOL    HW243514   3.468   2.096   1.915  1.0639 -0.5417  1.0925
12518SOL     OW43515   7.240   1.810   5.002  0.0927  0.1900 -0.9263
12518SOL    HW143516   7.177   1.813   5.074 -0.5139  0.7250 -1.4807
12518SOL    HW243517   7.316   1.859   5.035  0.5732 -1.1446  0.0526
12519SOL     OW43518   2.629   3.670   8.728 -0.0960 -0.2571  0.2643
12519SOL    HW143519   2.558   3.727   8.698 -1.5747 -0.9406  2.2456
12519SOL    HW243520   2.659   3.709   8.810 -0.9514 -2.0782  1.5232
12520SOL     OW43521   3.629   5.145   2.796  0.2287 -0.2115  0.8244
12520SOL    HW143522   3.551   5.103   2.830 -0.6950  0.1846 -0.7264
12520SOL    HW243523   3.605   5.237   2.785  1.3444  0.1972  1.5778
12521SOL     OW43524   6.993   3.586   0.293  0.5992 -0.2967  0.3041
12521SOL    HW143525   6.982   3.609   0.201 -1.8004 -0.0126  0.5801
12521SOL    HW243526   6.997   3.671   0.338 -0.7960 -0.3673  0.6352
12522SOL     OW43527   3.319   6.220   2.612 -0.1598 -0.0990 -0.1928
12522SOL    HW143528   3.223   6.216   2.616 -0.1365  0.0452  0.5501
12522SOL    HW243529   3.347   6.226   2.703  0.4964  1.4598 -0.4665
12523SOL     OW43530   1.099   7.535   9.089  0.4975 -0.3142 -0.1330
12523SOL    HW143531   1.111   7.606   9.026 -0.4894  0.7391  0.8418
12523SOL    HW243532   1.121   7.456   9.039 -0.5037  0.4581 -1.8893
12524SOL     OW43533   5.311   5.778   4.769 -0.3190  0.0176  0.1040
12524SOL    HW143534   5.328   5.684   4.766 -0.1064  0.0466 -2.5698
12524SOL    HW243535   5.395   5.819   4.750 -0.4125  0.7568  1.2112
12525SOL     OW43536   1.834   7.463   4.757  0.5139 -0.8322 -0.5297
12525SOL    HW143537   1.841   7.445   4.851 -1.4940 -2.2341 -0.5945
12525SOL    HW243538   1.840   7.378   4.715  1.7574 -0.1870 -1.7631
12526SOL     OW43539   9.346   4.336   0.882 -0.0931  0.0218 -0.1099
12526SOL    HW143540   9.425   4.372   0.843 -0.2711  1.4127  0.7446
12526SOL    HW243541   9.295   4.303   0.808 -0.2762  2.2598 -1.0692
12527SOL     OW43542   0.539   1.434   1.283 -0.1424  0.0085  0.3382
12527SOL    HW143543   0.498   1.379   1.217  0.6222 -1.3604  0.9516
12527SOL    HW243544   0.547   1.378   1.360  1.6776  0.5976  0.6534
12528SOL     OW43545   0.954   6.235   3.586  0.0752  0.1884  0.1711
12528SOL    HW143546   1.034   6.204   3.543  0.4643 -0.3308  1.2388
12528SOL    HW243547   0.883   6.190   3.541  0.2984  1.2254 -1.3041
12529SOL     OW43548   4.309   8.528   3.287 -0.1064 -0.2895  0.4177
12529SOL    HW143549   4.399   8.535   3.254 -0.3366  0.9391 -0.0024
12529SOL    HW243550   4.306   8.589   3.361 -0.0777 -1.7555  1.6958
12530SOL     OW43551   2.475   3.435   8.851  0.0681 -0.0655  0.5924
12530SOL    HW143552   2.516   3.431   8.937 -0.0400  1.1396  0.7174
12530SOL    HW243553   2.540   3.477   8.795  0.2409 -1.0856  0.0112
12531SOL     OW43554   1.100   3.900   2.233  0.3255 -0.2928  0.0880
12531SOL    HW143555   1.044   3.974   2.256  0.7917 -0.2499  1.1805
12531SOL    HW243556   1.163   3.935   2.170  1.7541  0.7863  2.0136
12532SOL     OW43557   0.952   5.820   3.754  0.0460 -0.1090 -0.0285
12532SOL    HW143558   0.894   5.774   3.693 -0.2424 -0.4657  0.5042
12532SOL    HW243559   0.911   5.906   3.765 -0.0189 -0.1214 -0.1631
12533SOL     OW43560   7.159   1.338   0.168  0.0086 -0.2149 -0.4036
12533SOL    HW143561   7.196   1.373   0.087  1.5607  0.1551  0.4251
12533SOL    HW243562   7.198   1.392   0.237 -3.0799  1.0651  0.5005
12534SOL     OW43563   0.919   3.818   5.064 -0.0103  0.4061 -0.4244
12534SOL    HW143564   0.897   3.791   4.975 -1.4198  0.7195 -0.2025
12534SOL    HW243565   0.864   3.895   5.080  2.1131  1.9605 -0.1752
12535SOL     OW43566   4.521   0.798   8.789 -0.0291  0.2571 -0.2681
12535SOL    HW143567   4.509   0.893   8.785  0.2611  0.2670 -1.1654
12535SOL    HW243568   4.586   0.779   8.721 -1.8219 -0.8483 -1.7697
12536SOL     OW43569   7.897   1.264   2.591 -0.0441 -0.0470  0.1585
12536SOL    HW143570   7.892   1.263   2.495  2.6871  0.5705 -0.0780
12536SOL    HW243571   7.914   1.172   2.614 -0.1498 -0.1071  0.0023
12537SOL     OW43572   3.314   5.972   5.398  0.8488  0.2911 -0.0902
12537SOL    HW143573   3.335   6.013   5.314  2.0180 -2.4227 -1.2371
12537SOL    HW243574   3.266   5.893   5.374  2.9999 -1.6370  1.5964
12538SOL     OW43575   6.346   0.742   0.683  0.1616 -0.3206 -0.1480
12538SOL    HW143576   6.365   0.747   0.590  0.4269 -0.3345 -0.0935
12538SOL    HW243577   6.274   0.805   0.696 -0.5453 -1.0292 -0.5354
12539SOL     OW43578   4.244   7.154   5.519 -0.1504 -0.4266 -0.4921
12539SOL    HW143579   4.195   7.156   5.602  2.1984 -1.2230  1.0162
12539SOL    HW243580   4.206   7.081   5.470 -1.0892 -0.4165  0.1894
12540SOL     OW43581   4.828   8.101   2.016 -0.2487 -0.4718  0.2489
12540SOL    HW143582   4.775   8.104   1.936 -0.3251  1.3406  0.3205
12540SOL    HW243583   4.838   8.008   2.034 -1.1019 -0.9109 -1.2931
12541SOL     OW43584   2.100   3.261   2.154 -0.2755  0.1796  0.2034
12541SOL    HW143585   2.066   3.177   2.121  0.2080 -0.2941  0.8946
12541SOL    HW243586   2.115   3.312   2.075  0.2265 -0.6997 -0.2869
12542SOL     OW43587   3.374   0.166   5.065  0.1697  0.1233 -1.0285
12542SOL    HW143588   3.417   0.247   5.038  1.7972 -0.8899 -1.6370
12542SOL    HW243589   3.426   0.136   5.140 -0.2775 -0.4724 -0.9565
12543SOL     OW43590   8.792   8.921   9.332 -0.0343  0.4634 -0.1014
12543SOL    HW143591   8.725   8.889   9.392 -0.2001  1.3375  0.1942
12543SOL    HW243592   8.759   9.005   9.301  1.3003  1.3253  0.7100
12544SOL     OW43593   1.083   1.257   0.921 -0.4318  0.4104 -0.7281
12544SOL    HW143594   1.059   1.272   0.830 -2.0147 -1.3817 -0.6733
12544SOL    HW243595   1.174   1.229   0.918 -0.4048  0.5752 -1.7298
12545SOL     OW43596   7.666   0.094   4.797  0.4769  0.4051 -0.5527
12545SOL    HW143597   7.596   0.059   4.742  0.6242  0.0790 -0.5375
12545SOL    HW243598   7.622   0.153   4.858  0.0903 -0.4756  0.0426
12546SOL     OW43599   4.122   0.349   9.212  0.0891 -0.4991 -0.1846
12546SOL    HW143600   4.063   0.273   9.209  0.2223 -0.7034  1.5216
12546SOL    HW243601   4.110   0.384   9.300  0.5351  1.0700 -0.7313
12547SOL     OW43602   2.403   5.442   8.925  0.2053 -0.9472 -0.2160
12547SOL    HW143603   2.335   5.493   8.880  0.6288 -2.7181 -3.1310
12547SOL    HW243604   2.394   5.465   9.017 -2.1153  1.4077 -0.9218
12548SOL     OW43605   6.042   2.015   5.259 -0.0983 -0.0242  0.1204
12548SOL    HW143606   6.050   1.924   5.288  0.7731 -0.0920 -0.3133
12548SOL    HW243607   6.076   2.067   5.332 -2.5319  0.1208  1.2726
12549SOL     OW43608   9.016   2.713   2.635  0.8706 -0.1853  0.3154
12549SOL    HW143609   9.030   2.805   2.654  0.4676 -0.3880  1.7775
12549SOL    HW243610   8.993   2.710   2.542 -0.8106  1.3934  0.6257
12550SOL     OW43611   8.658   0.582   8.041  0.6447  0.0078  0.0218
12550SOL    HW143612   8.602   0.656   8.064  0.9442 -0.3813  2.2092
12550SOL    HW243613   8.705   0.611   7.963  0.2752  1.8694  0.4392
12551SOL     OW43614   8.799   5.015   1.614  0.0542 -0.2861 -0.6232
12551SOL    HW143615   8.704   5.021   1.604 -0.0736 -1.3863 -0.1930
12551SOL    HW243616   8.833   5.002   1.525 -0.0134  1.9793 -1.0271
12552SOL     OW43617   2.920   3.737   4.866 -0.0488  0.7258  0.0601
12552SOL    HW143618   2.827   3.743   4.845 -0.1037 -0.9016 -0.3024
12552SOL    HW243619   2.957   3.820   4.835 -0.6692 -0.2167 -3.6637
12553SOL     OW43620   5.913   7.280   8.464  0.6248  0.2351 -0.2238
12553SOL    HW143621   6.002   7.312   8.480 -0.0633  1.3643  1.7837
12553SOL    HW243622   5.872   7.348   8.410  0.8388 -0.0756 -0.7847
12554SOL     OW43623   6.833   6.959   2.181 -0.5196 -0.0541 -0.1905
12554SOL    HW143624   6.804   6.878   2.140  0.3153 -0.9443  0.9002
12554SOL    HW243625   6.780   6.966   2.260 -1.4967  1.1723 -0.9198
12555SOL     OW43626   5.055   6.096   8.914  0.0539 -0.0020  0.0588
12555SOL    HW143627   5.049   6.183   8.954 -0.1297  0.2731 -0.5671
12555SOL    HW243628   5.009   6.039   8.976 -0.7602  0.5221 -0.0427
12556SOL     OW43629   1.146   7.924   5.070  0.2824 -0.0980 -0.1879
12556SOL    HW143630   1.234   7.931   5.034 -0.1834  0.6803 -1.2275
12556SOL    HW243631   1.124   8.012   5.100  0.0217 -0.3791  0.4704
12557SOL     OW43632   8.002   5.861   1.850  0.1235 -0.4384 -0.4481
12557SOL    HW143633   7.943   5.897   1.916  1.2560 -1.1572  1.0150
12557SOL    HW243634   7.977   5.906   1.769 -0.3560  1.5551  0.7287
12558SOL     OW43635   8.156   3.091   4.297 -0.0830 -0.2376  0.0718
12558SOL    HW143636   8.202   3.114   4.216 -1.0792  0.5307 -0.2946
12558SOL    HW243637   8.107   3.170   4.320  1.1479 -0.0066  2.1132
12559SOL     OW43638   2.893   3.366   1.193 -0.7665 -0.3690  0.1876
12559SOL    HW143639   2.915   3.279   1.225  0.0467 -0.1766  0.1829
12559SOL    HW243640   2.828   3.351   1.124  0.9022 -1.1672 -1.2927
12560SOL     OW43641   7.876   2.693   4.865 -0.4338  0.0873 -0.0261
12560SOL    HW143642   7.970   2.708   4.854 -0.1574 -0.6153  1.2749
12560SOL    HW243643   7.839   2.781   4.874  0.3727  0.3085  1.4392
12561SOL     OW43644   2.465   4.911   4.981  0.1676 -0.0239  0.5295
12561SOL    HW143645   2.438   4.967   4.909  0.2182 -1.0411 -0.3120
12561SOL    HW243646   2.426   4.951   5.059 -0.1795  0.8977 -0.1010
12562SOL     OW43647   7.712   7.268   8.845 -0.1739  0.2384 -0.3727
12562SOL    HW143648   7.782   7.286   8.783 -0.2647  1.8688 -0.0463
12562SOL    HW243649   7.687   7.354   8.879  0.3938 -0.6383  2.4981
12563SOL     OW43650   7.372   3.468   8.689 -0.3789  0.1264 -0.3999
12563SOL    HW143651   7.342   3.472   8.598  0.0549  0.3870 -0.5371
12563SOL    HW243652   7.312   3.525   8.736 -0.6474 -0.0624 -0.5118
12564SOL     OW43653   5.034   5.722   1.273  0.6376 -0.3690  0.1683
12564SOL    HW143654   5.086   5.658   1.322  2.2023  1.8557  1.5582
12564SOL    HW243655   4.944   5.705   1.300  0.7867 -2.8045 -0.5447
12565SOL     OW43656   3.936   4.958   4.674  0.4547  0.5927  0.6910
12565SOL    HW143657   3.979   5.027   4.725 -0.7439  0.5317  1.8286
12565SOL    HW243658   3.900   4.899   4.739 -1.3121  0.6231 -0.1977
12566SOL     OW43659   6.573   5.342   7.093  0.1591  0.3703  0.2082
12566SOL    HW143660   6.526   5.275   7.043  1.2225 -0.6921  0.5862
12566SOL    HW243661   6.601   5.405   7.027 -0.6749  0.3461 -0.1850
12567SOL     OW43662   0.301   4.204   8.539 -0.7999 -0.1514 -0.1280
12567SOL    HW143663   0.350   4.285   8.529 -1.4751  0.3592  0.6294
12567SOL    HW243664   0.215   4.223   8.502 -0.2541 -1.2805 -2.1868
12568SOL     OW43665   4.341   6.802   3.490  0.1023  0.2716  0.0549
12568SOL    HW143666   4.357   6.884   3.537  2.3829 -0.3222  0.4183
12568SOL    HW243667   4.384   6.735   3.542  1.6025 -0.6083 -2.1589
12569SOL     OW43668   5.444   6.240   2.212  0.3833 -0.1166  0.0505
12569SOL    HW143669   5.459   6.335   2.217 -1.5214  0.1816  4.0362
12569SOL    HW243670   5.357   6.231   2.173  0.1058 -0.1204  0.6571
12570SOL     OW43671   2.550   0.329   5.702  0.4426  0.1480  0.1926
12570SOL    HW143672   2.626   0.276   5.729  1.5065  1.7369  0.4690
12570SOL    HW243673   2.511   0.358   5.784  0.5406  0.7025  0.0456
12571SOL     OW43674   3.047   9.034   1.326 -0.0200  0.0914  0.0994
12571SOL    HW143675   3.073   9.041   1.418  0.5719 -0.5079 -0.0214
12571SOL    HW243676   3.103   8.965   1.290 -0.0578  0.5075 -0.7788
12572SOL     OW43677   6.860   8.512   6.294 -0.1850 -0.3801  0.2085
12572SOL    HW143678   6.785   8.569   6.308 -0.5232 -1.0413  1.1760
12572SOL    HW243679   6.931   8.555   6.342  0.3512  0.7704 -1.5194
12573SOL     OW43680   8.225   1.331   3.569 -0.2864 -0.1968 -0.4046
12573SOL    HW143681   8.285   1.282   3.625  0.3370 -0.0963 -0.9714
12573SOL    HW243682   8.139   1.292   3.587  0.1946 -1.5603 -0.8851
12574SOL     OW43683   0.931   7.011   1.969  0.2468  0.1542  0.1503
12574SOL    HW143684   0.999   7.063   1.926 -0.1682 -1.3848 -2.6215
12574SOL    HW243685   0.849   7.057   1.950  0.1716  0.1526  0.4603
12575SOL     OW43686   3.514   0.935   6.405  0.8166 -0.3291 -0.0602
12575SOL    HW143687   3.597   0.888   6.405  0.6108 -0.7306 -1.4312
12575SOL    HW243688   3.518   0.990   6.326  0.2318  0.4693  0.4540
12576SOL     OW43689   6.704   3.948   6.610 -0.4983 -0.1183 -0.4247
12576SOL    HW143690   6.637   3.985   6.552 -0.0753 -0.2533 -1.0162
12576SOL    HW243691   6.722   3.862   6.573  0.4766  0.1787 -0.6753
12577SOL     OW43692   2.070   2.324   8.279 -0.7017 -0.1593 -0.5878
12577SOL    HW143693   2.069   2.229   8.287  0.2337 -0.1422 -0.0060
12577SOL    HW243694   2.008   2.355   8.345  1.1904 -0.2975  1.3677
12578SOL     OW43695   4.226   8.962   8.572  0.5329 -0.1845  0.4230
12578SOL    HW143696   4.301   8.925   8.527 -0.4228 -3.6001  1.3396
12578SOL    HW243697   4.239   8.939   8.664  0.1105  2.4697  1.2581
12579SOL     OW43698   3.292   0.252   3.941  0.0580 -0.7676 -0.2399
12579SOL    HW143699   3.332   0.294   4.017  3.5518 -0.4093 -2.0607
12579SOL    HW243700   3.198   0.261   3.955  0.4500 -1.0945  4.1830
12580SOL     OW43701   3.540   4.830   0.541 -0.5351  0.2858  0.2144
12580SOL    HW143702   3.550   4.770   0.467 -0.4012  0.7766 -0.1749
12580SOL    HW243703   3.597   4.794   0.609 -0.2109  0.1457 -0.1257
12581SOL     OW43704   6.803   7.520   3.419 -0.1343 -0.2749  0.3357
12581SOL    HW143705   6.710   7.538   3.436  0.4170  1.1079  2.2354
12581SOL    HW243706   6.822   7.443   3.472  0.4164  1.1444  2.3349
12582SOL     OW43707   5.441   0.662   4.810 -0.2198 -0.2859  0.6648
12582SOL    HW143708   5.530   0.671   4.845  0.3215 -1.4158 -0.3393
12582SOL    HW243709   5.442   0.712   4.729 -0.4492 -0.4522  0.5583
12583SOL     OW43710   6.454   6.636   0.587 -0.1409 -0.7630 -0.3320
12583SOL    HW143711   6.443   6.722   0.627  1.1330  0.0990 -1.7272
12583SOL    HW243712   6.546   6.633   0.562 -0.5558 -1.8303 -1.8627
12584SOL     OW43713   4.211   7.301   6.611 -0.1615  0.2749 -0.2506
12584SOL    HW143714   4.124   7.323   6.578  0.3813  0.6195 -1.5227
12584SOL    HW243715   4.250   7.248   6.542  1.6875  2.5295 -1.0615
12585SOL     OW43716   0.764   1.332   2.432  0.2193  1.0163 -0.8661
12585SOL    HW143717   0.711   1.256   2.407  1.6909 -0.2748 -0.2180
12585SOL    HW243718   0.704   1.406   2.425 -0.9759 -0.0462 -2.5526
12586SOL     OW43719   4.082   8.610   0.470  0.2545  0.4822 -0.2110
12586SOL    HW143720   4.125   8.574   0.392  0.7254  0.4798  0.0467
12586SOL    HW243721   4.154   8.640   0.526 -0.0664  0.2551  0.3341
12587SOL     OW43722   9.266   4.309   4.422 -0.1293  0.2269  0.0592
12587SOL    HW143723   9.257   4.309   4.326 -1.2054 -1.1605  0.1099
12587SOL    HW243724   9.345   4.257   4.439 -1.3573 -1.8160 -0.0706
12588SOL     OW43725   8.214   2.557   3.358 -0.2932 -0.3741  0.2111
12588SOL    HW143726   8.180   2.541   3.446 -0.2333 -0.0921  0.2844
12588SOL    HW243727   8.207   2.472   3.314 -1.4462 -0.2416  0.0974
12589SOL     OW43728   2.528   5.613   6.839  0.6255  0.0269 -0.2003
12589SOL    HW143729   2.493   5.702   6.826 -1.9516 -1.2405 -2.9748
12589SOL    HW243730   2.598   5.605   6.774 -0.0908 -0.3938 -0.9352
12590SOL     OW43731   6.741   7.973   4.057  0.5918 -0.1503  0.1271
12590SOL    HW143732   6.686   7.931   4.122 -0.1626 -2.1884 -1.6831
12590SOL    HW243733   6.829   7.967   4.092  0.2157 -1.3069  0.9365
12591SOL     OW43734   4.893   1.766   4.082 -0.6132 -0.0689  0.3832
12591SOL    HW143735   4.982   1.765   4.116  0.4389 -0.4969 -2.1559
12591SOL    HW243736   4.846   1.703   4.137  1.6196 -2.6425 -0.4247
12592SOL     OW43737   8.764   6.538   7.246  0.1898  0.0634  0.2640
12592SOL    HW143738   8.749   6.519   7.338  0.4008  0.0566  0.2987
12592SOL    HW243739   8.755   6.454   7.202 -0.4593  0.1628  0.2043
12593SOL     OW43740   6.017   2.559   3.161 -0.4130  0.4544  0.0717
12593SOL    HW143741   5.975   2.639   3.129 -1.6222  0.1837  0.9496
12593SOL    HW243742   5.946   2.505   3.194  0.5707 -0.2113  1.1953
12594SOL     OW43743   8.943   3.590   4.721  0.1097 -0.1512  0.0557
12594SOL    HW143744   8.986   3.559   4.641  1.4953 -0.9038  1.0419
12594SOL    HW243745   8.992   3.668   4.746 -1.5746  1.2828 -0.8500
12595SOL     OW43746   8.630   5.454   8.528 -0.1333  0.5212 -0.5037
12595SOL    HW143747   8.707   5.433   8.475  0.0317  0.2016 -0.1366
12595SOL    HW243748   8.560   5.400   8.491  0.1640 -0.2894  0.0970
12596SOL     OW43749   4.958   5.621   1.891  0.2464 -0.0284 -0.0935
12596SOL    HW143750   5.048   5.651   1.874  0.0076  0.4838 -0.4769
12596SOL    HW243751   4.961   5.587   1.980  0.7048  0.4766  0.0895
12597SOL     OW43752   8.369   8.124   4.664 -0.2493 -0.3483  0.0732
12597SOL    HW143753   8.335   8.146   4.577 -0.0187 -0.6209 -0.0879
12597SOL    HW243754   8.368   8.028   4.665  1.1193 -0.3783 -0.1735
12598SOL     OW43755   5.375   3.585   1.561 -0.1285  0.7608 -0.0845
12598SOL    HW143756   5.298   3.561   1.611 -0.4488 -0.1737 -1.0085
12598SOL    HW243757   5.430   3.507   1.561  0.4291  1.1459 -0.1535
12599SOL     OW43758   3.814   2.317   0.411  0.4945  0.1786  0.1902
12599SOL    HW143759   3.908   2.304   0.406  0.2775 -0.8868 -2.0343
12599SOL    HW243760   3.794   2.378   0.340 -0.4459  0.8957  1.0290
12600SOL     OW43761   0.223   7.918   6.316  0.4155  0.2409  0.2693
12600SOL    HW143762   0.143   7.865   6.323 -0.8786  2.0228 -0.2926
12600SOL    HW243763   0.293   7.859   6.341 -0.9106 -1.8330 -0.6284
12601SOL     OW43764   5.047   2.409   5.219  0.4348 -0.9006  0.4971
12601SOL    HW143765   4.985   2.453   5.160  0.2408 -2.1627 -0.2712
12601SOL    HW243766   5.109   2.477   5.243 -1.4133  0.5161  1.5705
12602SOL     OW43767   8.947   3.874   6.611 -0.3076  0.0620  0.2208
12602SOL    HW143768   8.891   3.919   6.674  0.1919  1.9488 -0.5950
12602SOL    HW243769   9.029   3.925   6.611  0.5710 -1.2877 -0.2541
12603SOL     OW43770   3.995   3.071   6.643  0.0776 -0.1379 -0.4323
12603SOL    HW143771   3.941   3.150   6.652 -1.2179 -0.9388 -1.0059
12603SOL    HW243772   4.015   3.045   6.733  1.1819  1.2430 -0.2254
12604SOL     OW43773   4.107   0.152   6.769  0.4073  0.0498  0.3058
12604SOL    HW143774   4.167   0.084   6.801  0.5901 -1.5593 -3.0432
12604SOL    HW243775   4.029   0.142   6.824  1.7404 -0.3942  2.2219
12605SOL     OW43776   7.354   3.549   6.439 -0.5662  0.0228  0.0107
12605SOL    HW143777   7.299   3.483   6.481 -1.5261 -0.0721 -1.3231
12605SOL    HW243778   7.443   3.518   6.452 -0.9871 -1.3965 -0.3452
12606SOL     OW43779   4.828   9.270   1.955 -0.1372 -0.0106 -0.6370
12606SOL    HW143780   4.783   9.345   1.916 -1.6408 -1.0382 -0.9169
12606SOL    HW243781   4.830   9.291   2.049  0.1520  0.7325 -0.8012
12607SOL     OW43782   5.953   7.969   4.284  0.3401  0.0442  0.1689
12607SOL    HW143783   5.950   7.987   4.190 -1.0307 -0.5235  0.0862
12607SOL    HW243784   5.864   7.941   4.306  1.2875 -2.5327  1.0747
12608SOL     OW43785   7.720   3.604   8.094  0.0130 -0.0149 -0.2691
12608SOL    HW143786   7.696   3.516   8.122  2.4984 -1.1060 -1.2336
12608SOL    HW243787   7.729   3.653   8.175  0.2184 -1.1164  0.4036
12609SOL     OW43788   2.117   0.803   1.385  0.2491  0.0538 -0.1558
12609SOL    HW143789   2.053   0.833   1.450 -0.5412 -0.8365 -0.4965
12609SOL    HW243790   2.093   0.850   1.305 -0.5275 -0.8964 -0.4997
12610SOL     OW43791   6.236   0.613   5.297 -0.0775  0.2589  0.3196
12610SOL    HW143792   6.221   0.673   5.224  0.7407 -0.6469 -0.6337
12610SOL    HW243793   6.327   0.584   5.285  0.0030 -0.0575  1.5899
12611SOL     OW43794   1.978   1.196   8.822  0.8065 -0.1403  0.4826
12611SOL    HW143795   1.941   1.263   8.880  1.0183 -0.9100  1.5311
12611SOL    HW243796   1.987   1.240   8.738 -0.3260  0.7530  0.8011
12612SOL     OW43797   8.628   2.304   6.625 -0.0076 -0.0216  0.3082
12612SOL    HW143798   8.673   2.329   6.545  0.0888 -3.1748 -0.7667
12612SOL    HW243799   8.565   2.375   6.641 -0.3800  0.4861 -2.8330
12613SOL     OW43800   7.279   0.834   0.537  0.2581  0.7671  0.1912
12613SOL    HW143801   7.357   0.813   0.588  0.9152  0.7453 -0.7881
12613SOL    HW243802   7.305   0.907   0.481  0.0048 -0.0899 -1.1015
12614SOL     OW43803   2.725   5.803   2.420  0.0114  0.0096 -0.1095
12614SOL    HW143804   2.641   5.771   2.387  0.4424 -0.2240 -0.9776
12614SOL    HW243805   2.779   5.725   2.430  1.0357  0.4046 -2.1591
12615SOL     OW43806   8.089   4.171   0.054  0.1685 -0.2339  0.3242
12615SOL    HW143807   8.164   4.220   0.019 -1.3526  0.8036 -1.7399
12615SOL    HW243808   8.063   4.219   0.132  1.8626 -0.8603  1.3241
12616SOL     OW43809   9.124   4.157   4.793  0.3917 -0.2053  0.1337
12616SOL    HW143810   9.137   4.184   4.883 -0.4176 -0.1480  0.2437
12616SOL    HW243811   9.212   4.148   4.757  0.7279 -0.5456  1.0201
12617SOL     OW43812   5.430   6.279   6.596  0.1707 -0.0602  0.2444
12617SOL    HW143813   5.385   6.259   6.514  0.4975  0.7708 -0.1493
12617SOL    HW243814   5.376   6.347   6.637  0.6720  0.4359  0.1032
12618SOL     OW43815   4.050   7.178   2.896  0.1348  0.6348 -0.5000
12618SOL    HW143816   4.037   7.134   2.812  1.1256  2.4180 -1.6742
12618SOL    HW243817   4.123   7.131   2.937  0.2879  0.3347 -1.1096
12619SOL     OW43818   2.292   0.635   8.069 -0.2088 -0.2007  0.0912
12619SOL    HW143819   2.303   0.711   8.128  1.7438 -0.2233 -0.1577
12619SOL    HW243820   2.267   0.674   7.985 -1.0963 -0.0073  0.4331
12620SOL     OW43821   5.935   7.783   3.765 -0.3280  0.1583  0.9178
12620SOL    HW143822   5.907   7.692   3.770 -0.0440  0.0331  0.3026
12620SOL    HW243823   5.992   7.787   3.687  1.1187  0.4666  1.9465
12621SOL     OW43824   6.622   4.802   3.998 -0.0191 -0.3411  0.2798
12621SOL    HW143825   6.565   4.837   3.930  0.3913 -1.0740 -0.4573
12621SOL    HW243826   6.564   4.790   4.073 -0.0789  2.4267  0.7984
12622SOL     OW43827   4.144   3.572   0.394  0.2270  0.5235  0.5167
12622SOL    HW143828   4.076   3.612   0.340  1.5624  0.0817 -1.6404
12622SOL    HW243829   4.204   3.645   0.414 -0.0040  0.5896  0.9652
12623SOL     OW43830   2.176   1.487   6.452 -0.1362  0.1465  0.1711
12623SOL    HW143831   2.214   1.480   6.365  0.8568  3.4147  0.2296
12623SOL    HW243832   2.081   1.493   6.436 -0.2099 -1.8493 -0.4152
12624SOL     OW43833   5.100   3.179   5.224 -0.4525  0.0451  0.0141
12624SOL    HW143834   5.022   3.163   5.171 -0.5864  0.3131  0.1295
12624SOL    HW243835   5.112   3.274   5.221  0.6307 -0.1000 -1.0836
12625SOL     OW43836   4.011   6.052   4.784 -0.1388  0.6561 -0.1098
12625SOL    HW143837   3.952   6.126   4.799  1.2626  1.7017  0.4857
12625SOL    HW243838   4.084   6.090   4.734 -0.0768 -0.6562 -1.0566
12626SOL     OW43839   7.702   8.672   1.692 -0.0268 -0.2364 -0.0172
12626SOL    HW143840   7.668   8.697   1.778 -1.6634 -0.0191 -0.6842
12626SOL    HW243841   7.649   8.723   1.630  0.6964 -0.8532 -1.1717
12627SOL     OW43842   5.405   1.348   3.122  0.5789 -0.2690 -0.2831
12627SOL    HW143843   5.460   1.382   3.192  0.0013  1.3072 -0.5581
12627SOL    HW243844   5.467   1.319   3.055  1.0967  1.0143 -0.3812
12628SOL     OW43845   0.288   3.808   7.896  0.1260 -0.4359  0.6039
12628SOL    HW143846   0.297   3.860   7.817 -2.6816  1.0763  1.1314
12628SOL    HW243847   0.318   3.865   7.967 -1.8725  0.1232  1.0646
12629SOL     OW43848   2.642   0.371   8.483 -0.0343 -0.1272 -0.0684
12629SOL    HW143849   2.713   0.387   8.545 -2.0316 -2.7885  3.2430
12629SOL    HW243850   2.597   0.456   8.477 -0.6000 -0.0164  3.4620
12630SOL     OW43851   4.288   7.433   3.273  0.3656  0.0872  0.1150
12630SOL    HW143852   4.245   7.501   3.324  0.7864 -0.6729  1.5375
12630SOL    HW243853   4.375   7.468   3.255  0.7509 -0.2577  1.2632
12631SOL     OW43854   2.343   7.095   0.376 -0.4069 -0.7051  0.4991
12631SOL    HW143855   2.280   7.030   0.408  0.8803 -1.4167  1.7019
12631SOL    HW243856   2.315   7.177   0.415 -1.2836 -0.7797  0.0447
12632SOL     OW43857   2.175   5.870   6.931 -0.3598  0.1287  0.3587
12632SOL    HW143858   2.115   5.941   6.953 -0.2536  0.5837 -0.7508
12632SOL    HW243859   2.207   5.838   7.015  1.4293  2.9540  0.8688
12633SOL     OW43860   1.892   3.512   7.605 -0.2726  0.4040  0.1594
12633SOL    HW143861   1.970   3.472   7.645 -0.3045  0.2596  0.0772
12633SOL    HW243862   1.874   3.459   7.528 -0.4091  0.4825  0.1356
12634SOL     OW43863   6.145   8.019   8.763 -0.2196  0.0458 -0.2277
12634SOL    HW143864   6.130   8.091   8.701  0.0062  0.3048  0.0159
12634SOL    HW243865   6.091   8.042   8.839  0.8807  0.6494  0.3940
12635SOL     OW43866   3.667   0.789   0.597  0.0416  0.2183 -0.4451
12635SOL    HW143867   3.759   0.790   0.623  0.7427  3.5727 -2.3886
12635SOL    HW243868   3.619   0.798   0.679  1.5200  0.0201  0.4796
12636SOL     OW43869   6.402   0.398   4.586 -0.6103  0.3494  0.0543
12636SOL    HW143870   6.466   0.337   4.624 -0.9655 -0.1501 -0.1398
12636SOL    HW243871   6.425   0.483   4.623  0.3140  0.2213 -0.1859
12637SOL     OW43872   4.224   3.939   6.772  0.4757 -0.5582 -0.8297
12637SOL    HW143873   4.171   3.968   6.697 -1.3281 -1.0984  0.1877
12637SOL    HW243874   4.314   3.938   6.738 -0.2098 -0.2224 -2.8153
12638SOL     OW43875   8.910   3.251   1.568 -0.1723  0.3425  0.1848
12638SOL    HW143876   8.953   3.251   1.483 -1.6700 -0.5175 -0.6121
12638SOL    HW243877   8.832   3.197   1.556 -0.9262  0.9754  1.8490
12639SOL     OW43878   0.190   3.840   1.850  0.4662  0.0546 -0.2352
12639SOL    HW143879   0.120   3.904   1.860 -1.3372 -1.7385 -0.7419
12639SOL    HW243880   0.199   3.800   1.936  0.3273 -0.2592 -0.3670
12640SOL     OW43881   2.509   4.516   1.476  0.4004  0.0568 -0.2652
12640SOL    HW143882   2.590   4.565   1.464  1.1120 -1.3907 -1.8886
12640SOL    HW243883   2.506   4.495   1.569  1.9052  0.1470 -0.1855
12641SOL     OW43884   8.986   6.795   6.287 -0.2682  0.0519 -0.4015
12641SOL    HW143885   8.945   6.844   6.216 -0.5486  1.0794  0.4334
12641SOL    HW243886   8.920   6.795   6.357  0.5940  0.5044  0.4483
12642SOL     OW43887   3.087   4.752   2.262 -0.3796 -0.3129  0.9245
12642SOL    HW143888   3.172   4.722   2.294  0.2551  1.6933  1.2388
12642SOL    HW243889   3.032   4.756   2.341 -0.2828 -0.0582  0.9788
12643SOL     OW43890   2.964   0.714   8.361  0.7266 -0.2878  0.8197
12643SOL    HW143891   3.047   0.702   8.406 -0.4540 -0.4333  3.1602
12643SOL    HW243892   2.899   0.717   8.432 -1.1965  0.4049 -0.8651
12644SOL     OW43893   5.053   3.191   0.293 -0.8650  0.2865 -0.8122
12644SOL    HW143894   5.115   3.192   0.220 -0.5156  0.6610 -0.5135
12644SOL    HW243895   4.977   3.238   0.261 -0.1908  1.6360 -0.4915
12645SOL     OW43896   2.657   7.201   3.664 -0.3834 -0.5937 -0.0630
12645SOL    HW143897   2.565   7.228   3.657 -0.4027 -0.1337  1.5303
12645SOL    HW243898   2.704   7.263   3.608 -0.8010  0.7613  1.0194
12646SOL     OW43899   3.832   3.690   1.881  0.0809 -0.7056 -0.3431
12646SOL    HW143900   3.817   3.754   1.811 -1.2887 -0.0779  0.4782
12646SOL    HW243901   3.747   3.681   1.924  0.4694 -2.4096  0.1431
12647SOL     OW43902   7.821   3.577   0.595 -0.0205  0.5469  0.2648
12647SOL    HW143903   7.857   3.606   0.511  0.7364 -0.2612  0.3001
12647SOL    HW243904   7.747   3.521   0.572 -0.7029  1.4655  0.1739
12648SOL     OW43905   7.726   8.970   3.329 -0.6898  0.6832  0.2779
12648SOL    HW143906   7.797   8.907   3.314 -1.2186  0.0927  0.1778
12648SOL    HW243907   7.665   8.955   3.257 -0.2564  2.1662 -0.4394
12649SOL     OW43908   7.951   4.934   8.712  0.1710  0.1908  0.1663
12649SOL    HW143909   8.005   4.951   8.635 -0.9823 -2.0661 -1.2419
12649SOL    HW243910   7.862   4.959   8.686 -0.1959 -0.3618  0.8456
12650SOL     OW43911   4.567   0.930   5.868 -0.4442 -0.1892 -0.2190
12650SOL    HW143912   4.658   0.955   5.850 -1.3214  2.5247 -1.3200
12650SOL    HW243913   4.542   0.876   5.793  0.4203 -1.5826  0.4501
12651SOL     OW43914   7.219   3.358   1.121  0.8537  0.2925  0.3167
12651SOL    HW143915   7.196   3.268   1.098  1.7104 -0.2338  1.4138
12651SOL    HW243916   7.216   3.405   1.037  0.9468 -0.8778 -0.3787
12652SOL     OW43917   5.895   5.197   4.247  0.1453  0.1902  0.2490
12652SOL    HW143918   5.981   5.234   4.263 -0.1200  0.1618  1.9586
12652SOL    HW243919   5.834   5.263   4.281 -0.5462  0.3752 -1.2681
12653SOL     OW43920   4.844   3.774   0.611 -0.3407  0.1098 -0.2364
12653SOL    HW143921   4.909   3.704   0.603 -1.1702 -0.5654 -1.3927
12653SOL    HW243922   4.840   3.792   0.705 -0.8015 -2.0827  0.2198
12654SOL     OW43923   8.362   6.098   2.541  0.0135 -0.2211  0.2844
12654SOL    HW143924   8.381   6.192   2.545 -1.5629  0.1400 -0.0947
12654SOL    HW243925   8.280   6.087   2.588 -1.6517 -0.8178 -2.4780
12655SOL     OW43926   7.709   7.222   1.092 -0.1165  0.0834  0.4431
12655SOL    HW143927   7.633   7.241   1.039 -1.3675 -0.5385  1.9375
12655SOL    HW243928   7.723   7.128   1.084 -1.3347 -0.3255  2.4070
12656SOL     OW43929   6.147   9.234   1.275 -0.8074  0.0927  0.1067
12656SOL    HW143930   6.107   9.148   1.285  0.6626 -0.5621  0.5068
12656SOL    HW243931   6.224   9.219   1.220 -1.1678  1.3626 -0.7946
12657SOL     OW43932   7.097   5.501   0.491  0.2448  0.1952  0.1939
12657SOL    HW143933   7.052   5.417   0.500  1.0441 -0.1800  0.8813
12657SOL    HW243934   7.166   5.484   0.426  0.8329  0.1078  0.8195
12658SOL     OW43935   0.974   3.410   5.539  0.5177 -0.8082 -0.0788
12658SOL    HW143936   1.056   3.452   5.515  0.7194 -0.6368  0.9020
12658SOL    HW243937   0.949   3.362   5.460  0.8617  0.2174 -0.8299
12659SOL     OW43938   5.715   6.736   8.104  0.1870 -0.5589 -0.2170
12659SOL    HW143939   5.807   6.758   8.088  0.3667 -0.4097  0.9732
12659SOL    HW243940   5.688   6.794   8.174 -1.1114  0.0485 -1.1827
12660SOL     OW43941   9.023   7.181   6.029 -0.0389  0.5656 -0.4307
12660SOL    HW143942   8.969   7.110   6.064  1.1170 -0.5628 -0.8625
12660SOL    HW243943   9.052   7.229   6.107 -1.5377  1.1248 -0.1883
12661SOL     OW43944   0.072   1.939   1.258 -0.4958  0.0118  0.3955
12661SOL    HW143945   0.125   1.874   1.212 -0.7475  0.4634 -0.5582
12661SOL    HW243946   0.096   2.022   1.218 -0.2663  0.5090  1.5248
12662SOL     OW43947   3.491   6.592   8.165  0.2410  0.9599  0.1361
12662SOL    HW143948   3.433   6.618   8.236 -1.2484 -1.7819  0.0330
12662SOL    HW243949   3.432   6.566   8.094  1.4443 -2.5201  0.2337
12663SOL     OW43950   9.337   0.154   5.723 -0.1787  0.0477 -0.0225
12663SOL    HW143951   9.408   0.178   5.783 -1.7869  1.7189  1.3241
12663SOL    HW243952   9.357   0.201   5.642 -0.3763  1.5509  0.7715
12664SOL     OW43953   4.557   7.496   3.459 -0.0172 -0.4805 -0.0955
12664SOL    HW143954   4.546   7.548   3.538 -0.2080 -1.7772  0.7635
12664SOL    HW243955   4.540   7.557   3.387 -0.8155  0.4794  0.8812
12665SOL     OW43956   4.821   7.799   2.769 -0.0087  0.6650  0.6376
12665SOL    HW143957   4.734   7.836   2.755  0.1950  0.8773 -0.1295
12665SOL    HW243958   4.865   7.862   2.825  0.3153  1.5822 -0.6148
12666SOL     OW43959   0.676   7.306   4.903  0.3739  0.7850  0.6338
12666SOL    HW143960   0.707   7.395   4.922  1.9556 -0.1206  2.7369
12666SOL    HW243961   0.617   7.286   4.975 -0.9885  0.5347 -0.5060
12667SOL     OW43962   3.475   1.382   2.240  0.1405  0.0060 -0.1617
12667SOL    HW143963   3.386   1.415   2.255  0.7894  2.3324 -0.9984
12667SOL    HW243964   3.530   1.460   2.241  2.0551 -1.2707 -0.6545
12668SOL     OW43965   8.117   5.559   4.794  0.7256 -0.5239 -0.1129
12668SOL    HW143966   8.111   5.473   4.835 -2.1619  1.1441  3.5756
12668SOL    HW243967   8.104   5.543   4.701  0.4615 -4.0435  0.3920
12669SOL     OW43968   6.884   4.825   1.588 -0.3765  0.3960  0.7372
12669SOL    HW143969   6.937   4.820   1.668 -1.7389  0.5066  1.6813
12669SOL    HW243970   6.815   4.760   1.601 -0.0197 -0.3458 -0.8382
12670SOL     OW43971   2.073   5.345   2.624  0.1329  0.1990  0.0373
12670SOL    HW143972   2.101   5.395   2.548 -1.0936 -0.0683 -0.6198
12670SOL    HW243973   2.018   5.275   2.588  0.8029 -0.8930  1.0344
12671SOL     OW43974   6.781   5.229   6.347  0.4918  0.0305 -0.2971
12671SOL    HW143975   6.715   5.160   6.334 -0.3264  0.2630  2.0870
12671SOL    HW243976   6.854   5.203   6.292 -0.9565 -1.1172 -1.7911
12672SOL     OW43977   4.793   8.417   2.346  0.4958  0.1924 -0.2547
12672SOL    HW143978   4.760   8.330   2.323  2.0093 -0.4822 -0.0319
12672SOL    HW243979   4.825   8.453   2.263 -1.9745  1.4325 -0.7411
12673SOL     OW43980   5.690   2.487   4.311 -0.8451  0.0906  0.4464
12673SOL    HW143981   5.655   2.554   4.253  0.0022 -0.7095 -1.0667
12673SOL    HW243982   5.613   2.443   4.346 -1.3908  1.3263  0.8254
12674SOL     OW43983   0.643   6.779   7.830 -0.4052  0.2843 -0.2684
12674SOL    HW143984   0.616   6.780   7.921  0.0613  1.2471 -0.1361
12674SOL    HW243985   0.721   6.723   7.828 -0.2578  0.4820 -0.0344
12675SOL     OW43986   6.032   8.158   3.731  0.1034 -0.3781  0.8112
12675SOL    HW143987   6.040   8.109   3.649 -0.3502  1.5204 -0.4329
12675SOL    HW243988   6.119   8.194   3.746 -0.1153  0.2905  0.4860
12676SOL     OW43989   1.089   7.231   1.875  0.4336  0.2045  0.2706
12676SOL    HW143990   1.166   7.209   1.822  2.1183 -0.8211  2.9513
12676SOL    HW243991   1.094   7.326   1.885  1.5694  0.1267  0.6459
12677SOL     OW43992   1.503   2.236   2.949 -0.3093  0.1681 -0.2495
12677SOL    HW143993   1.582   2.288   2.962 -1.2842  1.7974 -0.5079
12677SOL    HW243994   1.438   2.276   3.007 -0.6983 -1.7682  0.7219
12678SOL     OW43995   8.724   0.754   3.244  0.0395 -0.2598 -0.6685
12678SOL    HW143996   8.678   0.701   3.309  0.1535  0.0340 -0.3486
12678SOL    HW243997   8.738   0.694   3.170 -0.2328 -0.5469 -0.4895
12679SOL     OW43998   0.826   8.698   4.077 -0.1761  0.2086  0.5425
12679SOL    HW143999   0.838   8.760   4.148 -1.7562 -0.3427  1.3484
12679SOL    HW244000   0.731   8.687   4.071  0.0092 -1.0333 -0.5287
12680SOL     OW44001   6.978   5.891   5.809  0.3538  0.0422  0.3866
12680SOL    HW144002   6.908   5.827   5.796  0.5261  0.2067 -1.8403
12680SOL    HW244003   6.972   5.915   5.901 -1.0701 -1.5982  0.7784
12681SOL     OW44004   4.499   4.867   3.793 -0.0375 -0.0739  0.2374
12681SOL    HW144005   4.524   4.959   3.806  1.1037 -0.2875 -0.2318
12681SOL    HW244006   4.577   4.818   3.820 -0.3015 -0.8451 -0.3702
12682SOL     OW44007   4.610   5.509   3.856 -0.3179 -0.0053  0.0348
12682SOL    HW144008   4.533   5.466   3.894  0.7589 -0.5981  1.6235
12682SOL    HW244009   4.611   5.595   3.898  0.5200 -0.4301  0.9192
12683SOL     OW44010   8.546   5.929   3.302 -0.4549 -0.2074 -0.2419
12683SOL    HW144011   8.558   5.933   3.207 -0.9126  0.5472 -0.2741
12683SOL    HW244012   8.453   5.945   3.315 -0.1485  1.2186  0.4052
12684SOL     OW44013   9.322   3.839   8.506 -0.2723 -0.0280 -0.2994
12684SOL    HW144014   9.409   3.872   8.529 -0.1901 -0.2784 -0.2497
12684SOL    HW244015   9.309   3.868   8.415 -0.0695 -0.1296 -0.3610
12685SOL     OW44016   1.663   9.073   0.890  0.0929  0.2929  0.2042
12685SOL    HW144017   1.730   9.080   0.822 -0.0150 -0.1493  0.0539
12685SOL    HW244018   1.582   9.053   0.843  0.1462 -0.7039  0.5170
12686SOL     OW44019   2.898   4.058   6.069  0.1228  0.1121 -0.3900
12686SOL    HW144020   2.951   4.093   6.141 -0.2712  1.9654 -0.9578
12686SOL    HW244021   2.961   4.013   6.013  0.5359 -0.7733  0.7381
12687SOL     OW44022   5.172   3.088   1.520 -0.3499 -0.4357  0.4688
12687SOL    HW144023   5.164   3.105   1.426 -0.6556 -1.1288  0.3627
12687SOL    HW244024   5.227   3.159   1.553 -1.8927  0.9915  0.1192
12688SOL     OW44025   6.312   7.528   6.063 -0.2193  0.1024 -0.3770
12688SOL    HW144026   6.364   7.598   6.101 -0.9960  0.8451 -0.6420
12688SOL    HW244027   6.371   7.453   6.058  0.5756  0.6942  0.0550
12689SOL     OW44028   1.827   7.044   1.756  0.1580  0.0475  0.5556
12689SOL    HW144029   1.903   7.091   1.791  0.3330  0.9414 -0.9350
12689SOL    HW244030   1.814   6.970   1.816  0.2628  1.6205  2.6555
12690SOL     OW44031   8.721   3.738   7.296 -0.2455  0.7497 -0.1990
12690SOL    HW144032   8.721   3.644   7.311  0.4578  0.8917  0.8235
12690SOL    HW244033   8.652   3.772   7.354  0.1396  0.9458  0.1559
12691SOL     OW44034   2.790   5.834   6.849 -0.4568  0.9473 -0.3425
12691SOL    HW144035   2.836   5.751   6.854 -0.9231  0.6636 -0.7155
12691SOL    HW244036   2.831   5.888   6.917 -1.1033 -0.0631  0.9156
12692SOL     OW44037   8.800   8.054   0.426  0.1221  0.2900 -0.1030
12692SOL    HW144038   8.831   8.141   0.449  0.2545  0.7914 -2.0257
12692SOL    HW244039   8.744   8.067   0.349  0.0510 -1.2921 -0.3667
12693SOL     OW44040   3.756   1.602   8.450  0.0791  0.3001 -0.4385
12693SOL    HW144041   3.788   1.518   8.417  2.3920  1.6794 -1.9765
12693SOL    HW244042   3.799   1.612   8.535 -0.2022 -0.0624 -0.2522
12694SOL     OW44043   7.082   2.122   3.448 -0.6152 -0.3729 -0.4656
12694SOL    HW144044   7.124   2.200   3.484 -1.7472 -0.0385  0.1869
12694SOL    HW244045   7.095   2.129   3.353 -2.3980  1.6845 -0.6246
12695SOL     OW44046   0.620   8.848   6.227 -0.7331  0.3070  0.4848
12695SOL    HW144047   0.652   8.802   6.150  0.3294 -2.5099  2.4457
12695SOL    HW244048   0.540   8.801   6.253 -1.7360  1.9280  0.5153
12696SOL     OW44049   2.929   7.744   2.540  0.2486 -0.0825  0.0739
12696SOL    HW144050   2.966   7.794   2.468  1.3896 -0.2244  0.5490
12696SOL    HW244051   2.886   7.669   2.498  3.0261 -1.5383 -0.3706
12697SOL     OW44052   2.795   5.156   4.250  0.3384 -0.3101  0.2844
12697SOL    HW144053   2.811   5.240   4.293  1.6679 -0.4946  0.1833
12697SOL    HW244054   2.722   5.172   4.191  2.5482  1.6758 -2.1432
12698SOL     OW44055   4.320   4.015   8.051 -0.1544  0.4556  0.1976
12698SOL    HW144056   4.380   3.943   8.073  1.1296  1.6283  0.6704
12698SOL    HW244057   4.369   4.094   8.071 -0.9458  1.5278 -1.8194
12699SOL     OW44058   6.724   8.733   4.062  0.5769 -0.1535  0.2734
12699SOL    HW144059   6.757   8.734   4.152  0.4273  0.4227  0.3282
12699SOL    HW244060   6.635   8.769   4.068  0.2104 -0.9937  0.0220
12700SOL     OW44061   8.807   4.758   8.176  0.0312 -0.4858 -0.4055
12700SOL    HW144062   8.741   4.778   8.109  0.5336 -0.4063 -0.8814
12700SOL    HW244063   8.757   4.755   8.257 -0.3570  0.9884 -0.5485
12701SOL     OW44064   1.258   6.243   6.358 -0.2109 -0.4696  0.1198
12701SOL    HW144065   1.214   6.161   6.380  0.5253 -0.8799  0.1051
12701SOL    HW244066   1.240   6.301   6.432  2.2441 -1.8374  1.9497
12702SOL     OW44067   8.442   5.613   5.554 -0.1767  0.3033 -0.0775
12702SOL    HW144068   8.449   5.542   5.490 -1.6954  0.3527 -0.3279
12702SOL    HW244069   8.528   5.616   5.596 -0.1028 -1.7349 -0.0089
12703SOL     OW44070   3.215   8.316   1.421  0.7634 -0.1820 -0.3418
12703SOL    HW144071   3.145   8.318   1.487  0.4500  0.6943 -0.6901
12703SOL    HW244072   3.204   8.232   1.377 -0.4045  0.1489 -0.7347
12704SOL     OW44073   0.361   6.765   1.078  0.2476 -0.0240 -0.5496
12704SOL    HW144074   0.319   6.769   0.992  1.4771  1.0573 -1.1258
12704SOL    HW244075   0.414   6.844   1.082  0.7381 -0.4130  0.9401
12705SOL     OW44076   1.759   3.915   8.777 -0.5049 -0.3313 -0.8124
12705SOL    HW144077   1.707   3.849   8.732 -1.8445 -1.1345  1.6892
12705SOL    HW244078   1.837   3.868   8.807 -0.1356 -0.0723 -1.3566
12706SOL     OW44079   2.543   5.847   7.854  0.1010 -0.0492  0.5542
12706SOL    HW144080   2.529   5.785   7.783 -0.1521  0.0039  0.5573
12706SOL    HW244081   2.608   5.804   7.911  0.1785 -0.1630  0.3814
12707SOL     OW44082   4.347   2.277   4.497 -0.6650  0.0554  0.6371
12707SOL    HW144083   4.321   2.222   4.423  0.9724 -0.0537  0.0942
12707SOL    HW244084   4.373   2.214   4.565 -3.4351  0.1257  1.8610
12708SOL     OW44085   4.561   7.864   2.686 -0.3203  0.1368 -0.3135
12708SOL    HW144086   4.489   7.900   2.738  1.0842  1.1715  1.0148
12708SOL    HW244087   4.551   7.769   2.693 -1.9613  0.2253 -0.8093
12709SOL     OW44088   8.727   3.128   2.146  0.1274  0.1284 -0.4631
12709SOL    HW144089   8.653   3.173   2.105  0.3681  2.0642  1.0814
12709SOL    HW244090   8.804   3.162   2.100  0.4378  2.6961  1.7610
12710SOL     OW44091   2.766   4.381   4.255  0.2823  0.5007 -0.1728
12710SOL    HW144092   2.849   4.429   4.257  0.0532  0.8824  0.6688
12710SOL    HW244093   2.702   4.445   4.222  0.0036  0.7499  0.8151
12711SOL     OW44094   5.443   7.274   0.216 -0.0753  0.6381  0.2477
12711SOL    HW144095   5.443   7.352   0.160 -1.3976  1.3401  1.1930
12711SOL    HW244096   5.534   7.243   0.212  0.2156  1.5433 -1.0564
12712SOL     OW44097   2.490   8.557   7.043 -0.4831 -0.1340 -0.8118
12712SOL    HW144098   2.514   8.596   7.127 -0.8062  0.6987 -1.1033
12712SOL    HW244099   2.407   8.597   7.020 -0.6354 -0.7149 -1.3049
12713SOL     OW44100   2.435   4.321   2.414 -0.3732  0.2187 -0.7230
12713SOL    HW144101   2.378   4.344   2.341 -0.3590 -1.0094 -1.1407
12713SOL    HW244102   2.508   4.274   2.373  1.3509  2.3449 -0.2952
12714SOL     OW44103   5.554   5.404   9.361  0.0843  0.2183  0.8041
12714SOL    HW144104   5.472   5.370   9.395  0.3947 -2.1170 -0.5649
12714SOL    HW244105   5.531   5.445   9.278  0.3025 -0.6349  0.3107
12715SOL     OW44106   2.737   4.786   2.756 -0.0439  0.1482  0.4468
12715SOL    HW144107   2.684   4.814   2.681 -1.2545  1.4366  1.7128
12715SOL    HW244108   2.820   4.832   2.745 -1.1214  2.4303  1.1599
12716SOL     OW44109   4.670   4.161   6.859  0.0096 -0.2919 -0.3843
12716SOL    HW144110   4.652   4.254   6.844 -0.0634 -0.7086 -3.4093
12716SOL    HW244111   4.764   4.158   6.881  0.7748  0.3374 -3.1822
12717SOL     OW44112   6.855   5.985   0.659 -0.5018  0.1847  0.1618
12717SOL    HW144113   6.798   5.992   0.582 -2.4538 -1.3620  1.3611
12717SOL    HW244114   6.867   5.891   0.672  1.2197  0.4546  0.7925
12718SOL     OW44115   6.341   0.102   6.730 -0.3313  0.0831 -0.8695
12718SOL    HW144116   6.317   0.020   6.773 -2.2916  0.0438 -1.9432
12718SOL    HW244117   6.435   0.093   6.713 -0.2334 -1.3608  0.2091
12719SOL     OW44118   8.796   3.767   7.026 -0.1314  0.1047 -0.1145
12719SOL    HW144119   8.808   3.862   7.029 -0.9048  0.1953  0.2801
12719SOL    HW244120   8.763   3.744   7.112  0.8850 -0.6608  0.0952
12720SOL     OW44121   4.778   1.699   8.688 -0.0544  0.0513  0.6788
12720SOL    HW144122   4.705   1.759   8.703 -0.5172  0.3649 -2.2009
12720SOL    HW244123   4.850   1.757   8.662  0.6766 -0.3952  1.6707
12721SOL     OW44124   2.638   5.973   5.855 -0.2080  0.4289  0.3941
12721SOL    HW144125   2.626   5.962   5.761 -0.3032 -0.3015  0.4853
12721SOL    HW244126   2.712   6.033   5.863 -0.2179  0.5196 -0.1417
12722SOL     OW44127   7.759   7.453   3.095  0.1153  0.1399 -0.0537
12722SOL    HW144128   7.816   7.457   3.171 -0.2373 -3.3214  0.5639
12722SOL    HW244129   7.677   7.493   3.123  1.2294  2.6913 -0.0945
12723SOL     OW44130   6.360   7.877   8.459 -0.4261  0.2295 -0.0540
12723SOL    HW144131   6.440   7.905   8.503  0.7305 -0.4018 -1.6449
12723SOL    HW244132   6.297   7.946   8.477  0.6849  1.0871  0.6795
12724SOL     OW44133   0.034   1.908   5.451 -0.0484  0.2935 -0.2238
12724SOL    HW144134   0.099   1.859   5.503 -0.2914 -0.6045 -0.7481
12724SOL    HW244135  -0.050   1.873   5.480 -0.2562  0.8285 -0.1831
12725SOL     OW44136   2.574   2.349   5.661 -0.2943  0.0273  0.7656
12725SOL    HW144137   2.640   2.403   5.706 -0.5004  0.8133  0.1541
12725SOL    HW244138   2.490   2.388   5.687 -0.4873 -0.5399  0.9938
12726SOL     OW44139   0.720   2.491   7.449 -0.3480  0.0667  0.2727
12726SOL    HW144140   0.708   2.448   7.364  0.9725 -2.4317  1.2583
12726SOL    HW244141   0.764   2.574   7.428 -0.2154 -0.4123 -1.4744
12727SOL     OW44142   3.513   0.602   1.548  0.3500 -0.1412  1.2011
12727SOL    HW144143   3.500   0.687   1.505 -0.4786 -0.4341  0.8507
12727SOL    HW244144   3.608   0.593   1.555  0.5872 -0.4643 -1.3829
12728SOL     OW44145   3.986   4.069   1.918 -0.3021  0.0335 -0.0108
12728SOL    HW144146   3.893   4.070   1.943 -0.9343 -0.8456 -2.1479
12728SOL    HW244147   4.026   4.006   1.978 -1.2480 -0.2062  0.3988
12729SOL     OW44148   6.430   3.823   5.227 -0.4285  0.1188 -0.1340
12729SOL    HW144149   6.336   3.803   5.222 -0.6123  0.6908  0.7613
12729SOL    HW244150   6.444   3.888   5.159 -0.8441  0.5744  0.2042
12730SOL     OW44151   4.193   8.241   4.361  0.3892 -0.0468  0.6930
12730SOL    HW144152   4.178   8.250   4.455  0.0839 -2.5218  0.9531
12730SOL    HW244153   4.177   8.148   4.343  0.4969  0.3500 -1.8034
12731SOL     OW44154   3.110   4.165   4.304  0.1972  0.1106  0.4988
12731SOL    HW144155   3.094   4.101   4.373 -0.5229  0.1422  0.3742
12731SOL    HW244156   3.023   4.183   4.268  0.3438  1.3889  0.7387
12732SOL     OW44157   6.138   7.781   2.216  0.3839  0.8579 -0.5637
12732SOL    HW144158   6.147   7.828   2.299 -0.8963  2.4265 -1.2678
12732SOL    HW244159   6.118   7.849   2.152 -0.9792 -0.5823 -1.7298
12733SOL     OW44160   4.768   2.760   0.049  0.2742  0.5508 -0.2384
12733SOL    HW144161   4.676   2.787   0.044  0.5430  1.3091 -1.6785
12733SOL    HW244162   4.766   2.679   0.099 -1.1080  0.8688  0.2814
12734SOL     OW44163   1.122   4.673   8.949  0.5147  0.1382 -0.1032
12734SOL    HW144164   1.155   4.747   9.002  1.6157 -0.2233 -0.2462
12734SOL    HW244165   1.167   4.682   8.865 -0.8788  0.4430 -0.8436
12735SOL     OW44166   4.993   8.773   0.564 -0.0990  0.0335 -0.6924
12735SOL    HW144167   4.931   8.846   0.557 -0.2339 -0.1716 -1.7388
12735SOL    HW244168   5.079   8.814   0.554 -0.1415  0.1195 -0.7080
12736SOL     OW44169   3.255   3.054   6.692  0.4212  0.0652 -0.1185
12736SOL    HW144170   3.164   3.071   6.717 -0.6508 -1.1279 -2.7665
12736SOL    HW244171   3.298   3.028   6.773 -1.7467  0.0468  1.1127
12737SOL     OW44172   5.607   8.325   2.147 -0.1417  0.0871 -0.5463
12737SOL    HW144173   5.545   8.264   2.107 -1.9510  1.4135  0.1166
12737SOL    HW244174   5.689   8.311   2.099 -0.6591 -2.3954 -0.8113
12738SOL     OW44175   5.409   3.500   8.903 -0.5815 -0.2687  0.5378
12738SOL    HW144176   5.426   3.580   8.853  0.9441 -1.1140 -0.3762
12738SOL    HW244177   5.431   3.523   8.993  0.7620  0.1043  0.1365
12739SOL     OW44178   7.980   0.623   0.633  0.0947  0.3698 -0.4973
12739SOL    HW144179   8.030   0.644   0.712  0.5333  1.5783 -1.0787
12739SOL    HW244180   7.935   0.541   0.655  0.3027  0.6085  0.9550
12740SOL     OW44181   1.848   3.357   4.913  0.2327 -0.4033 -0.3028
12740SOL    HW144182   1.856   3.450   4.934 -0.6641 -0.3200 -0.2846
12740SOL    HW244183   1.777   3.353   4.848  0.8625 -0.9863 -0.9639
12741SOL     OW44184   6.368   1.658   8.700  0.1939 -1.0532 -0.0582
12741SOL    HW144185   6.384   1.703   8.617  1.6361  1.2300  1.3491
12741SOL    HW244186   6.301   1.593   8.680 -0.0564 -0.0426 -2.8263
12742SOL     OW44187   6.149   6.072   3.038 -0.2684  0.2114  0.2885
12742SOL    HW144188   6.062   6.065   2.998 -0.7782  1.7416  1.0610
12742SOL    HW244189   6.161   5.988   3.082 -0.8304 -0.4792 -0.8301
12743SOL     OW44190   6.757   8.364   7.510 -0.2701 -0.0416 -0.3227
12743SOL    HW144191   6.778   8.442   7.560  1.4725 -0.4280 -0.3790
12743SOL    HW244192   6.663   8.353   7.521 -0.6499  2.3144 -0.7083
12744SOL     OW44193   3.175   5.114   2.162 -0.2966  0.4532 -0.1989
12744SOL    HW144194   3.234   5.184   2.135 -0.9644  1.0866 -0.0585
12744SOL    HW244195   3.198   5.040   2.106  0.3068  0.8337 -0.4646
12745SOL     OW44196   7.598   6.571   0.669  0.4596  0.5155 -0.0930
12745SOL    HW144197   7.687   6.541   0.649  0.1008 -0.4231 -0.3491
12745SOL    HW244198   7.546   6.490   0.672 -0.6552  1.1426 -1.3112
12746SOL     OW44199   6.599   1.944   9.337 -0.3895 -0.4551 -0.0455
12746SOL    HW144200   6.521   1.891   9.319  0.5213 -2.1655  0.7821
12746SOL    HW244201   6.599   1.955   9.432 -0.2236  0.5288 -0.1528
12747SOL     OW44202   6.372   3.483   5.078 -0.5321  0.8188  0.2474
12747SOL    HW144203   6.393   3.518   5.165 -0.7230  0.5795  0.3887
12747SOL    HW244204   6.348   3.392   5.094  2.3708 -0.1597 -0.3926
12748SOL     OW44205   4.520   6.051   2.620 -0.6019 -0.0515 -0.1704
12748SOL    HW144206   4.586   6.119   2.632 -0.5029 -0.2155  0.2379
12748SOL    HW244207   4.570   5.975   2.587 -0.1445 -0.9635  2.3998
12749SOL     OW44208   6.718   3.752   0.745 -0.0906  0.3097 -1.1115
12749SOL    HW144209   6.805   3.713   0.749 -0.6076 -0.7825  1.6251
12749SOL    HW244210   6.727   3.834   0.793 -0.5611  0.1487 -0.7408
12750SOL     OW44211   4.832   7.956   6.716 -0.1245 -0.5129  0.0761
12750SOL    HW144212   4.748   7.978   6.677 -0.6245 -0.2209  1.2618
12750SOL    HW244213   4.865   7.883   6.664 -1.3583 -0.9738 -0.0847
12751SOL     OW44214   3.698   1.783   4.259 -0.1656  0.5934  0.4406
12751SOL    HW144215   3.686   1.810   4.168  0.1062 -1.2526 -0.1885
12751SOL    HW244216   3.793   1.788   4.273  0.3678 -3.1707 -0.8293
12752SOL     OW44217   2.898   8.786   8.372 -0.6642 -0.2739 -0.1176
12752SOL    HW144218   2.811   8.761   8.402 -0.9523 -0.6821 -1.2556
12752SOL    HW244219   2.947   8.703   8.370 -1.1777 -0.5879 -2.4367
12753SOL     OW44220   4.777   5.629   8.212 -0.2316 -0.2401  0.0880
12753SOL    HW144221   4.763   5.604   8.303  0.7874  1.2646  0.6910
12753SOL    HW244222   4.805   5.721   8.216 -2.8509  0.7679 -1.9338
12754SOL     OW44223   0.047   6.666   2.868  0.6203  0.5427 -0.1452
12754SOL    HW144224   0.115   6.664   2.935  0.8785 -0.7814 -0.4208
12754SOL    HW244225   0.061   6.587   2.817  0.7115  1.7342 -2.0583
12755SOL     OW44226   4.634   3.094   0.020  0.0081 -0.0344 -0.0535
12755SOL    HW144227   4.623   3.182   0.055 -0.0323  0.3491 -0.9990
12755SOL    HW244228   4.707   3.102  -0.042 -0.8205 -0.3781 -1.0942
12756SOL     OW44229   3.805   1.317   0.650 -0.4007  0.1144  0.3331
12756SOL    HW144230   3.885   1.320   0.702 -0.4537 -0.7493  0.4783
12756SOL    HW244231   3.814   1.389   0.588  1.0014 -0.6371 -0.3843
12757SOL     OW44232   6.531   2.906   5.167 -0.4644 -0.2779 -0.6041
12757SOL    HW144233   6.479   2.893   5.087 -1.6948 -0.6534  0.2278
12757SOL    HW244234   6.500   2.838   5.227 -0.1098  0.4748  0.4582
12758SOL     OW44235   8.708   1.669   5.638  0.4881  0.1190 -0.0562
12758SOL    HW144236   8.656   1.632   5.709 -0.3067 -1.1616 -1.2461
12758SOL    HW244237   8.763   1.596   5.608  0.1964  0.3773 -1.2961
12759SOL     OW44238   3.913   5.957   8.804  0.0831 -0.0024  0.0061
12759SOL    HW144239   3.971   5.884   8.782 -0.7334 -0.3083 -1.2315
12759SOL    HW244240   3.958   6.002   8.875  0.9974 -1.2340  0.2548
12760SOL     OW44241   0.696   9.303   6.251  0.1427 -0.3947  0.1698
12760SOL    HW144242   0.704   9.376   6.312 -0.0601 -0.2358  0.0058
12760SOL    HW244243   0.674   9.343   6.167 -1.7976 -0.7490  0.4583
12761SOL     OW44244   1.579   2.054   3.365 -0.2143  0.6274 -0.5955
12761SOL    HW144245   1.577   2.141   3.324 -1.9547  0.0344 -1.9196
12761SOL    HW244246   1.509   2.006   3.321  0.3108 -1.2682  0.5377
12762SOL     OW44247   2.762   3.603   2.892  0.4141  0.1087 -0.0301
12762SOL    HW144248   2.669   3.615   2.874 -0.5278 -0.2268  3.6753
12762SOL    HW244249   2.771   3.510   2.911  1.7056  0.0040 -0.9968
12763SOL     OW44250   1.320   6.862   9.073 -0.3913 -0.2135  0.2300
12763SOL    HW144251   1.342   6.949   9.106  1.1479 -0.2445 -0.6419
12763SOL    HW244252   1.298   6.811   9.151 -2.3302  1.1901  0.6698
12764SOL     OW44253   3.574   4.461   3.364  0.4608 -0.1736  0.1551
12764SOL    HW144254   3.643   4.425   3.309  0.0611 -0.8788  0.1040
12764SOL    HW244255   3.602   4.442   3.454  0.3156 -0.4900  0.1330
12765SOL     OW44256   1.474   3.853   2.076 -0.1977 -0.2782 -0.0470
12765SOL    HW144257   1.455   3.898   2.159 -1.6247  0.3654 -0.6977
12765SOL    HW244258   1.516   3.920   2.022 -0.7390 -0.2241 -0.4049
12766SOL     OW44259   3.536   3.889   9.062  0.0022  0.0513 -0.5115
12766SOL    HW144260   3.599   3.836   9.012  0.5050  0.2664 -0.1112
12766SOL    HW244261   3.564   3.979   9.047  0.2536  0.1070  0.3044
12767SOL     OW44262   3.779   4.289   0.076  0.6606  0.1407  0.3045
12767SOL    HW144263   3.825   4.310  -0.006 -1.5008  1.9893 -0.5214
12767SOL    HW244264   3.802   4.198   0.093  2.1462  0.0695 -1.6801
12768SOL     OW44265   7.796   3.768   2.978 -0.1747  0.0029 -0.3238
12768SOL    HW144266   7.808   3.733   3.066 -3.1560  0.8387  0.5246
12768SOL    HW244267   7.794   3.863   2.990 -3.5991  0.0932 -0.6964
12769SOL     OW44268   2.661   1.447   8.545 -0.4252  0.3742  0.3626
12769SOL    HW144269   2.705   1.362   8.533  1.2690  1.3448 -0.8040
12769SOL    HW244270   2.575   1.425   8.582  0.2995 -1.7684  0.9094
12770SOL     OW44271   2.292   8.509   6.138  0.1212 -0.2206 -0.1791
12770SOL    HW144272   2.314   8.481   6.049 -0.3698 -0.1740 -0.3184
12770SOL    HW244273   2.316   8.435   6.194 -1.4562 -1.0646 -0.5703
12771SOL     OW44274   2.426   4.028   6.045  0.3362 -0.4258  0.0606
12771SOL    HW144275   2.450   4.081   5.969 -0.0914  0.3193  0.4371
12771SOL    HW244276   2.493   3.960   6.049  0.3194 -0.5139 -1.0225
12772SOL     OW44277   0.805   6.121   5.184 -0.2059 -0.0557 -0.2405
12772SOL    HW144278   0.888   6.161   5.160  1.0939 -2.2636  0.3720
12772SOL    HW244279   0.827   6.056   5.251 -2.6898  0.6412  1.4213
12773SOL     OW44280   2.241   1.037   5.951  0.1276 -0.3391 -0.1699
12773SOL    HW144281   2.273   0.976   6.017 -2.0312 -0.4974  0.7969
12773SOL    HW244282   2.202   0.981   5.884 -0.5952 -0.0983  0.0360
12774SOL     OW44283   6.498   6.718   3.186 -0.6937 -0.0966  0.1866
12774SOL    HW144284   6.459   6.639   3.149 -0.9463 -0.2432  0.7548
12774SOL    HW244285   6.486   6.785   3.118 -1.2362 -0.3343  0.0471
12775SOL     OW44286   8.568   1.562   3.318 -0.3686  0.2367 -0.1597
12775SOL    HW144287   8.528   1.597   3.397  1.7632 -1.9867  2.0800
12775SOL    HW244288   8.523   1.479   3.302 -0.4764  0.4523 -1.0506
12776SOL     OW44289   0.885   4.069   9.234  0.7398  0.1107 -0.0420
12776SOL    HW144290   0.806   4.105   9.193  0.8141  0.1828 -0.1206
12776SOL    HW244291   0.866   4.073   9.328 -0.1026 -1.5643 -0.1019
12777SOL     OW44292   1.546   3.713   5.678 -0.4472 -0.0847  0.4088
12777SOL    HW144293   1.617   3.770   5.649 -2.0578  1.4980 -0.5968
12777SOL    HW244294   1.543   3.643   5.612 -1.0375  0.9235 -0.6764
12778SOL     OW44295   1.203   3.728   8.775  0.4418  0.1193  0.4060
12778SOL    HW144296   1.273   3.726   8.840  0.2697  1.1981  0.6481
12778SOL    HW244297   1.163   3.641   8.779  0.8479 -0.0350  1.2856
12779SOL     OW44298   7.938   2.729   5.756  0.7220  0.3095  0.5678
12779SOL    HW144299   7.894   2.782   5.690  1.5179  0.1830 -0.0779
12779SOL    HW244300   7.908   2.766   5.840 -0.9888 -0.1027  0.1772
12780SOL     OW44301   7.222   3.470   2.676 -0.9241  0.6420  0.3364
12780SOL    HW144302   7.276   3.432   2.746 -0.3685 -0.8386 -0.8464
12780SOL    HW244303   7.139   3.490   2.719 -0.6345 -0.3362  1.4087
12781SOL     OW44304   0.135   1.409   4.168  0.1416 -0.0263 -0.1641
12781SOL    HW144305   0.136   1.409   4.072  0.1375  0.4156 -0.1683
12781SOL    HW244306   0.116   1.500   4.191  0.2998 -0.0981  0.2567
12782SOL     OW44307   0.064   1.928   3.927  0.3011  0.2512  0.3722
12782SOL    HW144308  -0.029   1.933   3.903  0.6992  0.2468 -1.2875
12782SOL    HW244309   0.095   1.846   3.889  0.4929 -0.9391  2.9015
12783SOL     OW44310   5.541   6.557   3.662  0.0610  0.3231  0.0776
12783SOL    HW144311   5.543   6.462   3.670  0.3659  0.2977 -0.3412
12783SOL    HW244312   5.447   6.578   3.661 -0.0259 -0.0718 -1.0663
12784SOL     OW44313   4.786   6.495   7.419 -0.0712  0.2304 -0.1365
12784SOL    HW144314   4.772   6.430   7.351  0.3498  1.6579 -1.6572
12784SOL    HW244315   4.715   6.480   7.482 -0.5553 -1.0390 -0.9609
12785SOL     OW44316   8.225   7.400   2.359 -0.1737 -0.5512  0.1644
12785SOL    HW144317   8.263   7.331   2.414 -0.1776 -1.7901 -1.3207
12785SOL    HW244318   8.132   7.397   2.378 -0.3573 -1.8498 -0.7844
12786SOL     OW44319   9.299   4.414   2.472 -0.1971 -0.0779 -0.4093
12786SOL    HW144320   9.287   4.353   2.400 -0.7654 -0.1831 -0.2304
12786SOL    HW244321   9.368   4.473   2.443 -0.4507 -0.0928 -1.0567
12787SOL     OW44322   6.510   1.716   7.737 -0.5593 -0.0823  1.2201
12787SOL    HW144323   6.502   1.679   7.649 -0.1023 -0.6867  1.4234
12787SOL    HW244324   6.431   1.687   7.782 -1.0856  0.7290  0.8409
12788SOL     OW44325   0.185   0.811   3.103 -0.6583 -0.0205 -0.1116
12788SOL    HW144326   0.225   0.847   3.182  0.6137 -0.3865 -0.5593
12788SOL    HW244327   0.092   0.829   3.113 -0.4562  0.4224  1.2128
12789SOL     OW44328   0.788   1.860   2.311 -0.3330 -0.5533 -0.5006
12789SOL    HW144329   0.854   1.902   2.366  0.5001 -1.6677 -0.6168
12789SOL    HW244330   0.833   1.786   2.271 -0.5799  0.8430 -3.6130
12790SOL     OW44331   6.029   1.928   8.043  0.2841  0.1684  0.4041
12790SOL    HW144332   6.085   1.958   8.115 -0.3752  0.2681  0.8834
12790SOL    HW244333   5.998   1.842   8.072  1.7838 -0.8156 -0.7475
12791SOL     OW44334   5.061   9.346   3.581  0.3264  0.2790 -0.4239
12791SOL    HW144335   5.109   9.263   3.585  0.3708  0.2541 -1.3173
12791SOL    HW244336   4.969   9.319   3.568  0.3872  0.3701 -1.0686
12792SOL     OW44337   5.316   3.542   3.359  0.0474  0.2020  0.6473
12792SOL    HW144338   5.278   3.465   3.401 -1.8858  1.3584  1.1705
12792SOL    HW244339   5.356   3.591   3.430  0.6063  0.0582  0.4356
12793SOL     OW44340   7.716   1.797   0.601  0.6175 -0.4043 -0.4866
12793SOL    HW144341   7.796   1.774   0.647 -0.8249  0.2609  2.5864
12793SOL    HW244342   7.712   1.892   0.605 -1.0883 -0.4846  0.9489
12794SOL     OW44343   0.235   7.577   8.594 -0.2455 -0.2843  0.1826
12794SOL    HW144344   0.203   7.526   8.669 -0.8750  1.0759  0.8877
12794SOL    HW244345   0.300   7.636   8.632  0.0504 -0.1619 -0.5062
12795SOL     OW44346   7.012   4.305   0.605 -0.4019 -0.1530 -0.0304
12795SOL    HW144347   7.022   4.320   0.511 -0.0923  0.3387  0.0822
12795SOL    HW244348   7.064   4.227   0.622 -1.6418 -1.1278 -0.5296
12796SOL     OW44349   9.125   8.984   7.179  0.0754 -0.5547 -0.2323
12796SOL    HW144350   9.187   8.928   7.226  1.1029  0.1202 -0.7501
12796SOL    HW244351   9.149   8.975   7.087 -0.3552 -0.0072 -0.4047
12797SOL     OW44352   5.593   0.118   5.506 -0.2219 -0.1163  0.2260
12797SOL    HW144353   5.622   0.177   5.575  0.8577 -0.4507  0.0841
12797SOL    HW244354   5.674   0.075   5.476 -0.8666 -1.0389 -0.2435
12798SOL     OW44355   5.559   7.943   9.211  0.7266  0.6369 -0.0915
12798SOL    HW144356   5.553   7.959   9.117 -1.0226  1.0045  0.0510
12798SOL    HW244357   5.469   7.949   9.242  1.4069  1.7656  1.8094
12799SOL     OW44358   0.772   5.983   0.457  0.3636 -0.2569 -0.2471
12799SOL    HW144359   0.819   5.948   0.533  0.8254  0.7252 -0.0674
12799SOL    HW244360   0.707   5.916   0.437  0.5653 -0.7604  0.7021
12800SOL     OW44361   2.145   5.882   6.271 -0.2285  0.5355 -0.3266
12800SOL    HW144362   2.209   5.836   6.216 -1.1339 -2.3001  0.7745
12800SOL    HW244363   2.194   5.903   6.351 -0.5427 -1.5960  0.5001
12801SOL     OW44364   0.885   7.515   4.522 -0.5238  0.0130  1.2422
12801SOL    HW144365   0.804   7.508   4.471 -0.4055  0.2617  1.0116
12801SOL    HW244366   0.877   7.450   4.591 -1.3358  0.6797  1.7924
12802SOL     OW44367   5.738   9.158   2.659 -0.4128  0.5552  0.2674
12802SOL    HW144368   5.799   9.088   2.683  1.7486  2.4861  0.7222
12802SOL    HW244369   5.749   9.167   2.564 -0.1423  0.7440  0.3146
12803SOL     OW44370   7.596   2.252   6.783 -0.3797 -0.2382  0.1169
12803SOL    HW144371   7.552   2.299   6.853  1.0686 -0.8376  1.4831
12803SOL    HW244372   7.677   2.301   6.767 -1.1696  0.5335 -1.9704
12804SOL     OW44373   1.237   3.222   3.280 -0.5103  0.2665 -0.1884
12804SOL    HW144374   1.291   3.267   3.215  0.1114 -1.2738 -0.7942
12804SOL    HW244375   1.196   3.151   3.231 -0.0508 -0.9099  1.0810
12805SOL     OW44376   1.375   4.115   6.872  0.1073 -0.6737  0.3462
12805SOL    HW144377   1.442   4.047   6.873  0.6673 -0.1428 -0.0739
12805SOL    HW244378   1.349   4.126   6.964  1.5694  0.0518  0.7023
12806SOL     OW44379   2.917   4.447   8.692 -0.3702  0.5588 -0.0331
12806SOL    HW144380   2.968   4.470   8.614 -0.2594  0.6679  0.0718
12806SOL    HW244381   2.900   4.353   8.682 -0.6028  0.6345 -0.3314
12807SOL     OW44382   1.138   7.324   8.699 -0.3566  0.7106  0.1840
12807SOL    HW144383   1.073   7.390   8.674  1.2645  1.6627 -1.7989
12807SOL    HW244384   1.195   7.369   8.761 -1.2160  0.0363  1.5177
12808SOL     OW44385   1.803   8.611   0.429  0.3846 -0.4413  0.2123
12808SOL    HW144386   1.711   8.584   0.426  0.1138  0.1307  2.1799
12808SOL    HW244387   1.800   8.703   0.454  1.4966 -0.4605  0.4673
12809SOL     OW44388   7.480   8.072   2.581  0.2054  0.0766  0.1411
12809SOL    HW144389   7.442   8.039   2.499  0.8298  0.7145 -0.4117
12809SOL    HW244390   7.560   8.117   2.554 -0.5664  1.9719  0.8837
12810SOL     OW44391   5.871   9.167   8.394  0.0151 -0.2647 -0.2386
12810SOL    HW144392   5.894   9.235   8.331 -1.0793  0.2399 -0.1177
12810SOL    HW244393   5.955   9.126   8.417  0.7828  1.4770  0.2005
12811SOL     OW44394   7.072   1.581   1.037  0.4066  0.2917  0.0707
12811SOL    HW144395   7.027   1.639   0.976 -0.9259 -0.6071  0.1444
12811SOL    HW244396   7.042   1.609   1.123  0.7658  0.3191  0.1872
12812SOL     OW44397   6.227   0.308   3.095 -0.0082 -0.7594  0.1702
12812SOL    HW144398   6.168   0.264   3.156 -0.5229 -1.6651 -0.9477
12812SOL    HW244399   6.314   0.291   3.129 -0.3226  1.5953  2.5339
12813SOL     OW44400   0.455   6.526   1.637 -0.0542  0.1728  0.1714
12813SOL    HW144401   0.457   6.607   1.689 -0.2213  1.2097 -1.3740
12813SOL    HW244402   0.402   6.548   1.561  2.1566 -0.5165 -1.6762
12814SOL     OW44403   7.345   1.300   2.752  0.2206 -0.1111 -0.1427
12814SOL    HW144404   7.349   1.230   2.818  2.1084 -0.6226 -0.7172
12814SOL    HW244405   7.390   1.263   2.676  0.3430  1.3761 -0.8274
12815SOL     OW44406   3.013   6.365   8.639  0.1227  0.2987  0.0517
12815SOL    HW144407   2.989   6.439   8.583  2.2392  2.6007  1.9557
12815SOL    HW244408   2.930   6.335   8.675 -0.8797  1.2061 -1.3616
12816SOL     OW44409   9.056   0.613   7.062  0.6490 -0.0612  0.1530
12816SOL    HW144410   9.091   0.622   7.150 -0.7222  1.3460  0.6036
12816SOL    HW244411   9.130   0.633   7.004  1.1367  0.6923  1.0192
12817SOL     OW44412   3.524   1.113   1.868  0.0991 -0.2290  0.1569
12817SOL    HW144413   3.535   1.200   1.829 -2.3902  0.4430  0.7749
12817SOL    HW244414   3.437   1.115   1.908  0.0378 -2.9604  0.3739
12818SOL     OW44415   2.760   0.125   5.724 -0.6662  0.5787 -0.0981
12818SOL    HW144416   2.796   0.127   5.635 -1.9234 -1.0461 -0.6961
12818SOL    HW244417   2.837   0.117   5.781  0.0696 -0.2846 -1.1711
12819SOL     OW44418   7.242   4.042   7.629 -0.4151  0.4012  0.1242
12819SOL    HW144419   7.208   3.989   7.700  0.2918  0.3333  0.4187
12819SOL    HW244420   7.245   4.131   7.664  0.5398  0.2670  0.4100
12820SOL     OW44421   1.801   2.367   0.307 -0.2478  0.4122 -0.1018
12820SOL    HW144422   1.798   2.335   0.217 -0.5667 -2.1916  0.7509
12820SOL    HW244423   1.742   2.442   0.308 -1.4130 -0.4319 -1.7420
12821SOL     OW44424   8.810   6.171   6.924 -0.3385 -0.4025 -0.4669
12821SOL    HW144425   8.792   6.175   6.830 -1.2776  0.9623 -0.2501
12821SOL    HW244426   8.729   6.201   6.966  0.9076  1.5856  0.6809
12822SOL     OW44427   7.023   0.624   4.688  0.1423  0.2312 -0.4315
12822SOL    HW144428   7.026   0.621   4.592  3.1030 -0.4014 -0.4037
12822SOL    HW244429   7.042   0.715   4.709 -2.7372  0.9063 -0.3843
12823SOL     OW44430   0.787   2.641   3.791 -0.1953  0.2003 -0.0356
12823SOL    HW144431   0.858   2.652   3.727  0.0275 -0.4715  0.0850
12823SOL    HW244432   0.764   2.549   3.785 -1.4125  0.5149 -0.4234
12824SOL     OW44433   7.585   6.699   7.249  0.2237 -0.6223  0.1953
12824SOL    HW144434   7.660   6.673   7.302  0.9992  0.0392 -0.5256
12824SOL    HW244435   7.576   6.793   7.264  0.7168 -0.3365 -1.1129
12825SOL     OW44436   8.193   1.879   6.259 -0.2046  0.3567 -0.7114
12825SOL    HW144437   8.254   1.951   6.277 -0.0930 -0.1156  0.9983
12825SOL    HW244438   8.120   1.894   6.319 -0.9779 -0.0575 -1.5199
12826SOL     OW44439   1.106   7.502   1.958 -0.1509  0.2111 -0.3091
12826SOL    HW144440   1.052   7.509   2.037 -0.6476 -1.7139 -0.4226
12826SOL    HW244441   1.173   7.569   1.968 -0.3755  0.1850  1.6137
12827SOL     OW44442   3.180   3.679   3.115 -0.5435  0.0312 -0.3801
12827SOL    HW144443   3.097   3.657   3.157 -0.1799  1.9423  1.5451
12827SOL    HW244444   3.197   3.606   3.056 -2.4055 -1.5681  0.9150
12828SOL     OW44445   8.611   4.098   6.457 -0.5815  0.2102  0.0801
12828SOL    HW144446   8.559   4.017   6.464  0.4422 -0.5632 -0.9560
12828SOL    HW244447   8.621   4.112   6.363  0.7521  0.5486  0.2566
12829SOL     OW44448   9.364   5.292   8.491  0.6692  0.3208  0.0794
12829SOL    HW144449   9.429   5.359   8.513  0.7361  0.7555 -1.3527
12829SOL    HW244450   9.342   5.309   8.399 -2.0602  0.6778  0.7179
12830SOL     OW44451   9.095   6.682   5.194  0.2875  0.2369  0.0722
12830SOL    HW144452   9.056   6.737   5.125  2.5937  0.2275 -1.3583
12830SOL    HW244453   9.036   6.691   5.268 -0.3915  3.2576 -0.6948
12831SOL     OW44454   6.382   6.573   6.399 -0.2614 -0.4386  0.1843
12831SOL    HW144455   6.442   6.558   6.325 -0.8194 -0.0072 -0.3663
12831SOL    HW244456   6.364   6.485   6.433  0.9371 -0.5476  0.5645
12832SOL     OW44457   1.702   5.331   9.371 -0.3305 -0.3828  0.4730
12832SOL    HW144458   1.773   5.324   9.307 -0.4230 -2.3704  0.5150
12832SOL    HW244459   1.629   5.370   9.322 -0.1741 -1.2203 -0.4598
12833SOL     OW44460   6.826   6.738   8.879  1.0223 -0.3488 -0.1373
12833SOL    HW144461   6.731   6.743   8.866  0.8807 -1.9813 -0.0141
12833SOL    HW244462   6.836   6.686   8.958  2.0251  0.5815  0.3630
12834SOL     OW44463   4.617   5.944   7.604 -0.1549  0.1236  0.4447
12834SOL    HW144464   4.553   5.873   7.599 -0.1768  0.1267  0.6597
12834SOL    HW244465   4.702   5.900   7.594 -0.0539 -0.1673  2.1477
12835SOL     OW44466   7.052   2.655   5.697 -0.2439  0.2995  0.4411
12835SOL    HW144467   7.113   2.726   5.720 -1.3002  2.1251 -1.9284
12835SOL    HW244468   7.015   2.682   5.613 -0.4325 -3.3208 -0.8005
12836SOL     OW44469   0.699   2.755   2.537 -0.1751 -0.3272  0.3593
12836SOL    HW144470   0.679   2.810   2.461  0.7491  0.6381  0.7931
12836SOL    HW244471   0.633   2.778   2.601 -1.7706 -2.0809 -0.5456
12837SOL     OW44472   2.025   5.177   0.318  0.6803  0.4631 -0.4205
12837SOL    HW144473   1.942   5.178   0.271 -0.2372  1.6613  1.1035
12837SOL    HW244474   2.054   5.268   0.318  1.4506  0.2266 -0.0268
12838SOL     OW44475   7.595   0.934   3.222 -0.0377  0.2606 -0.2024
12838SOL    HW144476   7.540   1.007   3.196 -1.8858  0.0330  2.5971
12838SOL    HW244477   7.543   0.856   3.200 -0.0319 -0.0245  0.7492
12839SOL     OW44478   7.113   1.204   6.417 -0.5955  0.1538  0.1152
12839SOL    HW144479   7.031   1.175   6.458 -1.3488  0.7026 -0.9756
12839SOL    HW244480   7.169   1.228   6.491 -0.6391 -2.1744  1.0007
12840SOL     OW44481   7.269   1.490   2.419 -0.2192  0.1125  0.0527
12840SOL    HW144482   7.277   1.549   2.344 -0.9228 -0.2268 -0.3009
12840SOL    HW244483   7.212   1.536   2.480  0.1667  0.2888  0.2860
12841SOL     OW44484   4.643   9.057   2.756 -0.1666 -0.1498 -0.3882
12841SOL    HW144485   4.672   9.008   2.679  0.9856  0.4834 -0.3968
12841SOL    HW244486   4.613   9.141   2.720  2.4002  1.0275 -0.0728
12842SOL     OW44487   0.325   9.135   4.820 -0.3875  0.4416 -0.5840
12842SOL    HW144488   0.409   9.096   4.795 -0.0826 -0.1673  1.2784
12842SOL    HW244489   0.347   9.222   4.853 -0.7152  0.9635 -1.6714
12843SOL     OW44490   5.669   4.600   8.660  0.7745 -0.9373  0.1747
12843SOL    HW144491   5.615   4.673   8.689  0.0703 -1.6408  0.6748
12843SOL    HW244492   5.746   4.641   8.620 -0.0700  0.0817 -0.4544
12844SOL     OW44493   8.027   6.071   8.863  0.3238 -0.2413 -0.4720
12844SOL    HW144494   8.098   6.107   8.809  0.4643 -1.6316 -1.2555
12844SOL    HW244495   8.017   5.981   8.833 -1.9160 -0.0309 -0.5036
12845SOL     OW44496   4.254   7.438   1.616  0.0273  0.0433 -0.1888
12845SOL    HW144497   4.193   7.433   1.690 -0.5988 -1.0014 -0.7499
12845SOL    HW244498   4.229   7.365   1.560  0.1024  1.1549 -1.7261
12846SOL     OW44499   5.171   4.747   2.650 -0.4656  0.2000 -0.6705
12846SOL    HW144500   5.250   4.795   2.676 -1.3196  0.9791  0.5800
12846SOL    HW244501   5.151   4.692   2.726  0.9770 -2.9133 -2.3571
12847SOL     OW44502   7.987   2.194   5.822  0.1802  0.3174  0.1042
12847SOL    HW144503   7.987   2.271   5.765  0.0115 -0.0073 -0.3414
12847SOL    HW244504   8.074   2.194   5.862 -0.0242  1.0688  0.5655
12848SOL     OW44505   3.917   1.064   8.043 -0.8252 -0.1768  0.4769
12848SOL    HW144506   3.973   1.111   8.105  0.8553  0.2176 -1.2077
12848SOL    HW244507   3.910   1.124   7.968 -1.1510 -1.3912 -0.4969
12849SOL     OW44508   2.484   6.007   5.441  0.3870 -0.1051 -0.0344
12849SOL    HW144509   2.469   5.962   5.524 -0.1633  1.0702  0.5287
12849SOL    HW244510   2.545   6.077   5.463 -1.2513  1.4355 -0.1728
12850SOL     OW44511   6.535   2.386   4.287 -0.3943 -0.3207  0.5834
12850SOL    HW144512   6.459   2.444   4.272  0.2961  0.4048 -0.2227
12850SOL    HW244513   6.596   2.440   4.338 -0.4762 -0.9547  1.3610
12851SOL     OW44514   7.661   3.813   3.551 -0.4232  0.6961 -0.0196
12851SOL    HW144515   7.661   3.876   3.623 -1.2982  0.7247 -0.0402
12851SOL    HW244516   7.570   3.784   3.543  0.1510 -1.5519  0.8325
12852SOL     OW44517   6.271   1.178   5.883 -0.1380 -0.7319 -0.6572
12852SOL    HW144518   6.226   1.193   5.966  0.6872  1.8873 -0.5933
12852SOL    HW244519   6.213   1.119   5.835 -1.5751 -0.7634  0.9997
12853SOL     OW44520   6.551   4.511   3.625 -0.1188  0.3111 -0.3638
12853SOL    HW144521   6.541   4.494   3.719  0.5230 -0.5297 -0.4291
12853SOL    HW244522   6.522   4.430   3.583 -0.7822  0.8267 -0.9216
12854SOL     OW44523   0.582   3.864   2.764  0.0489 -0.2320  0.0771
12854SOL    HW144524   0.493   3.877   2.799 -0.5707  2.1126 -2.0646
12854SOL    HW244525   0.578   3.779   2.722 -1.7590  0.4557 -1.3150
12855SOL     OW44526   0.095   4.734   7.206  0.3836  0.0592 -0.0924
12855SOL    HW144527   0.093   4.819   7.249 -2.2974  0.5169 -0.9260
12855SOL    HW244528   0.161   4.684   7.254  1.0491  2.1408  1.2834
12856SOL     OW44529   5.651   6.711   1.134  0.1277 -0.0591  0.5474
12856SOL    HW144530   5.700   6.664   1.202  1.3838  1.2012  0.5640
12856SOL    HW244531   5.642   6.800   1.169  0.2801  0.4556 -0.6888
12857SOL     OW44532   7.224   7.243   6.150 -0.4401 -0.3196  0.2763
12857SOL    HW144533   7.283   7.286   6.089  0.0523 -0.6982  0.4777
12857SOL    HW244534   7.162   7.312   6.177  0.5222  0.3485  0.8358
12858SOL     OW44535   2.604   7.036   8.492 -0.4468  0.3892  0.0988
12858SOL    HW144536   2.677   7.023   8.431 -1.9038  1.5511 -2.0124
12858SOL    HW244537   2.631   7.112   8.544  1.0152 -0.8920  1.2787
12859SOL     OW44538   2.515   5.959   4.702  1.2830 -0.1713 -0.5705
12859SOL    HW144539   2.572   5.888   4.673 -0.6801 -1.3515 -1.7489
12859SOL    HW244540   2.559   6.039   4.674  3.2532 -0.9096  0.2711
12860SOL     OW44541   7.378   7.988   6.054  0.4816  0.5027 -0.7472
12860SOL    HW144542   7.451   8.033   6.010  2.8609 -1.1550  1.2107
12860SOL    HW244543   7.350   7.922   5.992 -0.1714  1.8876 -1.9751
12861SOL     OW44544   5.278   2.977   9.213 -0.8228  0.2347 -0.2356
12861SOL    HW144545   5.223   3.007   9.140 -0.8352 -2.1780 -1.3048
12861SOL    HW244546   5.220   2.921   9.265 -0.9675  2.3470  2.0321
12862SOL     OW44547   7.924   7.547   9.023 -0.0225  0.0984 -0.6659
12862SOL    HW144548   7.876   7.573   8.944 -0.1885 -0.4118 -0.7354
12862SOL    HW244549   7.865   7.570   9.095 -1.1155 -2.0227 -0.8129
12863SOL     OW44550   0.762   0.535   0.318  0.1954 -0.1649 -0.1299
12863SOL    HW144551   0.772   0.500   0.230  0.0643  1.4819 -0.8282
12863SOL    HW244552   0.851   0.538   0.354  0.6164  1.5810 -1.2034
12864SOL     OW44553   6.994   4.296   6.012  0.0531 -0.2585  0.1660
12864SOL    HW144554   7.020   4.309   5.921  0.4104  1.1246  0.4340
12864SOL    HW244555   7.002   4.202   6.027  4.1526 -0.1310 -0.0365
12865SOL     OW44556   0.455   3.911   0.844 -0.5474  0.0221  0.1613
12865SOL    HW144557   0.473   4.000   0.814 -0.0528 -0.0337  0.2770
12865SOL    HW244558   0.434   3.921   0.937 -1.5472  0.1343 -0.0693
12866SOL     OW44559   5.154   6.730   7.946  0.1632 -0.4130  0.5754
12866SOL    HW144560   5.109   6.807   7.911  1.5974  1.2060  2.0480
12866SOL    HW244561   5.093   6.694   8.011  0.2501  0.7154  1.3113
12867SOL     OW44562   0.839   6.880   0.412  0.0999 -0.5917 -0.4405
12867SOL    HW144563   0.914   6.936   0.393  0.7243 -1.7083 -1.4414
12867SOL    HW244564   0.772   6.939   0.447  1.6484  0.3327  1.1026
12868SOL     OW44565   2.121   4.700   9.004 -0.4536 -0.3757 -0.6161
12868SOL    HW144566   2.123   4.709   9.100 -0.7512  1.3241 -0.7454
12868SOL    HW244567   2.167   4.618   8.987  2.6257  0.8966  0.8134
12869SOL     OW44568   3.729   1.123   2.929  0.4901 -0.1485 -0.8421
12869SOL    HW144569   3.690   1.158   2.850 -0.9337  1.2877  0.4288
12869SOL    HW244570   3.781   1.195   2.965  0.6336 -0.5720 -0.1641
12870SOL     OW44571   4.553   3.255   5.349  0.2670 -0.3741 -0.5066
12870SOL    HW144572   4.497   3.279   5.274 -0.4956  0.3043  0.2591
12870SOL    HW244573   4.525   3.314   5.419  3.1024  1.1686 -0.5541
12871SOL     OW44574   4.097   4.670   6.026 -0.0150 -0.8144 -0.3883
12871SOL    HW144575   4.096   4.636   5.937 -0.1003  0.9456 -1.0981
12871SOL    HW244576   4.004   4.673   6.052 -0.0376 -0.6955 -0.4851
12872SOL     OW44577   5.651   0.444   4.559 -0.2867  0.3175  0.7352
12872SOL    HW144578   5.596   0.520   4.576  1.2220  1.6095  0.0697
12872SOL    HW244579   5.705   0.435   4.638  0.4392  0.7456  0.2920
12873SOL     OW44580   8.421   7.511   7.330 -0.0584 -0.0655  0.4781
12873SOL    HW144581   8.492   7.448   7.321 -0.0595  0.2082 -1.9063
12873SOL    HW244582   8.342   7.464   7.303 -1.0146 -0.5272  3.5622
12874SOL     OW44583   6.897   8.985   9.189 -0.0246 -0.1683 -0.1837
12874SOL    HW144584   6.966   8.964   9.125  0.9569  0.0078  0.7792
12874SOL    HW244585   6.828   9.025   9.137  0.9427  0.3825 -1.0987
12875SOL     OW44586   3.361   3.018   8.577 -0.2496  0.6829 -0.2036
12875SOL    HW144587   3.447   2.982   8.556 -0.1131 -0.0726  1.4799
12875SOL    HW244588   3.377   3.112   8.588  0.4501  0.5050  0.4122
12876SOL     OW44589   5.726   1.093   4.983  0.5650  0.6686  0.0408
12876SOL    HW144590   5.813   1.104   4.946  0.7580  0.4345  0.4216
12876SOL    HW244591   5.700   1.005   4.956  0.7872  0.4224  0.6287
12877SOL     OW44592   8.476   0.538   4.495 -0.0139 -0.4678  0.2137
12877SOL    HW144593   8.509   0.463   4.445 -0.8323 -0.7019  0.0128
12877SOL    HW244594   8.448   0.501   4.579 -0.1729 -0.3464  0.2151
12878SOL     OW44595   1.906   2.200   5.336  0.4507  0.1558 -0.2863
12878SOL    HW144596   1.981   2.141   5.343 -1.1735 -1.9051  0.7704
12878SOL    HW244597   1.872   2.207   5.425 -1.5938 -0.3677 -0.9677
12879SOL     OW44598   2.939   7.188   6.519  0.1037 -0.2281  0.8334
12879SOL    HW144599   2.948   7.149   6.606 -1.3544  1.1911  1.6793
12879SOL    HW244600   3.013   7.249   6.512  1.7829 -2.2556 -0.0737
12880SOL     OW44601   8.719   3.568   5.573  0.2775 -0.1705 -0.0451
12880SOL    HW144602   8.742   3.641   5.515  1.3457 -1.6672 -1.5962
12880SOL    HW244603   8.790   3.566   5.638 -0.1016  0.5281  0.4184
12881SOL     OW44604   2.286   3.642   1.901 -0.0169 -0.3651 -0.5240
12881SOL    HW144605   2.369   3.643   1.852 -1.0168  0.2284 -2.2985
12881SOL    HW244606   2.279   3.730   1.938  1.0622 -1.0064  1.3867
12882SOL     OW44607   8.851   0.470   4.754 -0.2946  0.0549 -0.6952
12882SOL    HW144608   8.809   0.555   4.771 -0.8930 -0.3607 -0.0403
12882SOL    HW244609   8.785   0.405   4.779  0.9466 -0.6434  0.9630
12883SOL     OW44610   1.166   4.286   6.015 -0.5288 -0.1157  0.1950
12883SOL    HW144611   1.100   4.229   5.975  0.8342 -0.8612 -1.1175
12883SOL    HW244612   1.238   4.286   5.952  0.3619  1.4035  1.1594
12884SOL     OW44613   5.823   3.727   1.578  0.0815  0.2633 -0.5705
12884SOL    HW144614   5.894   3.679   1.621  0.3812  0.0758 -1.2545
12884SOL    HW244615   5.863   3.812   1.558  0.1013  0.1720 -0.9191
12885SOL     OW44616   6.640   4.663   4.697 -0.2634  0.8544  0.4379
12885SOL    HW144617   6.621   4.693   4.786  0.7153 -2.1423  1.7814
12885SOL    HW244618   6.733   4.679   4.685  0.5155 -2.1731  1.5632
12886SOL     OW44619   5.583   8.453   8.892  0.3394  0.4855  0.6745
12886SOL    HW144620   5.609   8.361   8.888 -1.7845 -0.1493  0.0160
12886SOL    HW244621   5.632   8.495   8.822  1.2854 -0.1499  0.9420
12887SOL     OW44622   5.845   4.215   5.603  0.2974  0.0321  0.1817
12887SOL    HW144623   5.883   4.129   5.620 -0.1359 -0.3782 -0.7998
12887SOL    HW244624   5.826   4.251   5.689  0.6555 -0.7823  0.6114
12888SOL     OW44625   9.085   7.539   4.310 -0.6377 -0.0731 -0.2160
12888SOL    HW144626   9.056   7.479   4.241 -0.7548  0.2001 -0.4062
12888SOL    HW244627   9.179   7.548   4.295 -1.0060  1.7949 -1.7978
12889SOL     OW44628   7.750   7.507   1.026 -0.4866  0.4646  0.2222
12889SOL    HW144629   7.718   7.418   1.043 -1.5989  0.7149 -0.3792
12889SOL    HW244630   7.683   7.545   0.969 -0.5508  2.0349  1.2845
12890SOL     OW44631   6.723   9.180   7.090  0.4283 -0.2550  0.8487
12890SOL    HW144632   6.815   9.203   7.101  0.1286 -0.0052  3.3942
12890SOL    HW244633   6.675   9.257   7.118 -0.5818 -0.4001 -0.3996
12891SOL     OW44634   4.671   2.257   1.262  0.4053  0.2021  0.2154
12891SOL    HW144635   4.745   2.198   1.244  0.3253  0.4928 -1.2209
12891SOL    HW244636   4.595   2.199   1.266  0.5954 -0.0081  0.8691
12892SOL     OW44637   9.299   3.800   2.304  0.8877  0.8024 -0.3812
12892SOL    HW144638   9.263   3.886   2.286 -1.6742 -0.3848 -1.3948
12892SOL    HW244639   9.332   3.769   2.220  1.3178  0.5588 -0.1297
12893SOL     OW44640   4.727   8.157   9.038  0.2330 -0.0135  0.6342
12893SOL    HW144641   4.685   8.127   9.118 -0.5539 -1.7197 -0.3619
12893SOL    HW244642   4.658   8.199   8.988  0.5582  0.4482  0.5690
12894SOL     OW44643   3.074   8.597   8.469 -0.4036  0.2091  0.1458
12894SOL    HW144644   3.159   8.553   8.474 -2.3396 -3.7235  3.0303
12894SOL    HW244645   3.071   8.651   8.549 -0.2968  1.2263 -0.5097
12895SOL     OW44646   0.415   2.015   5.333  0.4444  0.7319 -1.0475
12895SOL    HW144647   0.449   2.087   5.385  0.2046 -0.4205  0.7736
12895SOL    HW244648   0.430   1.937   5.386 -3.3646 -0.0700 -0.8400
12896SOL     OW44649   8.560   5.290   8.724  0.0505 -0.1503 -0.2236
12896SOL    HW144650   8.508   5.255   8.651  1.3459 -0.1763 -1.1717
12896SOL    HW244651   8.600   5.369   8.689  0.2192  0.1753  0.6768
12897SOL     OW44652   7.849   3.499   6.916 -0.1036 -0.4456  0.3311
12897SOL    HW144653   7.822   3.451   6.837  0.0299  1.2178 -0.7732
12897SOL    HW244654   7.832   3.591   6.895 -1.3476 -0.0506  2.7773
12898SOL     OW44655   9.015   0.355   1.009 -0.4284 -0.0869 -0.1382
12898SOL    HW144656   9.066   0.434   1.031  0.7248 -0.6632 -0.6554
12898SOL    HW244657   8.936   0.362   1.063 -0.5895  1.6626 -0.5203
12899SOL     OW44658   6.133   7.418   4.181  0.0456  0.6597  0.5173
12899SOL    HW144659   6.207   7.359   4.167 -0.6286 -0.5108  1.6779
12899SOL    HW244660   6.105   7.401   4.271 -2.0373  0.6020 -0.0920
12900SOL     OW44661   6.603   1.553   2.940  0.4400  0.2236  0.2986
12900SOL    HW144662   6.509   1.537   2.929  0.6172  0.2441 -1.6028
12900SOL    HW244663   6.645   1.481   2.893  1.3085  1.9172 -1.7239
12901SOL     OW44664   0.326   2.448   7.296  0.1019 -0.1946 -0.3691
12901SOL    HW144665   0.392   2.510   7.266 -0.7687  0.0130 -1.9367
12901SOL    HW244666   0.365   2.408   7.374  1.0879  1.5791  0.1040
12902SOL     OW44667   4.684   3.569   3.408  0.1585 -0.0444 -0.2527
12902SOL    HW144668   4.627   3.628   3.359  0.3591  1.6035  1.3622
12902SOL    HW244669   4.694   3.492   3.352 -0.7883  1.1102 -2.0925
12903SOL     OW44670   4.245   6.610   6.179 -0.6768 -0.0458  0.2281
12903SOL    HW144671   4.272   6.646   6.264  0.2898 -1.3357  0.4951
12903SOL    HW244672   4.219   6.519   6.199  1.0676 -0.8888 -1.0719
12904SOL     OW44673   5.959   2.583   7.843 -0.7832  0.3270 -0.1649
12904SOL    HW144674   6.036   2.553   7.891  0.5506  0.0983 -2.3038
12904SOL    HW244675   5.992   2.655   7.789 -1.5726 -1.0002 -2.5240
12905SOL     OW44676   1.855   6.276   6.916  0.3167  0.4566 -0.5460
12905SOL    HW144677   1.773   6.320   6.892 -0.9991 -0.3887  2.0315
12905SOL    HW244678   1.907   6.343   6.959 -0.9322  0.0847  1.7361
12906SOL     OW44679   0.399   3.532   9.055 -0.2570 -0.1068 -0.3990
12906SOL    HW144680   0.466   3.568   8.997 -0.9647  2.2281  0.1184
12906SOL    HW244681   0.349   3.473   8.999  1.6690 -1.2752 -1.0081
12907SOL     OW44682   5.893   4.120   2.872 -0.3333 -0.2348  0.1659
12907SOL    HW144683   5.891   4.191   2.807 -1.4442 -0.6297 -0.2538
12907SOL    HW244684   5.870   4.042   2.822  1.3689 -1.0010  0.5247
12908SOL     OW44685   7.870   5.093   9.329 -0.2872 -0.3129  0.2632
12908SOL    HW144686   7.851   5.138   9.246  0.3791  0.0971  0.3271
12908SOL    HW244687   7.962   5.110   9.345 -0.1713 -1.2031  0.6067
12909SOL     OW44688   9.158   1.770   0.757 -0.3812  0.3449  0.4086
12909SOL    HW144689   9.231   1.750   0.698 -1.0886  0.3488 -0.4995
12909SOL    HW244690   9.198   1.819   0.829  0.9768 -2.0148  1.3806
12910SOL     OW44691   7.625   8.064   8.327 -0.3283  0.2796  0.0624
12910SOL    HW144692   7.585   8.129   8.384 -0.2612 -1.1444  1.8051
12910SOL    HW244693   7.709   8.043   8.369  0.4583  0.3043 -1.4117
12911SOL     OW44694   8.079   6.548   2.960 -0.1321 -0.6589 -0.1737
12911SOL    HW144695   8.066   6.567   2.867 -0.7721 -2.6729 -0.5314
12911SOL    HW244696   7.990   6.546   2.996 -0.3770 -4.6926 -0.5958
12912SOL     OW44697   8.861   7.554   3.428  0.1468 -0.2691  0.2039
12912SOL    HW144698   8.915   7.623   3.466 -1.0639 -0.8292  3.1625
12912SOL    HW244699   8.771   7.580   3.446 -0.3800 -2.1294  0.5103
12913SOL     OW44700   9.045   6.062   2.815  0.4815 -0.0997  0.1797
12913SOL    HW144701   9.000   5.985   2.849  1.7278 -0.8604  0.1785
12913SOL    HW244702   9.019   6.066   2.723 -2.0189  1.3213  0.8430
12914SOL     OW44703   9.037   6.158   5.130 -0.2477  0.4846  0.2855
12914SOL    HW144704   8.980   6.235   5.128 -0.7053  0.1569  0.7367
12914SOL    HW244705   8.995   6.095   5.072  0.4598  0.7963 -0.5894
12915SOL     OW44706   8.432   6.043   9.053 -0.4893 -0.2186  0.2214
12915SOL    HW144707   8.482   6.118   9.018 -1.9299  1.0196  0.7095
12915SOL    HW244708   8.457   5.970   8.996  0.5835  0.7383 -0.6030
12916SOL     OW44709   7.171   6.624   1.424  0.0987  0.4917  0.4044
12916SOL    HW144710   7.222   6.572   1.362  0.3310 -0.3345  1.2573
12916SOL    HW244711   7.181   6.714   1.394  0.5222  0.1524 -0.5234
12917SOL     OW44712   8.617   0.510   9.175  0.0165  0.0329 -0.9396
12917SOL    HW144713   8.657   0.587   9.214 -2.3361  0.0377  1.8218
12917SOL    HW244714   8.544   0.544   9.124  0.1829 -0.2771 -1.3909
12918SOL     OW44715   5.946   4.077   6.480 -0.2696  0.1126  0.3237
12918SOL    HW144716   6.014   4.014   6.453  0.5308  0.5640  1.2413
12918SOL    HW244717   5.897   4.094   6.399 -1.5875 -2.9091  0.3245
12919SOL     OW44718   6.721   9.217   8.791  0.0458  0.1517 -0.9457
12919SOL    HW144719   6.812   9.199   8.769  0.3985 -0.2310  0.6403
12919SOL    HW244720   6.672   9.147   8.748  0.4603  0.5261 -2.0473
12920SOL     OW44721   3.672   0.196   5.716  0.3637 -0.5547  0.2882
12920SOL    HW144722   3.643   0.107   5.694  0.1168 -0.2242 -0.7649
12920SOL    HW244723   3.745   0.183   5.777 -1.4402 -1.4209  2.3715
12921SOL     OW44724   4.279   5.312   2.700  0.1643 -0.1917 -0.2712
12921SOL    HW144725   4.351   5.375   2.696  0.5934 -0.6824 -0.4675
12921SOL    HW244726   4.310   5.237   2.648  0.6373 -1.5372  1.8223
12922SOL     OW44727   4.159   8.775   2.791 -0.5884  0.2218  0.1173
12922SOL    HW144728   4.246   8.777   2.751 -1.9416 -0.9763 -3.2787
12922SOL    HW244729   4.129   8.866   2.788  1.0480  0.9523  2.8419
12923SOL     OW44730   2.414   5.395   2.401 -0.0524 -0.0976  0.2357
12923SOL    HW144731   2.410   5.313   2.450 -1.0439 -0.5061 -0.5004
12923SOL    HW244732   2.325   5.430   2.404 -1.0900 -1.7722 -3.9015
12924SOL     OW44733   3.077   2.584   7.278 -0.8751  0.4874 -0.0988
12924SOL    HW144734   3.146   2.533   7.234 -2.5271 -2.3183  0.3029
12924SOL    HW244735   3.031   2.628   7.207 -0.6647 -0.2606 -0.7177
12925SOL     OW44736   6.148   0.752   3.221 -0.6589 -0.3375  0.1687
12925SOL    HW144737   6.210   0.809   3.177 -0.7471 -1.2921 -1.2632
12925SOL    HW244738   6.063   0.772   3.181 -0.9498 -0.4106  0.7276
12926SOL     OW44739   1.241   2.619   9.364 -0.2298 -0.5033  0.1176
12926SOL    HW144740   1.312   2.556   9.352 -1.1021 -1.8093  1.5392
12926SOL    HW244741   1.166   2.579   9.319 -0.9737 -0.8529  1.6096
12927SOL     OW44742   2.708   5.176   2.065 -0.0764  0.1244 -0.7877
12927SOL    HW144743   2.663   5.147   2.144 -0.9777 -0.3967 -1.4680
12927SOL    HW244744   2.801   5.179   2.089 -0.4867  1.8402  0.8429
12928SOL     OW44745   7.715   5.769   4.139  0.1646 -0.2578 -0.0459
12928SOL    HW144746   7.637   5.797   4.186 -0.2187 -0.6829 -0.4095
12928SOL    HW244747   7.788   5.796   4.194 -0.2625 -0.5589  0.6827
12929SOL     OW44748   3.173   0.956   8.316  0.9136  0.4680  0.1439
12929SOL    HW144749   3.175   0.865   8.347  1.1227  0.3871 -0.1118
12929SOL    HW244750   3.117   1.000   8.380  1.1894  0.2589  0.5395
12930SOL     OW44751   1.200   0.941   9.148 -0.1186 -0.1405  0.2202
12930SOL    HW144752   1.171   1.027   9.117 -1.4383 -0.1111  1.4369
12930SOL    HW244753   1.203   0.887   9.069  1.3378  1.1474 -0.6622
12931SOL     OW44754   9.149   6.038   0.716  0.1983 -0.5954  0.0101
12931SOL    HW144755   9.103   5.956   0.733 -0.9055 -0.1511 -0.7381
12931SOL    HW244756   9.091   6.106   0.749  1.2869 -0.1126  1.0025
12932SOL     OW44757   8.049   6.942   8.406 -0.1400  0.2027  0.6320
12932SOL    HW144758   7.954   6.946   8.393 -0.6027 -2.3142  2.4881
12932SOL    HW244759   8.062   6.970   8.497  0.7665 -0.4862  0.7293
12933SOL     OW44760   5.232   3.464   5.558  0.2094  0.1405 -0.2040
12933SOL    HW144761   5.276   3.504   5.483  1.3279 -1.7130 -0.5785
12933SOL    HW244762   5.300   3.453   5.623 -1.0523  3.3252  1.9288
12934SOL     OW44763   7.759   5.586   4.945 -0.0600  0.1284  0.0131
12934SOL    HW144764   7.713   5.571   5.027  3.4937  0.4245  2.2903
12934SOL    HW244765   7.767   5.681   4.939  0.0700  0.0897 -0.4519
12935SOL     OW44766   5.412   6.572   2.613 -0.2597 -0.3508  0.3551
12935SOL    HW144767   5.450   6.648   2.657  0.0336  0.2574 -0.9035
12935SOL    HW244768   5.480   6.541   2.553 -0.6564 -1.1222  0.2868
12936SOL     OW44769   9.198   7.879   4.236  0.5610  0.3569 -0.0518
12936SOL    HW144770   9.275   7.835   4.273 -0.5164 -0.8984  0.8101
12936SOL    HW244771   9.158   7.813   4.179  0.5937  1.3037 -1.2157
12937SOL     OW44772   2.012   7.224   5.013  0.4145 -0.1930 -0.4195
12937SOL    HW144773   1.935   7.213   5.069  0.8004 -0.4654  0.0731
12937SOL    HW244774   2.047   7.136   5.002  0.9805 -0.0099 -0.1603
12938SOL     OW44775   5.689   2.537   1.174  0.1840 -0.1944 -0.3321
12938SOL    HW144776   5.666   2.485   1.096 -1.3749  1.6357 -1.1986
12938SOL    HW244777   5.607   2.582   1.196  0.3096 -1.3808  3.0213
12939SOL     OW44778   2.838   1.730   5.165 -0.0494 -0.0463 -0.4646
12939SOL    HW144779   2.899   1.803   5.178 -0.6936  0.1909  1.4822
12939SOL    HW244780   2.764   1.750   5.222 -1.9448 -0.4015 -2.6610
12940SOL     OW44781   0.882   3.458   5.978  0.0492 -0.1541  0.6202
12940SOL    HW144782   0.948   3.527   5.982  0.5686 -0.2581 -2.8547
12940SOL    HW244783   0.815   3.491   5.918 -2.3592 -0.7021  2.8211
12941SOL     OW44784   8.182   9.210   5.805  0.0979 -0.8339  0.4726
12941SOL    HW144785   8.185   9.162   5.722 -0.1359 -3.4721  1.8755
12941SOL    HW244786   8.105   9.174   5.850 -0.1288  0.9665  1.6047
12942SOL     OW44787   7.168   6.264   8.913 -1.0621  0.1111 -0.3321
12942SOL    HW144788   7.190   6.277   9.005  1.0114  0.0029 -0.7809
12942SOL    HW244789   7.105   6.334   8.893 -1.5704  0.1070  1.1447
12943SOL     OW44790   8.298   7.961   3.106 -0.4997  0.3368  0.3885
12943SOL    HW144791   8.214   7.966   3.059  0.9571  0.8279 -2.3855
12943SOL    HW244792   8.331   8.050   3.106  1.4359 -0.2790 -1.5520
12944SOL     OW44793   4.806   0.389   7.729  0.2632 -0.9530  0.1843
12944SOL    HW144794   4.849   0.441   7.797 -1.7377  0.9102  0.1445
12944SOL    HW244795   4.720   0.430   7.718  0.2997 -1.5021 -3.1206
12945SOL     OW44796   5.280   9.132   2.377  0.2366  0.4251  0.1341
12945SOL    HW144797   5.334   9.193   2.326  0.5841  0.8865  1.0324
12945SOL    HW244798   5.344   9.074   2.418 -0.0910 -0.5382 -0.6865
12946SOL     OW44799   8.899   1.312   7.596 -0.0202 -0.4791 -0.3401
12946SOL    HW144800   8.817   1.266   7.609  0.2827 -0.4028  2.4716
12946SOL    HW244801   8.941   1.312   7.682  1.0780  2.9876 -0.7157
12947SOL     OW44802   8.722   0.501   2.565  0.1678 -0.5922 -0.3485
12947SOL    HW144803   8.681   0.448   2.634 -1.5022 -1.5013 -1.9756
12947SOL    HW244804   8.677   0.585   2.569  0.3859 -0.4874 -0.0525
12948SOL     OW44805   8.696   4.212   6.705  0.3377  0.0498 -0.0124
12948SOL    HW144806   8.672   4.145   6.641 -0.8668  0.5315 -0.0841
12948SOL    HW244807   8.732   4.284   6.654  0.3038  0.0330 -0.0591
12949SOL     OW44808   0.126   6.633   4.043 -0.1738  0.0593  0.2832
12949SOL    HW144809   0.149   6.696   3.975 -2.4467  2.1659  1.3163
12949SOL    HW244810   0.205   6.625   4.097  0.2598  1.8515 -0.0257
12950SOL     OW44811   9.222   4.841   5.002  0.2131  0.5422  0.2012
12950SOL    HW144812   9.284   4.898   5.045  2.4572 -1.1828 -0.5479
12950SOL    HW244813   9.136   4.875   5.027  1.3598  0.9951  4.0864
12951SOL     OW44814   7.023   0.204   9.248  0.2428 -0.0941 -0.9241
12951SOL    HW144815   7.107   0.164   9.273 -0.1773 -0.9491 -0.8270
12951SOL    HW244816   6.968   0.129   9.224 -0.3876  0.4837 -1.3035
12952SOL     OW44817   9.246   8.805   4.453 -0.4975  0.3228 -0.4679
12952SOL    HW144818   9.275   8.871   4.515  0.2569 -0.7501  0.3658
12952SOL    HW244819   9.302   8.818   4.376 -1.1848  1.4220 -0.7905
12953SOL     OW44820   1.658   5.279   4.199  0.1591  0.3532  0.9414
12953SOL    HW144821   1.653   5.184   4.205  0.1225  0.3119  0.2972
12953SOL    HW244822   1.721   5.304   4.267  0.7873 -0.1966  0.5742
12954SOL     OW44823   3.838   8.155   6.955 -0.1247 -0.6777  0.0935
12954SOL    HW144824   3.789   8.075   6.935  0.2455 -0.8335 -0.2118
12954SOL    HW244825   3.839   8.159   7.051 -2.8195  0.6456  0.1459
12955SOL     OW44826   1.881   3.709   3.111  0.2234 -0.5277 -0.1064
12955SOL    HW144827   1.835   3.720   3.028 -0.2170 -1.0941  0.0538
12955SOL    HW244828   1.909   3.798   3.135  1.4406 -0.5155 -1.4602
12956SOL     OW44829   7.203   8.085   0.355  0.4226  0.1821  0.0381
12956SOL    HW144830   7.131   8.023   0.343 -0.7602  1.0286  2.1179
12956SOL    HW244831   7.181   8.158   0.296  0.0656  0.0304 -0.0233
12957SOL     OW44832   2.175   8.948   5.854  0.3293 -0.5235  0.6101
12957SOL    HW144833   2.217   9.022   5.810 -2.0976 -0.3049 -1.5581
12957SOL    HW244834   2.112   8.988   5.914 -0.7907 -0.7863 -0.3624
12958SOL     OW44835   4.384   5.396   6.273 -0.0430 -0.0247 -0.1247
12958SOL    HW144836   4.427   5.413   6.189  1.3350  0.6892  0.7034
12958SOL    HW244837   4.455   5.367   6.331 -0.9606 -0.4166  0.8314
12959SOL     OW44838   5.774   5.448   6.381 -0.0916  0.3273 -0.1245
12959SOL    HW144839   5.691   5.400   6.381  0.0532  0.0623  0.4955
12959SOL    HW244840   5.826   5.405   6.313 -0.8990  1.3157 -1.4409
12960SOL     OW44841   1.838   1.290   0.923 -0.1448 -0.3247 -0.4172
12960SOL    HW144842   1.899   1.302   0.849  0.0954  1.4992  0.0276
12960SOL    HW244843   1.835   1.375   0.965 -0.6480 -1.2136  1.4313
12961SOL     OW44844   3.156   6.817   8.915 -0.1244 -0.2590 -0.0724
12961SOL    HW144845   3.142   6.874   8.992 -1.0815  0.0230 -0.4476
12961SOL    HW244846   3.122   6.732   8.942 -1.5644  0.1304 -0.5691
12962SOL     OW44847   9.224   4.685   2.998  0.1039 -0.2023  0.5708
12962SOL    HW144848   9.174   4.668   2.918 -0.6749  3.6878  0.0439
12962SOL    HW244849   9.172   4.645   3.068 -1.3504 -0.2163 -0.4677
12963SOL     OW44850   2.123   5.383   9.032 -0.1925  0.0744  0.1191
12963SOL    HW144851   2.054   5.407   8.971 -0.5770  0.5691  0.7321
12963SOL    HW244852   2.146   5.465   9.076  0.7034 -0.1049  0.0073
12964SOL     OW44853   8.567   4.957   4.845 -0.4688 -0.1247  0.1864
12964SOL    HW144854   8.487   4.984   4.891 -0.9284  0.3147 -0.8125
12964SOL    HW244855   8.535   4.899   4.775  0.0350  0.3724 -0.4658
12965SOL     OW44856   7.784   4.679   2.280 -0.1900  0.2246  0.1696
12965SOL    HW144857   7.802   4.639   2.365 -1.6340  1.6229  1.1821
12965SOL    HW244858   7.871   4.688   2.239  0.7928  1.4082  2.3607
12966SOL     OW44859   5.017   0.080   1.301  0.2944 -0.0760 -0.3541
12966SOL    HW144860   5.081   0.123   1.243  0.1830  0.5336 -0.0335
12966SOL    HW244861   5.037  -0.013   1.294  1.1345  0.0983 -0.3658
12967SOL     OW44862   3.235   3.576   2.852  0.1881 -0.0474 -0.3704
12967SOL    HW144863   3.234   3.672   2.857  0.0756 -0.1231  2.6657
12967SOL    HW244864   3.161   3.555   2.795 -0.9188  1.6407  0.3425
12968SOL     OW44865   5.872   6.500   0.140 -0.6245  0.3107 -0.0681
12968SOL    HW144866   5.791   6.531   0.102 -1.2082 -0.1200  0.7958
12968SOL    HW244867   5.906   6.437   0.076  0.1304  1.9977 -1.4140
12969SOL     OW44868   1.831   2.381   3.995 -0.1859 -0.2713 -0.1415
12969SOL    HW144869   1.756   2.325   4.016 -1.0012 -0.2153 -2.5865
12969SOL    HW244870   1.801   2.470   4.012 -1.2677 -0.1280 -2.3881
12970SOL     OW44871   8.084   1.318   0.092  0.4109  0.9509  0.3586
12970SOL    HW144872   8.135   1.353   0.019  0.6198 -1.2811 -0.6362
12970SOL    HW244873   8.146   1.317   0.166  0.2515  3.0365  0.5757
12971SOL     OW44874   6.951   7.746   2.089 -0.2029  0.5269  0.0808
12971SOL    HW144875   6.900   7.781   2.016  0.1437  0.2899 -0.2724
12971SOL    HW244876   6.893   7.681   2.130  0.7483 -1.7140 -1.9256
12972SOL     OW44877   1.654   2.722   3.792  0.3268  0.0906 -0.0304
12972SOL    HW144878   1.715   2.787   3.826 -0.5881  1.2327 -0.5020
12972SOL    HW244879   1.628   2.670   3.868  0.8815  0.4243  0.3902
12973SOL     OW44880   2.611   2.158   3.268 -0.1869  0.6219  0.2808
12973SOL    HW144881   2.571   2.149   3.181  1.4916  1.9464 -0.6941
12973SOL    HW244882   2.601   2.250   3.290  1.9716  0.9519  0.1219
12974SOL     OW44883   8.295   3.656   0.417  0.1170 -0.0516  0.3391
12974SOL    HW144884   8.245   3.711   0.357  1.7427 -1.4473 -2.4964
12974SOL    HW244885   8.379   3.699   0.426  0.4418 -0.6659  0.3297
12975SOL     OW44886   2.762   0.925   9.315  0.1767 -0.1927  0.0234
12975SOL    HW144887   2.707   0.848   9.324  0.3036 -0.3819 -0.7479
12975SOL    HW244888   2.701   0.998   9.304  0.0741 -0.3104 -0.1738
12976SOL     OW44889   8.807   6.346   8.115 -0.1545 -0.4794  0.8766
12976SOL    HW144890   8.797   6.256   8.084 -1.8605  0.9426 -3.3194
12976SOL    HW244891   8.867   6.386   8.053  0.9666  1.2824  2.9589
12977SOL     OW44892   3.310   5.521   0.896  0.1301  0.2385  0.1926
12977SOL    HW144893   3.294   5.469   0.975 -1.1640  0.5714  0.1804
12977SOL    HW244894   3.401   5.548   0.902 -0.2336  1.1618  2.1326
12978SOL     OW44895   3.883   0.944   0.108  0.3819 -0.3767 -0.3626
12978SOL    HW144896   3.974   0.971   0.118  0.7150 -1.7257  0.4670
12978SOL    HW244897   3.888   0.851   0.083 -0.7810 -1.0545  1.7305
12979SOL     OW44898   5.311   5.502   4.747 -0.5865  0.0415 -0.1054
12979SOL    HW144899   5.246   5.439   4.778 -1.4296  0.6242 -0.6395
12979SOL    HW244900   5.294   5.510   4.654  0.2579  0.2171 -0.2540
12980SOL     OW44901   0.226   7.146   2.374 -0.1313  0.0220  0.5167
12980SOL    HW144902   0.170   7.072   2.351  0.6780 -0.9314  1.5351
12980SOL    HW244903   0.265   7.123   2.458 -0.2608  1.8503  1.1305
12981SOL     OW44904   2.565   0.657   8.477  0.0612 -0.6648 -0.1385
12981SOL    HW144905   2.503   0.631   8.408  1.2884 -0.5833 -1.3171
12981SOL    HW244906   2.538   0.745   8.501 -0.2080 -0.5783 -0.7300
12982SOL     OW44907   6.791   0.477   2.021  0.0078 -0.4207 -0.1514
12982SOL    HW144908   6.832   0.392   2.000 -0.4552 -0.7280  0.1657
12982SOL    HW244909   6.788   0.523   1.937 -3.3521 -2.2878 -1.2254
12983SOL     OW44910   5.266   6.287   5.715 -0.1906 -0.4873  0.3827
12983SOL    HW144911   5.256   6.323   5.626  1.6662 -0.7578  0.0271
12983SOL    HW244912   5.191   6.228   5.725  0.0912 -1.2380 -1.4262
12984SOL     OW44913   2.447   5.570   6.229  0.0335 -0.0221 -0.2415
12984SOL    HW144914   2.375   5.551   6.168 -0.0448 -1.0078  0.1492
12984SOL    HW244915   2.404   5.592   6.311  0.1405 -2.4112  0.5377
12985SOL     OW44916   8.900   5.821   2.936  0.5363 -0.1958  0.2684
12985SOL    HW144917   8.809   5.807   2.961  0.3343 -0.1344 -0.3959
12985SOL    HW244918   8.938   5.733   2.935  0.6987 -0.1447  1.3083
12986SOL     OW44919   5.948   6.531   3.669  0.0047  0.3317 -0.0159
12986SOL    HW144920   5.886   6.459   3.654 -1.1587  1.3390 -0.1706
12986SOL    HW244921   5.943   6.584   3.589  1.9624 -0.1801 -0.5334
12987SOL     OW44922   7.104   9.369   0.736 -0.0162  0.4057 -0.5127
12987SOL    HW144923   7.117   9.384   0.830 -0.0081 -1.9047 -0.0799
12987SOL    HW244924   7.142   9.446   0.694  0.1883  1.3899  1.3634
12988SOL     OW44925   8.731   0.135   1.941 -0.3022  0.2024 -0.1886
12988SOL    HW144926   8.767   0.095   2.020 -0.2991 -0.3581 -0.4644
12988SOL    HW244927   8.676   0.206   1.972  0.3418  0.5060  0.2830
12989SOL     OW44928   2.034   6.144   6.399  0.5822 -0.1473  0.1881
12989SOL    HW144929   2.019   6.059   6.358 -2.4310  0.1661  0.4056
12989SOL    HW244930   2.127   6.161   6.386  1.0921 -3.0501 -0.6362
12990SOL     OW44931   0.303   8.538   1.908 -0.0825 -0.1940 -0.0415
12990SOL    HW144932   0.275   8.504   1.993 -0.2903 -0.1098 -0.0754
12990SOL    HW244933   0.228   8.587   1.876  0.2735  0.4381  0.0789
12991SOL     OW44934   5.889   8.569   5.722 -0.3588 -0.0404 -0.0163
12991SOL    HW144935   5.910   8.655   5.686  1.1519 -0.5925 -0.5490
12991SOL    HW244936   5.969   8.543   5.768 -2.1092  0.5551  3.6909
12992SOL     OW44937   0.335   0.594   6.322 -0.2331  0.1555  0.0271
12992SOL    HW144938   0.264   0.590   6.258  1.1591 -0.6295 -1.5419
12992SOL    HW244939   0.391   0.665   6.292  1.8930 -1.9556 -1.3124
12993SOL     OW44940   2.710   2.881   0.517 -0.1932  0.1217  0.0957
12993SOL    HW144941   2.775   2.946   0.491 -1.7582  0.8766 -2.2602
12993SOL    HW244942   2.712   2.816   0.447 -0.9611 -0.6002  0.7270
12994SOL     OW44943   3.685   6.250   2.605 -0.0109 -0.6641 -0.2612
12994SOL    HW144944   3.738   6.246   2.684 -0.8848 -0.8893  0.3300
12994SOL    HW244945   3.748   6.257   2.534  0.8217 -1.3481  0.3884
12995SOL     OW44946   4.907   2.124   0.551  0.3771 -0.0508 -0.2489
12995SOL    HW144947   4.966   2.143   0.479 -0.3414  0.7755 -0.6396
12995SOL    HW244948   4.958   2.142   0.630  0.9554 -0.3109 -0.5641
12996SOL     OW44949   5.635   6.968   1.224  0.2306 -0.3744  0.2280
12996SOL    HW144950   5.583   7.045   1.206 -0.7565 -1.1382 -0.2720
12996SOL    HW244951   5.721   7.002   1.250 -1.0717  0.9854  3.1791
12997SOL     OW44952   0.608   4.746   1.906 -0.2605  0.2216  0.9043
12997SOL    HW144953   0.611   4.817   1.970 -0.2852 -2.1087  3.7416
12997SOL    HW244954   0.688   4.696   1.923  0.0188 -0.2021 -1.3631
12998SOL     OW44955   7.638   3.197   6.903 -0.3435  0.4619  0.5764
12998SOL    HW144956   7.564   3.138   6.920 -1.7980  1.4346 -1.8415
12998SOL    HW244957   7.599   3.284   6.903  1.3447  1.2631  1.7745
12999SOL     OW44958   0.355   2.362   0.122 -0.2289  0.3584  0.0589
12999SOL    HW144959   0.369   2.271   0.097 -0.5401  0.4384 -0.4001
12999SOL    HW244960   0.320   2.357   0.212 -0.5012  0.0147 -0.0653
13000SOL     OW44961   0.763   4.590   4.536  0.2025  0.1650  0.4197
13000SOL    HW144962   0.746   4.611   4.627  0.2040 -0.4814  0.5752
13000SOL    HW244963   0.688   4.626   4.488  0.1618  0.4317  0.6872
13001SOL     OW44964   7.303   7.440   0.830  0.0527 -0.0195 -0.0730
13001SOL    HW144965   7.253   7.364   0.860 -0.5287  0.8677  1.3300
13001SOL    HW244966   7.377   7.446   0.890 -0.1847  0.8013  0.1570
13002SOL     OW44967   2.239   7.153   5.255 -0.3870  0.0759 -0.6484
13002SOL    HW144968   2.233   7.131   5.163 -0.5362  0.6961 -0.7935
13002SOL    HW244969   2.311   7.217   5.260  1.7113 -2.2011  0.1057
13003SOL     OW44970   7.954   8.959   8.168  0.2587  0.1422 -0.0668
13003SOL    HW144971   8.041   8.975   8.205  0.7125  0.4090 -1.2054
13003SOL    HW244972   7.893   8.987   8.237  1.0558 -1.0941  1.1847
13004SOL     OW44973   5.920   9.092   1.525 -0.1042  0.1717  0.1094
13004SOL    HW144974   5.990   9.122   1.582 -0.1242  3.3801 -1.3856
13004SOL    HW244975   5.962   9.031   1.464  1.1856  1.2090 -0.0643
13005SOL     OW44976   7.450   4.562   6.749 -0.0925  0.2628 -0.0983
13005SOL    HW144977   7.380   4.510   6.789 -0.0500  0.5885  0.4091
13005SOL    HW244978   7.407   4.610   6.679 -0.2691  0.0452 -0.1398
13006SOL     OW44979   5.131   2.825   2.361  0.1577 -0.5147 -0.3612
13006SOL    HW144980   5.046   2.788   2.386  0.3490 -0.7465 -0.0476
13006SOL    HW244981   5.117   2.920   2.362  0.5470 -0.4414  2.0716
13007SOL     OW44982   0.462   6.200   1.033  0.1517 -0.4231 -0.0546
13007SOL    HW144983   0.508   6.253   1.098 -0.0327 -1.6274  1.0886
13007SOL    HW244984   0.418   6.264   0.977  1.0795  0.6625  0.4196
13008SOL     OW44985   3.307   2.108   1.093  0.3345  0.1811  0.1470
13008SOL    HW144986   3.350   2.133   1.011 -0.8972  1.6048 -0.1134
13008SOL    HW244987   3.367   2.046   1.134  1.3287  0.0272 -1.4709
13009SOL     OW44988   0.915   0.090   3.526  0.5513 -0.1740 -0.2971
13009SOL    HW144989   0.892   0.169   3.477  0.5829 -0.6997 -1.1756
13009SOL    HW244990   1.004   0.107   3.558 -0.1846  0.9695  1.2697
13010SOL     OW44991   6.546   5.169   3.648 -0.4949  0.0688  0.2018
13010SOL    HW144992   6.565   5.164   3.554  0.6086 -0.2537  0.4199
13010SOL    HW244993   6.601   5.241   3.680  1.0328 -1.3609  0.9852
13011SOL     OW44994   7.331   6.419   2.816  0.6701 -0.2608 -0.2147
13011SOL    HW144995   7.343   6.339   2.868  1.1054  0.4863  0.8621
13011SOL    HW244996   7.372   6.488   2.868  1.8499  0.3896 -1.9422
13012SOL     OW44997   7.041   3.994   2.498  0.2656  0.5568  0.5500
13012SOL    HW144998   7.057   3.906   2.532 -1.9743 -0.7669 -1.4993
13012SOL    HW244999   7.090   3.997   2.416  1.2899  1.7052  1.1758
13013SOL     OW45000   7.945   8.071   0.405  0.0103 -0.1514 -0.0293
13013SOL    HW145001   8.019   8.055   0.463 -1.0114 -0.8142  1.1301
13013SOL    HW245002   7.905   8.152   0.438  0.1707  0.1757 -0.6139
13014SOL     OW45003   3.500   4.376   7.254  0.1355 -0.2979  0.2021
13014SOL    HW145004   3.529   4.389   7.164 -0.9155  1.2305  0.0458
13014SOL    HW245005   3.580   4.367   7.304  0.7440 -0.7655 -0.8137
13015SOL     OW45006   4.115   4.559   5.761  0.1731  0.3857 -0.0327
13015SOL    HW145007   4.055   4.505   5.709 -2.3251  2.2207  0.7583
13015SOL    HW245008   4.155   4.618   5.697 -0.7109  0.7201 -0.3016
13016SOL     OW45009   9.189   0.905   7.157 -0.0609  0.0252  0.2983
13016SOL    HW145010   9.133   0.955   7.097  0.5685  0.5061  0.0922
13016SOL    HW245011   9.200   0.963   7.232 -0.2644 -0.2837  0.5677
13017SOL     OW45012   1.443   5.725   4.355  0.3237 -0.5507  0.2695
13017SOL    HW145013   1.537   5.713   4.364  0.3287 -2.2135 -1.2713
13017SOL    HW245014   1.405   5.674   4.427  0.5971  0.0162  0.8159
13018SOL     OW45015   3.028   7.530   1.506  0.3846  0.2011 -0.0260
13018SOL    HW145016   3.090   7.481   1.451  1.7029  1.2159  0.5252
13018SOL    HW245017   3.053   7.508   1.595  0.0093  0.7125  0.2057
13019SOL     OW45018   8.188   3.052   4.825  0.3554 -0.2919  0.1429
13019SOL    HW145019   8.245   3.070   4.750  0.5297  0.4369  0.4439
13019SOL    HW245020   8.124   2.990   4.791  0.8816 -0.5523 -0.4033
13020SOL     OW45021   6.723   4.548   3.409  0.7926  0.7080 -0.3179
13020SOL    HW145022   6.676   4.544   3.492  0.7483  0.0370 -0.3739
13020SOL    HW245023   6.815   4.536   3.433  0.7154 -0.1666 -0.4260
13021SOL     OW45024   5.673   3.366   8.954  0.2218 -0.3097 -0.5783
13021SOL    HW145025   5.749   3.417   8.982  0.2566 -0.8109  0.2603
13021SOL    HW245026   5.598   3.412   8.992 -0.2076  1.7005 -3.5028
13022SOL     OW45027   7.346   2.379   1.824 -0.2955  0.5978 -0.0655
13022SOL    HW145028   7.277   2.314   1.840  1.8029 -1.8944 -0.4188
13022SOL    HW245029   7.308   2.462   1.854 -2.5293 -1.0323  2.0846
13023SOL     OW45030   0.961   8.759   2.984 -0.1095  0.5273 -0.0111
13023SOL    HW145031   0.914   8.682   3.017  0.9231  0.2844  0.9518
13023SOL    HW245032   1.044   8.725   2.952 -0.2735  1.0522 -1.0458
13024SOL     OW45033   3.932   7.943   2.305 -0.2294 -0.1248 -0.0642
13024SOL    HW145034   3.925   8.021   2.251  0.1503 -0.9059 -1.2952
13024SOL    HW245035   4.023   7.916   2.297 -0.1141 -0.1450  1.1543
13025SOL     OW45036   1.706   6.709   3.720 -0.1871  0.1311 -0.0118
13025SOL    HW145037   1.788   6.660   3.732  0.5798  1.1468 -0.9364
13025SOL    HW245038   1.662   6.702   3.804  0.8472 -0.4411  0.5067
13026SOL     OW45039   3.047   5.760   5.087 -0.8612  0.1843  0.4455
13026SOL    HW145040   3.071   5.734   5.175 -1.5838 -0.4871  0.4600
13026SOL    HW245041   2.964   5.806   5.097 -0.8701  0.2389  0.1421
13027SOL     OW45042   8.944   7.558   8.335 -0.1409 -0.6397  0.6501
13027SOL    HW145043   9.038   7.567   8.324 -0.3224 -1.1929 -2.0761
13027SOL    HW245044   8.910   7.648   8.328  0.0216 -0.6772 -0.9190
13028SOL     OW45045   8.856   5.189   9.065 -0.4314 -0.3732 -0.2335
13028SOL    HW145046   8.825   5.136   8.991 -2.7102  0.3547  0.1263
13028SOL    HW245047   8.779   5.199   9.121  0.6194  1.1388  1.0191
13029SOL     OW45048   0.645   3.961   8.341 -0.1723 -0.2225  0.0317
13029SOL    HW145049   0.609   3.890   8.288 -0.7414  0.3289 -0.3297
13029SOL    HW245050   0.643   4.038   8.284  0.4017  0.0949  0.4325
13030SOL     OW45051   7.906   8.666   4.444 -0.2131 -0.3257 -0.2479
13030SOL    HW145052   7.870   8.638   4.359  1.3789  0.9565 -1.4226
13030SOL    HW245053   7.901   8.762   4.441 -1.0199 -0.2727  1.5597
13031SOL     OW45054   0.880   2.994   7.057 -0.2576 -0.1587  0.0890
13031SOL    HW145055   0.806   3.010   6.999  0.1876  0.3928 -0.3378
13031SOL    HW245056   0.900   3.081   7.093  2.0221  0.3006 -2.0308
13032SOL     OW45057   4.576   7.090   6.951  0.1123 -0.2511 -0.0141
13032SOL    HW145058   4.508   7.116   6.888  0.2269 -1.7240 -0.7756
13032SOL    HW245059   4.527   7.050   7.023  0.1393 -1.0103 -0.4106
13033SOL     OW45060   6.528   4.412   2.195 -0.1508 -0.1468  0.3132
13033SOL    HW145061   6.474   4.450   2.126 -1.3067  0.4965  1.5273
13033SOL    HW245062   6.554   4.326   2.161  1.0976  0.9822 -1.7735
13034SOL     OW45063   3.807   3.237   8.411 -0.4403  0.0896 -0.4469
13034SOL    HW145064   3.878   3.231   8.346  0.1952  1.8395  0.0301
13034SOL    HW245065   3.734   3.274   8.362 -0.5042 -0.1684 -0.5493
13035SOL     OW45066   0.011   6.839   7.755  0.1807 -0.2415  0.2636
13035SOL    HW145067  -0.062   6.779   7.743  2.0469 -2.4348 -0.7695
13035SOL    HW245068   0.039   6.825   7.846  0.6553 -1.0294  0.0041
13036SOL     OW45069   7.846   7.055   3.707 -0.1547  0.1201 -0.6725
13036SOL    HW145070   7.898   7.056   3.627  0.8791 -0.2219 -0.0271
13036SOL    HW245071   7.839   6.962   3.729 -1.0250  0.1680 -0.7392
13037SOL     OW45072   5.967   8.467   3.354 -0.0728 -0.2752  0.6230
13037SOL    HW145073   5.879   8.432   3.343 -0.3344  0.6513 -0.3944
13037SOL    HW245074   5.955   8.547   3.406  0.3026 -0.7001  1.3792
13038SOL     OW45075   2.400   0.692   2.718  0.3047  0.0182  0.1900
13038SOL    HW145076   2.404   0.733   2.632  1.2610 -0.6789 -0.1093
13038SOL    HW245077   2.489   0.662   2.735  0.0543 -0.1583  1.2794
13039SOL     OW45078   4.985   8.937   0.047  0.5660  0.3134 -0.2357
13039SOL    HW145079   4.937   9.018   0.031 -1.2773 -0.9153 -1.3308
13039SOL    HW245080   5.054   8.936  -0.020 -1.4132 -0.4634 -2.3972
13040SOL     OW45081   8.125   8.484   3.117 -0.7041  0.1906 -0.4704
13040SOL    HW145082   8.032   8.488   3.098 -1.0251 -2.9150  0.0146
13040SOL    HW245083   8.131   8.445   3.204  1.0410  0.4334 -0.4407
13041SOL     OW45084   0.709   0.225   0.588  0.2496  0.1857 -0.4084
13041SOL    HW145085   0.717   0.217   0.683 -2.0501 -0.1739 -0.1755
13041SOL    HW245086   0.669   0.311   0.575  1.2857  0.5733 -1.1261
13042SOL     OW45087   1.460   5.198   6.684  0.8151 -0.0803 -0.2281
13042SOL    HW145088   1.499   5.273   6.639 -1.2556  0.4644 -1.2721
13042SOL    HW245089   1.369   5.198   6.654  0.0526 -1.3870  1.8748
13043SOL     OW45090   2.051   3.959   3.469 -0.2979  0.1858  0.0306
13043SOL    HW145091   2.055   4.054   3.467  0.3699  0.1613 -0.1066
13043SOL    HW245092   2.056   3.932   3.377 -1.9374  0.0535 -0.0434
13044SOL     OW45093   8.803   7.402   3.674 -0.3063 -0.6218 -0.4121
13044SOL    HW145094   8.890   7.381   3.707 -0.3265  1.4230  1.1315
13044SOL    HW245095   8.820   7.443   3.589  0.1649 -0.8913 -0.4572
13045SOL     OW45096   8.618   9.242   4.423 -0.1477 -0.2576 -0.0890
13045SOL    HW145097   8.686   9.193   4.469  0.4205  1.7097  1.2873
13045SOL    HW245098   8.550   9.177   4.405  1.7989 -2.1742 -1.0079
13046SOL     OW45099   5.888   7.094   4.426 -0.1727  0.4203  0.4599
13046SOL    HW145100   5.815   7.151   4.449 -0.4546  0.5800 -0.8051
13046SOL    HW245101   5.966   7.141   4.457 -0.4935  0.8911  0.5621
13047SOL     OW45102   4.661   6.210   6.360 -0.0349  0.1393  0.2509
13047SOL    HW145103   4.735   6.220   6.301 -0.5690  1.3224 -0.2403
13047SOL    HW245104   4.646   6.297   6.397 -1.2766 -0.0343  0.2125
13048SOL     OW45105   5.121   0.913   4.881  0.8758 -0.0027 -0.0329
13048SOL    HW145106   5.033   0.949   4.874 -0.3608 -2.1548  2.6426
13048SOL    HW245107   5.122   0.840   4.819  0.4445 -0.4600  0.4796
13049SOL     OW45108   5.148   3.625   2.893  0.0989  0.2834  0.1255
13049SOL    HW145109   5.123   3.540   2.930 -0.1679  0.0715 -0.5288
13049SOL    HW245110   5.065   3.669   2.876  0.1637 -0.0381 -1.1627
13050SOL     OW45111   5.938   1.027   7.663  0.0697  0.2541  0.0094
13050SOL    HW145112   5.988   0.951   7.634 -1.5877 -2.2433  3.0514
13050SOL    HW245113   5.995   1.069   7.727  0.1414  0.2913 -0.0782
13051SOL     OW45114   0.818   8.492   5.716 -0.8168 -0.2586  0.3462
13051SOL    HW145115   0.750   8.426   5.704 -0.8750 -0.1970  0.3293
13051SOL    HW245116   0.801   8.556   5.646  0.7463 -1.4836 -1.2563
13052SOL     OW45117   8.745   2.829   7.066 -0.0906  0.1413  0.7301
13052SOL    HW145118   8.715   2.739   7.079 -0.0220  0.1083  0.6603
13052SOL    HW245119   8.710   2.877   7.141  0.0316  0.0177  0.8701
13053SOL     OW45120   6.279   6.816   8.350 -0.1595  0.4475  0.4978
13053SOL    HW145121   6.230   6.878   8.404 -0.6366  0.4252  0.1019
13053SOL    HW245122   6.310   6.750   8.412 -1.9797 -0.4013  0.5752
13054SOL     OW45123   7.902   7.141   6.601  0.1497 -0.4265 -0.4039
13054SOL    HW145124   7.933   7.199   6.671  2.7449 -0.0189 -1.8086
13054SOL    HW245125   7.814   7.173   6.582  1.5601  3.4068 -1.3560
13055SOL     OW45126   1.762   1.143   6.382 -0.4615  0.5043  0.2094
13055SOL    HW145127   1.713   1.220   6.408 -0.2206  0.4666  0.7969
13055SOL    HW245128   1.780   1.097   6.464  2.1233  1.4557  0.2842
13056SOL     OW45129   7.251   6.563   5.329 -0.5914 -0.2213 -0.2993
13056SOL    HW145130   7.165   6.594   5.299  0.5200  1.5870 -1.8326
13056SOL    HW245131   7.291   6.524   5.252  1.0125  1.4679 -0.3972
13057SOL     OW45132   1.879   2.961   8.225  0.1415  0.6676 -0.3287
13057SOL    HW145133   1.910   2.924   8.142  2.9760  0.5349  0.6752
13057SOL    HW245134   1.909   3.052   8.224  1.2874  0.3410  0.9980
13058SOL     OW45135   0.690   4.954   2.066 -0.0172  0.2452 -0.2781
13058SOL    HW145136   0.705   4.963   2.160  0.3640 -0.1131 -0.2975
13058SOL    HW245137   0.769   4.991   2.025  0.4338 -0.8040 -0.4123
13059SOL     OW45138   7.637   1.710   4.988 -0.0544 -0.1702 -0.6030
13059SOL    HW145139   7.633   1.615   4.982  0.4954 -0.1209 -1.9392
13059SOL    HW245140   7.729   1.732   4.972 -0.1580  0.5785 -0.2077
13060SOL     OW45141   5.632   2.901   4.409  0.5905 -0.1623 -0.6672
13060SOL    HW145142   5.563   2.871   4.349 -1.3747  0.3076  1.2079
13060SOL    HW245143   5.705   2.923   4.352 -0.8949 -0.4277 -2.8203
13061SOL     OW45144   4.709   0.397   8.932  0.0385  0.1029 -0.1832
13061SOL    HW145145   4.788   0.369   8.885  0.9121  1.0007  0.6989
13061SOL    HW245146   4.742   0.439   9.011 -1.3154  1.4177 -0.2803
13062SOL     OW45147   2.178   0.082   1.021 -0.5654  0.1555 -0.3744
13062SOL    HW145148   2.138   0.141   0.957  1.0863 -0.2612 -1.8894
13062SOL    HW245149   2.236   0.138   1.072 -0.2440  0.1507 -0.7219
13063SOL     OW45150   4.827   3.349   0.168  0.3867  0.0127 -0.1283
13063SOL    HW145151   4.763   3.419   0.158  0.5499 -0.0090 -1.5033
13063SOL    HW245152   4.810   3.313   0.255 -1.0781  0.3911 -0.2285
13064SOL     OW45153   4.136   6.860   4.356  0.1748  0.2981 -0.8551
13064SOL    HW145154   4.179   6.777   4.378 -0.1561  0.9050  2.6496
13064SOL    HW245155   4.044   6.836   4.344  0.6549 -0.3632 -4.2062
13065SOL     OW45156   3.530   8.339   4.154  0.4414 -0.2146  0.4872
13065SOL    HW145157   3.507   8.431   4.165 -0.5436 -0.5245  1.1333
13065SOL    HW245158   3.450   8.291   4.174  0.4621 -1.1539 -1.4153
13066SOL     OW45159   4.328   5.851   3.844  0.5098 -1.0277  0.1070
13066SOL    HW145160   4.266   5.871   3.914  1.2542 -2.6820  1.2979
13066SOL    HW245161   4.300   5.765   3.811  2.2102 -1.8737  0.7772
13067SOL     OW45162   4.050   0.316   1.397  0.4713  0.0576 -0.4064
13067SOL    HW145163   4.096   0.294   1.316 -1.8390 -0.5457 -1.6395
13067SOL    HW245164   4.096   0.267   1.465  1.1233 -1.1711 -1.6809
13068SOL     OW45165   4.077   4.144   0.622 -0.2281 -0.3833  0.2872
13068SOL    HW145166   4.023   4.128   0.699  0.4322 -0.8341  0.6647
13068SOL    HW245167   4.146   4.202   0.652 -1.6580  1.9530 -0.6834
13069SOL     OW45168   0.664   7.428   9.349 -0.2614 -0.2411 -0.1196
13069SOL    HW145169   0.717   7.479   9.287 -0.7310  0.3221 -0.0666
13069SOL    HW245170   0.607   7.375   9.294  0.1440 -0.6282 -0.1736
13070SOL     OW45171   8.558   7.195   4.263  0.0811 -0.1976  0.2385
13070SOL    HW145172   8.558   7.240   4.178 -1.7496 -1.8286 -0.7130
13070SOL    HW245173   8.650   7.191   4.288  0.6759  0.2577 -1.7018
13071SOL     OW45174   0.977   4.986   7.977 -0.0259 -0.1857  0.8223
13071SOL    HW145175   0.984   4.978   7.882  2.4474 -1.0198  1.0138
13071SOL    HW245176   0.942   4.901   8.006 -3.8408  1.0899  0.5368
13072SOL     OW45177   3.821   5.470   1.055  0.0186 -0.0253  0.2639
13072SOL    HW145178   3.845   5.494   1.145  1.2675 -0.1321 -0.0123
13072SOL    HW245179   3.820   5.553   1.008 -3.5232  0.4377  0.9293
13073SOL     OW45180   0.047   8.539   6.803  0.3990 -0.2806 -0.1960
13073SOL    HW145181   0.069   8.503   6.889 -1.1858  0.5156  0.5791
13073SOL    HW245182   0.091   8.625   6.801 -0.6921  0.3156  0.4247
13074SOL     OW45183   5.329   8.340   8.117  0.3723 -0.5312 -0.2391
13074SOL    HW145184   5.366   8.426   8.096 -1.2209 -0.1244 -1.6232
13074SOL    HW245185   5.310   8.345   8.211  0.1795  0.6985 -0.3176
13075SOL     OW45186   7.023   9.013   6.943 -0.0099 -0.1632  0.4430
13075SOL    HW145187   7.007   8.924   6.911  1.3203  1.1384 -4.7045
13075SOL    HW245188   7.109   9.009   6.985 -0.3368 -1.3998  1.0488
13076SOL     OW45189   9.295   1.101   7.330 -0.6698 -0.3896 -0.3978
13076SOL    HW145190   9.310   1.116   7.424  0.9314  2.2410 -0.9610
13076SOL    HW245191   9.383   1.095   7.293 -1.1807  1.2737 -2.0261
13077SOL     OW45192   2.708   6.815   2.919 -0.3567 -0.0622 -0.2241
13077SOL    HW145193   2.798   6.833   2.891 -0.4332  1.1268  0.2103
13077SOL    HW245194   2.718   6.775   3.006 -0.2446  0.8387  0.1968
13078SOL     OW45195   8.395   5.534   3.639 -0.3455  0.0747 -0.8912
13078SOL    HW145196   8.311   5.550   3.683 -0.0433 -1.4771  0.3342
13078SOL    HW245197   8.427   5.621   3.616 -1.8536  0.7513 -0.5599
13079SOL     OW45198   1.709   7.845   8.071  0.3448 -0.2130 -0.3176
13079SOL    HW145199   1.778   7.785   8.101  0.7680  0.2818 -0.3030
13079SOL    HW245200   1.749   7.931   8.072  0.2021 -0.0980 -1.7583
13080SOL     OW45201   4.809   4.286   7.943  0.0843  0.5554 -0.7498
13080SOL    HW145202   4.820   4.195   7.918 -1.0062  0.0752  0.4283
13080SOL    HW245203   4.826   4.288   8.038 -1.8707  1.1685 -0.3606
13081SOL     OW45204   6.763   6.933   2.965  0.1098  0.5098  0.1987
13081SOL    HW145205   6.834   6.884   3.007  1.2710  2.8710  1.1915
13081SOL    HW245206   6.790   6.939   2.873 -0.1176 -0.7632  0.0333
13082SOL     OW45207   1.488   4.322   8.257  0.5270  0.4610  0.2465
13082SOL    HW145208   1.445   4.238   8.245 -0.8297  1.1222  0.2708
13082SOL    HW245209   1.417   4.386   8.257  1.5226  1.6135  0.2389
13083SOL     OW45210   7.474   6.944   0.524  0.2515 -0.0370 -0.0108
13083SOL    HW145211   7.546   6.936   0.587  0.3045 -0.6043 -0.1376
13083SOL    HW245212   7.479   6.864   0.472  0.3957  0.5589 -0.9410
13084SOL     OW45213   1.744   8.210   2.484  0.3065  0.2693 -0.1471
13084SOL    HW145214   1.777   8.158   2.411  0.3798  0.1632 -0.0384
13084SOL    HW245215   1.822   8.252   2.521  0.7055 -1.9077  1.6544
13085SOL     OW45216   9.235   0.998   5.923 -0.3449  0.2791 -0.0027
13085SOL    HW145217   9.148   0.965   5.903 -1.3764  1.3278  2.3492
13085SOL    HW245218   9.226   1.038   6.010  2.0850  1.9139 -0.4009
13086SOL     OW45219   8.021   6.556   8.580 -0.2688  0.0389 -0.3076
13086SOL    HW145220   7.968   6.619   8.531  1.7708  1.0111 -1.3991
13086SOL    HW245221   8.042   6.487   8.517  1.7593  0.9324 -0.7215
13087SOL     OW45222   5.074   2.171   0.335 -0.8952  0.1371  0.4329
13087SOL    HW145223   5.031   2.180   0.250 -0.9028 -0.5103  0.3566
13087SOL    HW245224   5.121   2.087   0.329  0.4450  0.8577  0.4843
13088SOL     OW45225   0.675   7.488   4.340  0.3114 -0.0388  0.0806
13088SOL    HW145226   0.616   7.434   4.288  0.9456 -0.4456 -0.2354
13088SOL    HW245227   0.694   7.563   4.284 -1.7353  1.3059  1.0865
13089SOL     OW45228   2.544   6.421   2.461  0.5835 -0.0699 -0.4257
13089SOL    HW145229   2.630   6.412   2.420  0.4265 -1.6260 -0.4855
13089SOL    HW245230   2.488   6.456   2.392  0.6781 -1.1758 -1.0810
13090SOL     OW45231   9.010   1.677   3.754 -0.1645  0.0265 -0.0204
13090SOL    HW145232   9.001   1.760   3.709 -1.5834 -1.2993 -2.4055
13090SOL    HW245233   9.090   1.638   3.718  0.5610  0.3502  1.1713
13091SOL     OW45234   8.109   8.649   8.070  0.3680 -0.4234  0.1989
13091SOL    HW145235   8.086   8.573   8.016  0.6622  0.2191 -0.8664
13091SOL    HW245236   8.059   8.637   8.151 -0.5731 -1.0957 -0.4590
13092SOL     OW45237   9.254   7.940   5.691 -0.1453  0.2594 -0.3947
13092SOL    HW145238   9.179   7.999   5.691  0.3003  0.8424  0.4579
13092SOL    HW245239   9.270   7.922   5.783  1.1280  0.6088 -0.5285
13093SOL     OW45240   6.833   6.329   5.160  0.0140 -0.4338  0.1141
13093SOL    HW145241   6.741   6.344   5.178  0.6328  1.1876  2.2558
13093SOL    HW245242   6.856   6.251   5.211  0.3345  0.5102  1.4352
13094SOL     OW45243   2.111   5.857   4.894  0.3151 -0.2799 -0.3027
13094SOL    HW145244   2.206   5.863   4.903  0.3993 -1.5389 -0.1251
13094SOL    HW245245   2.078   5.941   4.926  1.3611  0.1572 -0.3338
13095SOL     OW45246   1.481   3.814   0.527 -0.2575 -0.2274  0.9368
13095SOL    HW145247   1.440   3.809   0.614  0.8056  0.9128  1.5481
13095SOL    HW245248   1.574   3.803   0.545  0.0361  0.6847  0.0240
13096SOL     OW45249   8.009   7.319   5.798 -0.5411  0.2145  0.9682
13096SOL    HW145250   7.959   7.394   5.765  0.6945  0.7424  0.2106
13096SOL    HW245251   8.088   7.317   5.743 -0.6249 -1.7553  0.8669
13097SOL     OW45252   0.594   6.350   7.591  0.1948  0.0810 -0.0669
13097SOL    HW145253   0.552   6.339   7.676 -1.4583  0.6697 -0.7582
13097SOL    HW245254   0.610   6.444   7.584  0.8506 -0.0338 -0.1839
13098SOL     OW45255   7.358   2.350   2.519 -0.0583 -0.2591  0.0180
13098SOL    HW145256   7.425   2.348   2.587  0.2645 -0.9344 -0.3107
13098SOL    HW245257   7.295   2.415   2.549 -0.2307 -0.9576  1.2474
13099SOL     OW45258   8.467   9.137   7.610  0.6047 -0.3662  0.1138
13099SOL    HW145259   8.387   9.131   7.662  0.4220 -1.3035 -0.2549
13099SOL    HW245260   8.533   9.168   7.671  0.3452 -1.2581  0.8668
13100SOL     OW45261   4.565   8.545   7.745  0.1096 -0.0742  0.1446
13100SOL    HW145262   4.623   8.583   7.679 -1.2950  2.6958  0.3459
13100SOL    HW245263   4.483   8.530   7.698 -0.3808  0.3404  0.8599
13101SOL     OW45264   1.069   1.365   0.649 -0.2748 -0.4830  0.4639
13101SOL    HW145265   1.162   1.371   0.627 -0.5921  3.9437 -0.6147
13101SOL    HW245266   1.026   1.344   0.566 -0.3946 -0.0106  0.4052
13102SOL     OW45267   4.888   2.206   0.133  0.1697 -0.5721 -0.5996
13102SOL    HW145268   4.833   2.152   0.190 -1.2344  1.0540 -0.3305
13102SOL    HW245269   4.832   2.230   0.060  1.0555 -0.2474 -1.1946
13103SOL     OW45270   5.365   5.555   5.927 -0.0292 -0.2904  0.6484
13103SOL    HW145271   5.437   5.526   5.871  0.6484  1.5757  0.4523
13103SOL    HW245272   5.402   5.557   6.015 -0.2676 -0.6264  0.7583
13104SOL     OW45273   7.294   4.931   0.822 -0.5501  0.2964 -0.1466
13104SOL    HW145274   7.333   4.952   0.737  0.1371  1.0095  0.3283
13104SOL    HW245275   7.260   5.015   0.854 -0.5376  0.0933  0.4052
13105SOL     OW45276   4.296   7.230   2.623 -0.3245  0.3191 -0.1379
13105SOL    HW145277   4.203   7.219   2.646 -0.1168  0.4744  0.7964
13105SOL    HW245278   4.340   7.245   2.706  0.4236  1.1019 -0.6592
13106SOL     OW45279   8.666   2.055   8.187  0.4789  0.3256  0.3293
13106SOL    HW145280   8.676   1.977   8.132  2.8797  0.9780 -0.2625
13106SOL    HW245281   8.754   2.073   8.219 -0.4910  1.2561  2.6770
13107SOL     OW45282   5.929   5.381   5.385 -0.3333  0.1190 -0.0691
13107SOL    HW145283   5.966   5.357   5.300  1.0817  2.7523 -0.2697
13107SOL    HW245284   5.879   5.461   5.368 -1.0416  0.0227  1.3861
13108SOL     OW45285   5.014   7.245   6.844  0.0277  0.4213  0.3042
13108SOL    HW145286   5.095   7.252   6.794 -0.0627 -1.5220 -0.1729
13108SOL    HW245287   4.952   7.206   6.784 -0.7108  0.0679  1.2729
13109SOL     OW45288   0.477   6.727   8.307 -0.0561  0.0903 -0.3899
13109SOL    HW145289   0.509   6.655   8.361  2.3923  1.0293 -0.4931
13109SOL    HW245290   0.484   6.804   8.363 -2.1604  0.4058 -0.4596
13110SOL     OW45291   6.215   5.743   2.814  0.8516 -0.4719  0.1781
13110SOL    HW145292   6.138   5.701   2.851  0.1573 -0.2725 -0.9987
13110SOL    HW245293   6.216   5.716   2.723  0.3777  1.9696 -0.6357
13111SOL     OW45294   1.034   6.781   4.790  0.0513  0.6500 -0.4314
13111SOL    HW145295   0.960   6.740   4.747  0.6856  1.1420 -2.0696
13111SOL    HW245296   1.105   6.716   4.784 -0.0770  0.3905  0.6501
13112SOL     OW45297   3.534   6.159   0.301  0.2601  0.0317  0.0568
13112SOL    HW145298   3.570   6.088   0.249 -1.2140 -0.1858 -0.7046
13112SOL    HW245299   3.501   6.117   0.381 -0.7450 -0.1863 -0.4582
13113SOL     OW45300   7.430   8.114   8.663 -0.7841 -0.0150 -0.1062
13113SOL    HW145301   7.351   8.107   8.715 -0.7967  1.5445  0.1289
13113SOL    HW245302   7.461   8.024   8.653 -0.9495 -0.3946  2.3146
13114SOL     OW45303   1.603   0.377   1.302 -0.0721  0.1356  0.3665
13114SOL    HW145304   1.673   0.313   1.287 -0.8118 -0.7587  0.6554
13114SOL    HW245305   1.570   0.357   1.389 -0.0371  1.1984  0.6350
13115SOL     OW45306   5.694   5.831   4.503 -0.3196 -0.1653  0.2500
13115SOL    HW145307   5.747   5.897   4.459 -0.2622 -1.2555 -1.4025
13115SOL    HW245308   5.753   5.789   4.565  0.3732 -0.3810 -0.5350
13116SOL     OW45309   8.650   1.133   1.129  0.2691  0.0783  0.3156
13116SOL    HW145310   8.574   1.089   1.167 -0.4489  0.9378 -0.0800
13116SOL    HW245311   8.715   1.135   1.199 -0.2228 -0.3216  0.7858
13117SOL     OW45312   3.751   4.925   8.598  0.2873  0.5783 -0.1186
13117SOL    HW145313   3.765   4.873   8.519  2.2012  2.4865 -1.1131
13117SOL    HW245314   3.807   4.884   8.664 -1.1609 -0.8918  0.2774
13118SOL     OW45315   4.650   1.783   1.511  0.0455 -0.3427 -0.3347
13118SOL    HW145316   4.570   1.781   1.563 -0.8491 -3.1297 -1.6058
13118SOL    HW245317   4.623   1.751   1.425  2.6653 -2.4586 -0.4914
13119SOL     OW45318   3.825   0.691   6.671  0.6743  0.0377  0.1351
13119SOL    HW145319   3.745   0.719   6.716  0.7882  0.2131  0.2307
13119SOL    HW245320   3.810   0.714   6.579  1.1689  1.3511  0.3632
13120SOL     OW45321   2.100   6.249   3.374  0.1316  0.5322  0.5543
13120SOL    HW145322   2.076   6.171   3.423  0.7279 -0.0672 -0.0854
13120SOL    HW245323   2.196   6.246   3.370  0.0934  0.4904 -0.7578
13121SOL     OW45324   1.194   8.333   3.584  0.1167 -0.1269 -0.3479
13121SOL    HW145325   1.168   8.248   3.547  0.2545 -1.1972  1.8355
13121SOL    HW245326   1.116   8.362   3.633  0.6595  0.1242  0.3778
13122SOL     OW45327   2.943   0.449   4.541  0.2047 -0.0063  0.9261
13122SOL    HW145328   2.955   0.376   4.602 -1.1379  0.1769  1.4275
13122SOL    HW245329   3.032   0.483   4.527  0.6878 -0.8985  1.7154
13123SOL     OW45330   8.531   7.143   5.752  0.1228  0.0598 -0.1759
13123SOL    HW145331   8.541   7.215   5.690 -0.0973  0.1016 -0.1615
13123SOL    HW245332   8.438   7.142   5.774 -0.3627 -1.7509 -2.0042
13124SOL     OW45333   2.686   0.455   5.490 -0.2876 -0.0107 -0.0328
13124SOL    HW145334   2.777   0.449   5.518 -0.6924  1.9358  2.0742
13124SOL    HW245335   2.639   0.392   5.544 -0.4234  0.3916  0.3322
13125SOL     OW45336   6.245   9.175   8.769 -0.2044 -0.1347 -0.0937
13125SOL    HW145337   6.153   9.157   8.749 -1.2357  1.8126  2.3357
13125SOL    HW245338   6.259   9.264   8.737  0.0094  0.5439  1.7595
13126SOL     OW45339   4.012   3.306   7.288 -0.0258  0.0475  0.8649
13126SOL    HW145340   4.015   3.401   7.292  0.5772  0.0183  1.3007
13126SOL    HW245341   4.046   3.285   7.201 -0.7818  0.2445  0.5134
13127SOL     OW45342   8.118   4.940   8.507  0.4162  0.3461  0.4482
13127SOL    HW145343   8.202   4.922   8.465 -0.1683  1.5873 -1.4103
13127SOL    HW245344   8.053   4.904   8.446 -0.4380 -0.8275  1.9803
13128SOL     OW45345   6.528   3.032   6.967  0.3355  0.3047  0.2833
13128SOL    HW145346   6.564   3.103   7.019 -0.5316  0.7198  0.3318
13128SOL    HW245347   6.433   3.043   6.973  0.2058  0.2489 -1.2148
13129SOL     OW45348   9.230   4.856   9.371 -0.7585 -0.0724  0.2855
13129SOL    HW145349   9.176   4.927   9.337 -1.9972 -0.4941  1.2762
13129SOL    HW245350   9.262   4.887   9.456 -0.7086 -0.4124  0.3951
13130SOL     OW45351   3.559   8.607   5.434 -0.0080 -0.1191 -0.4681
13130SOL    HW145352   3.642   8.570   5.462 -0.2941 -1.3011 -1.1134
13130SOL    HW245353   3.559   8.597   5.339 -1.0753 -0.5661 -0.4348
13131SOL     OW45354   3.176   2.320   1.837 -0.2339 -0.7393 -0.3866
13131SOL    HW145355   3.127   2.379   1.895  0.7837 -0.5746  0.3369
13131SOL    HW245356   3.121   2.243   1.829 -1.1281 -0.1088 -0.5148
13132SOL     OW45357   1.403   6.273   0.158 -0.0340 -0.2325 -0.1107
13132SOL    HW145358   1.375   6.229   0.078  0.8647 -0.8090 -0.1201
13132SOL    HW245359   1.401   6.204   0.225  0.4843 -0.0669  0.0759
13133SOL     OW45360   2.002   4.131   0.994 -0.2403 -0.0546 -0.3541
13133SOL    HW145361   1.974   4.204   0.939 -0.2409 -0.8323 -1.4049
13133SOL    HW245362   2.016   4.171   1.081  2.1345  1.7256 -1.4211
13134SOL     OW45363   5.442   1.092   5.454  0.3033 -0.0778  0.2594
13134SOL    HW145364   5.443   1.113   5.547  0.9429  1.5828 -0.0934
13134SOL    HW245365   5.407   1.170   5.412 -0.7571 -1.1020 -0.8460
13135SOL     OW45366   7.515   1.274   7.374  0.3747  0.5830 -0.1936
13135SOL    HW145367   7.458   1.351   7.376  0.5387  0.7770  2.8514
13135SOL    HW245368   7.503   1.234   7.461  1.1453 -2.2076 -1.2741
13136SOL     OW45369   1.176   1.156   7.298 -0.4363  0.4568 -0.1460
13136SOL    HW145370   1.108   1.223   7.305 -1.1236 -0.2142 -0.1975
13136SOL    HW245371   1.132   1.075   7.322  0.6337  0.1567  0.8935
13137SOL     OW45372   0.831   3.464   7.570 -0.1374  0.5584  0.1493
13137SOL    HW145373   0.746   3.423   7.581  1.2019 -2.9306 -1.0628
13137SOL    HW245374   0.882   3.433   7.646  1.0229 -0.4183 -0.9810
13138SOL     OW45375   6.885   8.742   9.335 -0.0984 -0.1114 -0.0936
13138SOL    HW145376   6.924   8.789   9.409  0.6056 -1.2624  0.2901
13138SOL    HW245377   6.864   8.811   9.272  0.0897  0.8044  0.8067
13139SOL     OW45378   5.746   5.499   6.648  0.3167  0.2455  0.3729
13139SOL    HW145379   5.820   5.554   6.672  0.0961  1.0675 -0.7413
13139SOL    HW245380   5.768   5.467   6.560 -0.1516 -0.3921  0.4821
13140SOL     OW45381   5.695   3.461   3.986 -0.2771  0.2922  0.1267
13140SOL    HW145382   5.640   3.415   4.050  0.6175  1.5435  1.8769
13140SOL    HW245383   5.660   3.550   3.984  0.4305  0.5708 -0.2476
13141SOL     OW45384   8.303   2.071   2.005  0.0548  0.4547 -0.6188
13141SOL    HW145385   8.289   1.985   1.967  0.1144 -0.2498  0.8806
13141SOL    HW245386   8.391   2.096   1.978  0.3645 -0.3371 -0.3401
13142SOL     OW45387   7.590   4.717   5.763  0.0320 -0.0283 -0.7245
13142SOL    HW145388   7.639   4.646   5.806 -0.8501  0.2271  0.7423
13142SOL    HW245389   7.632   4.797   5.793  0.5731  0.1329 -1.8276
13143SOL     OW45390   2.213   5.010   0.593  0.0393  0.3700 -0.0306
13143SOL    HW145391   2.232   5.101   0.616 -0.2629  0.4465 -0.0713
13143SOL    HW245392   2.120   5.000   0.612  0.3760 -0.3571  1.3617
13144SOL     OW45393   7.283   4.802   8.656 -0.1884 -0.0148 -0.0353
13144SOL    HW145394   7.323   4.756   8.582 -0.0100 -1.2852  0.8123
13144SOL    HW245395   7.200   4.835   8.621 -0.0243 -0.4266 -0.8585
13145SOL     OW45396   7.722   1.382   5.437 -0.2432  0.8608 -0.0754
13145SOL    HW145397   7.728   1.474   5.464 -1.6515  1.0198 -0.2481
13145SOL    HW245398   7.635   1.374   5.397  0.4405 -0.1976 -1.4357
13146SOL     OW45399   7.468   1.451   5.639  0.2152 -0.2882  0.0786
13146SOL    HW145400   7.394   1.437   5.580  0.8719  0.9509 -1.0948
13146SOL    HW245401   7.432   1.503   5.711 -0.5087 -1.4803  0.5945
13147SOL     OW45402   7.161   1.805   3.089 -0.1420 -0.2965  0.2914
13147SOL    HW145403   7.135   1.897   3.082 -2.2601 -0.7961  0.8442
13147SOL    HW245404   7.210   1.787   3.009  1.0497  1.5094  0.5606
13148SOL     OW45405   0.389   0.056   4.290 -0.1653 -0.5437 -0.3708
13148SOL    HW145406   0.315  -0.005   4.287  0.2292 -1.1156  0.6111
13148SOL    HW245407   0.466  -0.001   4.288  0.2507  0.0339 -1.1890
13149SOL     OW45408   9.117   6.559   4.880  0.5888 -0.2245  0.0473
13149SOL    HW145409   9.180   6.631   4.876 -0.7579  1.0314  0.6597
13149SOL    HW245410   9.067   6.566   4.798  0.2862 -0.3088  0.2231
13150SOL     OW45411   5.750   7.365   2.808 -0.5166 -0.3041 -0.1218
13150SOL    HW145412   5.767   7.409   2.891  1.0750  0.1865 -0.6550
13150SOL    HW245413   5.658   7.340   2.811 -1.0985  1.7827  0.8115
13151SOL     OW45414   8.554   1.224   7.905  0.1764  0.5358  0.3009
13151SOL    HW145415   8.535   1.171   7.983  0.4995 -0.7200 -0.4516
13151SOL    HW245416   8.624   1.282   7.933  1.1172 -0.7142  0.6401
13152SOL     OW45417   1.503   6.570   4.297  0.7685 -0.0538  0.1634
13152SOL    HW145418   1.441   6.633   4.332  0.2870  0.3084 -1.2445
13152SOL    HW245419   1.492   6.492   4.351  0.3013  0.5637  0.9875
13153SOL     OW45420   5.536   6.519   5.734 -0.1227  0.5615 -0.0822
13153SOL    HW145421   5.510   6.427   5.736  1.2595  0.1533  0.3931
13153SOL    HW245422   5.494   6.554   5.655 -2.3604  0.0751  0.8032
13154SOL     OW45423   8.369   3.795   5.535 -0.0297 -0.0280 -0.3048
13154SOL    HW145424   8.287   3.773   5.580 -0.6240  0.7301 -0.9923
13154SOL    HW245425   8.355   3.883   5.501  1.3761  0.4314  0.2516
13155SOL     OW45426   8.848   7.392   6.801 -0.4112 -0.5712 -0.1508
13155SOL    HW145427   8.859   7.482   6.832  0.6181 -0.4982 -0.6727
13155SOL    HW245428   8.848   7.339   6.880 -1.1144 -0.1082  0.1651
13156SOL     OW45429   7.444   4.601   8.117  0.8556 -0.3111 -0.3416
13156SOL    HW145430   7.433   4.506   8.122 -0.0932 -0.1389  1.1473
13156SOL    HW245431   7.356   4.635   8.100  0.8996  0.3923  0.7460
13157SOL     OW45432   4.123   5.525   7.851  0.5644  0.3621 -0.3488
13157SOL    HW145433   4.126   5.475   7.769  2.5736  1.2861 -0.9118
13157SOL    HW245434   4.208   5.568   7.855 -0.2393  1.9080  1.2608
13158SOL     OW45435   7.434   3.630   9.073 -0.8370 -0.6706 -0.4643
13158SOL    HW145436   7.512   3.665   9.030  0.5479 -1.6047  1.1452
13158SOL    HW245437   7.375   3.705   9.080  0.1467  0.2098 -1.2178
13159SOL     OW45438   0.263   0.325   8.456  0.3097 -0.6564 -0.0223
13159SOL    HW145439   0.192   0.271   8.490  1.0197 -2.0128 -0.6055
13159SOL    HW245440   0.326   0.330   8.528 -0.9800  1.8151  1.0431
13160SOL     OW45441   4.263   4.071   8.531 -0.2152 -0.2021  0.0888
13160SOL    HW145442   4.349   4.053   8.493  0.0990  0.8926  0.2516
13160SOL    HW245443   4.204   4.074   8.455  0.3176  1.4234 -0.3169
13161SOL     OW45444   1.309   2.463   0.661  0.3603 -0.0996 -0.1322
13161SOL    HW145445   1.241   2.527   0.677 -1.1377 -1.5457 -0.4559
13161SOL    HW245446   1.344   2.486   0.574 -0.4614  0.0218 -0.4375
13162SOL     OW45447   7.854   1.655   7.947 -0.1085  0.4636  0.1586
13162SOL    HW145448   7.925   1.613   7.996  0.0478 -0.2255 -0.6204
13162SOL    HW245449   7.813   1.583   7.900 -0.5734  1.0347 -0.3146
13163SOL     OW45450   7.209   8.904   0.163  0.5001 -0.1658  0.1200
13163SOL    HW145451   7.155   8.963   0.110  0.3106 -0.8002 -0.4102
13163SOL    HW245452   7.145   8.849   0.209  0.6497  0.6251  1.3218
13164SOL     OW45453   7.397   3.320   0.808 -0.2632  0.2495 -0.0562
13164SOL    HW145454   7.347   3.393   0.846  1.7954  1.6111  0.1635
13164SOL    HW245455   7.488   3.347   0.813  0.5817 -2.2659 -0.2101
13165SOL     OW45456   7.442   2.169   8.236  0.4336 -0.0712 -0.5022
13165SOL    HW145457   7.362   2.152   8.287 -0.5187  2.1660 -1.1127
13165SOL    HW245458   7.498   2.219   8.295 -0.1864  1.5234 -1.2230
13166SOL     OW45459   6.670   6.124   4.499  0.2881  0.0848 -0.2303
13166SOL    HW145460   6.645   6.208   4.537  2.2586  1.2352 -1.3086
13166SOL    HW245461   6.749   6.098   4.547 -0.4687 -1.3493  0.3061
13167SOL     OW45462   7.646   3.919   4.875  0.1144 -0.3912  0.5788
13167SOL    HW145463   7.722   3.960   4.916  1.4196 -0.5557 -1.5037
13167SOL    HW245464   7.572   3.970   4.906  1.2677  0.9525  1.2412
13168SOL     OW45465   0.067   3.861   0.068 -0.3305 -0.0752 -0.3327
13168SOL    HW145466   0.021   3.918   0.007 -0.6503  0.1779  0.1319
13168SOL    HW245467   0.006   3.788   0.082 -0.5785  0.2355  0.2462
13169SOL     OW45468   8.753   0.534   8.753  0.1937  1.0414 -0.3582
13169SOL    HW145469   8.805   0.462   8.789  0.1845  1.0628 -0.3016
13169SOL    HW245470   8.695   0.492   8.690 -0.2631  0.9078  0.1485
13170SOL     OW45471   2.319   2.810   8.911 -0.1511  0.4908 -0.2529
13170SOL    HW145472   2.399   2.789   8.863 -1.3173 -0.9279 -1.6643
13170SOL    HW245473   2.330   2.765   8.995 -0.0278 -0.8262 -0.9537
13171SOL     OW45474   1.902   0.805   7.923 -0.1669  0.0545 -0.2681
13171SOL    HW145475   1.843   0.850   7.983 -1.6003  0.1998 -1.6992
13171SOL    HW245476   1.897   0.713   7.949 -2.7424 -0.2942 -1.5885
13172SOL     OW45477   7.511   3.941   6.344  0.1865  0.0316 -0.0861
13172SOL    HW145478   7.550   4.009   6.290  1.1660 -0.3018  0.1772
13172SOL    HW245479   7.461   3.989   6.410  0.3100  0.4775 -0.3142
13173SOL     OW45480   7.372   8.364   6.214 -0.4510  0.3662 -0.1673
13173SOL    HW145481   7.371   8.456   6.242 -0.1676  0.2743  0.1490
13173SOL    HW245482   7.368   8.368   6.118 -0.7072  0.7012 -0.1437
13174SOL     OW45483   9.369   6.077   4.346 -0.1514  0.3038  0.3673
13174SOL    HW145484   9.390   6.127   4.425  0.4490  3.3037 -1.4886
13174SOL    HW245485   9.284   6.112   4.318 -0.7031 -1.2352  0.0465
13175SOL     OW45486   9.042   6.543   1.681 -0.2342  0.9063  0.0159
13175SOL    HW145487   8.978   6.597   1.728 -1.2050  0.0060 -0.2448
13175SOL    HW245488   9.007   6.454   1.686  0.8019  0.4562 -0.4801
13176SOL     OW45489   5.409   5.338   6.840  0.6777  0.3923 -0.1417
13176SOL    HW145490   5.367   5.265   6.886  2.5635  0.8971  2.6171
13176SOL    HW245491   5.390   5.322   6.747 -2.3709 -1.3499  0.6412
13177SOL     OW45492   6.240   3.745   8.587  0.5559 -0.6807  0.3872
13177SOL    HW145493   6.214   3.805   8.517  2.7878  2.9838  2.3711
13177SOL    HW245494   6.274   3.668   8.541 -3.4617 -1.1578 -2.3031
13178SOL     OW45495   4.583   4.864   6.220 -0.5002  0.0841  0.0221
13178SOL    HW145496   4.642   4.790   6.236  0.8401  0.9168 -0.8867
13178SOL    HW245497   4.498   4.824   6.202  0.6026 -1.3633 -2.3935
13179SOL     OW45498   4.298   7.705   8.940 -0.4168 -0.0667 -0.2049
13179SOL    HW145499   4.316   7.611   8.927  0.6603  0.0102  0.5870
13179SOL    HW245500   4.280   7.738   8.852  0.8606 -0.7055 -0.7326
13180SOL     OW45501   5.266   7.365   1.715 -0.2164  0.0398  0.1479
13180SOL    HW145502   5.220   7.283   1.737 -0.6272  0.3281  0.3736
13180SOL    HW245503   5.293   7.353   1.624 -0.2311 -0.3683  0.1938
13181SOL     OW45504   4.402   7.082   2.415  0.4013  0.6266 -0.0305
13181SOL    HW145505   4.438   6.994   2.428 -0.0818  0.4386  0.0765
13181SOL    HW245506   4.363   7.104   2.500  0.5891  0.9770 -0.0346
13182SOL     OW45507   5.984   1.733   2.775 -0.1893 -0.0665  0.6248
13182SOL    HW145508   5.967   1.827   2.777 -0.6532 -0.1535  0.9101
13182SOL    HW245509   6.075   1.726   2.747 -0.8453  0.3700 -1.8179
13183SOL     OW45510   7.844   2.621   3.217  0.3872 -0.0800  0.0929
13183SOL    HW145511   7.901   2.693   3.244  2.5576 -0.9637 -1.7974
13183SOL    HW245512   7.773   2.663   3.168 -0.5341  1.0275  2.2637
13184SOL     OW45513   1.352   4.765   3.097  0.1929  0.2572  0.5466
13184SOL    HW145514   1.447   4.757   3.106  0.2359 -2.1208 -1.0471
13184SOL    HW245515   1.328   4.692   3.039 -2.4897  1.3591  0.1570
13185SOL     OW45516   5.406   7.968   3.701  0.2912  0.3109  0.1528
13185SOL    HW145517   5.411   7.963   3.796  0.9055 -2.1456  0.0446
13185SOL    HW245518   5.495   7.989   3.673  0.2828  0.2641  0.0898
13186SOL     OW45519   6.707   3.756   0.473  0.2905  0.5804  0.1447
13186SOL    HW145520   6.701   3.726   0.563  3.2345  0.1855  0.2873
13186SOL    HW245521   6.677   3.681   0.421 -0.2231  0.3696  0.7318
13187SOL     OW45522   8.374   6.973   2.391 -0.4860  0.0976 -0.0681
13187SOL    HW145523   8.464   6.963   2.360 -0.4806 -0.4122  0.1018
13187SOL    HW245524   8.320   6.952   2.315 -0.5178 -3.3643  0.7522
13188SOL     OW45525   0.227   5.413   7.580  0.4718 -0.0522 -0.3938
13188SOL    HW145526   0.314   5.384   7.607  0.1525 -0.7630 -0.0837
13188SOL    HW245527   0.243   5.484   7.518  1.2592  0.5833  0.5041
13189SOL     OW45528   4.088   2.267   0.410 -0.2251 -0.2596 -0.7009
13189SOL    HW145529   4.099   2.178   0.446  0.3510  0.4044  0.8638
13189SOL    HW245530   4.177   2.293   0.385  0.1569  0.9782  1.6823
13190SOL     OW45531   2.657   6.436   2.723  0.0927  0.0539 -0.3449
13190SOL    HW145532   2.647   6.442   2.628 -0.6780 -0.5207 -0.3146
13190SOL    HW245533   2.665   6.527   2.752 -1.9585  0.4043 -0.7439
13191SOL     OW45534   8.280   5.796   7.960  0.0652 -0.0715 -0.2036
13191SOL    HW145535   8.204   5.767   8.010  0.8158 -1.7783  0.0099
13191SOL    HW245536   8.253   5.788   7.869  0.9665 -4.0189 -0.3158
13192SOL     OW45537   8.460   5.046   0.346  0.1694 -0.0064  0.3294
13192SOL    HW145538   8.495   5.015   0.430 -0.7775 -2.6069 -0.1369
13192SOL    HW245539   8.536   5.047   0.288  0.3585 -0.8905  0.5429
13193SOL     OW45540   8.292   1.657   0.572 -0.3989  0.8111  0.4466
13193SOL    HW145541   8.254   1.580   0.614 -0.7184  0.8274  0.1959
13193SOL    HW245542   8.322   1.711   0.645  0.1244  0.3052  0.6145
13194SOL     OW45543   3.731   3.950   6.555 -0.0601 -0.3844 -0.0762
13194SOL    HW145544   3.757   4.004   6.480  0.4890  0.7181  0.8838
13194SOL    HW245545   3.807   3.949   6.612 -0.3857 -1.4287  0.3658
13195SOL     OW45546   7.866   5.986   0.507 -0.3050  0.1222  0.1652
13195SOL    HW145547   7.928   5.935   0.455  0.0514  0.2954  0.4137
13195SOL    HW245548   7.827   6.047   0.445 -0.5936 -0.3214 -0.0949
13196SOL     OW45549   8.490   3.937   8.165 -0.3301  0.3115 -0.2319
13196SOL    HW145550   8.517   4.000   8.098 -0.1549 -1.0591 -1.5147
13196SOL    HW245551   8.434   3.875   8.118 -1.5141  0.1906  1.2632
13197SOL     OW45552   7.795   7.680   3.669 -0.3043  0.0726 -0.0736
13197SOL    HW145553   7.855   7.726   3.611  0.4695 -1.1334 -0.2738
13197SOL    HW245554   7.844   7.666   3.750 -0.5210 -0.4030 -0.0185
13198SOL     OW45555   3.389   8.252   8.287  0.7107 -0.2786 -0.8691
13198SOL    HW145556   3.442   8.179   8.320 -1.0914 -1.2235  0.0645
13198SOL    HW245557   3.396   8.246   8.192  0.4854 -1.7656 -0.8100
13199SOL     OW45558   9.347   6.898   1.988  0.4246 -0.2615  0.7706
13199SOL    HW145559   9.339   6.970   1.925  1.5217  0.1079  1.0369
13199SOL    HW245560   9.293   6.926   2.062  0.5415  0.1171  0.7157
13200SOL     OW45561   1.196   5.477   7.538  0.3670  0.2298 -0.0676
13200SOL    HW145562   1.104   5.499   7.554 -0.1541 -1.2229 -0.9450
13200SOL    HW245563   1.200   5.382   7.543  1.6520  0.2080 -0.9010
13201SOL     OW45564   2.152   8.919   0.853 -0.5933 -0.7014  0.4814
13201SOL    HW145565   2.071   8.870   0.837 -1.1341 -0.0113  1.0440
13201SOL    HW245566   2.199   8.865   0.917 -0.9027 -0.7962  0.6322
13202SOL     OW45567   4.818   6.773   5.937 -0.5126 -0.2480 -0.1066
13202SOL    HW145568   4.783   6.862   5.946  1.0941  0.4752 -0.7580
13202SOL    HW245569   4.799   6.731   6.022  1.4855  1.7429  1.4386
13203SOL     OW45570   8.025   6.208   9.318  0.1113 -0.0284 -0.4142
13203SOL    HW145571   8.079   6.161   9.254 -1.2752 -0.7912 -1.0771
13203SOL    HW245572   8.050   6.299   9.309  0.8769 -0.2970 -1.1051
13204SOL     OW45573   4.744   6.724   1.706  0.0260 -0.1235 -0.4141
13204SOL    HW145574   4.755   6.754   1.616  2.3038 -0.7095 -0.3954
13204SOL    HW245575   4.723   6.803   1.756 -2.4410  0.0414 -1.5629
13205SOL     OW45576   1.479   6.291   3.392  0.5831 -0.4197 -0.0834
13205SOL    HW145577   1.476   6.264   3.300 -0.1136 -1.1010  0.1195
13205SOL    HW245578   1.572   6.300   3.412  0.7216  0.8488 -1.1582
13206SOL     OW45579   8.816   4.380   7.030 -0.1553  0.8860  0.3755
13206SOL    HW145580   8.778   4.468   7.031  1.1139  1.4871 -0.8493
13206SOL    HW245581   8.908   4.394   7.009  0.1307 -0.7286  0.4152
13207SOL     OW45582   8.151   2.225   8.139 -0.0636  0.5209  0.5349
13207SOL    HW145583   8.239   2.187   8.138 -0.3852 -0.2546 -0.8506
13207SOL    HW245584   8.106   2.179   8.210 -0.1163 -0.9842 -0.4180
13208SOL     OW45585   4.486   1.768   5.999  0.2036  0.2569 -0.4137
13208SOL    HW145586   4.576   1.785   5.971 -0.0515 -1.0781 -2.2282
13208SOL    HW245587   4.436   1.763   5.917 -1.2298 -0.6279  0.4758
13209SOL     OW45588   4.012   8.984   3.843  0.4712  0.2538 -0.2933
13209SOL    HW145589   4.075   8.913   3.836 -0.2805 -0.3466 -1.2715
13209SOL    HW245590   4.059   9.062   3.814  1.1457  0.0698  0.2852
13210SOL     OW45591   7.491   0.873   2.292 -0.6390  0.3637 -0.2873
13210SOL    HW145592   7.535   0.943   2.342 -0.6156  0.3079 -0.2298
13210SOL    HW245593   7.402   0.906   2.280 -0.8539  0.0675  0.4135
13211SOL     OW45594   3.363   5.479   5.189 -0.7017 -0.0210  0.4288
13211SOL    HW145595   3.332   5.392   5.211 -0.9273  0.0277  0.2992
13211SOL    HW245596   3.455   5.479   5.218 -0.4591 -0.5721 -0.3111
13212SOL     OW45597   0.350   7.881   6.867 -0.4878  0.3696  0.2823
13212SOL    HW145598   0.304   7.961   6.893 -0.1510  0.6138  0.1264
13212SOL    HW245599   0.318   7.814   6.928  0.5865  1.0253  1.5963
13213SOL     OW45600   7.605   4.286   7.797  0.5837  0.1988  0.0581
13213SOL    HW145601   7.550   4.252   7.868  0.5925  0.7234  0.3204
13213SOL    HW245602   7.550   4.279   7.719 -0.7130  2.7393  0.6445
13214SOL     OW45603   8.088   0.155   2.904 -0.3892  0.5262  0.0570
13214SOL    HW145604   8.143   0.077   2.917  0.5220  1.1235 -0.1525
13214SOL    HW245605   8.030   0.155   2.980  2.0649  1.6289  2.1002
13215SOL     OW45606   2.037   6.036   4.444  0.2119  0.0106 -0.3306
13215SOL    HW145607   2.038   6.107   4.508 -0.8848 -0.1882 -0.0731
13215SOL    HW245608   2.111   5.981   4.468 -0.2495 -0.1295  0.8720
13216SOL     OW45609   8.685   1.417   3.009 -0.5297 -0.5473  0.4878
13216SOL    HW145610   8.623   1.484   2.978  2.1551  3.3326  2.6166
13216SOL    HW245611   8.716   1.374   2.929  0.8494  4.0013 -1.7741
13217SOL     OW45612   2.509   1.294   8.962  0.1232  1.1337  0.5227
13217SOL    HW145613   2.466   1.342   9.033  1.5984  0.7384  1.7278
13217SOL    HW245614   2.488   1.202   8.980 -0.9472  1.1351 -0.5851
13218SOL     OW45615   6.850   5.557   3.174 -0.5621  0.2511 -0.3984
13218SOL    HW145616   6.778   5.573   3.235  0.5440  1.9671  0.5243
13218SOL    HW245617   6.866   5.463   3.181 -0.5558  0.3639  1.8723
13219SOL     OW45618   5.976   0.038   2.729  0.5353  0.2818 -0.2718
13219SOL    HW145619   5.895  -0.006   2.754  1.2660 -1.4054 -0.6930
13219SOL    HW245620   6.041   0.003   2.790  1.4205 -0.3458 -1.5268
13220SOL     OW45621   8.621   4.802   5.986  0.0587  0.8945  0.4068
13220SOL    HW145622   8.587   4.860   5.917  0.0625 -0.4596 -0.7738
13220SOL    HW245623   8.543   4.762   6.024  0.1787 -0.7439 -0.9867
13221SOL     OW45624   3.740   6.400   4.257  0.2526 -0.0085  0.6916
13221SOL    HW145625   3.790   6.433   4.331 -0.4122 -1.1071  1.6731
13221SOL    HW245626   3.804   6.387   4.187  1.5115 -1.9987  2.1245
13222SOL     OW45627   8.559   1.212   2.721 -0.0370  0.5777  0.3172
13222SOL    HW145628   8.548   1.190   2.629 -1.3796  2.4307 -0.0367
13222SOL    HW245629   8.644   1.254   2.726  0.2440  0.0562  0.0241
13223SOL     OW45630   8.943   0.198   2.330  0.5360 -0.2013 -0.4687
13223SOL    HW145631   8.900   0.283   2.335  1.1171  0.0625  0.3311
13223SOL    HW245632   9.037   0.219   2.330  0.6910 -0.8474  0.1449
13224SOL     OW45633   3.848   2.883   0.644  0.2447  0.0226 -0.9504
13224SOL    HW145634   3.882   2.970   0.664 -0.6616  0.3295 -0.6523
13224SOL    HW245635   3.773   2.873   0.703  1.7451 -1.9435  0.7880
13225SOL     OW45636   1.148   3.233   2.096  0.4995 -0.0244  0.0339
13225SOL    HW145637   1.158   3.139   2.110 -0.6743 -0.4954 -1.9233
13225SOL    HW245638   1.214   3.273   2.153 -1.8003 -1.7235  4.3033
13226SOL     OW45639   0.594   9.158   7.214  0.0832 -0.2872  0.0973
13226SOL    HW145640   0.575   9.065   7.223  2.2821 -0.6488  1.7816
13226SOL    HW245641   0.524   9.202   7.263 -0.0100 -1.1429  0.7369
13227SOL     OW45642   3.273   6.257   3.845 -0.1359  0.2892 -1.0419
13227SOL    HW145643   3.354   6.240   3.797 -0.5593 -0.1789 -1.6091
13227SOL    HW245644   3.241   6.170   3.869  1.3402  0.5218  2.3427
13228SOL     OW45645   4.821   2.484   8.864  0.4095  0.3504  0.2814
13228SOL    HW145646   4.774   2.554   8.910  0.3703 -0.0028  0.7887
13228SOL    HW245647   4.901   2.526   8.831 -0.0805  0.8702 -0.2772
13229SOL     OW45648   8.976   5.782   3.429 -0.5426  0.3349 -0.3627
13229SOL    HW145649   9.061   5.794   3.387 -0.6604 -0.6232 -0.8932
13229SOL    HW245650   8.937   5.869   3.428  0.9221  1.0582  1.0130
13230SOL     OW45651   7.955   8.514   8.607 -0.4914  0.7251  0.1898
13230SOL    HW145652   8.029   8.570   8.583 -0.3635  0.8736  0.9207
13230SOL    HW245653   7.921   8.553   8.687 -1.9179  1.1836 -0.6116
13231SOL     OW45654   5.327   5.040   1.227  0.2780 -0.1169 -0.1339
13231SOL    HW145655   5.396   4.987   1.186 -1.0607 -0.8294 -1.5935
13231SOL    HW245656   5.257   5.042   1.162 -0.9324  0.9147  1.1394
13232SOL     OW45657   0.011   6.945   4.737 -0.3879  0.4386  0.2656
13232SOL    HW145658   0.058   6.939   4.653 -0.4238  0.2854  0.2553
13232SOL    HW245659   0.075   6.916   4.802 -1.0439 -1.7000  0.0475
13233SOL     OW45660   7.704   4.411   6.736 -0.3778 -0.1097  0.1494
13233SOL    HW145661   7.748   4.402   6.821 -1.2825 -0.6040  0.5862
13233SOL    HW245662   7.648   4.488   6.746  1.1904  1.2253 -0.7965
13234SOL     OW45663   5.763   5.548   6.055 -0.4288 -0.4686 -0.0633
13234SOL    HW145664   5.749   5.456   6.076 -2.5069 -0.4750 -1.2315
13234SOL    HW245665   5.692   5.570   5.995 -0.0165  1.9248  0.2295
13235SOL     OW45666   5.391   1.318   5.259 -0.0365 -0.2452  0.0688
13235SOL    HW145667   5.405   1.267   5.180  3.0585  0.9024 -0.2481
13235SOL    HW245668   5.371   1.406   5.228 -1.7043 -0.3816  0.6276
13236SOL     OW45669   7.709   7.975   3.684 -0.2521  0.4376  0.3253
13236SOL    HW145670   7.790   7.925   3.697 -0.4918 -0.7671 -2.2127
13236SOL    HW245671   7.697   7.976   3.589 -3.0081  0.9644  0.6126
13237SOL     OW45672   5.297   0.908   5.766 -0.0819 -0.3720 -0.3364
13237SOL    HW145673   5.317   0.843   5.833  0.8418 -0.2062 -0.4443
13237SOL    HW245674   5.355   0.981   5.785  0.9994 -0.7617 -1.9695
13238SOL     OW45675   0.678   4.708   3.658 -0.0289  0.0851 -0.6458
13238SOL    HW145676   0.625   4.721   3.737 -0.5507 -1.9382 -0.5942
13238SOL    HW245677   0.648   4.623   3.624  2.0488 -0.3304 -1.5394
13239SOL     OW45678   0.580   2.189   2.022  0.5858  0.0054  0.7660
13239SOL    HW145679   0.588   2.123   2.091 -0.7479 -0.5156  0.4393
13239SOL    HW245680   0.522   2.255   2.059 -0.4156 -0.4463  0.0362
13240SOL     OW45681   6.812   0.164   3.002  0.1967 -0.0706 -0.2469
13240SOL    HW145682   6.745   0.188   3.066  0.0133 -3.0529  0.8624
13240SOL    HW245683   6.771   0.179   2.917 -1.9279 -1.6810  0.3940
13241SOL     OW45684   8.043   1.011   8.270  0.1315  0.0989  0.3435
13241SOL    HW145685   8.011   0.921   8.281  1.6309 -0.5378 -0.2020
13241SOL    HW245686   8.112   1.019   8.336 -1.1090  1.4690  1.5552
13242SOL     OW45687   2.132   7.723   3.960 -0.3192 -0.2940 -0.4180
13242SOL    HW145688   2.148   7.631   3.981 -0.6693  0.0938  1.8986
13242SOL    HW245689   2.038   7.727   3.943 -0.4912 -0.2333  0.4805
13243SOL     OW45690   3.386   7.584   7.932 -0.1928  0.7589  0.4982
13243SOL    HW145691   3.381   7.539   8.016  1.5069 -0.5787 -0.0643
13243SOL    HW245692   3.480   7.598   7.918 -0.3087 -0.3066 -1.7949
13244SOL     OW45693   5.205   1.658   0.272  0.1632 -0.1354 -0.2365
13244SOL    HW145694   5.211   1.586   0.334  1.2112  0.8737  0.9119
13244SOL    HW245695   5.278   1.645   0.212  1.3098  0.7193  0.8908
13245SOL     OW45696   7.128   8.304   1.538  0.7809 -0.2935  0.4796
13245SOL    HW145697   7.072   8.282   1.613  1.8174 -0.3549  1.2553
13245SOL    HW245698   7.079   8.272   1.462  0.5436 -1.9563  1.2768
13246SOL     OW45699   6.202   5.946   3.423 -0.0951  0.0383  0.3839
13246SOL    HW145700   6.107   5.956   3.429 -0.0679 -0.2343  1.4163
13246SOL    HW245701   6.215   5.898   3.342 -0.8918 -0.5550  0.5889
13247SOL     OW45702   5.181   1.286   0.113  0.3829 -0.1734  0.2985
13247SOL    HW145703   5.219   1.203   0.141  1.3940  0.0322 -0.4234
13247SOL    HW245704   5.256   1.345   0.101 -0.2981  0.7850  0.5789
13248SOL     OW45705   8.227   8.756   2.242  0.2299 -1.1128 -0.5643
13248SOL    HW145706   8.312   8.797   2.259 -0.0789 -0.2774 -0.9821
13248SOL    HW245707   8.194   8.801   2.164 -1.2026 -0.4601  0.3699
13249SOL     OW45708   7.683   9.295   3.936  0.4563  0.5463  0.4364
13249SOL    HW145709   7.723   9.210   3.950  0.7522  0.8452  1.4890
13249SOL    HW245710   7.594   9.276   3.907  1.0839 -0.1228 -1.2060
13250SOL     OW45711   0.308   3.947   8.433  0.5144  0.2294  0.1625
13250SOL    HW145712   0.309   4.037   8.464  1.7306  0.3708 -0.2076
13250SOL    HW245713   0.323   3.894   8.511  1.3228  0.4468  0.1628
13251SOL     OW45714   3.617   0.878   1.788 -0.2505 -0.0851 -0.1187
13251SOL    HW145715   3.584   0.869   1.699 -0.9252 -1.1256  0.2217
13251SOL    HW245716   3.592   0.967   1.814  1.1966  0.7697 -1.4413
13252SOL     OW45717   5.251   7.299   9.353  0.3122  0.0801  0.0383
13252SOL    HW145718   5.294   7.214   9.346  0.1245  0.1015 -1.8316
13252SOL    HW245719   5.322   7.362   9.340  0.1748  0.1828 -0.2025
13253SOL     OW45720   9.205   8.096   5.250  0.0725  0.2941 -0.4699
13253SOL    HW145721   9.208   8.002   5.229 -0.0043 -0.0560  0.9599
13253SOL    HW245722   9.291   8.114   5.288  0.0096  0.7441 -0.5406
13254SOL     OW45723   5.654   7.070   5.737  0.4984 -0.5402  0.2710
13254SOL    HW145724   5.647   6.975   5.735  0.8213 -0.5572 -0.7686
13254SOL    HW245725   5.675   7.094   5.646 -0.4899  0.5847  0.3154
13255SOL     OW45726   5.536   5.085   3.179  0.0937  0.2478  0.3757
13255SOL    HW145727   5.576   5.000   3.161  0.4487  0.7821 -1.6000
13255SOL    HW245728   5.565   5.141   3.107 -1.1957  1.6932  0.9250
13256SOL     OW45729   3.902   6.664   4.319  0.2394  0.1175  0.1066
13256SOL    HW145730   3.981   6.626   4.280  0.0768  0.7299 -0.8554
13256SOL    HW245731   3.906   6.639   4.411 -0.2529 -2.8875 -0.5905
13257SOL     OW45732   1.755   1.709   0.322 -0.7632  0.4636  0.2177
13257SOL    HW145733   1.790   1.765   0.390 -0.1332 -1.0530  1.2004
13257SOL    HW245734   1.832   1.668   0.282 -1.2578 -1.5263  1.1748
13258SOL     OW45735   6.145   6.958   2.529  0.1280 -0.2602  0.3322
13258SOL    HW145736   6.204   6.974   2.456  0.5869 -1.2746  0.4646
13258SOL    HW245737   6.061   6.937   2.488  0.8821 -2.9810 -0.0539
13259SOL     OW45738   3.198   2.345   7.732  0.2611 -0.9752  0.0993
13259SOL    HW145739   3.110   2.361   7.768  0.6964  0.2429  0.6845
13259SOL    HW245740   3.193   2.376   7.641  0.6445  1.1323  0.7556
13260SOL     OW45741   7.064   4.755   3.135 -0.2103  0.0624  0.2098
13260SOL    HW145742   7.117   4.819   3.086  0.0389  1.0698  1.7122
13260SOL    HW245743   6.985   4.803   3.160 -1.8981 -1.3939 -1.9115
13261SOL     OW45744   5.517   5.554   3.096 -0.4490 -0.5760  0.3057
13261SOL    HW145745   5.575   5.493   3.142 -2.1709 -2.9162 -0.4536
13261SOL    HW245746   5.565   5.579   3.017 -0.2636 -2.1238 -0.0916
13262SOL     OW45747   5.940   8.770   5.015  0.0614 -0.1660 -0.8511
13262SOL    HW145748   6.018   8.734   5.057 -0.3334 -0.4422 -0.3549
13262SOL    HW245749   5.867   8.724   5.056 -0.4608  1.2146 -0.1812
13263SOL     OW45750   5.348   5.307   3.172 -0.4216  0.5797 -0.5277
13263SOL    HW145751   5.372   5.364   3.099 -1.6414  0.3502 -1.1307
13263SOL    HW245752   5.396   5.226   3.156  1.0570  1.2803  0.1521
13264SOL     OW45753   8.619   8.089   8.912 -0.0166  0.4711 -0.2290
13264SOL    HW145754   8.562   8.055   8.981 -2.3260  2.1488 -1.1581
13264SOL    HW245755   8.689   8.025   8.905 -0.1642 -0.2100  3.0156
13265SOL     OW45756   5.692   1.168   9.062 -0.3545 -0.1785  0.1582
13265SOL    HW145757   5.741   1.241   9.097 -0.5407  0.1052 -0.1645
13265SOL    HW245758   5.730   1.091   9.104 -0.3633  0.1247  0.7302
13266SOL     OW45759   4.417   3.210   7.274 -0.1303 -0.0798 -0.2773
13266SOL    HW145760   4.421   3.258   7.192  0.3049 -0.6018 -0.5700
13266SOL    HW245761   4.349   3.144   7.260 -0.7465  0.4631  0.1316
13267SOL     OW45762   5.647   7.330   7.252 -0.3950  0.4730  0.2029
13267SOL    HW145763   5.555   7.332   7.225 -0.4505  0.5811  0.3997
13267SOL    HW245764   5.695   7.316   7.171 -0.5475  1.0020  0.0143
13268SOL     OW45765   7.044   0.515   1.294  0.6919 -0.3863 -0.7896
13268SOL    HW145766   6.981   0.494   1.363  0.5461 -0.1837 -0.8630
13268SOL    HW245767   7.125   0.473   1.323  0.1391 -2.0195 -1.4661
13269SOL     OW45768   2.953   6.215   1.684  0.6640  0.4624 -0.0237
13269SOL    HW145769   3.022   6.150   1.690  1.3989  1.1597 -0.7454
13269SOL    HW245770   2.888   6.176   1.626  0.5901 -0.0634  0.4067
13270SOL     OW45771   5.865   0.479   0.070 -0.0790 -0.0038  0.2831
13270SOL    HW145772   5.892   0.430  -0.008  0.9076  2.0155 -0.7221
13270SOL    HW245773   5.770   0.487   0.061  0.0280  0.2529 -0.7770
13271SOL     OW45774   8.024   3.621   7.348 -0.5826 -0.2164 -0.3858
13271SOL    HW145775   8.061   3.701   7.387  0.6836 -0.7557 -0.4271
13271SOL    HW245776   7.940   3.649   7.312  0.2514  1.3387 -1.2447
13272SOL     OW45777   2.622   4.571   6.884 -0.5538  1.0304  0.1099
13272SOL    HW145778   2.684   4.508   6.921  1.1503  2.9130  0.6769
13272SOL    HW245779   2.541   4.557   6.934 -0.8267 -1.8132 -0.9809
13273SOL     OW45780   7.398   1.308   3.471  0.8223 -0.3039 -0.0135
13273SOL    HW145781   7.322   1.365   3.469  1.7688  1.0658  1.0582
13273SOL    HW245782   7.369   1.227   3.430 -0.6300  0.8604 -1.3628
13274SOL     OW45783   2.993   8.250   4.475 -0.2399  0.1907 -0.0908
13274SOL    HW145784   3.060   8.245   4.407 -0.5578  0.5986 -0.4505
13274SOL    HW245785   2.987   8.344   4.495  0.3266  0.0073  0.9963
13275SOL     OW45786   7.089   3.288   0.286  0.1938  0.6465 -0.3587
13275SOL    HW145787   7.182   3.307   0.293  0.5392 -0.9880  0.1037
13275SOL    HW245788   7.046   3.373   0.292  1.6368  1.4110 -0.3886
13276SOL     OW45789   5.332   4.806   1.675  0.3019  0.6291  0.0199
13276SOL    HW145790   5.342   4.711   1.683  1.4561  0.6325 -1.1269
13276SOL    HW245791   5.380   4.841   1.750 -0.3489  0.3165  0.5965
13277SOL     OW45792   8.050   8.126   9.329 -0.4861  0.3988 -0.5322
13277SOL    HW145793   7.979   8.065   9.311  0.4340 -0.9182  0.1780
13277SOL    HW245794   8.092   8.092   9.408  1.8284  0.2806 -1.7234
13278SOL     OW45795   6.299   2.803   7.100  0.5250  0.0929  0.9009
13278SOL    HW145796   6.342   2.886   7.121  1.7690  0.0795 -1.2620
13278SOL    HW245797   6.244   2.823   7.024  0.6858 -1.0154  0.4703
13279SOL     OW45798   0.604   8.445   1.331  0.6958 -0.2675 -0.3085
13279SOL    HW145799   0.618   8.372   1.391  0.0815  0.2963  0.5381
13279SOL    HW245800   0.579   8.404   1.248  0.7947 -1.0198  0.0316
13280SOL     OW45801   5.866   8.371   8.270  0.4155 -0.5731  0.4798
13280SOL    HW145802   5.828   8.335   8.350  1.2425 -0.3482  0.9866
13280SOL    HW245803   5.871   8.296   8.210 -1.1430 -0.5262  0.2575
13281SOL     OW45804   7.772   0.350   6.482 -0.4576  0.4027  0.5099
13281SOL    HW145805   7.760   0.275   6.425 -1.2905  0.2777  0.8204
13281SOL    HW245806   7.815   0.315   6.560 -0.3119  0.3578  0.4079
13282SOL     OW45807   0.955   0.382   7.479  0.2396 -0.0394 -0.0547
13282SOL    HW145808   0.974   0.470   7.512  1.9408 -0.0957 -0.8019
13282SOL    HW245809   0.914   0.338   7.554  0.9959  0.8462  0.9256
13283SOL     OW45810   6.548   6.927   5.265  0.5689  0.1531  0.4354
13283SOL    HW145811   6.562   6.975   5.183 -1.9953 -1.7041 -1.2574
13283SOL    HW245812   6.478   6.975   5.309  0.0152 -0.3742  0.1461
13284SOL     OW45813   1.260   0.354   5.842  0.2363 -0.3071  0.4587
13284SOL    HW145814   1.191   0.420   5.833  0.1336 -0.4582  0.0760
13284SOL    HW245815   1.329   0.383   5.783 -0.5461 -1.4476 -1.1175
13285SOL     OW45816   7.520   2.192   4.643  0.2074  0.0999  0.9839
13285SOL    HW145817   7.430   2.162   4.654  0.4497 -0.8376  0.4983
13285SOL    HW245818   7.530   2.207   4.549  0.5815  0.1014  1.0189
13286SOL     OW45819   0.547   4.812   7.642 -0.5905  0.1655  0.1969
13286SOL    HW145820   0.491   4.885   7.668 -0.6859  0.0666  0.2726
13286SOL    HW245821   0.636   4.844   7.654 -0.6223 -0.0888  1.2673
13287SOL     OW45822   2.292   2.298   0.693 -0.1621  0.3382 -0.3804
13287SOL    HW145823   2.204   2.327   0.668 -1.1166 -1.3941  0.7683
13287SOL    HW245824   2.313   2.348   0.772 -0.4352  0.2046 -0.2242
13288SOL     OW45825   4.167   6.974   3.918  0.0783  0.2957  0.4690
13288SOL    HW145826   4.109   6.902   3.945  0.6482 -0.8186 -1.1303
13288SOL    HW245827   4.248   6.958   3.967  0.2298 -0.2031  0.0589
13289SOL     OW45828   3.127   5.928   8.094 -0.4434 -0.3843 -0.1592
13289SOL    HW145829   3.074   5.901   8.169  0.6292 -0.3329  0.6383
13289SOL    HW245830   3.193   5.987   8.132 -0.9788  1.0877 -1.4178
13290SOL     OW45831   4.038   5.244   0.423  0.4787  0.3577 -0.9559
13290SOL    HW145832   4.051   5.238   0.328 -0.0098 -1.4433 -0.9363
13290SOL    HW245833   4.114   5.199   0.461 -0.9351 -1.9203 -0.6280
13291SOL     OW45834   0.397   6.121   2.909 -0.5038 -0.5768 -0.6104
13291SOL    HW145835   0.459   6.176   2.956  0.1707 -1.0509 -0.9294
13291SOL    HW245836   0.362   6.061   2.975 -0.5746 -0.3543 -0.4455
13292SOL     OW45837   4.889   8.903   1.880  0.0539 -0.4328 -0.0765
13292SOL    HW145838   4.849   8.954   1.810  1.2999 -0.7795 -1.0695
13292SOL    HW245839   4.960   8.855   1.838  1.7226  0.3815  1.6330
13293SOL     OW45840   0.831   1.710   3.294  0.4663  0.0436 -0.3333
13293SOL    HW145841   0.747   1.695   3.337  1.4383  0.5591  1.8947
13293SOL    HW245842   0.874   1.624   3.295  0.6327  0.1272  0.1072
13294SOL     OW45843   6.046   7.456   3.833  0.2012  0.2513  0.3921
13294SOL    HW145844   6.124   7.477   3.782  0.7636  2.0977  1.9298
13294SOL    HW245845   6.001   7.389   3.781  1.1579  1.4332 -2.1090
13295SOL     OW45846   8.332   8.832   1.566  0.6409 -0.3853  0.9215
13295SOL    HW145847   8.404   8.890   1.590 -0.1177  0.1350  2.0511
13295SOL    HW245848   8.274   8.832   1.643 -0.8148 -0.3996 -0.1193
13296SOL     OW45849   8.217   0.642   7.432 -0.3202  0.2237 -0.5921
13296SOL    HW145850   8.238   0.579   7.501  0.9575  1.1942 -0.0611
13296SOL    HW245851   8.144   0.693   7.467  0.3531  0.7434  0.0996
13297SOL     OW45852   2.146   1.741   0.062 -0.1576  0.4958 -0.1959
13297SOL    HW145853   2.203   1.665   0.053  0.4124  1.0492 -1.5327
13297SOL    HW245854   2.058   1.707   0.042  0.1922  0.3102 -1.5267
13298SOL     OW45855   3.958   9.127   6.532 -0.0145 -0.7988  0.0654
13298SOL    HW145856   3.877   9.099   6.576 -0.2288  1.8055  1.5093
13298SOL    HW245857   4.027   9.112   6.597  0.0808  0.4126  0.2744
13299SOL     OW45858   2.255   8.254   0.247  0.0091 -0.2845  0.1012
13299SOL    HW145859   2.337   8.207   0.241 -0.2768 -0.6263 -1.3533
13299SOL    HW245860   2.278   8.345   0.228  0.0255 -0.4068 -0.4654
13300SOL     OW45861   3.417   8.781   7.934  0.4942  0.9964 -0.0306
13300SOL    HW145862   3.349   8.800   7.869  0.2493 -0.7392 -0.3229
13300SOL    HW245863   3.369   8.761   8.014  0.7092  0.9382  0.0855
13301SOL     OW45864   5.408   0.509   3.444 -0.1511  0.1621 -0.1672
13301SOL    HW145865   5.373   0.503   3.355  1.0558 -0.3898 -0.6267
13301SOL    HW245866   5.430   0.601   3.455 -1.5973  0.4927  0.0833
13302SOL     OW45867   6.863   7.317   8.186 -0.4804 -0.0273 -0.1391
13302SOL    HW145868   6.789   7.321   8.126 -0.9262  1.7956  0.4563
13302SOL    HW245869   6.938   7.294   8.131 -0.9644  1.0752 -1.3036
13303SOL     OW45870   2.271   0.549   8.580  0.3326 -0.0151 -0.1453
13303SOL    HW145871   2.208   0.598   8.633  0.1122 -0.2300 -0.2111
13303SOL    HW245872   2.326   0.504   8.644  0.4173  0.1660 -0.0887
13304SOL     OW45873   6.672   4.132   7.424 -0.7778  0.2029  0.1729
13304SOL    HW145874   6.754   4.095   7.393  1.4921  3.3495  1.8872
13304SOL    HW245875   6.661   4.214   7.375 -1.5412  1.0644  1.6947
13305SOL     OW45876   1.797   5.239   2.911 -0.3794 -0.6478  0.1837
13305SOL    HW145877   1.811   5.154   2.868  1.9415  0.6073 -1.8601
13305SOL    HW245878   1.741   5.288   2.850  0.4892  0.1623  0.0119
13306SOL     OW45879   1.332   0.542   1.346  0.3752  0.0529 -0.3529
13306SOL    HW145880   1.270   0.598   1.299 -1.5796  0.4912  2.5103
13306SOL    HW245881   1.345   0.466   1.288 -1.3470  0.8465 -1.8614
13307SOL     OW45882   1.260   0.247   1.531 -0.1481  0.1901  0.2037
13307SOL    HW145883   1.198   0.186   1.570 -1.2311  1.9433  1.3445
13307SOL    HW245884   1.224   0.267   1.444  0.0071 -0.4665 -0.0174
13308SOL     OW45885   4.529   6.563   8.602 -0.0324  0.3381  0.1059
13308SOL    HW145886   4.473   6.583   8.677 -1.9230 -0.9748 -0.8636
13308SOL    HW245887   4.616   6.593   8.628 -0.9648  1.5239  2.1011
13309SOL     OW45888   7.894   1.869   2.133 -0.0612  0.2649 -0.1910
13309SOL    HW145889   7.908   1.879   2.228 -1.5275  0.4182  0.0261
13309SOL    HW245890   7.814   1.917   2.115 -0.3413 -0.5878 -1.3477
13310SOL     OW45891   7.257   7.628   4.481  0.2430 -0.7068 -0.3936
13310SOL    HW145892   7.251   7.657   4.390  2.2307 -2.1485 -1.0473
13310SOL    HW245893   7.282   7.535   4.476 -1.3083 -1.3345  1.6295
13311SOL     OW45894   5.040   4.754   5.760 -0.2435  0.5094 -0.6953
13311SOL    HW145895   4.987   4.822   5.720 -0.1222  0.0282 -1.7103
13311SOL    HW245896   5.130   4.772   5.731 -0.3489 -0.6567 -1.8520
13312SOL     OW45897   8.373   2.296   6.778 -0.4928 -0.2422 -0.3071
13312SOL    HW145898   8.315   2.223   6.797 -0.0935 -0.6811 -0.7574
13312SOL    HW245899   8.461   2.261   6.790 -0.2597 -0.1527 -1.5694
13313SOL     OW45900   8.192   7.685   7.504 -0.0825 -0.2768 -0.8567
13313SOL    HW145901   8.287   7.694   7.500 -0.0610  0.4802  0.4971
13313SOL    HW245902   8.162   7.704   7.415  0.8960  1.5553 -0.8518
13314SOL     OW45903   8.491   3.271   9.305 -0.6345 -0.1678  0.3635
13314SOL    HW145904   8.562   3.319   9.264 -1.6158  0.5733 -0.5257
13314SOL    HW245905   8.452   3.220   9.234 -1.6523  0.2606  0.5933
13315SOL     OW45906   7.602   2.294   8.443  0.3071  0.3685 -0.2127
13315SOL    HW145907   7.521   2.334   8.474  0.0585 -0.1363 -0.2175
13315SOL    HW245908   7.632   2.241   8.517 -0.9940 -1.9547 -1.2268
13316SOL     OW45909   5.230   3.134   0.085  0.2006 -0.3721  0.0207
13316SOL    HW145910   5.260   3.103   0.000  0.9279 -0.3716  0.2728
13316SOL    HW245911   5.308   3.171   0.127  0.2201 -1.8011  1.3297
13317SOL     OW45912   6.417   5.473   8.310  0.5350  0.0370 -0.1971
13317SOL    HW145913   6.500   5.498   8.268  1.1788 -1.0292  0.3955
13317SOL    HW245914   6.441   5.451   8.400 -0.9507  3.1040  1.0803
13318SOL     OW45915   1.454   1.819   2.230  0.3957 -0.0232  0.0991
13318SOL    HW145916   1.455   1.790   2.138  1.5452 -0.9714  0.3894
13318SOL    HW245917   1.433   1.912   2.225 -0.1914 -0.1972 -1.0822
13319SOL     OW45918   8.755   1.269   6.188  0.1531 -0.5613 -0.1064
13319SOL    HW145919   8.733   1.309   6.272  1.1780  0.3026 -0.2356
13319SOL    HW245920   8.670   1.245   6.150 -0.3571 -0.3160  0.8559
13320SOL     OW45921   3.099   8.445   2.378 -0.1621  0.1711  0.2042
13320SOL    HW145922   3.182   8.432   2.423 -0.0342  0.0407 -0.0641
13320SOL    HW245923   3.085   8.540   2.379  0.4728  0.2849 -0.5919
13321SOL     OW45924   4.141   8.294   2.499 -0.4431  0.2985 -0.5796
13321SOL    HW145925   4.181   8.343   2.571 -1.2218  1.2625 -0.7963
13321SOL    HW245926   4.213   8.280   2.437  0.6937 -2.0172  1.0705
13322SOL     OW45927   5.439   1.378   2.106  0.1600 -0.5690  0.2730
13322SOL    HW145928   5.426   1.283   2.109 -1.7548 -0.3630  0.0096
13322SOL    HW245929   5.359   1.412   2.065  1.1888  1.0961 -0.4518
13323SOL     OW45930   1.679   3.171   7.886 -0.2220  0.1595  0.5695
13323SOL    HW145931   1.612   3.154   7.952 -1.4007  0.4368 -0.5282
13323SOL    HW245932   1.756   3.197   7.936 -1.5026  1.7737  1.7909
13324SOL     OW45933   7.644   1.543   6.651 -0.3056  0.1317  0.2543
13324SOL    HW145934   7.584   1.496   6.594  0.4263 -0.6960  0.1551
13324SOL    HW245935   7.589   1.608   6.695 -0.9026  0.7187 -1.2958
13325SOL     OW45936   4.398   6.660   7.356 -0.0545  0.0528 -0.0264
13325SOL    HW145937   4.485   6.662   7.317 -0.0876 -1.2817 -0.2354
13325SOL    HW245938   4.392   6.740   7.407  0.9894  0.5459 -0.6451
13326SOL     OW45939   6.341   8.081   1.204 -0.2056  0.1599  0.2272
13326SOL    HW145940   6.273   8.014   1.196  0.6980 -0.7606  0.1421
13326SOL    HW245941   6.418   8.043   1.163  0.1910  1.4673 -0.3130
13327SOL     OW45942   3.610   1.701   9.088 -0.3301  0.0209  0.3900
13327SOL    HW145943   3.624   1.763   9.160  2.7788  0.8790 -0.7919
13327SOL    HW245944   3.677   1.634   9.101 -1.6139 -1.4305 -0.1346
13328SOL     OW45945   0.464   5.290   6.104  0.2693 -0.1182 -0.3326
13328SOL    HW145946   0.408   5.320   6.175  0.5908 -1.0072  0.3068
13328SOL    HW245947   0.449   5.353   6.033 -3.3357 -1.5796 -1.0757
13329SOL     OW45948   7.106   5.233   1.861 -0.3021 -0.2019 -0.2129
13329SOL    HW145949   7.038   5.211   1.796 -0.5725 -0.3774  0.1263
13329SOL    HW245950   7.133   5.148   1.896 -0.9441 -0.0397  0.6968
13330SOL     OW45951   3.301   2.956   0.040 -0.5245  0.0371 -0.2865
13330SOL    HW145952   3.299   2.881   0.100  1.4620  0.0189 -0.1783
13330SOL    HW245953   3.327   3.030   0.095  0.2611  0.2393 -0.9171
13331SOL     OW45954   8.195   0.394   3.902 -0.6369 -0.1227 -0.2763
13331SOL    HW145955   8.191   0.344   3.983  0.3650  0.7421  0.3304
13331SOL    HW245956   8.197   0.327   3.833 -2.6287 -0.8676  0.3030
13332SOL     OW45957   8.953   1.352   3.511 -0.0534 -0.5367  0.1497
13332SOL    HW145958   9.042   1.377   3.538 -0.2642 -0.3303  0.6842
13332SOL    HW245959   8.964   1.310   3.426  0.8255 -2.5031  1.1776
13333SOL     OW45960   4.519   2.684   5.113  0.2001 -0.5053 -0.6148
13333SOL    HW145961   4.487   2.677   5.203 -2.3019  0.4542 -1.3560
13333SOL    HW245962   4.518   2.777   5.094  0.7917 -0.6901 -1.6056
13334SOL     OW45963   6.897   3.857   7.767  0.0487  0.1481  0.3984
13334SOL    HW145964   6.885   3.845   7.673  0.5128  1.2741  0.1788
13334SOL    HW245965   6.989   3.833   7.782  1.1223  3.4422 -0.1199
13335SOL     OW45966   2.677   6.940   2.459 -0.3868 -0.5815  0.3054
13335SOL    HW145967   2.722   6.862   2.491  0.1976  0.2821  1.6636
13335SOL    HW245968   2.713   7.012   2.511 -1.2272  0.5437 -0.6104
13336SOL     OW45969   9.370   6.833   8.045 -0.0883 -0.1568  0.0367
13336SOL    HW145970   9.436   6.845   8.113 -1.3289  0.0785  1.2547
13336SOL    HW245971   9.313   6.909   8.054 -0.7760 -0.5815 -0.6824
13337SOL     OW45972   8.884   7.319   2.265 -0.0490 -0.2479  0.0793
13337SOL    HW145973   8.854   7.314   2.356 -1.0292  0.3911 -0.1966
13337SOL    HW245974   8.814   7.276   2.215 -1.4738  2.7910 -0.7664
13338SOL     OW45975   4.916   5.293   1.966  0.1240  0.4102 -0.1076
13338SOL    HW145976   4.916   5.343   2.047  0.0746  0.4504 -0.1321
13338SOL    HW245977   4.886   5.205   1.991 -0.3674  0.5606 -0.1669
13339SOL     OW45978   0.256   7.726   7.076  0.2516  0.2848  0.0199
13339SOL    HW145979   0.196   7.721   7.151  1.2970  0.0133  0.8619
13339SOL    HW245980   0.218   7.669   7.010 -0.1865 -0.2313  0.7106
13340SOL     OW45981   1.269   5.751   6.000  0.1661 -1.0016  0.0830
13340SOL    HW145982   1.191   5.768   6.052  0.0804 -3.8437  1.0362
13340SOL    HW245983   1.318   5.686   6.050  2.8340  0.1539 -0.8412
13341SOL     OW45984   0.109   4.539   3.529  0.4289  0.2506 -0.0461
13341SOL    HW145985   0.156   4.483   3.590  1.2224 -1.7471 -2.3252
13341SOL    HW245986   0.020   4.503   3.525  0.8931 -0.8379 -1.3866
13342SOL     OW45987   3.770   6.927   5.413 -0.3973 -0.0905  0.4089
13342SOL    HW145988   3.787   6.947   5.505 -1.0267  0.2852  0.4447
13342SOL    HW245989   3.824   6.849   5.396 -1.3022 -0.9857  1.4737
13343SOL     OW45990   3.802   4.784   8.038  0.0429  0.1050 -0.3671
13343SOL    HW145991   3.820   4.727   7.963  0.2635  1.3613 -1.2990
13343SOL    HW245992   3.824   4.872   8.007  3.7329  0.3206  2.3032
13344SOL     OW45993   6.655   2.458   6.831  0.1661  0.1208  0.2927
13344SOL    HW145994   6.584   2.471   6.893  0.5737 -1.0550  1.0424
13344SOL    HW245995   6.615   2.471   6.745 -0.6592  0.6717  0.7541
13345SOL     OW45996   2.790   1.810   1.464 -0.3080 -0.1497 -0.0776
13345SOL    HW145997   2.697   1.789   1.470 -0.4447  0.4462  0.0202
13345SOL    HW245998   2.828   1.741   1.410  0.1030 -3.1942  3.6521
13346SOL     OW45999   8.298   1.703   9.107 -0.2288 -0.1296  0.3588
13346SOL    HW146000   8.306   1.780   9.050  0.5208 -0.8912 -0.6046
13346SOL    HW246001   8.215   1.663   9.080 -1.3385  1.0513  1.8200
13347SOL     OW46002   7.412   6.934   2.280  0.1094 -0.2279  1.1030
13347SOL    HW146003   7.398   6.987   2.359 -0.7382  1.0708  0.1327
13347SOL    HW246004   7.324   6.908   2.253  0.0488  1.7575 -0.9615
13348SOL     OW46005   8.095   6.920   6.600 -0.3836 -0.8465 -0.1948
13348SOL    HW146006   8.008   6.959   6.610 -0.3414 -0.8807  0.3083
13348SOL    HW246007   8.094   6.883   6.512 -0.5837 -0.1032 -0.5190
13349SOL     OW46008   3.912   4.673   1.965 -0.1677 -0.0401  0.1131
13349SOL    HW146009   3.906   4.641   2.055 -2.4277  0.1937  0.1084
13349SOL    HW246010   3.863   4.610   1.913  0.5927  0.1529 -0.8796
13350SOL     OW46011   8.548   3.561   0.685 -0.2031 -0.7016  0.5983
13350SOL    HW146012   8.495   3.504   0.740  0.1061  2.1018  4.2068
13350SOL    HW246013   8.634   3.563   0.727  0.3249  1.0101 -0.4147
13351SOL     OW46014   4.361   4.967   2.647  0.3670  0.1817  0.2449
13351SOL    HW146015   4.395   4.879   2.633 -0.0119  0.1014 -0.2272
13351SOL    HW246016   4.382   4.987   2.738  0.5783 -0.3437  0.3166
13352SOL     OW46017   8.831   1.066   7.981  0.4791 -0.1935 -0.7509
13352SOL    HW146018   8.813   1.127   8.052  2.3565 -2.2959  1.7544
13352SOL    HW246019   8.916   1.093   7.947  0.4751 -0.3313 -0.8722
13353SOL     OW46020   1.748   3.148   2.873  0.4476  1.0163  0.0872
13353SOL    HW146021   1.719   3.240   2.876  0.3689  0.9597  1.4987
13353SOL    HW246022   1.831   3.147   2.920 -0.1670  0.1608  1.2000
13354SOL     OW46023   8.051   4.501   0.117 -0.2441  0.1720 -0.6439
13354SOL    HW146024   8.126   4.464   0.165 -0.1243  1.1103 -0.0734
13354SOL    HW246025   8.056   4.595   0.135 -2.5462  0.0793  0.8190
13355SOL     OW46026   2.566   0.472   8.968 -0.0282  0.3955 -0.5904
13355SOL    HW146027   2.604   0.524   8.897  0.4030 -1.0169 -1.4305
13355SOL    HW246028   2.630   0.477   9.039  1.5628 -1.5350 -1.8061
13356SOL     OW46029   1.811   4.358   3.617 -0.0976  0.2403 -0.3137
13356SOL    HW146030   1.858   4.386   3.539  1.4328  0.5737  0.6852
13356SOL    HW246031   1.773   4.438   3.652  0.5500  0.3590  0.1311
13357SOL     OW46032   0.204   8.213   8.454  0.2788  0.7326  0.2607
13357SOL    HW146033   0.133   8.249   8.507  0.0239 -0.0829  0.4889
13357SOL    HW246034   0.254   8.290   8.425 -0.5860  1.2964  0.2458
13358SOL     OW46035   5.384   6.581   5.516 -0.0776 -0.2797 -0.0735
13358SOL    HW146036   5.344   6.496   5.498 -0.4899 -0.4043  1.3286
13358SOL    HW246037   5.392   6.622   5.430  1.8278 -2.4333 -1.0622
13359SOL     OW46038   8.940   6.052   3.132 -0.1504  0.5182 -0.1388
13359SOL    HW146039   8.861   6.103   3.112 -2.0045 -1.7862  0.8060
13359SOL    HW246040   8.963   6.011   3.049 -1.7355 -1.0157  0.1035
13360SOL     OW46041   9.019   5.512   5.723  0.5144 -0.4535 -0.0582
13360SOL    HW146042   9.000   5.581   5.786  0.0401 -0.1209 -0.5602
13360SOL    HW246043   9.044   5.559   5.643 -0.8060 -0.8408 -0.7205
13361SOL     OW46044   8.824   6.770   1.766  0.0792  0.5516 -0.0629
13361SOL    HW146045   8.772   6.839   1.724 -0.4437 -0.5584 -1.3166
13361SOL    HW246046   8.906   6.813   1.790  0.1586  1.4109 -1.6868
13362SOL     OW46047   5.468   3.070   8.251  0.1938 -0.5726  0.5050
13362SOL    HW146048   5.429   2.993   8.292 -0.6472 -0.1471  0.5264
13362SOL    HW246049   5.471   3.135   8.322 -1.0141  0.0800 -0.0016
13363SOL     OW46050   8.463   6.790   7.333  0.2652 -0.0383  0.0601
13363SOL    HW146051   8.456   6.886   7.330  2.5481  0.2944  1.9093
13363SOL    HW246052   8.535   6.769   7.274 -1.1298 -0.8118 -1.4156
13364SOL     OW46053   5.136   4.819   8.119  0.2771  0.9566  0.1133
13364SOL    HW146054   5.202   4.752   8.136  0.5096  1.0260 -0.4947
13364SOL    HW246055   5.094   4.791   8.038 -1.6277 -0.0112  1.3480
13365SOL     OW46056   6.864   2.109   0.882  0.4651  0.3601 -0.0083
13365SOL    HW146057   6.807   2.061   0.822  0.7815 -0.7340  0.5418
13365SOL    HW246058   6.932   2.046   0.907 -0.4099  0.3030  2.5523
13366SOL     OW46059   7.874   2.472   4.343 -0.0183 -0.1545 -0.3734
13366SOL    HW146060   7.922   2.464   4.260  0.5283  0.8202 -0.1623
13366SOL    HW246061   7.909   2.402   4.398  1.5070  0.8010 -0.0741
13367SOL     OW46062   2.597   5.236   0.547 -0.3006  0.3673  0.0390
13367SOL    HW146063   2.594   5.302   0.478  1.4533  0.8442  0.3608
13367SOL    HW246064   2.620   5.155   0.502  1.1246  0.7325  0.0448
13368SOL     OW46065   2.911   1.905   2.061  0.4899 -0.2684 -0.5386
13368SOL    HW146066   2.850   1.889   2.133  1.4031 -1.6654 -0.0454
13368SOL    HW246067   2.913   2.001   2.053  1.2560  0.0236  2.0892
13369SOL     OW46068   2.917   6.644   2.718  0.1394  0.2542  0.4861
13369SOL    HW146069   2.953   6.669   2.803  1.5603  0.0946 -0.0419
13369SOL    HW246070   2.968   6.568   2.692 -0.0719  0.4780 -0.6417
13370SOL     OW46071   0.505   5.566   6.598  0.3729 -0.0908 -0.1773
13370SOL    HW146072   0.576   5.524   6.647 -2.0670 -1.5889  2.3570
13370SOL    HW246073   0.491   5.649   6.644 -1.2374 -1.0371  1.1549
13371SOL     OW46074   5.879   6.661   2.503  0.1356  0.5529  0.3370
13371SOL    HW146075   5.856   6.746   2.465 -1.4823  0.4694  1.0448
13371SOL    HW246076   5.876   6.675   2.597 -0.4092 -0.3468  0.4645
13372SOL     OW46077   8.158   0.087   6.828  0.2628 -0.1284 -0.2317
13372SOL    HW146078   8.196   0.039   6.755  0.3006  0.2907 -0.4917
13372SOL    HW246079   8.064   0.069   6.822  0.1458  0.6681 -0.9621
13373SOL     OW46080   0.201   6.358   4.236  0.1203  0.3724  0.5464
13373SOL    HW146081   0.117   6.318   4.215 -0.5583  2.1236 -0.2036
13373SOL    HW246082   0.258   6.336   4.162  0.5937 -1.3765  1.3547
13374SOL     OW46083   1.581   0.017   3.261 -0.3999 -0.2121 -0.3558
13374SOL    HW146084   1.640  -0.057   3.276 -1.0458 -0.2285  2.8711
13374SOL    HW246085   1.506  -0.020   3.215  0.6186 -0.8593 -1.5601
13375SOL     OW46086   2.962   8.344   2.138  0.0276  0.4119  0.1435
13375SOL    HW146087   2.893   8.410   2.126  0.3703  1.0653  1.5418
13375SOL    HW246088   3.030   8.389   2.188  0.8580 -0.6340 -0.0016
13376SOL     OW46089   2.237   0.021   0.040 -0.7008  0.1383 -0.1845
13376SOL    HW146090   2.312  -0.019   0.085  1.3772  3.3446 -0.4814
13376SOL    HW246091   2.209   0.092   0.097 -1.7237  0.7424 -1.3761
13377SOL     OW46092   5.526   8.261   5.664 -0.3640  0.4024  0.3057
13377SOL    HW146093   5.609   8.266   5.711 -0.3366 -0.6895  0.4041
13377SOL    HW246094   5.551   8.239   5.574 -0.4806  1.3599  0.0311
13378SOL     OW46095   6.911   8.835   3.372 -0.0328 -0.0520 -0.3653
13378SOL    HW146096   6.931   8.827   3.465  1.1988  0.8718 -0.5298
13378SOL    HW246097   6.924   8.928   3.353 -1.1376 -0.0622 -1.2767
13379SOL     OW46098   3.183   5.315   4.989 -0.4050 -0.2367  0.1522
13379SOL    HW146099   3.222   5.266   5.061 -0.4369 -2.3250 -1.1662
13379SOL    HW246100   3.258   5.355   4.944  0.0454 -1.9766 -0.7560
13380SOL     OW46101   6.103   8.500   8.366  0.7117  0.3207 -0.1239
13380SOL    HW146102   6.023   8.466   8.325 -0.1132  0.6190  1.2037
13380SOL    HW246103   6.076   8.527   8.453  1.9983  1.6405 -0.1007
13381SOL     OW46104   1.880   5.430   0.259 -0.1489 -0.7039  0.1908
13381SOL    HW146105   1.884   5.516   0.218  0.6977 -0.5922  0.4867
13381SOL    HW246106   1.823   5.379   0.202 -2.3779  0.6269  1.1295
13382SOL     OW46107   7.795   4.897   3.297 -0.0482 -0.0470  0.1428
13382SOL    HW146108   7.835   4.945   3.225 -0.2200 -1.0952 -0.6880
13382SOL    HW246109   7.746   4.826   3.254  0.5073 -1.1859  1.3237
13383SOL     OW46110   8.497   1.374   1.844  0.2598 -0.1040 -0.4575
13383SOL    HW146111   8.538   1.459   1.827 -0.4911  0.7838  1.8546
13383SOL    HW246112   8.569   1.318   1.872  0.3674  0.6065  0.7510
13384SOL     OW46113   4.403   6.357   4.358  0.1867  0.0285  0.9068
13384SOL    HW146114   4.469   6.419   4.327 -0.9356  0.7372 -0.1103
13384SOL    HW246115   4.342   6.410   4.410 -1.0680 -0.0826 -0.3962
13385SOL     OW46116   7.959   8.644   8.297  0.5212 -0.1168 -0.3283
13385SOL    HW146117   7.887   8.606   8.347  0.0570 -1.4092 -1.9070
13385SOL    HW246118   7.936   8.737   8.287 -0.4641 -0.3236 -0.0276
13386SOL     OW46119   6.508   5.632   5.422  0.1092  0.0969 -0.3751
13386SOL    HW146120   6.553   5.553   5.450 -1.7483 -0.2497  1.9233
13386SOL    HW246121   6.497   5.621   5.327  3.2049 -0.5481 -0.7777
13387SOL     OW46122   3.177   4.287   8.575 -0.7568 -0.3001  0.6042
13387SOL    HW146123   3.110   4.220   8.590 -1.2953  0.2559  0.6814
13387SOL    HW246124   3.171   4.305   8.481  1.0965 -2.1576  0.0394
13388SOL     OW46125   7.663   2.797   3.084 -0.5429  0.1690  0.6584
13388SOL    HW146126   7.678   2.823   2.993  1.0613 -0.4712  0.7098
13388SOL    HW246127   7.637   2.878   3.128  1.1769  1.0402  0.1468
13389SOL     OW46128   3.543   4.102   6.724  0.1719 -0.2412 -0.2792
13389SOL    HW146129   3.453   4.074   6.742  0.0401 -0.3275 -1.0454
13389SOL    HW246130   3.581   4.029   6.675  0.0306  0.6218 -1.7292
13390SOL     OW46131   2.667   4.827   2.482 -0.1180 -0.1389  0.1718
13390SOL    HW146132   2.693   4.801   2.394 -0.3652  1.6388 -0.4786
13390SOL    HW246133   2.575   4.799   2.489  0.3690 -1.7455  0.5131
13391SOL     OW46134   8.374   5.025   3.537  0.1844 -0.1746  1.0159
13391SOL    HW146135   8.304   5.018   3.471 -0.3730  0.2864  1.5449
13391SOL    HW246136   8.337   4.983   3.614  0.7052 -0.4015  1.1447
13392SOL     OW46137   8.469   2.874   1.470 -0.1847 -0.1430 -0.3345
13392SOL    HW146138   8.439   2.953   1.425 -0.0929  0.5566  0.7927
13392SOL    HW246139   8.434   2.802   1.418 -2.9823  0.6160  0.3463
13393SOL     OW46140   8.632   0.696   3.765 -0.3122 -0.0567 -0.1484
13393SOL    HW146141   8.679   0.746   3.831  1.9827 -0.7835 -1.1491
13393SOL    HW246142   8.567   0.646   3.814  0.9269 -0.1350  1.4804
13394SOL     OW46143   6.276   2.530   4.767 -0.1657  0.1070  0.7836
13394SOL    HW146144   6.276   2.453   4.825  0.8143  1.3098  2.4768
13394SOL    HW246145   6.248   2.602   4.823 -1.0694  1.0206 -0.7748
13395SOL     OW46146   5.505   1.234   5.001  0.0990 -0.1749 -0.0241
13395SOL    HW146147   5.487   1.177   4.926  0.2672  0.6289 -0.6925
13395SOL    HW246148   5.598   1.221   5.019  0.6173  1.2834 -1.4103
13396SOL     OW46149   2.081   5.947   8.643 -0.1155 -0.1474  0.0661
13396SOL    HW146150   2.086   5.859   8.606 -0.4243 -0.2912  0.3598
13396SOL    HW246151   2.001   5.946   8.697  1.0775 -0.3872  1.8966
13397SOL     OW46152   4.822   7.275   2.060 -0.1540 -0.1223 -0.7688
13397SOL    HW146153   4.846   7.284   1.968  0.2481  1.4406 -0.5548
13397SOL    HW246154   4.894   7.225   2.099 -1.0176 -2.0452 -1.5330
13398SOL     OW46155   8.984   4.826   3.233 -0.1667  0.3695 -0.0481
13398SOL    HW146156   8.972   4.826   3.138 -0.4302  0.5092 -0.0178
13398SOL    HW246157   8.896   4.842   3.268 -0.4284 -1.5893  0.2856
13399SOL     OW46158   5.937   8.241   1.734 -0.2037  0.2084  0.0694
13399SOL    HW146159   5.862   8.202   1.689  1.4896 -1.0928 -1.7862
13399SOL    HW246160   5.986   8.286   1.665  0.9539  0.6767  1.1503
13400SOL     OW46161   4.701   7.136   4.167  0.4087  0.2096  0.1273
13400SOL    HW146162   4.608   7.157   4.164  0.0997 -1.1437 -0.3250
13400SOL    HW246163   4.744   7.221   4.178 -0.8237  0.9456 -0.5280
13401SOL     OW46164   6.319   5.656   3.971  0.2262 -0.5996 -0.3437
13401SOL    HW146165   6.340   5.646   4.064 -2.4075 -0.0417  0.4171
13401SOL    HW246166   6.356   5.578   3.929  0.5965 -1.3825  1.3572
13402SOL     OW46167   8.373   3.722   8.013  0.8891 -0.5565 -0.4869
13402SOL    HW146168   8.417   3.638   8.027  0.0685 -1.3089 -2.0894
13402SOL    HW246169   8.281   3.705   8.035  0.8583  0.1606 -0.0400
13403SOL     OW46170   5.168   1.037   0.342  0.3600  0.1575  0.6756
13403SOL    HW146171   5.221   0.960   0.322 -1.0941 -0.4139 -1.2330
13403SOL    HW246172   5.078   1.005   0.346 -0.2740  1.6993 -0.0513
13404SOL     OW46173   0.947   7.138   0.495  0.0776 -0.0985 -0.1213
13404SOL    HW146174   0.973   7.145   0.587 -1.4456 -0.2309  0.3477
13404SOL    HW246175   0.852   7.129   0.498 -0.0051  0.0118 -1.7261
13405SOL     OW46176   2.303   8.632   3.441  0.0864  0.0094  0.0450
13405SOL    HW146177   2.220   8.606   3.401  0.5093 -0.1159 -0.7732
13405SOL    HW246178   2.313   8.725   3.420 -0.6887  0.5024  1.6719
13406SOL     OW46179   9.090   7.522   2.528 -0.1651  1.0640 -0.7020
13406SOL    HW146180   9.124   7.447   2.481  1.2090  0.4670  1.1121
13406SOL    HW246181   9.059   7.582   2.460 -1.4939 -1.1715 -2.1990
13407SOL     OW46182   7.323   9.277   2.206  0.2584  0.5160  0.1592
13407SOL    HW146183   7.283   9.310   2.287  1.7155 -0.8224  1.4917
13407SOL    HW246184   7.311   9.182   2.210 -2.3481  0.5775 -2.7681
13408SOL     OW46185   5.193   2.825   6.003  0.0422  0.2851  0.4142
13408SOL    HW146186   5.139   2.748   5.983  0.5694 -0.1030  0.4623
13408SOL    HW246187   5.226   2.853   5.918 -1.1315  1.2154  0.2328
13409SOL     OW46188   6.759   0.243   7.914 -0.1548  0.1936 -0.3865
13409SOL    HW146189   6.835   0.224   7.860 -1.2527 -0.7315 -1.6989
13409SOL    HW246190   6.719   0.320   7.873  0.5561  1.2761  0.8677
13410SOL     OW46191   6.197   2.919   1.717 -0.1012 -0.0557  0.0037
13410SOL    HW146192   6.217   3.012   1.708 -3.2719  0.6261 -1.4339
13410SOL    HW246193   6.233   2.879   1.638  0.7706  0.0319  0.3484
13411SOL     OW46194   8.528   3.119   4.081 -0.6621 -0.0500  0.3822
13411SOL    HW146195   8.450   3.175   4.076 -0.5166  0.0873 -0.7077
13411SOL    HW246196   8.502   3.038   4.037 -0.5735 -0.4800  1.1151
13412SOL     OW46197   6.513   0.779   1.355 -0.4065 -0.6235 -0.3825
13412SOL    HW146198   6.514   0.870   1.383  0.8146 -0.7041 -0.0844
13412SOL    HW246199   6.439   0.772   1.296 -1.5137  0.1685  0.8688
13413SOL     OW46200   8.668   6.563   1.335 -0.4926 -0.1377  0.2079
13413SOL    HW146201   8.727   6.497   1.370 -1.0942 -1.0030 -0.3542
13413SOL    HW246202   8.696   6.575   1.244  1.0705  2.0958  0.8974
13414SOL     OW46203   4.666   6.390   2.620 -0.5477 -0.6760 -0.0742
13414SOL    HW146204   4.614   6.390   2.540 -0.6223 -0.5938 -0.0248
13414SOL    HW246205   4.613   6.437   2.684  0.5471  1.4817 -0.6417
13415SOL     OW46206   7.057   1.635   0.207 -0.4255 -0.0695  0.4718
13415SOL    HW146207   7.085   1.722   0.236 -0.0626  0.4957 -1.4406
13415SOL    HW246208   7.031   1.591   0.288 -0.6932  1.8251  1.4976
13416SOL     OW46209   2.679   6.666   8.573 -0.5355 -0.3068 -0.0172
13416SOL    HW146210   2.642   6.741   8.619 -0.5965 -1.0739  1.2176
13416SOL    HW246211   2.751   6.703   8.521  0.0045  0.4792  1.2538
13417SOL     OW46212   8.085   3.722   5.113 -0.3818 -0.4800  0.1262
13417SOL    HW146213   8.179   3.702   5.113  0.1144  1.5531 -0.6064
13417SOL    HW246214   8.074   3.782   5.186 -0.5542  1.3746 -1.3521
13418SOL     OW46215   0.157   2.930   6.637  0.4105  0.2812  0.6986
13418SOL    HW146216   0.174   3.016   6.674  1.2101  0.1024  0.7573
13418SOL    HW246217   0.222   2.919   6.568  0.9898 -0.6884  1.3754
13419SOL     OW46218   0.655   2.926   0.067 -0.4689  0.5151  0.0573
13419SOL    HW146219   0.668   3.015   0.100 -2.2193  0.4303  1.0958
13419SOL    HW246220   0.592   2.937  -0.005 -1.0213  0.0885  0.4678
13420SOL     OW46221   5.476   4.890   0.780 -0.0866 -0.2021  0.0462
13420SOL    HW146222   5.381   4.893   0.789 -0.2321  1.0125 -1.4484
13420SOL    HW246223   5.504   4.978   0.805  0.7541 -0.7707  1.2116
13421SOL     OW46224   9.122   0.464   5.291  0.8581 -0.0805 -0.0225
13421SOL    HW146225   9.121   0.471   5.195 -0.9613  0.9075  0.0184
13421SOL    HW246226   9.036   0.427   5.313  0.1106  2.3031  1.3580
13422SOL     OW46227   6.490   3.234   8.436  0.4735  0.2685 -0.0899
13422SOL    HW146228   6.476   3.254   8.528  0.6744  1.1269 -0.2428
13422SOL    HW246229   6.551   3.300   8.405 -0.6878  0.8694 -1.1870
13423SOL     OW46230   1.633   5.963   9.276  0.1970 -0.2876  0.3544
13423SOL    HW146231   1.569   6.027   9.246  1.0528 -0.5140 -2.2319
13423SOL    HW246232   1.585   5.909   9.339 -1.3782  1.0992  0.4203
13424SOL     OW46233   5.710   7.908   1.860 -0.1230 -0.4135 -0.2153
13424SOL    HW146234   5.749   7.937   1.942 -2.9736 -0.7757  1.3909
13424SOL    HW246235   5.674   7.821   1.880 -1.3262 -0.2953 -1.6855
13425SOL     OW46236   6.190   5.418   9.031  0.3072  0.4143 -0.4897
13425SOL    HW146237   6.249   5.383   9.098 -0.6259 -0.2171  0.0085
13425SOL    HW246238   6.228   5.504   9.010  1.3912  0.0381 -0.1697
13426SOL     OW46239   4.948   3.514   3.131 -0.0860 -0.3250  0.1150
13426SOL    HW146240   4.978   3.424   3.141  0.7304 -0.0240  0.4688
13426SOL    HW246241   4.857   3.506   3.103  0.2861 -1.2581 -0.8955
13427SOL     OW46242   9.137   5.951   0.335 -0.3018 -0.0814  0.0699
13427SOL    HW146243   9.134   6.044   0.313 -0.7185  0.2373  1.3650
13427SOL    HW246244   9.090   5.908   0.264 -1.2472  0.8471  0.1029
13428SOL     OW46245   4.355   0.608   7.901 -0.0160  0.0570  0.0529
13428SOL    HW146246   4.339   0.515   7.886 -0.0974  0.1376 -0.3974
13428SOL    HW246247   4.309   0.628   7.982  2.2382 -0.9071  1.6858
13429SOL     OW46248   4.978   6.277   2.501 -0.3175  0.4955 -0.0060
13429SOL    HW146249   4.927   6.353   2.473 -0.0967  0.1779 -1.3349
13429SOL    HW246250   5.044   6.313   2.560 -1.4854  1.0358  1.0324
13430SOL     OW46251   8.678   1.463   4.128  0.4711  0.7092 -0.3444
13430SOL    HW146252   8.682   1.397   4.059 -1.5672  0.5235 -0.3605
13430SOL    HW246253   8.684   1.412   4.209 -0.9295  0.4703 -0.3603
13431SOL     OW46254   6.282   5.333   8.102 -0.0748  0.7009 -0.3797
13431SOL    HW146255   6.320   5.245   8.106  1.1717  1.2666  1.6961
13431SOL    HW246256   6.306   5.373   8.185 -3.3031  1.9615  0.0758
13432SOL     OW46257   6.699   2.011   8.093  0.0092 -0.2430 -0.2674
13432SOL    HW146258   6.655   2.096   8.103 -0.8172 -0.7097  0.1952
13432SOL    HW246259   6.684   1.987   8.002  0.7519  0.3799 -0.5543
13433SOL     OW46260   9.298   3.894   3.495 -0.5988 -0.1611 -0.5430
13433SOL    HW146261   9.257   3.819   3.453  0.1643 -0.4538 -0.7868
13433SOL    HW246262   9.252   3.903   3.579  0.7915 -2.3769  0.5692
13434SOL     OW46263   1.876   1.331   6.613  0.6435 -0.0469  0.3015
13434SOL    HW146264   1.790   1.371   6.609  0.7306  0.0852 -2.5402
13434SOL    HW246265   1.860   1.237   6.609  0.6055 -0.0160 -0.4359
13435SOL     OW46266   8.188   0.280   2.425 -0.0072 -0.7906 -0.9701
13435SOL    HW146267   8.175   0.343   2.355 -0.1544 -1.0119 -1.1424
13435SOL    HW246268   8.247   0.214   2.388  1.2458 -0.0670 -0.3654
13436SOL     OW46269   8.162   4.389   8.012 -0.1241  0.7065  0.0219
13436SOL    HW146270   8.068   4.377   8.022 -0.5001  2.6350 -0.6389
13436SOL    HW246271   8.198   4.301   8.007 -2.0794 -0.0795 -1.2575
13437SOL     OW46272   4.290   7.182   6.386 -0.2028  0.2064 -0.0092
13437SOL    HW146273   4.351   7.109   6.375 -1.3164 -1.0297  1.5736
13437SOL    HW246274   4.223   7.167   6.320 -0.3620 -0.1335  0.2280
13438SOL     OW46275   7.508   6.846   5.449 -0.0668 -0.2906 -0.3596
13438SOL    HW146276   7.442   6.817   5.512 -1.0304  2.9661  0.2960
13438SOL    HW246277   7.481   6.805   5.367 -3.4833  1.4272 -0.2799
13439SOL     OW46278   6.300   6.948   8.636 -0.4616 -0.0902 -0.0587
13439SOL    HW146279   6.351   6.867   8.633  1.4911  0.8277  2.9897
13439SOL    HW246280   6.339   7.003   8.568 -0.1905 -0.8708 -0.5469
13440SOL     OW46281   3.875   3.938   8.140  0.8892  0.3665 -0.1317
13440SOL    HW146282   3.798   3.909   8.188 -0.0133  1.6036 -0.7845
13440SOL    HW246283   3.907   3.860   8.096  0.4012 -0.2925  0.6571
13441SOL     OW46284   4.593   0.600   7.756 -0.4792 -0.3181  0.3746
13441SOL    HW146285   4.524   0.597   7.822 -0.5053  0.9467  0.4420
13441SOL    HW246286   4.554   0.562   7.678 -1.9902  2.1071 -0.1804
13442SOL     OW46287   0.352   4.663   6.635  0.1887 -0.3198  0.1288
13442SOL    HW146288   0.407   4.735   6.603  0.6014 -0.8247 -0.2965
13442SOL    HW246289   0.303   4.702   6.708  0.3104  0.4302 -0.1803
13443SOL     OW46290   0.300   2.701   6.406  0.1008 -0.1425  0.1229
13443SOL    HW146291   0.321   2.794   6.398 -0.5098  0.0394  0.5243
13443SOL    HW246292   0.385   2.657   6.415  0.3558  0.4641  0.7440
13444SOL     OW46293   2.996   5.394   2.197  0.5524 -0.3176 -0.5938
13444SOL    HW146294   3.041   5.471   2.232 -1.3968  0.5840  0.0606
13444SOL    HW246295   2.938   5.365   2.267 -1.5265 -0.0613 -2.1146
13445SOL     OW46296   6.259   1.731   7.905  0.0947 -0.2325  0.2667
13445SOL    HW146297   6.189   1.689   7.955 -0.1404 -0.7555 -0.4670
13445SOL    HW246298   6.240   1.707   7.814  0.3863  0.8636 -0.0953
13446SOL     OW46299   4.715   3.619   0.286  0.2978  0.6494 -0.0964
13446SOL    HW146300   4.637   3.565   0.294  2.3191 -2.6135 -0.6015
13446SOL    HW246301   4.695   3.680   0.215 -1.3213 -1.0015 -1.1552
13447SOL     OW46302   4.233   5.819   7.144  0.1062 -0.3628  0.0856
13447SOL    HW146303   4.214   5.728   7.166 -0.0076 -0.6144 -1.0091
13447SOL    HW246304   4.267   5.816   7.054  0.7963  0.5937  0.2939
13448SOL     OW46305   3.332   5.998   7.896  0.0914  0.6764  0.1729
13448SOL    HW146306   3.349   5.903   7.902  1.8918  1.0000  1.1807
13448SOL    HW246307   3.336   6.017   7.802  1.5109 -0.0073  0.0572
13449SOL     OW46308   9.084   2.824   0.147 -0.2125  0.2730 -0.2410
13449SOL    HW146309   9.001   2.825   0.195 -0.3302 -0.6674 -0.4062
13449SOL    HW246310   9.148   2.791   0.210 -0.1261  0.2363 -0.3470
13450SOL     OW46311   1.111   8.560   0.330 -0.0563  0.0463 -0.0921
13450SOL    HW146312   1.196   8.563   0.286  0.1716  0.2326  0.3557
13450SOL    HW246313   1.114   8.479   0.382  0.9525  1.3884  2.0922
13451SOL     OW46314   6.722   2.365   7.353 -0.0034 -0.5615 -0.1764
13451SOL    HW146315   6.759   2.291   7.401 -0.3510 -0.0776  0.8682
13451SOL    HW246316   6.732   2.341   7.260  1.4940 -1.1118  0.1088
13452SOL     OW46317   0.570   7.904   3.949  0.2990  0.3005 -0.5684
13452SOL    HW146318   0.621   7.984   3.957 -1.6241  1.4591  1.2981
13452SOL    HW246319   0.525   7.896   4.033 -0.0178 -2.4568 -0.9159
13453SOL     OW46320   1.787   2.935   1.125 -0.0490 -0.0897 -0.4413
13453SOL    HW146321   1.777   2.865   1.060 -2.6200  0.2499 -0.5133
13453SOL    HW246322   1.785   3.016   1.075 -4.0163  0.2890  0.0016
13454SOL     OW46323   3.512   4.256   4.013 -0.0683 -0.3434  0.2228
13454SOL    HW146324   3.434   4.224   3.967 -0.3409  1.0941 -0.3514
13454SOL    HW246325   3.489   4.251   4.106 -0.8306  0.0410  0.0570
13455SOL     OW46326   4.879   8.201   5.363 -0.0507  0.4185 -0.0070
13455SOL    HW146327   4.965   8.229   5.332 -0.1789  0.6960 -0.1175
13455SOL    HW246328   4.892   8.181   5.455 -0.1752  1.8420  0.3330
13456SOL     OW46329   5.399   1.738   1.839 -0.1490  0.2296  0.3408
13456SOL    HW146330   5.311   1.703   1.852 -0.0864 -0.0557  0.0112
13456SOL    HW246331   5.430   1.697   1.758  0.1885  0.5243  0.3170
13457SOL     OW46332   3.863   5.161   5.504  0.3269 -0.1617 -0.3365
13457SOL    HW146333   3.886   5.216   5.579  0.6291  0.7326 -1.0665
13457SOL    HW246334   3.767   5.161   5.503  0.3153  0.9189 -0.7134
13458SOL     OW46335   0.683   1.495   0.728  0.3404  0.3905 -0.3565
13458SOL    HW146336   0.708   1.428   0.664  2.6561  0.3262  0.5263
13458SOL    HW246337   0.603   1.461   0.768  1.9189 -2.3593  0.7070
13459SOL     OW46338   6.127   2.345   5.798 -0.0663 -0.0811 -0.0993
13459SOL    HW146339   6.069   2.269   5.790  0.2189 -0.2310 -0.9717
13459SOL    HW246340   6.083   2.414   5.749  1.2256 -0.6785 -2.2533
13460SOL     OW46341   5.652   2.635   1.583 -0.6146  0.4037  0.4025
13460SOL    HW146342   5.601   2.560   1.553  1.4881 -0.9440  0.0724
13460SOL    HW246343   5.677   2.613   1.672 -0.8796  1.2326  0.6970
13461SOL     OW46344   1.840   7.380   6.637 -0.3455 -0.0044  0.2534
13461SOL    HW146345   1.795   7.402   6.719  0.4924 -2.3433  1.4526
13461SOL    HW246346   1.779   7.322   6.591  0.2917 -0.9844  0.6020
13462SOL     OW46347   6.622   7.287   5.665 -0.0978  0.1415  0.4882
13462SOL    HW146348   6.706   7.266   5.706 -1.2760 -2.0720  1.9518
13462SOL    HW246349   6.597   7.371   5.705  1.1624  0.6087  0.3647
13463SOL     OW46350   2.960   0.259   8.967 -0.2966 -0.1048 -0.0045
13463SOL    HW146351   2.881   0.304   8.996  0.8369  0.6283  2.1677
13463SOL    HW246352   2.929   0.174   8.938 -1.8803  0.0797  0.9802
13464SOL     OW46353   2.700   5.118   5.110  0.2715  0.4455 -0.0301
13464SOL    HW146354   2.667   5.101   5.021  1.8390  1.1299 -0.7909
13464SOL    HW246355   2.658   5.051   5.164  1.5319 -1.9751 -1.8186
13465SOL     OW46356   0.902   4.960   2.637 -0.2432 -0.1053 -0.2098
13465SOL    HW146357   0.868   5.008   2.712 -0.0546 -1.4889  0.8105
13465SOL    HW246358   0.832   4.899   2.613  0.0087 -0.2304 -0.6419
13466SOL     OW46359   1.109   4.130   3.976  0.0449  0.1464  0.4258
13466SOL    HW146360   1.108   4.042   3.938 -1.8456 -0.2662  1.2859
13466SOL    HW246361   1.017   4.147   3.998  0.8948  0.6084  4.1960
13467SOL     OW46362   9.197   3.796   5.319 -0.7959 -0.3714  0.2050
13467SOL    HW146363   9.128   3.852   5.285  0.2871  0.6801 -0.3519
13467SOL    HW246364   9.222   3.836   5.402 -0.5819 -0.4852  0.1979
13468SOL     OW46365   8.074   3.466   4.922  0.1497  0.5473 -0.1621
13468SOL    HW146366   8.088   3.558   4.944 -2.0019  0.5823  1.4622
13468SOL    HW246367   7.979   3.458   4.910  0.4908 -1.0047 -2.7510
13469SOL     OW46368   6.421   6.866   4.321  0.1990 -0.4169  0.1853
13469SOL    HW146369   6.440   6.781   4.282 -0.4913 -0.3160 -0.3842
13469SOL    HW246370   6.418   6.849   4.415  0.8300 -0.8662  0.1320
13470SOL     OW46371   0.297   8.999   2.724  0.0081 -0.2531 -0.7152
13470SOL    HW146372   0.270   9.036   2.640  0.0387 -0.6282 -0.8935
13470SOL    HW246373   0.217   8.960   2.760 -0.6427  2.1209  0.6440
13471SOL     OW46374   6.372   5.006   8.089 -0.9860  0.5082 -0.3107
13471SOL    HW146375   6.334   4.998   8.002  1.5632  0.9224 -1.5800
13471SOL    HW246376   6.377   4.917   8.122  0.1225  0.0318 -1.6395
13472SOL     OW46377   0.387   2.343   3.398  0.1181  0.0140  0.4410
13472SOL    HW146378   0.374   2.271   3.461 -0.8346 -0.3323 -0.1302
13472SOL    HW246379   0.431   2.411   3.449  0.0283 -0.5408  1.2904
13473SOL     OW46380   8.071   5.775   0.522  0.2574  0.5184  0.5299
13473SOL    HW146381   8.053   5.758   0.615 -0.5376  0.1173  0.3133
13473SOL    HW246382   8.166   5.779   0.516  0.6016 -3.4487  0.7071
13474SOL     OW46383   6.687   8.360   1.149  0.2117  0.3382  0.1348
13474SOL    HW146384   6.736   8.408   1.217  0.6102 -0.1187  0.1783
13474SOL    HW246385   6.750   8.296   1.116  0.3328  1.1777 -1.3462
13475SOL     OW46386   4.082   6.051   7.867  0.1599  0.1788  0.5136
13475SOL    HW146387   4.056   5.965   7.835  0.3974  0.3177 -0.0614
13475SOL    HW246388   4.178   6.049   7.866  0.1756  0.0975  1.4596
13476SOL     OW46389   5.743   5.607   1.159 -0.3096 -0.2155 -0.4853
13476SOL    HW146390   5.679   5.536   1.158 -1.3122  0.6105  1.0361
13476SOL    HW246391   5.743   5.638   1.250  1.3022  0.6789 -0.7451
13477SOL     OW46392   3.976   5.596   0.756 -0.1791  0.0008  0.4301
13477SOL    HW146393   4.070   5.580   0.763 -0.1287  0.9139  2.2624
13477SOL    HW246394   3.942   5.518   0.711  1.5193 -0.0154 -0.9307
13478SOL     OW46395   5.265   5.719   3.392 -0.4037  0.1562 -0.1361
13478SOL    HW146396   5.321   5.793   3.415 -0.6008  0.5912 -1.0256
13478SOL    HW246397   5.312   5.642   3.426  0.1017  0.6280  0.2484
13479SOL     OW46398   2.228   2.803   3.734  0.2654 -0.0113 -0.2146
13479SOL    HW146399   2.191   2.881   3.775  3.4972  1.0481  0.9858
13479SOL    HW246400   2.202   2.810   3.642 -2.0883  0.7833  0.4519
13480SOL     OW46401   2.373   0.780   2.331 -0.0885  0.1997 -0.1502
13480SOL    HW146402   2.335   0.853   2.282  0.8454 -0.5617 -2.0979
13480SOL    HW246403   2.440   0.745   2.273 -1.4013 -3.0740  0.1266
13481SOL     OW46404   0.807   7.065   7.678 -0.1790  0.2102  0.7038
13481SOL    HW146405   0.846   7.151   7.692 -1.8453  1.1933 -0.3839
13481SOL    HW246406   0.723   7.069   7.724 -0.9913 -0.2445 -0.6810
13482SOL     OW46407   2.609   6.866   0.243 -0.0256 -0.4235 -0.6617
13482SOL    HW146408   2.684   6.856   0.302  0.0420 -1.0800 -0.8501
13482SOL    HW246409   2.561   6.941   0.278  1.0523  0.4047 -0.8947
13483SOL     OW46410   5.969   3.652   6.665 -0.4130 -0.4087 -0.3362
13483SOL    HW146411   6.055   3.641   6.623 -0.7588 -1.4655 -0.8140
13483SOL    HW246412   5.909   3.671   6.593 -1.0305 -2.3343 -0.3997
13484SOL     OW46413   1.939   7.143   1.488  0.0881 -0.0102 -0.5748
13484SOL    HW146414   1.923   7.157   1.581  1.6604  2.3305 -0.5626
13484SOL    HW246415   1.976   7.055   1.482 -0.1657 -0.2488  0.9861
13485SOL     OW46416   5.718   7.386   0.588 -0.2250 -0.5301  0.3744
13485SOL    HW146417   5.686   7.424   0.506  4.1671 -1.1933 -1.9258
13485SOL    HW246418   5.762   7.459   0.633 -1.6969 -0.4229  1.7431
13486SOL     OW46419   2.281   1.452   7.971  0.3912  0.1176 -0.1891
13486SOL    HW146420   2.238   1.439   8.055 -0.1898  1.9389 -0.1631
13486SOL    HW246421   2.218   1.422   7.906 -0.3614  1.3784 -0.0769
13487SOL     OW46422   6.662   2.994   7.323  0.8290  0.6851  0.7423
13487SOL    HW146423   6.728   3.060   7.302 -0.2597  1.6082  0.1034
13487SOL    HW246424   6.582   3.025   7.279  0.5503 -1.6228 -0.5129
13488SOL     OW46425   3.094   5.663   4.184  0.0899 -0.1252 -0.4248
13488SOL    HW146426   3.011   5.681   4.139 -0.3362 -0.0709  0.3780
13488SOL    HW246427   3.098   5.727   4.254  0.5132 -0.5312 -0.0707
13489SOL     OW46428   9.192   1.103   9.070  0.5720  0.4857  0.4139
13489SOL    HW146429   9.236   1.056   8.999 -0.0798 -1.2071  1.0664
13489SOL    HW246430   9.137   1.168   9.026 -1.5290 -1.9629 -0.8612
13490SOL     OW46431   1.484   8.390   4.070 -0.1636 -0.2880 -0.3202
13490SOL    HW146432   1.540   8.448   4.122  1.5425 -0.5111 -1.8005
13490SOL    HW246433   1.426   8.449   4.023  1.2583  0.2715 -1.4697
13491SOL     OW46434   2.438   3.768   6.836  0.1413 -0.2870  0.0942
13491SOL    HW146435   2.499   3.841   6.833 -2.0024  1.8588  3.1263
13491SOL    HW246436   2.386   3.776   6.757  0.1546  1.2933  0.2279
13492SOL     OW46437   8.043   3.771   1.731  0.1208  0.2656 -0.6332
13492SOL    HW146438   8.088   3.728   1.658  1.3149  0.7861 -0.2185
13492SOL    HW246439   8.113   3.803   1.788 -0.7813  0.6112  0.3198
13493SOL     OW46440   1.125   8.052   1.995 -0.0157 -0.0700  0.2274
13493SOL    HW146441   1.171   7.998   1.931 -0.6274 -1.0299  0.5750
13493SOL    HW246442   1.187   8.121   2.017  0.2977  0.1433 -1.2112
13494SOL     OW46443   5.936   4.023   3.445  0.4248  0.5713 -0.1481
13494SOL    HW146444   5.873   4.083   3.486 -0.4899  0.9512 -1.9628
13494SOL    HW246445   5.994   4.081   3.395 -0.1448  0.0238 -1.4967
13495SOL     OW46446   2.497   8.809   0.669 -0.8673 -0.3470  0.1433
13495SOL    HW146447   2.545   8.834   0.748 -3.2425 -0.3520  1.6834
13495SOL    HW246448   2.464   8.891   0.634 -1.8274 -0.5604  0.5356
13496SOL     OW46449   6.442   2.098   8.012 -0.4545  0.0311  0.4945
13496SOL    HW146450   6.367   2.105   7.953 -0.4599 -0.9312  0.3716
13496SOL    HW246451   6.407   2.054   8.090  0.2725 -1.7779 -0.1491
13497SOL     OW46452   1.142   4.388   0.591 -0.1564  0.0578  0.5381
13497SOL    HW146453   1.158   4.318   0.528  1.2196  0.6855  0.1530
13497SOL    HW246454   1.157   4.347   0.676 -1.5503 -0.6672  0.4573
13498SOL     OW46455   1.020   9.215   0.956 -0.4511 -0.1418 -0.0485
13498SOL    HW146456   1.105   9.218   0.999 -1.1053  0.9132  1.2710
13498SOL    HW246457   0.993   9.307   0.950 -1.6839 -0.4779  0.0084
13499SOL     OW46458   0.368   4.782   5.209  0.0965 -0.7338 -0.3107
13499SOL    HW146459   0.394   4.822   5.292 -1.0356 -0.2034 -0.1954
13499SOL    HW246460   0.352   4.690   5.231 -1.6430 -0.2974  0.4099
13500SOL     OW46461   7.012   5.541   3.557  0.1977  0.4396 -0.3753
13500SOL    HW146462   7.048   5.623   3.522  2.7096 -0.4027  0.0972
13500SOL    HW246463   6.995   5.559   3.649  0.2686  0.5735 -0.3884
13501SOL     OW46464   6.452   6.052   3.448 -0.5776 -0.2819 -0.8900
13501SOL    HW146465   6.477   6.068   3.539 -0.1313  0.6797 -1.1610
13501SOL    HW246466   6.366   6.011   3.453 -0.9700  0.5974 -0.0412
13502SOL     OW46467   6.490   7.776   4.797 -0.4192  0.4606  0.0609
13502SOL    HW146468   6.426   7.812   4.859 -0.8326  0.1501 -0.1851
13502SOL    HW246469   6.540   7.712   4.848 -0.2008  0.8096  0.2912
13503SOL     OW46470   8.807   5.262   1.757 -0.0602 -0.3227  0.1215
13503SOL    HW146471   8.794   5.169   1.736 -0.3148 -0.1915 -0.3278
13503SOL    HW246472   8.778   5.270   1.848  2.1221 -1.1271  0.9579
13504SOL     OW46473   4.104   6.254   3.485 -0.0913 -0.3300  0.6074
13504SOL    HW146474   4.091   6.161   3.502 -0.1914 -0.2286  1.1119
13504SOL    HW246475   4.138   6.258   3.396  0.2591 -0.8766  0.7114
13505SOL     OW46476   9.007   2.415   3.950 -0.2932  0.0258  0.3883
13505SOL    HW146477   9.005   2.321   3.964 -1.0450 -0.2327 -1.1853
13505SOL    HW246478   8.941   2.430   3.882  0.6059  1.5366 -0.2013
13506SOL     OW46479   3.682   5.923   3.283 -0.3079 -0.0866  0.2562
13506SOL    HW146480   3.628   6.001   3.294 -1.1494 -0.6432  0.2430
13506SOL    HW246481   3.749   5.948   3.220  0.7361  1.2465  1.8090
13507SOL     OW46482   1.665   1.233   1.124  0.1471 -0.3730  0.1651
13507SOL    HW146483   1.710   1.224   1.040  0.0685  1.6455 -0.1501
13507SOL    HW246484   1.710   1.306   1.167 -0.0627 -1.1213  1.7264
13508SOL     OW46485   1.012   1.820   9.310  0.2623  0.0293  0.1752
13508SOL    HW146486   1.000   1.731   9.343  0.8394  0.2067  0.8888
13508SOL    HW246487   0.928   1.843   9.271  0.3026 -1.0658 -0.5914
13509SOL     OW46488   4.416   3.966   5.933  0.5464  0.1970  0.4266
13509SOL    HW146489   4.437   4.058   5.952  0.3419  0.0180  1.5482
13509SOL    HW246490   4.500   3.922   5.932  0.5435  0.1702  1.1510
13510SOL     OW46491   0.201   0.540   1.447 -0.5259 -0.5794 -0.1428
13510SOL    HW146492   0.205   0.444   1.438  0.5626 -0.4057 -2.1131
13510SOL    HW246493   0.251   0.573   1.372  0.2749  1.5311  1.2274
13511SOL     OW46494   4.834   8.609   8.267  0.8383 -0.5145 -0.3166
13511SOL    HW146495   4.880   8.525   8.269 -1.3801 -1.8988 -1.7940
13511SOL    HW246496   4.841   8.638   8.177  2.0654  1.2627  0.3033
13512SOL     OW46497   1.049   1.963   4.027 -0.1024 -0.1132  0.0278
13512SOL    HW146498   0.996   1.948   4.105 -1.3959 -2.7245 -1.2321
13512SOL    HW246499   1.126   1.906   4.040 -0.1545 -0.2900 -0.4241
13513SOL     OW46500   1.631   5.965   4.646  0.1651 -0.3685 -0.8642
13513SOL    HW146501   1.596   5.936   4.731  1.2128  1.0758  0.1153
13513SOL    HW246502   1.559   5.951   4.585  0.1075 -3.5615 -0.2508
13514SOL     OW46503   4.816   4.502   3.708  0.2411 -0.3919  0.0324
13514SOL    HW146504   4.758   4.446   3.656  0.8503 -0.5762 -0.4596
13514SOL    HW246505   4.892   4.447   3.727  0.3427 -0.0921  0.5203
13515SOL     OW46506   5.972   2.409   8.410  0.2259 -0.3971  0.3476
13515SOL    HW146507   6.058   2.372   8.429  0.2664 -1.1527 -1.2331
13515SOL    HW246508   5.911   2.356   8.462  0.6300 -0.3128  0.9190
13516SOL     OW46509   3.449   5.764   8.803  0.3186 -0.1894  0.5358
13516SOL    HW146510   3.444   5.761   8.708 -1.8864  3.5234  0.3139
13516SOL    HW246511   3.380   5.826   8.828  0.8058 -1.0298  4.5714
13517SOL     OW46512   8.303   4.050   0.590 -0.1952 -0.1439 -0.2857
13517SOL    HW146513   8.266   3.984   0.648 -0.1395  0.1208  0.0567
13517SOL    HW246514   8.228   4.095   0.554 -0.2219  0.1191  0.0877
13518SOL     OW46515   6.906   0.331   0.115 -0.2194 -0.4817 -0.4113
13518SOL    HW146516   6.921   0.388   0.191 -1.9041 -1.0499  0.3842
13518SOL    HW246517   6.992   0.324   0.074  0.7224 -0.0506  1.3635
13519SOL     OW46518   5.441   0.143   3.763  0.5172 -0.3192 -0.0493
13519SOL    HW146519   5.386   0.179   3.694  0.0155 -0.3515  0.3199
13519SOL    HW246520   5.473   0.060   3.728  2.5613  0.9198 -1.3376
13520SOL     OW46521   5.341   7.937   1.562  0.3484  0.2423  0.1769
13520SOL    HW146522   5.297   7.880   1.499  0.9391  1.4844 -1.4289
13520SOL    HW246523   5.432   7.906   1.563  0.2977  0.0981  0.5854
13521SOL     OW46524   2.387   8.328   7.374 -0.3029  0.0783  0.2035
13521SOL    HW146525   2.442   8.400   7.404  1.6878 -1.1535 -0.2950
13521SOL    HW246526   2.440   8.250   7.389 -0.4373 -0.8936 -3.5410
13522SOL     OW46527   9.113   3.162   2.105 -0.4359  0.3530  0.6005
13522SOL    HW146528   9.141   3.205   2.185 -0.6928 -1.0915  1.5034
13522SOL    HW246529   9.031   3.207   2.081 -0.1769  1.0151  0.9376
13523SOL     OW46530   3.751   9.032   6.134 -0.2401  0.5637 -0.3939
13523SOL    HW146531   3.761   9.106   6.193 -1.2695  0.1326  0.3558
13523SOL    HW246532   3.709   9.068   6.056 -1.8869  0.6044  0.4514
13524SOL     OW46533   1.977   4.920   2.653  0.4565 -0.2029  0.5876
13524SOL    HW146534   1.959   5.004   2.611  0.8420 -0.2273  0.3768
13524SOL    HW246535   1.902   4.866   2.629 -0.2052  0.3305  1.4068
13525SOL     OW46536   7.524   4.883   4.261 -0.1508  0.0052 -0.0067
13525SOL    HW146537   7.552   4.926   4.342 -1.1841 -1.1923  1.0286
13525SOL    HW246538   7.489   4.799   4.290 -2.8467  0.5442 -1.4408
13526SOL     OW46539   7.406   8.040   3.675 -0.1863 -0.2801 -0.4594
13526SOL    HW146540   7.488   7.991   3.677 -0.1533 -0.2505 -0.9149
13526SOL    HW246541   7.369   8.029   3.762  0.5235  0.0817 -0.1034
13527SOL     OW46542   6.111   6.083   7.969 -0.6888 -0.2858  0.4588
13527SOL    HW146543   6.081   6.152   7.910 -2.2998 -0.8903  0.5072
13527SOL    HW246544   6.198   6.059   7.937 -0.6282  0.9091 -0.3024
13528SOL     OW46545   4.669   1.787   2.172  0.4160 -0.2402 -0.1755
13528SOL    HW146546   4.728   1.715   2.149 -0.1817 -0.1743 -2.1058
13528SOL    HW246547   4.585   1.745   2.190  0.0935 -0.0744 -1.2046
13529SOL     OW46548   8.381   7.150   4.622  0.7726  0.2310  0.0802
13529SOL    HW146549   8.294   7.124   4.595 -0.0374  0.9452  1.8437
13529SOL    HW246550   8.429   7.163   4.540 -0.2876 -1.6565 -0.9016
13530SOL     OW46551   1.202   2.717   0.688  0.2533 -0.4858 -0.1170
13530SOL    HW146552   1.107   2.707   0.682  0.0516 -0.8788  2.5216
13530SOL    HW246553   1.220   2.716   0.782  2.8168  0.2544 -0.5307
13531SOL     OW46554   2.312   5.426   3.215  0.5622  0.1063 -0.5959
13531SOL    HW146555   2.291   5.489   3.146 -0.4985  0.2514 -0.1608
13531SOL    HW246556   2.262   5.456   3.291  1.0884 -0.5058  0.0113
13532SOL     OW46557   6.608   0.198   1.697  0.4649  0.3785 -0.0703
13532SOL    HW146558   6.589   0.255   1.623 -0.0470 -2.0363 -1.9384
13532SOL    HW246559   6.541   0.130   1.693  2.0742 -1.3665  0.8685
13533SOL     OW46560   0.429   9.002   5.215  1.0235  0.3618  0.4497
13533SOL    HW146561   0.382   8.925   5.249  0.7097  0.2111 -0.3133
13533SOL    HW246562   0.491   8.966   5.152  0.1355  0.8125 -0.7205
13534SOL     OW46563   3.254   0.105   7.627  0.0717 -0.1260  0.4750
13534SOL    HW146564   3.345   0.128   7.647 -0.0367  1.3752 -0.5952
13534SOL    HW246565   3.237   0.027   7.680  1.6241  0.2169  1.5576
13535SOL     OW46566   4.897   3.099   9.224 -0.2767 -0.0879  0.5430
13535SOL    HW146567   4.856   3.048   9.154  1.2634  0.9174 -1.1979
13535SOL    HW246568   4.930   3.034   9.285 -2.3991 -0.9746  0.8213
13536SOL     OW46569   0.106   4.164   6.663 -0.2260 -0.3205  0.3529
13536SOL    HW146570   0.124   4.191   6.754 -1.8772 -0.7513  0.8490
13536SOL    HW246571   0.049   4.233   6.629 -0.3214 -0.6010 -0.0640
13537SOL     OW46572   8.311   3.063   5.244 -0.3827 -0.1859 -0.0710
13537SOL    HW146573   8.381   3.118   5.280  0.3876 -0.9307 -0.3981
13537SOL    HW246574   8.327   2.977   5.281 -0.6271 -0.5640 -0.8264
13538SOL     OW46575   2.630   2.762   5.200  0.1985 -0.6223 -0.2105
13538SOL    HW146576   2.659   2.694   5.140  0.8014  0.5544 -1.3054
13538SOL    HW246577   2.702   2.825   5.201  0.5867 -0.9939  2.4290
13539SOL     OW46578   2.197   8.398   8.898 -0.4222  0.2492 -0.4074
13539SOL    HW146579   2.151   8.342   8.960  0.3012  0.1882  0.0836
13539SOL    HW246580   2.152   8.482   8.904 -0.8569  0.0200 -0.3887
13540SOL     OW46581   5.963   4.391   4.687  0.3032 -0.6929  0.0307
13540SOL    HW146582   5.962   4.315   4.629 -1.3225 -0.3913 -0.3848
13540SOL    HW246583   5.922   4.361   4.767 -0.7212 -0.1632 -0.2812
13541SOL     OW46584   5.133   7.408   6.385 -0.1009  0.0366  0.0231
13541SOL    HW146585   5.203   7.441   6.441  0.0716 -0.0939 -0.1146
13541SOL    HW246586   5.144   7.313   6.387 -0.0478  0.0379 -0.2945
13542SOL     OW46587   4.461   8.778   6.973 -0.1321 -0.1851  0.8000
13542SOL    HW146588   4.504   8.723   7.039  0.1789  0.5169  1.1943
13542SOL    HW246589   4.368   8.770   6.993 -0.0563 -0.1646  1.1788
13543SOL     OW46590   1.429   2.477   3.150 -0.1037  0.6509  0.3959
13543SOL    HW146591   1.334   2.468   3.151 -0.0098 -0.5184  2.2605
13543SOL    HW246592   1.447   2.529   3.071 -2.2434  0.6606 -0.1428
13544SOL     OW46593   8.271   1.195   8.685 -0.2014  0.1412  0.0071
13544SOL    HW146594   8.213   1.201   8.761 -0.8910 -0.5581 -0.4455
13544SOL    HW246595   8.353   1.161   8.720 -0.1186  0.9468  0.6215
13545SOL     OW46596   3.824   6.175   3.418  0.7754 -0.2615  0.2488
13545SOL    HW146597   3.880   6.237   3.372  2.8625 -0.9638  1.6337
13545SOL    HW246598   3.884   6.104   3.443 -0.9387 -1.4776  1.1186
13546SOL     OW46599   6.756   7.310   6.790  0.5452 -0.3721  0.0393
13546SOL    HW146600   6.806   7.329   6.869 -1.0083 -1.6064  1.4136
13546SOL    HW246601   6.764   7.215   6.778  0.5496 -0.2388 -1.1453
13547SOL     OW46602   4.175   4.461   2.545  0.4844  0.5396 -0.3762
13547SOL    HW146603   4.085   4.446   2.515  0.4907 -0.7667  0.1647
13547SOL    HW246604   4.230   4.440   2.469  0.3395  1.2295 -0.6734
13548SOL     OW46605   1.429   4.883   5.978 -0.3449 -0.2135 -0.0936
13548SOL    HW146606   1.418   4.933   6.059 -1.7961  1.2091 -1.0996
13548SOL    HW246607   1.511   4.915   5.940  0.1066 -0.5571  0.5901
13549SOL     OW46608   6.847   8.491   5.968 -0.1878  0.1714 -0.9360
13549SOL    HW146609   6.913   8.554   5.996  0.7073 -0.5880 -1.2907
13549SOL    HW246610   6.772   8.507   6.026  0.4969  0.6895 -0.1712
13550SOL     OW46611   4.499   8.114   8.470 -0.0615  0.0214 -0.5667
13550SOL    HW146612   4.408   8.094   8.452 -0.4154  0.6270  0.4606
13550SOL    HW246613   4.502   8.210   8.475 -0.0891 -0.0295  2.6755
13551SOL     OW46614   0.961   0.974   7.966 -0.3228 -0.3098 -0.1822
13551SOL    HW146615   0.970   0.950   8.058  0.0903 -1.4100 -0.4949
13551SOL    HW246616   1.017   1.050   7.956  0.2145 -0.6321  0.3135
13552SOL     OW46617   7.961   6.021   7.726  0.6535  1.0170  0.5211
13552SOL    HW146618   7.872   6.024   7.761  0.1901 -0.3843 -0.4378
13552SOL    HW246619   7.958   6.076   7.647 -0.3301 -1.5427 -1.3843
13553SOL     OW46620   2.789   8.330   8.307  0.2337 -0.8851 -0.5900
13553SOL    HW146621   2.806   8.246   8.266 -2.1451 -1.8480  0.2148
13553SOL    HW246622   2.705   8.358   8.270 -1.2169 -1.0346  2.3052
13554SOL     OW46623   1.630   8.634   2.722  0.2107 -0.3340 -0.1195
13554SOL    HW146624   1.600   8.676   2.803 -0.8500  0.7338 -1.0296
13554SOL    HW246625   1.571   8.559   2.711 -0.1625 -0.0165 -0.3088
13555SOL     OW46626   6.350   6.702   9.042 -0.3468  0.5776  0.0869
13555SOL    HW146627   6.326   6.794   9.033  0.1888  0.7428  0.3640
13555SOL    HW246628   6.388   6.679   8.957  0.2828  0.8343  0.3004
13556SOL     OW46629   5.769   5.668   9.128  0.1536  0.3600  0.5670
13556SOL    HW146630   5.754   5.754   9.090 -0.5702 -0.5151 -1.2590
13556SOL    HW246631   5.792   5.685   9.219  2.2532  2.6085 -0.2724
13557SOL     OW46632   1.103   1.573   1.497 -0.2012  0.3961 -0.0606
13557SOL    HW146633   1.037   1.631   1.536  1.0123  1.1938  0.8740
13557SOL    HW246634   1.077   1.566   1.405 -0.7727  1.8824 -0.0438
13558SOL     OW46635   2.249   6.174   8.624  0.4074 -0.7164 -0.1651
13558SOL    HW146636   2.201   6.092   8.613 -2.4464  1.0072 -1.8214
13558SOL    HW246637   2.187   6.233   8.667  1.4775  1.2519 -1.1541
13559SOL     OW46638   5.282   3.949   4.897  0.5073 -0.0811 -0.2341
13559SOL    HW146639   5.310   4.036   4.925  1.4031 -0.7098  0.9733
13559SOL    HW246640   5.362   3.897   4.900 -0.6970 -2.2461  4.4021
13560SOL     OW46641   4.264   9.237   6.019 -0.1807  0.7694 -0.1701
13560SOL    HW146642   4.244   9.184   5.942  0.1291  0.2740  0.0881
13560SOL    HW246643   4.295   9.174   6.084  0.0276  1.2446  0.1939
13561SOL     OW46644   3.821   5.420   4.457 -0.5138 -0.1655 -0.7023
13561SOL    HW146645   3.832   5.378   4.542 -0.6107 -2.2252 -1.6594
13561SOL    HW246646   3.900   5.473   4.446 -1.1772  1.3542  1.2778
13562SOL     OW46647   6.065   0.512   7.616 -0.0802  0.1541 -0.0938
13562SOL    HW146648   6.150   0.529   7.576 -0.0684 -0.6747 -0.4345
13562SOL    HW246649   6.007   0.492   7.543 -0.7893  1.5222  0.0602
13563SOL     OW46650   5.302   5.000   9.358  0.1471  1.1143  0.2499
13563SOL    HW146651   5.345   4.948   9.290 -0.0694  1.7769 -0.3939
13563SOL    HW246652   5.228   5.041   9.314  0.1022  1.6812  0.8440
13564SOL     OW46653   1.583   9.176   8.884 -0.4221 -0.4117 -0.1211
13564SOL    HW146654   1.610   9.190   8.975 -0.4227 -3.2535  0.3997
13564SOL    HW246655   1.490   9.155   8.889 -0.8869  1.2668 -1.0354
13565SOL     OW46656   2.337   1.552   4.293 -0.0264  0.1114 -0.0206
13565SOL    HW146657   2.417   1.601   4.272  0.4809 -0.6783  0.0374
13565SOL    HW246658   2.269   1.619   4.297  0.5992  0.7780 -0.2353
13566SOL     OW46659   3.613   7.849   8.809 -0.1453 -0.0457 -0.2447
13566SOL    HW146660   3.577   7.938   8.801 -0.6709 -0.2646 -0.3712
13566SOL    HW246661   3.639   7.843   8.901 -2.7028 -0.6937  0.5283
13567SOL     OW46662   1.045   1.047   0.027  0.3574 -0.5588  0.2529
13567SOL    HW146663   1.086   1.043   0.113  0.8270 -0.5580  0.0357
13567SOL    HW246664   1.095   0.984  -0.026 -2.2762 -3.4342  0.9268
13568SOL     OW46665   2.280   7.269   8.448  0.6196 -0.1938  0.3237
13568SOL    HW146666   2.339   7.214   8.500  2.0330 -0.4375 -1.4232
13568SOL    HW246667   2.226   7.314   8.513  2.6811 -0.0033  2.0355
13569SOL     OW46668   5.216   6.472   9.175 -0.3169  0.1635  0.3294
13569SOL    HW146669   5.165   6.404   9.131 -0.0199 -0.2451  0.6054
13569SOL    HW246670   5.297   6.479   9.124 -0.4756  0.5297  0.1235
13570SOL     OW46671   7.021   4.550   2.492  0.4895 -0.1408 -0.3782
13570SOL    HW146672   7.086   4.505   2.439 -1.8312 -1.5447 -2.1867
13570SOL    HW246673   7.038   4.643   2.475  2.2976 -0.4298 -0.3918
13571SOL     OW46674   1.515   1.930   9.193 -0.4775 -0.2617  0.2179
13571SOL    HW146675   1.500   2.022   9.216 -0.6870  0.2862 -1.8424
13571SOL    HW246676   1.427   1.892   9.193 -0.2119 -1.0965  3.1949
13572SOL     OW46677   5.026   4.613   1.595 -0.1719  0.2696  0.2186
13572SOL    HW146678   5.010   4.703   1.566 -2.5074 -0.9605 -2.7064
13572SOL    HW246679   5.109   4.589   1.553 -0.0214  0.7088  0.2556
13573SOL     OW46680   9.079   1.259   8.561  0.0323 -0.0145  0.2108
13573SOL    HW146681   9.093   1.194   8.629 -1.5665 -0.0756  0.5286
13573SOL    HW246682   9.009   1.315   8.595 -0.3217  0.3736 -1.0776
13574SOL     OW46683   0.787   7.410   2.029  0.3372 -0.1526  0.0754
13574SOL    HW146684   0.852   7.378   2.091  0.3104 -0.9353 -0.2847
13574SOL    HW246685   0.705   7.369   2.058  0.4099 -0.8995 -0.7404
13575SOL     OW46686   4.462   4.817   1.192 -0.3435  0.2740 -0.3484
13575SOL    HW146687   4.430   4.778   1.111  0.3732  1.0514 -1.0351
13575SOL    HW246688   4.464   4.745   1.255  1.2273 -0.9040 -1.6423
13576SOL     OW46689   3.356   5.710   7.813 -0.1519 -0.2258 -0.2016
13576SOL    HW146690   3.355   5.641   7.879 -0.6026  0.1575  0.1988
13576SOL    HW246691   3.449   5.730   7.801 -0.0590 -0.3607  0.2564
13577SOL     OW46692   6.274   5.335   2.896  0.0968 -0.3059 -0.2718
13577SOL    HW146693   6.364   5.357   2.871  0.0187 -0.6209 -0.8566
13577SOL    HW246694   6.247   5.405   2.955  1.7708 -1.6953  2.3623
13578SOL     OW46695   8.126   2.913   1.339  0.2213  0.5416  0.0814
13578SOL    HW146696   8.206   2.965   1.351  0.1476  0.9015 -0.9049
13578SOL    HW246697   8.073   2.931   1.417  0.4869  1.4150  0.0681
13579SOL     OW46698   8.880   4.963   1.157  0.8293  0.5229  0.2871
13579SOL    HW146699   8.913   4.889   1.107 -0.2913  0.0390  0.2446
13579SOL    HW246700   8.803   4.993   1.109 -1.9355 -1.6346  2.9749
13580SOL     OW46701   0.047   0.624   4.554 -0.3624  0.0461  0.0407
13580SOL    HW146702  -0.018   0.694   4.564  0.1766  0.5248  0.2007
13580SOL    HW246703   0.006   0.548   4.596 -1.3099  0.0247 -0.8656
13581SOL     OW46704   5.048   4.459   6.092  0.2073  0.1228 -0.2981
13581SOL    HW146705   5.023   4.377   6.136 -0.8189 -0.0503 -1.1549
13581SOL    HW246706   5.067   4.433   6.002  0.0824  0.7897 -0.5232
13582SOL     OW46707   6.465   2.980   8.141 -0.2205  0.5266  0.0406
13582SOL    HW146708   6.552   2.951   8.113  0.0627  0.4702  0.9506
13582SOL    HW246709   6.434   3.036   8.069 -0.3565 -1.1851 -1.2849
13583SOL     OW46710   1.272   5.246   1.386 -0.2782  0.2145  0.0950
13583SOL    HW146711   1.269   5.169   1.328 -2.3918  1.1638 -1.1491
13583SOL    HW246712   1.193   5.238   1.440  0.3611  0.6787  1.1211
13584SOL     OW46713   6.175   2.800   6.846  0.6215  0.4001 -0.3016
13584SOL    HW146714   6.157   2.889   6.875  1.0240 -0.0431  1.4442
13584SOL    HW246715   6.150   2.799   6.753 -1.3294  1.7661  0.1470
13585SOL     OW46716   1.733   0.958   0.702 -0.5122 -0.3741 -0.8187
13585SOL    HW146717   1.673   0.901   0.750  0.8593 -1.0910  0.0988
13585SOL    HW246718   1.820   0.930   0.730  0.2272  1.7389 -0.8378
13586SOL     OW46719   3.334   2.417   1.319 -0.2280  0.3547  0.0983
13586SOL    HW146720   3.350   2.509   1.340  0.4944  0.4530 -0.8373
13586SOL    HW246721   3.289   2.420   1.234  1.3707 -0.2042 -0.8022
13587SOL     OW46722   2.399   6.341   4.674  0.3114  0.2097 -0.2730
13587SOL    HW146723   2.316   6.308   4.638  0.2631 -1.0609  0.9113
13587SOL    HW246724   2.381   6.353   4.767  0.8795  1.9494 -0.3575
13588SOL     OW46725   4.407   2.398   8.904 -0.2322 -1.0837  0.6419
13588SOL    HW146726   4.349   2.474   8.907  0.8298 -0.2602  1.0278
13588SOL    HW246727   4.477   2.424   8.844 -1.1759 -2.7705 -1.3015
13589SOL     OW46728   1.903   6.334   7.342 -0.2655  0.5862 -0.1268
13589SOL    HW146729   1.944   6.254   7.310 -2.0616 -0.3853 -0.1208
13589SOL    HW246730   1.923   6.400   7.275  0.8226  0.0371 -0.3713
13590SOL     OW46731   7.643   6.466   5.051  0.1206  0.1365 -0.7461
13590SOL    HW146732   7.657   6.401   5.120  1.6009  1.3872  0.1986
13590SOL    HW246733   7.728   6.510   5.042  0.6944 -1.4037 -4.9568
13591SOL     OW46734   3.521   0.372   0.260  0.1694  0.4127  0.1466
13591SOL    HW146735   3.571   0.388   0.340  1.5537 -0.2231 -0.5447
13591SOL    HW246736   3.537   0.279   0.240 -1.3813  0.1598 -0.0707
13592SOL     OW46737   6.997   4.413   0.851 -0.4008 -0.2768 -0.1908
13592SOL    HW146738   6.932   4.473   0.814 -1.2443 -1.2697 -0.3862
13592SOL    HW246739   7.026   4.361   0.777  2.2835  1.5500 -0.5505
13593SOL     OW46740   8.222   1.057   6.730  0.5281  0.5131 -0.0938
13593SOL    HW146741   8.140   1.073   6.776 -1.3948 -0.7755 -2.8289
13593SOL    HW246742   8.239   0.964   6.743  0.1229  0.2020 -1.6488
13594SOL     OW46743   0.094   5.426   1.166  0.2258 -0.3352  0.2264
13594SOL    HW146744   0.035   5.501   1.156  0.2554 -0.1929  1.0531
13594SOL    HW246745   0.182   5.465   1.168  0.3057 -0.4812 -0.2729
13595SOL     OW46746   6.776   1.661   7.944  0.2718 -0.0324  0.1042
13595SOL    HW146747   6.761   1.701   8.029 -1.3666 -2.0953  0.8676
13595SOL    HW246748   6.696   1.677   7.895  1.7582  2.4930 -1.7305
13596SOL     OW46749   5.202   8.278   8.636 -0.0778  0.1703  0.6674
13596SOL    HW146750   5.148   8.202   8.659  1.6107 -1.5366 -0.7361
13596SOL    HW246751   5.243   8.303   8.719 -1.7875  0.5323  1.4449
13597SOL     OW46752   6.241   4.441   4.634 -0.4744 -0.2609  0.3850
13597SOL    HW146753   6.268   4.359   4.675 -1.0585 -0.0808  1.1566
13597SOL    HW246754   6.147   4.433   4.623 -0.3294 -0.3231 -1.0035
13598SOL     OW46755   5.896   3.531   6.377 -0.0454 -0.3713  0.1837
13598SOL    HW146756   5.901   3.618   6.337  1.5680 -0.6947 -0.3991
13598SOL    HW246757   5.831   3.484   6.324 -1.5466  0.6860  1.0056
13599SOL     OW46758   0.216   8.789   0.724  0.1284 -0.1607  0.8607
13599SOL    HW146759   0.247   8.815   0.637 -1.9084  2.5627  0.8036
13599SOL    HW246760   0.161   8.713   0.708  0.1961 -0.0046 -0.1852
13600SOL     OW46761   0.894   6.381   1.372  0.6326 -0.5253  0.0441
13600SOL    HW146762   0.976   6.399   1.325  0.4847 -0.9277 -0.3644
13600SOL    HW246763   0.919   6.386   1.464  0.8926  0.4138 -0.0593
13601SOL     OW46764   6.807   2.950   1.267 -0.0825  0.0815  0.0599
13601SOL    HW146765   6.766   3.022   1.317  0.5691  1.7193 -1.6374
13601SOL    HW246766   6.745   2.934   1.196 -0.2964 -1.2032  0.5175
13602SOL     OW46767   4.266   6.004   1.050  0.2923 -0.5658 -0.3217
13602SOL    HW146768   4.293   6.095   1.048 -1.5898  0.0376 -1.5741
13602SOL    HW246769   4.231   5.991   1.139  0.3685 -0.0053 -0.2076
13603SOL     OW46770   7.675   5.842   8.076  0.5622 -0.7561 -0.7544
13603SOL    HW146771   7.752   5.880   8.119  1.3291 -1.3946 -1.5269
13603SOL    HW246772   7.605   5.905   8.093  1.2048 -0.2396  0.1043
13604SOL     OW46773   1.032   7.074   5.098  0.9636  0.5198 -0.1887
13604SOL    HW146774   1.047   6.982   5.117  1.5759  1.0675  2.3405
13604SOL    HW246775   0.954   7.097   5.149  1.8052  1.7639  0.6042
13605SOL     OW46776   2.126   4.771   1.401 -0.2133  0.3286  0.6078
13605SOL    HW146777   2.031   4.760   1.400 -0.3324  0.9322  2.3620
13605SOL    HW246778   2.157   4.718   1.328 -1.8883  0.0791  0.0360
13606SOL     OW46779   4.921   7.496   7.302 -0.4892  0.0234 -0.3140
13606SOL    HW146780   4.843   7.457   7.262 -0.9388  0.3936  0.1776
13606SOL    HW246781   4.888   7.575   7.346 -0.0163 -0.3717  0.7779
13607SOL     OW46782   2.685   4.805   4.865  0.3507 -1.1146 -0.3895
13607SOL    HW146783   2.720   4.882   4.820  0.0352 -2.0006 -2.2261
13607SOL    HW246784   2.616   4.841   4.922 -0.1427 -0.0646 -1.5961
13608SOL     OW46785   7.394   2.970   0.273  0.1271 -0.6638  0.2467
13608SOL    HW146786   7.332   3.041   0.287  1.7848  1.0396 -0.5284
13608SOL    HW246787   7.401   2.927   0.358 -3.4572 -2.1805 -0.0727
13609SOL     OW46788   0.018   2.006   8.531 -0.3653  0.1062 -0.1406
13609SOL    HW146789  -0.003   1.966   8.615  0.8665  0.2394  0.2508
13609SOL    HW246790   0.083   2.073   8.552  0.4820 -0.3289 -1.2899
13610SOL     OW46791   4.025   0.414   0.121 -0.2828  0.5759  0.9618
13610SOL    HW146792   3.999   0.484   0.181 -1.2847  0.0811  1.1320
13610SOL    HW246793   3.945   0.364   0.107  0.3952 -0.4944  0.7850
13611SOL     OW46794   7.413   1.474   6.105  0.6635 -0.4657 -0.5439
13611SOL    HW146795   7.357   1.544   6.138 -0.2806 -1.1594 -0.6243
13611SOL    HW246796   7.413   1.486   6.010  1.9404  0.4646 -0.4515
13612SOL     OW46797   4.453   3.552   7.527  0.0126 -0.5898 -0.0727
13612SOL    HW146798   4.465   3.575   7.619  0.7953 -1.6019  0.0922
13612SOL    HW246799   4.426   3.461   7.528  0.3370 -0.7047 -0.8588
13613SOL     OW46800   6.540   1.823   4.151  0.2057 -0.2215 -0.1743
13613SOL    HW146801   6.451   1.797   4.174  0.3667 -1.2651 -0.6472
13613SOL    HW246802   6.576   1.746   4.106  1.3353  0.1880 -0.0067
13614SOL     OW46803   0.684   0.200   0.841  0.7945  0.2671  0.1713
13614SOL    HW146804   0.647   0.277   0.884  0.0004  1.1260 -1.8896
13614SOL    HW246805   0.608   0.144   0.825  0.5578  1.1999 -2.4330
13615SOL     OW46806   4.287   7.715   6.625 -0.2175 -0.2156 -0.0594
13615SOL    HW146807   4.218   7.708   6.691 -0.6909 -2.0339 -0.6736
13615SOL    HW246808   4.242   7.698   6.542  0.6959  0.1690 -0.6434
13616SOL     OW46809   4.541   3.480   6.031  0.0748  0.3524  0.0721
13616SOL    HW146810   4.620   3.530   6.055  0.6353 -0.4593 -0.0502
13616SOL    HW246811   4.551   3.396   6.075 -2.1279  1.2229  2.4538
13617SOL     OW46812   1.217   6.623   2.955 -0.1903  0.3632  0.5421
13617SOL    HW146813   1.180   6.633   3.042 -1.5563  2.4971 -0.2132
13617SOL    HW246814   1.183   6.697   2.905  1.5046 -0.1265 -1.4971
13618SOL     OW46815   6.861   7.294   4.946 -0.4792 -0.2311  0.4645
13618SOL    HW146816   6.902   7.314   5.030  0.0991 -1.2447  0.4322
13618SOL    HW246817   6.929   7.313   4.881 -0.0937 -1.7199  0.3962
13619SOL     OW46818   3.329   4.995   3.316 -0.8305 -0.0900  0.2813
13619SOL    HW146819   3.271   5.045   3.260  1.3960  0.8048 -1.3816
13619SOL    HW246820   3.282   4.913   3.334 -2.8692  0.9110 -0.2867
13620SOL     OW46821   8.045   9.042   1.274 -0.8979  0.3162  0.0118
13620SOL    HW146822   7.963   9.085   1.250 -1.5284 -0.0010  1.4840
13620SOL    HW246823   8.078   9.092   1.349 -0.4835 -0.3832  0.3140
13621SOL     OW46824   3.934   6.418   7.689  0.1668 -0.5022 -0.1615
13621SOL    HW146825   3.887   6.353   7.742  0.3970 -1.8905 -1.5969
13621SOL    HW246826   4.011   6.371   7.657  0.9323  0.8321 -0.3266
13622SOL     OW46827   0.518   6.868   8.543 -0.3822 -0.3547  0.3803
13622SOL    HW146828   0.531   6.959   8.516  1.1642 -0.9650 -1.1514
13622SOL    HW246829   0.508   6.872   8.638  1.8061  1.2716  0.6303
13623SOL     OW46830   9.063   6.336   8.864 -0.5502  0.2972 -0.0222
13623SOL    HW146831   8.984   6.283   8.849 -0.2177 -0.3263  0.3709
13623SOL    HW246832   9.037   6.425   8.839 -1.2912  0.0530 -0.1668
13624SOL     OW46833   0.525   8.533   4.589  0.3586  0.6167 -0.4873
13624SOL    HW146834   0.511   8.470   4.659  1.5473  0.3802 -0.4327
13624SOL    HW246835   0.445   8.584   4.585  0.0710  0.2686  0.6786
13625SOL     OW46836   5.281   4.447   1.108 -0.0915  0.2802 -0.0529
13625SOL    HW146837   5.278   4.470   1.200  0.0050  1.2467 -0.2760
13625SOL    HW246838   5.367   4.406   1.096 -0.1173  0.1283  0.2943
13626SOL     OW46839   4.142   2.644   2.364  0.5504 -0.2590  0.1194
13626SOL    HW146840   4.200   2.573   2.391 -1.8388 -1.7868  1.7343
13626SOL    HW246841   4.136   2.636   2.269  1.4343 -1.3100  0.1380
13627SOL     OW46842   2.613   1.645   0.442 -0.1870 -0.4970 -1.1612
13627SOL    HW146843   2.655   1.580   0.498 -0.7388 -0.0070 -0.1325
13627SOL    HW246844   2.665   1.725   0.454  0.1889 -0.6092 -2.0170
13628SOL     OW46845   7.941   2.548   9.287 -0.1446 -0.5776  0.1640
13628SOL    HW146846   7.897   2.587   9.211  1.0959  1.1158  0.2643
13628SOL    HW246847   7.948   2.619   9.350  2.2054 -0.8936  0.3656
13629SOL     OW46848   4.471   3.847   8.447  0.1527  0.4260 -0.3765
13629SOL    HW146849   4.538   3.840   8.514  0.1160 -1.0106 -0.4517
13629SOL    HW246850   4.391   3.817   8.490  0.0114  0.0532 -0.8901
13630SOL     OW46851   7.521   5.150   7.776 -0.0975 -0.3249 -0.5014
13630SOL    HW146852   7.511   5.119   7.866 -0.9124  0.8176 -0.1787
13630SOL    HW246853   7.443   5.203   7.760  1.2042  1.5729 -1.0047
13631SOL     OW46854   1.694   1.014   2.103  0.0938  0.5918 -0.0949
13631SOL    HW146855   1.649   0.946   2.153 -1.4331  0.3384 -1.7047
13631SOL    HW246856   1.775   0.974   2.072  0.6289  0.4791  1.3824
13632SOL     OW46857   7.543   7.339   7.466 -0.8467  0.2170 -0.0653
13632SOL    HW146858   7.559   7.363   7.557 -0.5957 -0.9230  0.2089
13632SOL    HW246859   7.613   7.382   7.417  0.3881 -0.9983  0.5765
13633SOL     OW46860   4.262   0.347   8.564  0.4058 -0.3103  0.3613
13633SOL    HW146861   4.335   0.403   8.592  0.5451 -0.8756  1.1603
13633SOL    HW246862   4.184   0.391   8.596  0.4085  0.1425 -0.2354
13634SOL     OW46863   4.945   2.084   4.620  0.0348 -0.1567  0.0756
13634SOL    HW146864   4.947   2.133   4.537  0.9835  0.5280  0.4811
13634SOL    HW246865   5.028   2.107   4.662 -0.4564 -0.4799  1.2323
13635SOL     OW46866   3.270   4.192   3.273 -0.0563  0.5443  0.4764
13635SOL    HW146867   3.248   4.198   3.180  1.2456 -1.9957 -0.1060
13635SOL    HW246868   3.363   4.168   3.274 -0.7268 -2.5505  2.2103
13636SOL     OW46869   2.816   3.220   7.704  0.5887 -0.3053  0.0010
13636SOL    HW146870   2.801   3.308   7.740  1.4400 -0.0257 -0.3034
13636SOL    HW246871   2.910   3.207   7.710  0.7345 -0.3549 -1.8401
13637SOL     OW46872   6.767   3.304   3.944  0.2553 -0.2204 -0.2058
13637SOL    HW146873   6.786   3.370   4.010 -0.7291 -1.2021  1.1234
13637SOL    HW246874   6.791   3.221   3.986  1.1305 -0.7772 -1.6919
13638SOL     OW46875   8.338   4.007   3.985 -0.0468  0.3131  0.1820
13638SOL    HW146876   8.431   4.013   4.007 -0.3658 -0.3799  1.8785
13638SOL    HW246877   8.328   3.921   3.944 -0.0041  0.2238  0.3581
13639SOL     OW46878   4.070   3.514   3.565 -0.3670  0.0001  0.2424
13639SOL    HW146879   4.043   3.491   3.477 -0.5795 -0.8040  0.5053
13639SOL    HW246880   4.114   3.599   3.556 -1.9154  0.7616 -0.3587
13640SOL     OW46881   7.666   7.840   6.940 -0.7073 -0.0235 -0.0247
13640SOL    HW146882   7.609   7.907   6.979  1.5488  1.5794  0.7856
13640SOL    HW246883   7.713   7.803   7.014  2.5571  1.9933 -0.8551
13641SOL     OW46884   4.049   1.702   9.280 -0.5800 -0.6322  0.4527
13641SOL    HW146885   3.982   1.685   9.214  1.6466 -2.4011 -1.5157
13641SOL    HW246886   4.031   1.640   9.351 -0.5574 -1.7166 -0.4651
13642SOL     OW46887   2.906   8.867   6.888  0.5926  0.3638  0.0588
13642SOL    HW146888   2.865   8.835   6.968  1.3299  0.6110  0.5330
13642SOL    HW246889   2.986   8.817   6.879 -1.1499 -2.2924 -2.4699
13643SOL     OW46890   1.118   3.124   6.897 -0.0602 -0.0634  0.0804
13643SOL    HW146891   1.050   3.157   6.957 -0.2813 -1.8045  0.8328
13643SOL    HW246892   1.131   3.196   6.835 -1.5217  0.8918  0.8108
13644SOL     OW46893   2.230   1.962   0.671 -0.0387 -0.2102  0.0908
13644SOL    HW146894   2.253   1.892   0.611  1.1303 -0.2821  0.6010
13644SOL    HW246895   2.225   2.040   0.617  1.7868 -0.1293  0.0002
13645SOL     OW46896   5.259   7.211   4.014  0.0010 -0.4284  0.3997
13645SOL    HW146897   5.218   7.297   4.006 -1.7163 -1.2712 -0.6793
13645SOL    HW246898   5.352   7.229   4.027 -0.4100  1.5787  0.8162
13646SOL     OW46899   3.761   8.662   6.775 -0.0180 -0.2518 -0.0148
13646SOL    HW146900   3.727   8.747   6.804  0.2096 -0.4262  0.7661
13646SOL    HW246901   3.744   8.603   6.848 -2.0876 -1.3963 -1.3272
13647SOL     OW46902   8.115   0.887   7.301 -0.2346 -0.0282  0.0892
13647SOL    HW146903   8.165   0.806   7.292  1.4494  0.8736  0.9054
13647SOL    HW246904   8.082   0.905   7.212  1.8611 -0.0693 -0.7533
13648SOL     OW46905   6.584   1.092   2.018  0.0377  0.6939  0.0549
13648SOL    HW146906   6.586   1.092   2.114 -2.9352  0.2570  0.1995
13648SOL    HW246907   6.491   1.095   1.996  0.6193  0.1839 -2.8345
13649SOL     OW46908   7.319   2.861   1.382 -0.0986 -0.3385 -0.5289
13649SOL    HW146909   7.373   2.907   1.318 -0.4991  0.0463 -0.5921
13649SOL    HW246910   7.251   2.924   1.406  2.0738  0.9727  2.9813
13650SOL     OW46911   0.686   8.871   0.223  0.5368  0.2008  0.4005
13650SOL    HW146912   0.778   8.847   0.231  1.3662  1.6533 -2.8657
13650SOL    HW246913   0.685   8.966   0.231 -0.6322  0.2212  0.2035
13651SOL     OW46914   8.300   5.193   2.757 -0.0907  0.0384 -0.2729
13651SOL    HW146915   8.207   5.189   2.733  0.4089 -1.0550 -2.3420
13651SOL    HW246916   8.320   5.105   2.789 -0.1080  0.7454  1.8210
13652SOL     OW46917   8.083   6.357   4.023 -0.4480 -0.3634  0.1326
13652SOL    HW146918   8.000   6.310   4.031  0.3182 -1.7433  0.2535
13652SOL    HW246919   8.059   6.449   4.033 -1.8538 -0.7848  0.9998
13653SOL     OW46920   7.090   4.408   4.393  0.4220  0.0531  0.0786
13653SOL    HW146921   7.136   4.329   4.363  1.9311  0.4784  1.1345
13653SOL    HW246922   7.110   4.473   4.325 -0.8483 -0.4456 -0.8088
13654SOL     OW46923   8.857   8.208   0.999  0.6562 -0.2886 -0.2801
13654SOL    HW146924   8.854   8.246   1.087  0.8980 -0.3157 -0.2617
13654SOL    HW246925   8.816   8.275   0.943 -0.0296 -0.5132 -0.0626
13655SOL     OW46926   8.462   2.685   8.436  0.4683  0.2328 -0.4774
13655SOL    HW146927   8.515   2.631   8.495  0.5626  0.4261 -0.3834
13655SOL    HW246928   8.525   2.746   8.397  0.1241  1.3634  0.6377
13656SOL     OW46929   0.780   1.852   0.248 -0.0954  0.1205 -0.4120
13656SOL    HW146930   0.701   1.883   0.292 -1.5562 -0.8051 -2.2621
13656SOL    HW246931   0.806   1.775   0.298 -0.6273  0.1665 -0.0484
13657SOL     OW46932   6.809   0.482   8.944  0.2199  0.4785  0.1271
13657SOL    HW146933   6.782   0.399   8.903  0.0067  0.7711 -0.3329
13657SOL    HW246934   6.765   0.482   9.029 -1.2413  0.9273 -0.5872
13658SOL     OW46935   6.808   1.705   1.217  0.2194  0.3821  0.5176
13658SOL    HW146936   6.778   1.746   1.298 -0.7090 -1.2792  1.0654
13658SOL    HW246937   6.858   1.629   1.245 -1.3153 -1.0506 -0.4219
13659SOL     OW46938   4.698   8.712   2.211 -0.8552 -0.2959 -0.3570
13659SOL    HW146939   4.761   8.681   2.276 -2.0777 -3.1976 -0.4201
13659SOL    HW246940   4.729   8.800   2.188  1.5382 -0.5088  1.6130
13660SOL     OW46941   8.050   0.305   2.174  0.5145 -0.1021 -0.6662
13660SOL    HW146942   8.011   0.392   2.181 -1.3958 -0.8074 -1.6733
13660SOL    HW246943   8.023   0.260   2.254  1.5931  0.2255 -0.0941
13661SOL     OW46944   0.985   7.768   9.360 -0.3992 -0.7584  0.0101
13661SOL    HW146945   0.928   7.708   9.311  0.6527 -1.1593 -0.7586
13661SOL    HW246946   1.052   7.794   9.296  0.5448 -0.6595  1.0205
13662SOL     OW46947   1.326   4.079   4.899 -0.2230  0.1073  0.4678
13662SOL    HW146948   1.299   4.014   4.834  1.6023 -0.3116  0.0606
13662SOL    HW246949   1.270   4.062   4.974 -0.9334 -0.8165 -0.2376
13663SOL     OW46950   1.830   2.916   1.866 -0.4908  0.0084  0.0622
13663SOL    HW146951   1.770   2.930   1.793 -2.5263 -3.9647  0.6950
13663SOL    HW246952   1.893   2.852   1.834  0.2578  0.2385  1.0052
13664SOL     OW46953   3.260   0.867   8.802  0.3382 -0.2139  0.1901
13664SOL    HW146954   3.257   0.811   8.725 -0.3015  2.1796 -1.6339
13664SOL    HW246955   3.353   0.886   8.814  0.3403  0.5064 -0.8682
13665SOL     OW46956   0.117   1.105   1.685 -0.2404  0.2177 -0.4697
13665SOL    HW146957   0.184   1.105   1.616 -0.7040 -2.2788 -1.0042
13665SOL    HW246958   0.156   1.054   1.756 -1.1980 -0.4799 -0.4283
13666SOL     OW46959   3.989   2.062   3.730  0.0212 -0.5049  0.0432
13666SOL    HW146960   3.907   2.083   3.775 -0.0109  2.7012 -1.2748
13666SOL    HW246961   4.057   2.105   3.782  0.6690 -1.5166  0.0580
13667SOL     OW46962   7.397   2.744   1.608  0.6518 -0.1913 -0.1831
13667SOL    HW146963   7.463   2.809   1.629 -0.4358  0.9558 -0.1910
13667SOL    HW246964   7.376   2.760   1.516 -2.4623  2.2020  0.7701
13668SOL     OW46965   1.448   5.539   1.594  0.4303  0.2148  1.1407
13668SOL    HW146966   1.382   5.602   1.563  1.2805  0.9072  0.6809
13668SOL    HW246967   1.480   5.497   1.515  0.8626  0.2130  1.3122
13669SOL     OW46968   4.277   4.193   1.071  0.2290 -0.1234  0.3005
13669SOL    HW146969   4.259   4.215   1.163  1.5927  0.9948  0.3277
13669SOL    HW246970   4.304   4.276   1.032 -0.0676 -0.6449 -1.0614
13670SOL     OW46971   7.263   6.291   5.183  0.2520 -0.0479 -0.5453
13670SOL    HW146972   7.247   6.256   5.271  1.1296  2.2801  0.6184
13670SOL    HW246973   7.318   6.225   5.141 -0.1006 -1.1676  0.6747
13671SOL     OW46974   6.015   6.335   0.955 -0.8917  0.4128 -0.2829
13671SOL    HW146975   6.088   6.390   0.984 -0.0447 -0.2316 -1.1308
13671SOL    HW246976   5.938   6.376   0.993 -0.4408  2.9178 -1.8683
13672SOL     OW46977   1.250   7.107   8.552  0.2771  0.1375  0.3565
13672SOL    HW146978   1.210   7.147   8.475  0.2031 -1.8875 -0.7241
13672SOL    HW246979   1.211   7.153   8.626 -0.4544  1.4089 -0.7679
13673SOL     OW46980   0.907   3.837   7.752  0.1900 -0.0204  0.4120
13673SOL    HW146981   0.957   3.907   7.793  1.1946 -0.5961  0.2019
13673SOL    HW246982   0.939   3.834   7.662 -1.2313  0.5244 -0.1297
13674SOL     OW46983   2.562   3.015   4.277  0.1424  0.4235  0.1779
13674SOL    HW146984   2.468   3.006   4.265  0.2038  0.2098 -0.1383
13674SOL    HW246985   2.572   3.096   4.328 -0.1749  0.7774 -0.3071
13675SOL     OW46986   1.882   5.263   5.416 -0.2796 -0.0854  0.1141
13675SOL    HW146987   1.815   5.278   5.484 -0.0993  2.1195 -0.1357
13675SOL    HW246988   1.857   5.321   5.344  1.2467 -0.1071 -0.4728
13676SOL     OW46989   2.940   9.183   2.659  0.0876  0.1383  0.3709
13676SOL    HW146990   2.983   9.268   2.660 -1.4014  0.9694 -1.1008
13676SOL    HW246991   3.008   9.121   2.632  0.5499  1.2864 -1.1952
13677SOL     OW46992   3.976   1.740   8.724 -0.2749 -1.0852  0.2464
13677SOL    HW146993   4.007   1.759   8.813 -1.6186 -0.4058  0.5994
13677SOL    HW246994   3.896   1.792   8.715  1.5251  1.5705 -2.5762
13678SOL     OW46995   2.814   5.499   2.988  0.6068  0.0692 -0.3515
13678SOL    HW146996   2.885   5.471   3.046 -0.3854 -1.7879  0.0415
13678SOL    HW246997   2.739   5.513   3.046  0.7432  2.6748 -0.6715
13679SOL     OW46998   2.878   3.733   7.903 -0.0095 -0.8516 -0.4475
13679SOL    HW146999   2.796   3.734   7.853 -0.1055 -1.9475 -0.3469
13679SOL    HW247000   2.870   3.657   7.961  0.1928  0.2525  1.1040
13680SOL     OW47001   8.477   5.792   8.161  0.4852 -0.8600 -0.0403
13680SOL    HW147002   8.418   5.794   8.086  0.3593  0.0911  0.0759
13680SOL    HW247003   8.527   5.712   8.150 -0.6359 -1.5517 -0.2896
13681SOL     OW47004   6.386   3.984   4.099 -0.5748 -0.0937  0.1608
13681SOL    HW147005   6.430   4.063   4.132  0.0401 -0.6337  0.6405
13681SOL    HW247006   6.330   3.956   4.171 -1.8705  0.6805 -0.5026
13682SOL     OW47007   5.666   6.594   6.128  0.1594 -0.0800  0.3953
13682SOL    HW147008   5.658   6.514   6.179  1.3414 -0.2072  0.3972
13682SOL    HW247009   5.716   6.568   6.050 -1.4093  0.1554 -0.7471
13683SOL     OW47010   6.071   2.751   7.654  0.2859 -0.6067 -0.0425
13683SOL    HW147011   6.156   2.706   7.651  0.6577  0.1109 -1.1192
13683SOL    HW247012   6.089   2.837   7.615 -0.7222 -0.0718  0.6342
13684SOL     OW47013   1.115   7.561   2.629  0.3632 -0.2312 -1.3086
13684SOL    HW147014   1.089   7.553   2.720  0.4921  0.2260 -1.2299
13684SOL    HW247015   1.088   7.649   2.604  2.1155  0.3961 -1.1230
13685SOL     OW47016   8.735   1.332   8.071 -0.1450 -0.1509 -0.6195
13685SOL    HW147017   8.805   1.388   8.037  1.1146 -1.5664 -0.5051
13685SOL    HW247018   8.712   1.370   8.156 -0.2903  0.9526 -1.1402
13686SOL     OW47019   6.010   4.972   3.779  0.3902 -0.0832  0.2331
13686SOL    HW147020   5.940   4.912   3.754  0.5805 -1.5189  2.7926
13686SOL    HW247021   5.965   5.055   3.799 -0.1853 -0.1101 -0.8916
13687SOL     OW47022   0.015   2.048   0.261  0.3095  0.0001 -0.0471
13687SOL    HW147023   0.073   2.124   0.261 -1.3360  1.3290  0.4680
13687SOL    HW247024   0.044   1.995   0.335  1.7010 -0.0667 -0.6279
13688SOL     OW47025   3.739   5.990   2.840 -0.1054  0.1599 -0.5140
13688SOL    HW147026   3.666   6.031   2.887 -0.4821 -1.8493  0.7702
13688SOL    HW247027   3.700   5.961   2.757 -0.7181 -0.5936  0.0184
13689SOL     OW47028   0.103   4.519   8.174 -0.1246 -0.4705 -0.0717
13689SOL    HW147029   0.158   4.443   8.192 -0.1184 -0.3385  0.4766
13689SOL    HW247030   0.138   4.588   8.231  0.8495  0.4082 -1.6651
13690SOL     OW47031   7.885   8.979   1.821 -0.6429  0.7076  0.1280
13690SOL    HW147032   7.875   9.038   1.746 -0.1237  0.3709 -0.2079
13690SOL    HW247033   7.946   9.025   1.879  0.9694 -0.1461 -0.8254
13691SOL     OW47034   8.803   4.080   1.435  0.4510 -0.0319 -0.3748
13691SOL    HW147035   8.757   4.148   1.484 -2.5572 -0.8835 -1.7681
13691SOL    HW247036   8.800   4.003   1.492  0.8961  0.1170 -0.1447
13692SOL     OW47037   4.451   3.871   4.460 -0.3595 -0.2786  0.2430
13692SOL    HW147038   4.532   3.920   4.472 -0.8204  0.5782 -0.1268
13692SOL    HW247039   4.443   3.858   4.366 -0.7692 -0.1604  0.2590
13693SOL     OW47040   3.829   7.252   8.956  0.1002 -0.0132  0.1654
13693SOL    HW147041   3.900   7.288   9.008 -1.7197  1.9966  1.4558
13693SOL    HW247042   3.780   7.196   9.017  0.6182 -1.5574 -0.7643
13694SOL     OW47043   8.912   6.030   5.518  0.1714 -0.1292  0.4346
13694SOL    HW147044   9.001   6.009   5.549  0.6536 -0.4606 -1.0870
13694SOL    HW247045   8.905   6.124   5.528  1.1230  0.0567 -0.4045
13695SOL     OW47046   0.235   6.512   8.199 -0.1932  0.2775  0.4356
13695SOL    HW147047   0.294   6.582   8.227  0.0759 -0.6220  2.2656
13695SOL    HW247048   0.284   6.465   8.131  0.0547  1.1833 -0.0311
13696SOL     OW47049   8.063   0.492   7.745  0.5530  0.0622  0.1530
13696SOL    HW147050   7.989   0.433   7.732  1.5674 -1.3148  0.3237
13696SOL    HW247051   8.134   0.452   7.695  2.0662 -0.4875  2.5666
13697SOL     OW47052   5.569   8.334   8.359 -0.2991 -0.5383  0.0786
13697SOL    HW147053   5.540   8.254   8.314  0.3168  0.6448 -2.6491
13697SOL    HW247054   5.489   8.386   8.369 -0.5173 -1.0069  0.8193
13698SOL     OW47055   3.203   7.161   9.242 -0.2023  0.2632  0.2815
13698SOL    HW147056   3.239   7.131   9.325 -1.4193 -0.6704  0.4989
13698SOL    HW247057   3.128   7.215   9.266 -1.3626 -1.0780 -0.2010
13699SOL     OW47058   2.865   2.908   1.281  0.5144  0.3521 -0.0544
13699SOL    HW147059   2.799   2.839   1.288 -0.7393  1.2862 -1.7717
13699SOL    HW247060   2.936   2.868   1.230  0.0420  0.1496 -0.5655
13700SOL     OW47061   6.707   7.242   3.893  0.4281 -0.8145  0.1673
13700SOL    HW147062   6.785   7.214   3.845  0.4123  0.9391 -0.9782
13700SOL    HW247063   6.694   7.174   3.959  1.1406 -2.7258 -1.5505
13701SOL     OW47064   5.674   8.089   4.147 -0.0546 -0.4104 -0.3455
13701SOL    HW147065   5.625   8.049   4.075  1.1029 -1.2764 -0.6764
13701SOL    HW247066   5.721   8.017   4.188  0.5466  0.3128  0.2877
13702SOL     OW47067   2.647   0.078   3.987  0.2620 -0.2024 -0.2294
13702SOL    HW147068   2.716   0.013   3.974  0.9651  0.4438  0.1736
13702SOL    HW247069   2.587   0.039   4.050  0.0928 -0.8844 -0.7940
13703SOL     OW47070   8.663   0.781   8.916  0.2286  0.1385 -0.1736
13703SOL    HW147071   8.699   0.761   9.002 -0.3516 -0.2672 -0.0156
13703SOL    HW247072   8.685   0.704   8.863  2.3391  1.2148 -0.9730
13704SOL     OW47073   2.007   1.034   5.021 -0.2325  0.2122  0.4653
13704SOL    HW147074   2.097   1.059   5.042 -0.7924  0.5404  2.7752
13704SOL    HW247075   2.016   0.975   4.946  1.6453  2.3329 -1.1469
13705SOL     OW47076   1.632   7.667   0.621  0.7539  0.4938  0.2265
13705SOL    HW147077   1.628   7.579   0.584  0.3625  0.4456  0.3821
13705SOL    HW247078   1.724   7.694   0.609  0.7711  0.2466 -0.2316
13706SOL     OW47079   7.240   6.956   5.781 -0.2027  0.0532  0.1530
13706SOL    HW147080   7.270   6.886   5.723 -2.2127  1.1956 -2.5277
13706SOL    HW247081   7.311   6.968   5.844  0.7698 -3.4441 -0.0400
13707SOL     OW47082   5.898   3.753   2.432 -0.5953  0.4614 -0.2786
13707SOL    HW147083   5.910   3.707   2.515 -3.9757 -0.3523 -0.0897
13707SOL    HW247084   5.921   3.688   2.366  1.0562  0.7696 -0.0750
13708SOL     OW47085   1.327   7.854   1.928 -0.3232 -0.1969 -0.2605
13708SOL    HW147086   1.342   7.816   1.841  1.4503 -0.1247 -0.0248
13708SOL    HW247087   1.317   7.778   1.986  3.0127 -0.4679  0.1768
13709SOL     OW47088   6.391   7.677   8.692 -0.1679  0.1695 -0.2180
13709SOL    HW147089   6.302   7.672   8.727 -0.2760  0.5863 -0.4378
13709SOL    HW247090   6.427   7.589   8.708 -0.3924  0.1958  0.4585
13710SOL     OW47091   1.747   4.376   6.465  0.0489  0.9465 -0.1538
13710SOL    HW147092   1.739   4.287   6.500  1.7089  0.4405 -0.9441
13710SOL    HW247093   1.756   4.363   6.371  0.0324  1.9722 -0.3014
13711SOL     OW47094   7.976   8.066   4.385 -0.0318 -0.2341 -0.5139
13711SOL    HW147095   8.023   8.005   4.441  0.9995  0.6526 -0.3774
13711SOL    HW247096   7.974   8.023   4.299  1.8029  0.0418 -0.7441
13712SOL     OW47097   6.988   0.087   4.837 -0.5424  0.5556 -0.0994
13712SOL    HW147098   7.058   0.071   4.774  1.2447  1.4493  1.5238
13712SOL    HW247099   6.983   0.182   4.844 -2.4746  0.5382 -0.6998
13713SOL     OW47100   0.613   7.043   2.143 -0.0070 -0.0299  0.1588
13713SOL    HW147101   0.602   7.008   2.055 -0.8568  1.1569 -0.2443
13713SOL    HW247102   0.560   6.986   2.198 -0.7840  0.1713 -0.3633
13714SOL     OW47103   5.952   6.892   6.526  0.0915  0.2515 -0.2622
13714SOL    HW147104   5.959   6.802   6.494  0.6743  0.2914 -0.2458
13714SOL    HW247105   5.998   6.945   6.462  0.5367  0.4330  0.1990
13715SOL     OW47106   1.516   4.450   7.476  0.0030 -0.2012 -0.6394
13715SOL    HW147107   1.465   4.376   7.510 -1.1730  1.0172  0.3705
13715SOL    HW247108   1.545   4.497   7.553 -0.2874  1.0518 -1.2680
13716SOL     OW47109   2.184   5.798   3.993 -0.1554 -0.1480  0.1203
13716SOL    HW147110   2.138   5.866   3.943  0.4172 -0.7088 -1.2376
13716SOL    HW247111   2.160   5.716   3.950  1.4459 -0.5244 -0.1271
13717SOL     OW47112   3.706   6.248   0.698  0.5704 -0.5277 -0.4981
13717SOL    HW147113   3.657   6.165   0.695  0.1234 -0.2430 -1.2233
13717SOL    HW247114   3.684   6.285   0.784 -1.5484  0.2091 -1.2992
13718SOL     OW47115   6.403   0.986   4.620  0.0534 -0.2244 -0.1915
13718SOL    HW147116   6.399   1.076   4.653  0.9054 -0.5235  0.7732
13718SOL    HW247117   6.348   0.987   4.542  1.7348  1.6729 -1.4403
13719SOL     OW47118   6.084   6.649   6.467  0.2127 -0.2559 -0.9943
13719SOL    HW147119   6.080   6.599   6.386  0.4296 -2.8680  0.4765
13719SOL    HW247120   6.177   6.659   6.485  0.1648 -0.1234 -0.8207
13720SOL     OW47121   1.619   0.062   6.341 -0.0195 -0.4496 -0.7167
13720SOL    HW147122   1.649   0.127   6.278  0.8683 -1.7382 -1.6842
13720SOL    HW247123   1.696   0.007   6.357 -0.0006  0.2187  2.0707
13721SOL     OW47124   9.336   5.823   5.123  0.1104 -0.1999 -0.3784
13721SOL    HW147125   9.402   5.870   5.072 -0.1151  1.7209  1.0121
13721SOL    HW247126   9.385   5.785   5.196  0.0981 -1.2512 -0.8848
13722SOL     OW47127   2.078   8.674   5.230  0.2672 -0.0316  0.3129
13722SOL    HW147128   2.162   8.717   5.215 -0.3319  0.7656 -0.9308
13722SOL    HW247129   2.023   8.743   5.267  0.1956 -0.5908  1.2683
13723SOL     OW47130   3.979   5.453   5.237  0.3286 -0.1145  0.0075
13723SOL    HW147131   3.998   5.534   5.285  0.0065 -0.6835  1.1362
13723SOL    HW247132   3.979   5.479   5.145  0.2318  1.1678  0.3503
13724SOL     OW47133   8.399   2.519   5.185 -0.4997  0.0615 -0.7375
13724SOL    HW147134   8.424   2.429   5.206 -1.6882 -0.3690 -1.1350
13724SOL    HW247135   8.304   2.519   5.189 -0.4862  1.7674  1.1325
13725SOL     OW47136   0.084   8.725   0.962  0.5494  0.5781 -0.3884
13725SOL    HW147137   0.004   8.710   1.013  0.5856  0.1651 -0.4516
13725SOL    HW247138   0.093   8.647   0.909  0.2726  1.1839 -1.3555
13726SOL     OW47139   1.856   5.170   2.478 -0.5868  0.3328  0.1367
13726SOL    HW147140   1.892   5.146   2.393 -0.5604 -1.0011  0.4969
13726SOL    HW247141   1.765   5.139   2.475 -0.8996  1.1962  0.2378
13727SOL     OW47142   8.416   8.349   0.102 -0.0627  0.3441 -0.5735
13727SOL    HW147143   8.441   8.387   0.018  0.0889  1.7445  0.0731
13727SOL    HW247144   8.322   8.334   0.095  0.3135 -1.9055 -1.8534
13728SOL     OW47145   2.856   6.698   6.321 -0.0788  0.5421  0.1466
13728SOL    HW147146   2.841   6.749   6.401 -1.9884  1.2162 -0.6021
13728SOL    HW247147   2.896   6.760   6.260  0.1354  0.3817  0.1198
13729SOL     OW47148   3.127   7.983   5.484  0.2603  0.0401  0.0184
13729SOL    HW147149   3.153   7.908   5.537 -0.2458 -0.2146 -0.0870
13729SOL    HW247150   3.076   8.038   5.543  1.1824  0.6267  0.2739
13730SOL     OW47151   3.455   3.569   0.481  0.1323 -0.2341  0.0486
13730SOL    HW147152   3.484   3.625   0.553  0.3343  1.0106 -0.9691
13730SOL    HW247153   3.532   3.558   0.426 -0.2077 -0.5429 -0.3787
13731SOL     OW47154   7.187   7.532   8.013  0.0425 -0.2820  0.0185
13731SOL    HW147155   7.209   7.555   8.103 -0.4864 -0.8906  0.3099
13731SOL    HW247156   7.095   7.557   8.003  0.2604  0.3315 -0.5416
13732SOL     OW47157   7.992   3.333   7.982 -0.6100 -0.0188  0.1015
13732SOL    HW147158   7.904   3.305   8.009 -0.4537  1.0483  1.8659
13732SOL    HW247159   7.978   3.418   7.940 -0.3616  0.4043  0.8741
13733SOL     OW47160   8.567   8.971   0.852  0.3408  0.3886  0.2025
13733SOL    HW147161   8.595   8.916   0.925  0.6032  0.1403 -0.0841
13733SOL    HW247162   8.628   9.045   0.854  0.9074 -0.0540 -0.2994
13734SOL     OW47163   3.247   2.758   0.218 -0.0095 -0.0790  0.4302
13734SOL    HW147164   3.180   2.732   0.282 -2.2745  1.0995 -1.2848
13734SOL    HW247165   3.262   2.679   0.166  1.1248 -0.7706  1.7478
13735SOL     OW47166   0.507   4.408   4.624 -0.3744  0.2961  0.3770
13735SOL    HW147167   0.451   4.434   4.696 -2.2616  0.5298 -1.0980
13735SOL    HW247168   0.484   4.467   4.553 -0.4442 -1.5321 -1.2129
13736SOL     OW47169   5.244   2.388   0.669 -0.4703 -0.0160 -0.1033
13736SOL    HW147170   5.184   2.460   0.651 -0.8947 -0.6356 -1.3335
13736SOL    HW247171   5.196   2.332   0.730  0.4179  1.4062  1.9893
13737SOL     OW47172   2.829   2.655   0.191 -0.2049 -0.2147 -0.1410
13737SOL    HW147173   2.846   2.631   0.100  1.4704  1.1702 -0.2289
13737SOL    HW247174   2.899   2.613   0.241  0.0219  0.6271  0.2607
13738SOL     OW47175   2.365   1.591   5.465  0.3367  0.1038  1.1135
13738SOL    HW147176   2.457   1.616   5.472  0.3570  0.1280  0.7640
13738SOL    HW247177   2.324   1.664   5.420  0.4730 -0.6483 -0.2783
13739SOL     OW47178   4.182   4.839   1.364  0.1399 -0.0048 -0.0846
13739SOL    HW147179   4.122   4.829   1.438 -0.3369 -1.2051 -0.6094
13739SOL    HW247180   4.230   4.920   1.383  0.9379 -0.9315  2.1605
13740SOL     OW47181   5.963   8.942   3.197  0.4804 -1.0384 -0.1196
13740SOL    HW147182   6.015   9.022   3.206  0.5956 -1.2268  1.0955
13740SOL    HW247183   5.898   8.964   3.130 -2.0235  1.5447  2.8021
13741SOL     OW47184   1.040   6.549   8.326  0.0577  0.1948 -0.1282
13741SOL    HW147185   0.975   6.510   8.385 -1.0052  1.6507 -0.2806
13741SOL    HW247186   1.036   6.642   8.344  2.3917  0.2938  0.0852
13742SOL     OW47187   1.432   8.676   0.579 -0.2368  0.3739  0.5656
13742SOL    HW147188   1.487   8.617   0.526 -0.1896  1.1055 -0.2265
13742SOL    HW247189   1.474   8.677   0.665  1.5293  1.5752 -0.2454
13743SOL     OW47190   1.520   3.979   5.265 -0.5922  0.1120  0.2527
13743SOL    HW147191   1.428   4.008   5.269 -0.4013  0.6875  0.5352
13743SOL    HW247192   1.562   4.039   5.203 -0.4084 -0.1721  0.0987
13744SOL     OW47193   2.369   5.957   3.349  0.2876 -0.6068 -0.4082
13744SOL    HW147194   2.370   6.014   3.271 -1.2460  0.0586  0.0151
13744SOL    HW247195   2.280   5.925   3.353  0.1414 -0.0442  1.4875
13745SOL     OW47196   1.399   6.220   9.243  0.5312  0.3751 -0.7706
13745SOL    HW147197   1.469   6.273   9.206  1.1534 -0.7970 -1.3518
13745SOL    HW247198   1.325   6.235   9.185  0.1382  1.9537  0.0921
13746SOL     OW47199   6.364   1.675   6.381 -0.1963  0.2996  0.5474
13746SOL    HW147200   6.312   1.723   6.446 -0.0178  1.0421  0.1634
13746SOL    HW247201   6.398   1.744   6.323  0.2720 -0.2804  0.1224
13747SOL     OW47202   4.196   8.320   5.861  0.0462 -0.1227  0.3076
13747SOL    HW147203   4.101   8.324   5.856  0.0363 -0.4352  0.2374
13747SOL    HW247204   4.225   8.326   5.770  0.0857 -0.1958  0.3153
13748SOL     OW47205   6.543   0.499   1.026  0.1984 -0.8517 -0.1923
13748SOL    HW147206   6.508   0.461   0.945 -0.6661 -0.8584  0.1796
13748SOL    HW247207   6.558   0.591   1.005 -0.4133 -0.7621 -0.2360
13749SOL     OW47208   5.283   4.568   2.144  0.3221 -0.1992 -0.3974
13749SOL    HW147209   5.262   4.570   2.051 -1.3095  0.2529 -0.0363
13749SOL    HW247210   5.311   4.478   2.160 -0.3611 -0.5535 -1.1281
13750SOL     OW47211   2.747   6.711   4.306  0.0715  0.3547 -0.5090
13750SOL    HW147212   2.780   6.649   4.241  1.5169  1.5946 -1.0085
13750SOL    HW247213   2.707   6.656   4.373  0.7391 -1.0796 -1.2372
13751SOL     OW47214   8.871   3.473   8.362  0.3438  0.2715  0.2432
13751SOL    HW147215   8.944   3.434   8.313  2.5185  2.1681  1.7202
13751SOL    HW247216   8.868   3.564   8.332 -1.6816  0.1616 -0.0046
13752SOL     OW47217   0.143   6.991   1.571 -0.2059  0.2210 -0.0522
13752SOL    HW147218   0.208   7.029   1.630 -0.7046 -0.0181  0.6596
13752SOL    HW247219   0.084   7.064   1.551 -0.2130  0.2228 -0.0224
13753SOL     OW47220   0.101   4.482   5.110 -1.2168  1.1042  0.4879
13753SOL    HW147221   0.010   4.513   5.101 -0.7955  2.3595  0.3487
13753SOL    HW247222   0.139   4.497   5.023 -0.5430  1.7207  0.8842
13754SOL     OW47223   5.757   9.003   2.994 -0.4855 -0.0674 -0.7123
13754SOL    HW147224   5.801   8.998   2.909 -1.1247 -0.2371 -1.0414
13754SOL    HW247225   5.664   9.013   2.972 -0.7811 -1.1526 -0.0491
13755SOL     OW47226   4.228   6.396   5.053  0.2859  0.3860 -0.3004
13755SOL    HW147227   4.294   6.447   5.007 -0.6258  0.7539 -1.2390
13755SOL    HW247228   4.155   6.389   4.992  0.1381 -1.5626  0.0089
13756SOL     OW47229   5.933   3.483   7.973 -1.1448  0.1680  0.6695
13756SOL    HW147230   5.952   3.408   8.029  0.7496  0.1033 -0.0033
13756SOL    HW247231   5.873   3.449   7.907 -2.3012 -0.0951  1.8142
13757SOL     OW47232   5.161   8.449   7.298 -0.4959 -0.9320 -0.6242
13757SOL    HW147233   5.192   8.416   7.382 -1.2827  0.0954  0.0853
13757SOL    HW247234   5.241   8.473   7.251 -0.0327 -1.8977 -0.3464
13758SOL     OW47235   2.440   6.548   4.234  0.3935  0.6739 -0.0549
13758SOL    HW147236   2.431   6.637   4.200 -1.3118  1.1590  1.4815
13758SOL    HW247237   2.434   6.558   4.329  0.8947 -1.0230  0.1907
13759SOL     OW47238   4.169   8.994   7.005 -0.0662  0.1509  0.2589
13759SOL    HW147239   4.194   9.035   6.922  0.7039  1.5892  1.1552
13759SOL    HW247240   4.249   8.996   7.058 -0.8165  0.2960  1.4350
13760SOL     OW47241   6.765   0.316   3.518 -0.4684  0.5457 -0.1800
13760SOL    HW147242   6.784   0.386   3.580  0.2180  2.3858 -2.3138
13760SOL    HW247243   6.806   0.238   3.555  1.0937  1.8647  0.9944
13761SOL     OW47244   5.285   6.101   3.040  0.1308  0.4187 -0.1052
13761SOL    HW147245   5.208   6.094   2.984  0.8788 -0.8430 -1.0126
13761SOL    HW247246   5.320   6.188   3.022  0.0172  0.2561 -1.1406
13762SOL     OW47247   6.811   6.037   4.176 -0.0766  0.0471 -0.0581
13762SOL    HW147248   6.855   5.991   4.247  2.6086 -2.6718 -3.1407
13762SOL    HW247249   6.805   6.128   4.207  0.6113 -1.0012  3.6659
13763SOL     OW47250   0.177   2.845   6.014 -0.1832  0.1482 -0.8021
13763SOL    HW147251   0.103   2.901   5.989 -1.6693 -1.7451 -0.8567
13763SOL    HW247252   0.141   2.788   6.082  2.2748  1.5944  1.9633
13764SOL     OW47253   4.869   5.496   8.855  0.5320  0.3428  0.0050
13764SOL    HW147254   4.842   5.437   8.785 -0.5479  1.0208 -0.1602
13764SOL    HW247255   4.926   5.559   8.812  2.3206 -0.9655  0.3177
13765SOL     OW47256   6.620   1.672   8.788 -0.3118  0.0926 -0.2592
13765SOL    HW147257   6.587   1.758   8.815  0.6383  0.0779  1.0326
13765SOL    HW247258   6.554   1.640   8.726 -0.6716  1.7561 -0.8022
13766SOL     OW47259   3.506   4.346   0.117  0.4242 -0.0890  0.0246
13766SOL    HW147260   3.599   4.331   0.102 -0.2344 -3.6054 -1.7072
13766SOL    HW247261   3.487   4.428   0.071  2.0767 -1.1286 -2.7371
13767SOL     OW47262   6.909   1.933   1.954  0.4596  0.2410  0.2291
13767SOL    HW147263   6.950   1.972   2.031  0.1393  2.5006 -0.6760
13767SOL    HW247264   6.817   1.922   1.979  0.6739 -0.6572  0.7088
13768SOL     OW47265   9.155   8.466   0.997  0.1636 -0.6786 -0.1456
13768SOL    HW147266   9.248   8.445   0.988  0.3895  0.3537 -0.4188
13768SOL    HW247267   9.110   8.399   0.946  0.7014 -1.6258  0.6009
13769SOL     OW47268   7.410   8.545   7.389  0.1259 -0.1183 -0.3298
13769SOL    HW147269   7.361   8.475   7.346 -0.9117  0.4094 -0.0548
13769SOL    HW247270   7.440   8.506   7.471 -1.4190  0.0576  0.3537
13770SOL     OW47271   8.672   8.715   4.328 -0.0353 -0.4623 -0.3427
13770SOL    HW147272   8.599   8.674   4.281 -0.0687  0.1668 -0.8518
13770SOL    HW247273   8.630   8.765   4.398  0.0529 -1.9911  0.8625
13771SOL     OW47274   6.482   4.220   4.279 -0.1854 -0.2080  0.2692
13771SOL    HW147275   6.565   4.175   4.297 -0.1442 -0.1311  0.2767
13771SOL    HW247276   6.509   4.301   4.235 -0.3201 -0.6693 -0.6865
13772SOL     OW47277   1.390   0.670   5.545  0.2959  0.4934  0.3261
13772SOL    HW147278   1.462   0.732   5.559  1.2594 -0.7234  0.9336
13772SOL    HW247279   1.413   0.594   5.599 -0.9977 -0.2820 -0.1729
13773SOL     OW47280   7.538   0.813   8.861  0.1375 -0.6192 -0.0777
13773SOL    HW147281   7.458   0.851   8.898  1.1281 -0.9305  2.5839
13773SOL    HW247282   7.605   0.881   8.874  0.6842 -1.0278 -0.6962
13774SOL     OW47283   5.078   7.760   3.416 -0.6298 -0.1401  0.1585
13774SOL    HW147284   5.073   7.682   3.472  1.7851 -0.4495  0.0379
13774SOL    HW247285   5.081   7.725   3.327  0.4358  0.0519  0.1023
13775SOL     OW47286   4.471   8.740   7.250  0.5933 -0.3538 -0.3114
13775SOL    HW147287   4.462   8.762   7.343 -1.1487  0.1044 -0.5595
13775SOL    HW247288   4.440   8.650   7.244  2.6056 -1.1260 -0.1799
13776SOL     OW47289   1.067   5.847   1.456 -0.3651  0.4610 -0.5648
13776SOL    HW147290   1.037   5.930   1.419 -0.3950  0.2510 -1.0199
13776SOL    HW247291   0.999   5.784   1.432 -1.9732  0.8675  2.4365
13777SOL     OW47292   8.084   5.785   1.416  0.3943  0.2597 -0.1197
13777SOL    HW147293   8.015   5.848   1.393  0.2992 -0.1512 -0.9704
13777SOL    HW247294   8.166   5.830   1.394  0.2765 -0.4789 -2.1990
13778SOL     OW47295   6.975   2.729   8.808 -0.7414  0.4515 -0.2847
13778SOL    HW147296   6.893   2.776   8.824 -2.1863 -1.5260 -1.3550
13778SOL    HW247297   7.021   2.730   8.892 -2.8077 -0.0541  0.9186
13779SOL     OW47298   5.052   5.489   4.101  0.1728  0.2142  0.2046
13779SOL    HW147299   4.967   5.532   4.109 -1.1574 -2.1605 -0.2509
13779SOL    HW247300   5.035   5.397   4.121  2.3100 -0.6642 -1.5469
13780SOL     OW47301   5.347   2.414   9.230 -0.1983  0.2402  0.2618
13780SOL    HW147302   5.318   2.344   9.172 -0.1649  0.0110  0.5224
13780SOL    HW247303   5.270   2.471   9.238 -0.3829 -0.0296  0.4435
13781SOL     OW47304   3.670   8.729   3.294 -0.0800  0.1437 -0.9059
13781SOL    HW147305   3.715   8.657   3.252  1.9079  0.4183  0.6130
13781SOL    HW247306   3.650   8.697   3.382  1.0605  1.4635 -0.1176
13782SOL     OW47307   8.316   0.235   1.551 -0.0306 -0.1109  0.4572
13782SOL    HW147308   8.373   0.276   1.486 -0.9401  0.0978 -0.2111
13782SOL    HW247309   8.253   0.185   1.500 -1.3096  0.7709  1.1285
13783SOL     OW47310   8.777   4.279   1.722  0.3140 -0.8301  0.1272
13783SOL    HW147311   8.842   4.302   1.656 -0.3542 -1.2384 -0.6953
13783SOL    HW247312   8.709   4.346   1.713  0.2374 -0.8691  0.4126
13784SOL     OW47313   2.125   2.049   2.944 -0.2292  0.6641 -0.4380
13784SOL    HW147314   2.101   2.142   2.947 -0.0558  0.7477 -1.4730
13784SOL    HW247315   2.218   2.049   2.923  0.3152  0.2907  1.7713
13785SOL     OW47316   2.064   5.013   0.027 -0.1041 -0.1481 -0.2252
13785SOL    HW147317   2.071   5.075  -0.045 -1.1909 -0.3117 -0.4989
13785SOL    HW247318   2.003   5.054   0.088  2.1336  0.7926  1.4898
13786SOL     OW47319   0.379   2.027   8.800  0.2991 -0.0734  0.4196
13786SOL    HW147320   0.356   1.992   8.886  2.5705 -0.8578  0.7730
13786SOL    HW247321   0.387   2.121   8.813  3.2202 -0.4065  1.8275
13787SOL     OW47322   7.593   1.932   7.429  1.0915 -0.1689  0.1691
13787SOL    HW147323   7.596   1.983   7.348 -1.1325 -0.5864 -0.2286
13787SOL    HW247324   7.598   1.998   7.499  0.4794  0.4201 -0.3262
13788SOL     OW47325   6.957   8.583   8.535 -0.1401 -0.0393  0.2987
13788SOL    HW147326   6.977   8.505   8.587  1.7447  0.1141 -0.1360
13788SOL    HW247327   6.938   8.650   8.601 -0.4561 -0.5289  0.7159
13789SOL     OW47328   6.778   0.390   9.220 -0.2491  0.0159 -0.1852
13789SOL    HW147329   6.706   0.385   9.284  0.2705 -0.4623  0.3768
13789SOL    HW247330   6.841   0.325   9.250  0.8015  0.9937 -0.2019
13790SOL     OW47331   8.626   0.087   8.838  0.2124  0.0565  1.0751
13790SOL    HW147332   8.600   0.113   8.926  2.5551  1.6056  1.3895
13790SOL    HW247333   8.716   0.056   8.848  0.1765 -0.7253 -0.6313
13791SOL     OW47334   0.754   4.486   0.567 -0.0327  0.2102  0.5434
13791SOL    HW147335   0.809   4.421   0.523 -0.2626  0.6148 -0.3741
13791SOL    HW247336   0.804   4.567   0.562 -0.4039  0.4326  0.2997
13792SOL     OW47337   4.703   7.147   5.092 -0.4345  0.6016 -0.2047
13792SOL    HW147338   4.784   7.095   5.094  1.1760  2.9511  2.0457
13792SOL    HW247339   4.640   7.093   5.140  0.7210 -0.0032  0.7047
13793SOL     OW47340   3.079   2.710   4.064 -0.1586  0.2213 -0.0440
13793SOL    HW147341   3.015   2.664   4.009  0.5879 -1.5825  0.5233
13793SOL    HW247342   3.140   2.749   4.001 -0.4278 -0.1418 -0.5446
13794SOL     OW47343   0.495   5.067   7.267  0.6489 -0.1388  0.6671
13794SOL    HW147344   0.439   5.052   7.191  2.0380 -1.7435 -0.1191
13794SOL    HW247345   0.452   5.020   7.338 -0.3685  0.9072  0.7847
13795SOL     OW47346   7.498   8.838   1.588 -0.4119 -0.3032  0.4038
13795SOL    HW147347   7.422   8.892   1.566 -1.1365 -1.3976  0.1338
13795SOL    HW247348   7.482   8.755   1.543  1.2332 -0.3664 -0.1294
13796SOL     OW47349   4.046   2.406   4.082  0.0145  0.3221  0.0787
13796SOL    HW147350   4.103   2.344   4.127  0.0915  0.7257  0.5474
13796SOL    HW247351   3.972   2.418   4.141 -0.5655 -0.2054 -0.5324
13797SOL     OW47352   7.448   6.904   5.959 -0.1252  0.3575  0.2770
13797SOL    HW147353   7.465   6.840   6.029  0.8675  2.6507  2.2494
13797SOL    HW247354   7.523   6.963   5.962  0.3635  0.1268 -3.3376
13798SOL     OW47355   3.876   4.133   2.537 -0.2065  0.1371 -0.0779
13798SOL    HW147356   3.898   4.169   2.622  0.3289  1.7455 -0.8670
13798SOL    HW247357   3.939   4.062   2.523  0.6299  0.8051  0.2479
13799SOL     OW47358   4.419   6.302   2.522  0.0554  0.0180  0.3276
13799SOL    HW147359   4.361   6.292   2.447  1.6347 -0.3324 -0.9014
13799SOL    HW247360   4.400   6.390   2.555 -0.6586  0.1799 -0.4834
13800SOL     OW47361   8.382   1.640   3.889  0.0581  0.2586 -0.8620
13800SOL    HW147362   8.341   1.692   3.819  0.3283  0.0828 -1.1506
13800SOL    HW247363   8.437   1.577   3.843 -0.0631 -0.1130 -0.5019
13801SOL     OW47364   3.140   6.538   0.157 -0.7952  0.2595 -0.1482
13801SOL    HW147365   3.067   6.527   0.096 -0.3491  0.6927 -0.7634
13801SOL    HW247366   3.201   6.468   0.134 -0.6578  0.3794 -0.1479
13802SOL     OW47367   2.261   5.277   5.856 -0.3233  0.1733 -0.0966
13802SOL    HW147368   2.205   5.274   5.779  0.6333 -0.7946 -0.7709
13802SOL    HW247369   2.235   5.200   5.907 -1.3348  1.0988  0.8619
13803SOL     OW47370   6.696   0.953   7.470  0.1835 -0.5812 -0.5461
13803SOL    HW147371   6.647   0.997   7.539  0.3875 -1.8848  0.4793
13803SOL    HW247372   6.666   0.993   7.389  0.7279  1.7627  0.3438
13804SOL     OW47373   8.269   3.258   2.306  0.7288 -0.2652 -0.9258
13804SOL    HW147374   8.176   3.279   2.315  0.7083 -1.0261  1.6659
13804SOL    HW247375   8.293   3.289   2.219 -1.6553  1.0716 -1.1953
13805SOL     OW47376   6.978   4.984   0.121  0.2942 -0.4929  0.1342
13805SOL    HW147377   6.953   5.070   0.087  1.4055 -0.2091  0.0256
13805SOL    HW247378   7.002   4.933   0.044 -0.7562 -1.0538  0.1537
13806SOL     OW47379   5.264   0.605   8.349  0.1447  0.0249 -0.1924
13806SOL    HW147380   5.357   0.586   8.347  0.5305  1.7780 -0.6866
13806SOL    HW247381   5.259   0.700   8.350 -1.6521 -0.0059 -1.4275
13807SOL     OW47382   3.014   0.664   4.135  0.4249  0.0393  0.1884
13807SOL    HW147383   3.056   0.635   4.054  0.1421 -0.2102  0.1305
13807SOL    HW247384   3.073   0.636   4.205  0.4020 -0.2188  0.1020
13808SOL     OW47385   5.545   1.473   6.454  0.1568 -0.3321 -0.1480
13808SOL    HW147386   5.636   1.470   6.423 -0.4663 -0.4637 -2.0518
13808SOL    HW247387   5.530   1.565   6.474  0.6627 -0.2877  0.0540
13809SOL     OW47388   1.047   9.106   8.783 -0.2927  0.2141 -0.2572
13809SOL    HW147389   1.005   9.021   8.801  0.0783 -0.1046 -0.8660
13809SOL    HW247390   0.988   9.148   8.721 -1.3275  1.1140  1.2695
13810SOL     OW47391   4.272   4.221   2.624 -0.1621  0.2641 -0.5446
13810SOL    HW147392   4.231   4.304   2.600 -0.1772  0.1046 -1.0904
13810SOL    HW247393   4.286   4.176   2.541 -0.7290 -0.5535 -0.2189
13811SOL     OW47394   6.905   8.772   8.763 -0.2276  0.0872 -0.1277
13811SOL    HW147395   6.973   8.838   8.780  0.2745 -0.2208 -0.8659
13811SOL    HW247396   6.827   8.806   8.805 -0.1456  1.4906 -1.0588
13812SOL     OW47397   6.621   8.769   7.970  0.4356 -0.3500  0.1039
13812SOL    HW147398   6.632   8.696   7.910  0.5303  0.9350 -1.5046
13812SOL    HW247399   6.685   8.753   8.040  0.9685 -1.4141 -0.6082
13813SOL     OW47400   1.228   4.618   2.452  0.1224 -0.0805 -0.1072
13813SOL    HW147401   1.198   4.640   2.363 -0.0372  1.7902  0.3780
13813SOL    HW247402   1.313   4.576   2.439  0.1164  0.2001 -1.1418
13814SOL     OW47403   7.425   5.711   6.444  0.3465 -0.3544 -0.1710
13814SOL    HW147404   7.500   5.653   6.459  0.5720  0.1103  0.5525
13814SOL    HW247405   7.349   5.653   6.442  0.8190 -0.9565 -1.9708
13815SOL     OW47406   0.641   5.158   2.534  0.1106 -0.3555 -0.4879
13815SOL    HW147407   0.563   5.125   2.578 -1.0500  2.9872  0.2715
13815SOL    HW247408   0.620   5.152   2.441 -2.7233  3.5188 -0.3421
13816SOL     OW47409   5.294   2.208   1.636 -0.0493  1.0158 -0.1338
13816SOL    HW147410   5.276   2.293   1.676  1.1083  1.0523  0.3627
13816SOL    HW247411   5.259   2.144   1.698 -1.4106  1.1232 -0.7671
13817SOL     OW47412   5.073   4.079   3.846  0.2283 -0.2394 -0.2117
13817SOL    HW147413   4.998   4.102   3.791 -0.6647 -0.7405  0.7880
13817SOL    HW247414   5.086   3.986   3.832  0.5528 -0.1958 -0.2201
13818SOL     OW47415   3.263   2.707   1.156  0.3218 -0.2853  0.0369
13818SOL    HW147416   3.333   2.698   1.221  0.6377 -1.4304 -0.4236
13818SOL    HW247417   3.305   2.684   1.073 -0.5760 -0.9023 -0.2597
13819SOL     OW47418   3.882   3.126   7.628 -0.4938  0.5360 -1.2154
13819SOL    HW147419   3.796   3.166   7.614 -1.1316  0.4711  1.8108
13819SOL    HW247420   3.866   3.032   7.626 -0.2389  0.5004 -1.8321
13820SOL     OW47421   2.391   1.168   3.971 -0.0200  0.0977  0.1320
13820SOL    HW147422   2.402   1.170   4.066 -0.4208  1.8318  0.1726
13820SOL    HW247423   2.318   1.106   3.957 -0.3036  0.2271  0.9886
13821SOL     OW47424   9.000   7.197   4.497  0.0756  0.0166  0.3458
13821SOL    HW147425   9.047   7.123   4.537  0.5209  1.2750  2.2478
13821SOL    HW247426   9.049   7.274   4.524 -0.4075  1.0603 -1.5668
13822SOL     OW47427   2.032   4.501   7.977 -0.0836  0.1979  0.3883
13822SOL    HW147428   1.995   4.589   7.990  1.8437  1.4874 -1.9701
13822SOL    HW247429   2.127   4.515   7.979  0.3151 -2.2481  2.0492
13823SOL     OW47430   6.913   1.656   6.153  0.3928 -0.0617 -0.3139
13823SOL    HW147431   6.941   1.745   6.172 -1.3500  0.4501  0.0098
13823SOL    HW247432   6.994   1.606   6.146  1.3559  1.1435  1.5290
13824SOL     OW47433   4.912   5.965   9.310  0.0906 -0.1143  0.4518
13824SOL    HW147434   4.867   5.881   9.303  1.8441 -1.2170  1.5818
13824SOL    HW247435   4.941   5.984   9.220  0.4782 -1.2068  0.3307
13825SOL     OW47436   8.935   3.659   1.801 -0.6554 -0.3207  0.3523
13825SOL    HW147437   8.927   3.616   1.716  1.2154 -0.0180 -0.0169
13825SOL    HW247438   8.954   3.587   1.862  3.0364 -0.1445 -0.3516
13826SOL     OW47439   1.530   2.051   0.178  0.3332 -0.0945  0.5023
13826SOL    HW147440   1.456   2.097   0.218 -1.1800 -1.5103 -0.5389
13826SOL    HW247441   1.528   2.076   0.086  1.9723  0.8253  0.6711
13827SOL     OW47442   5.212   0.349   1.226  0.1798 -0.2617  0.4923
13827SOL    HW147443   5.227   0.430   1.178 -1.2474 -0.2660 -0.0215
13827SOL    HW247444   5.222   0.374   1.318  4.1036 -0.5163  0.2733
13828SOL     OW47445   8.070   3.860   7.475 -0.3985  0.3494 -0.2858
13828SOL    HW147446   8.009   3.890   7.542 -0.1081  0.3710 -0.0316
13828SOL    HW247447   8.137   3.929   7.470 -0.7999  0.7000 -1.1044
13829SOL     OW47448   0.498   3.796   0.283  0.2752 -0.1277  0.0627
13829SOL    HW147449   0.491   3.790   0.379 -0.2642  2.4969  0.2608
13829SOL    HW247450   0.441   3.726   0.251 -0.6159 -0.2038  1.6707
13830SOL     OW47451   4.160   4.504   1.568  0.4468  0.4097 -0.0533
13830SOL    HW147452   4.219   4.429   1.568  2.2309  1.7519 -0.1189
13830SOL    HW247453   4.195   4.562   1.637 -1.6070  0.6608  0.8452
13831SOL     OW47454   3.448   6.690   7.505 -0.1139  0.1032  0.7449
13831SOL    HW147455   3.537   6.668   7.534  0.9734  1.2788 -1.4394
13831SOL    HW247456   3.402   6.713   7.586  1.9539  0.7178  1.8331
13832SOL     OW47457   2.844   0.184   3.156 -0.4681 -0.4067  0.2796
13832SOL    HW147458   2.775   0.246   3.131 -0.1653 -0.5789 -1.0618
13832SOL    HW247459   2.893   0.229   3.225  0.1177  1.1217 -1.0819
13833SOL     OW47460   6.696   3.349   8.938 -0.1459  0.3795  0.3775
13833SOL    HW147461   6.650   3.432   8.923  0.6180  0.8327  0.4891
13833SOL    HW247462   6.708   3.345   9.033  0.9732  0.7969  0.2755
13834SOL     OW47463   3.986   4.879   1.539 -0.0621 -0.1749 -0.2960
13834SOL    HW147464   3.959   4.968   1.561 -0.4130 -0.2495 -0.4165
13834SOL    HW247465   4.008   4.839   1.623  2.7100  0.8528 -0.4572
13835SOL     OW47466   8.122   6.673   2.153 -0.6362  0.3123  0.0608
13835SOL    HW147467   8.080   6.756   2.130  1.7826  1.4357 -0.6493
13835SOL    HW247468   8.104   6.661   2.246 -0.7241  1.8616  0.2681
13836SOL     OW47469   0.304   0.799   1.263  0.5335  0.4242 -0.2908
13836SOL    HW147470   0.368   0.728   1.259 -0.3187 -0.4094  0.3484
13836SOL    HW247471   0.352   0.873   1.299  1.1953 -0.1261 -0.0249
13837SOL     OW47472   3.731   2.408   0.159  0.3373  0.2051 -0.0501
13837SOL    HW147473   3.796   2.412   0.089  0.1551  1.0350 -0.1894
13837SOL    HW247474   3.680   2.489   0.149  0.8980  0.8058  1.5944
13838SOL     OW47475   7.509   6.687   5.209  0.3917  0.1473  0.0251
13838SOL    HW147476   7.432   6.709   5.158 -0.2516 -0.9744  0.4779
13838SOL    HW247477   7.566   6.641   5.148 -1.3275 -3.2048  0.7480
13839SOL     OW47478   3.955   9.170   2.993 -0.2971 -0.1316  0.4315
13839SOL    HW147479   3.931   9.077   2.991  0.4677 -0.3609  0.9789
13839SOL    HW247480   3.902   9.211   2.925 -1.8818 -0.6642  1.3040
13840SOL     OW47481   1.352   7.871   5.427  0.1353  0.2730 -0.1066
13840SOL    HW147482   1.371   7.804   5.361 -0.7364 -2.0488  1.8304
13840SOL    HW247483   1.259   7.890   5.414  0.8017  2.8114 -1.9848
13841SOL     OW47484   4.117   0.929   2.110  0.2149 -0.1925  0.3881
13841SOL    HW147485   4.164   0.962   2.033  0.1526 -0.7704  0.0956
13841SOL    HW247486   4.179   0.872   2.154 -0.1916 -0.9640 -0.0045
13842SOL     OW47487   3.824   2.528   6.368 -0.3736 -0.0054 -0.6700
13842SOL    HW147488   3.860   2.599   6.315 -1.4734  0.3938 -0.8973
13842SOL    HW247489   3.781   2.572   6.441  0.3178 -0.5175  0.0739
13843SOL     OW47490   2.627   6.557   6.250  0.7775 -0.3215  0.1046
13843SOL    HW147491   2.696   6.602   6.297 -1.2482  0.9015  2.1126
13843SOL    HW247492   2.589   6.623   6.192 -1.4850  0.3948  2.2493
13844SOL     OW47493   6.566   7.585   7.318 -0.0820  0.0788 -0.5531
13844SOL    HW147494   6.579   7.511   7.377  1.0568  0.3007 -0.5047
13844SOL    HW247495   6.492   7.559   7.263 -1.2291 -0.0834  1.0138
13845SOL     OW47496   6.840   2.212   0.092 -0.2087  0.3350 -0.2303
13845SOL    HW147497   6.864   2.279   0.155 -1.3875 -0.2593  0.8805
13845SOL    HW247498   6.761   2.245   0.049 -0.2398  0.0904 -0.3697
13846SOL     OW47499   5.416   5.258   3.622  0.1739  0.6422  0.1080
13846SOL    HW147500   5.451   5.177   3.584 -0.0213 -0.0651  1.4057
13846SOL    HW247501   5.469   5.273   3.700  0.3275  1.8835 -0.2188
13847SOL     OW47502   0.377   4.747   0.783  0.4493 -0.3887 -0.2882
13847SOL    HW147503   0.336   4.741   0.697  1.2703 -1.2586 -0.6301
13847SOL    HW247504   0.431   4.668   0.790 -0.2141 -0.7511  1.3445
13848SOL     OW47505   6.513   7.784   2.698 -0.3243 -0.6014  0.5552
13848SOL    HW147506   6.552   7.784   2.611 -0.9290  1.0084  0.2515
13848SOL    HW247507   6.432   7.733   2.689  0.5082 -1.9856  0.6414
13849SOL     OW47508   1.209   4.239   0.832  0.5126  0.6343 -0.2122
13849SOL    HW147509   1.139   4.241   0.897  1.2108 -0.6124  0.6104
13849SOL    HW247510   1.287   4.267   0.880  0.7460  1.2650 -0.9349
13850SOL     OW47511   3.583   4.102   4.692  0.1832  0.2857  0.3649
13850SOL    HW147512   3.638   4.179   4.675  0.1386  0.2115 -0.1356
13850SOL    HW247513   3.515   4.106   4.624  1.3442 -1.2928 -0.9807
13851SOL     OW47514   5.156   1.872   0.690 -0.1372 -0.1620  0.0471
13851SOL    HW147515   5.145   1.807   0.621  0.5934 -0.8156  0.5332
13851SOL    HW247516   5.126   1.828   0.770  2.5539 -0.8132  0.8196
13852SOL     OW47517   2.636   9.251   5.869 -0.2942 -1.0068 -0.4216
13852SOL    HW147518   2.653   9.158   5.888  0.3436 -0.8120  0.0055
13852SOL    HW247519   2.715   9.296   5.900 -1.5042 -0.0544  1.4751
13853SOL     OW47520   7.399   2.381   2.955 -0.3922  0.2503 -0.6883
13853SOL    HW147521   7.321   2.399   2.902  1.1647  0.9604 -2.9055
13853SOL    HW247522   7.451   2.322   2.901  0.8112  0.1374  0.5391
13854SOL     OW47523   3.487   7.087   3.328 -0.2650 -0.3068  0.0965
13854SOL    HW147524   3.543   7.026   3.279  2.0492  0.8885  1.0672
13854SOL    HW247525   3.424   7.031   3.373  0.1464 -1.7497 -1.0269
13855SOL     OW47526   7.387   8.688   5.858 -0.3150 -0.3658 -0.0372
13855SOL    HW147527   7.430   8.616   5.905  0.1719 -0.4060 -0.5390
13855SOL    HW247528   7.297   8.686   5.890 -0.2091 -0.9503  0.2507
13856SOL     OW47529   3.667   7.442   0.247  0.0634  0.2751  0.1986
13856SOL    HW147530   3.703   7.530   0.236 -0.2820  0.3722 -0.2088
13856SOL    HW247531   3.600   7.451   0.315 -0.0929  0.3690  0.0350
13857SOL     OW47532   0.973   5.624   3.019  0.5923  0.2825  0.0692
13857SOL    HW147533   0.982   5.579   3.103  0.1486  0.9550  0.4883
13857SOL    HW247534   1.003   5.560   2.954  0.3541 -0.4719  0.6845
13858SOL     OW47535   1.180   4.478   2.022 -0.0873 -0.0195 -0.6316
13858SOL    HW147536   1.145   4.481   1.933  0.3136  0.0981 -0.7845
13858SOL    HW247537   1.263   4.432   2.014  1.1286  2.0775 -0.7195
13859SOL     OW47538   0.768   1.541   7.205 -0.2664 -0.0206 -0.4581
13859SOL    HW147539   0.689   1.544   7.258  0.8965  1.1252  1.2789
13859SOL    HW247540   0.756   1.464   7.149 -2.1129 -0.4911  0.5257
13860SOL     OW47541   7.652   7.925   1.407  0.0009 -0.1533 -0.0841
13860SOL    HW147542   7.561   7.905   1.383 -0.7041 -1.5806  3.2249
13860SOL    HW247543   7.698   7.929   1.323 -2.5119 -2.5450 -1.7822
13861SOL     OW47544   6.809   7.413   6.174 -0.6714 -0.8939  0.0462
13861SOL    HW147545   6.890   7.413   6.224 -0.2754 -0.5770 -0.5733
13861SOL    HW247546   6.742   7.447   6.234 -0.5007 -1.8617  0.7906
13862SOL     OW47547   4.883   4.408   8.322 -0.2727  0.0371 -0.3230
13862SOL    HW147548   4.909   4.417   8.414 -0.0605 -2.7476 -0.0500
13862SOL    HW247549   4.865   4.498   8.294 -1.2478  0.8983  2.6743
13863SOL     OW47550   9.240   6.596   1.509  0.2701 -0.3970 -0.4046
13863SOL    HW147551   9.151   6.587   1.544 -0.1156  1.0733 -0.9154
13863SOL    HW247552   9.287   6.646   1.576  0.6592 -0.9845 -0.2338
13864SOL     OW47553   7.882   3.513   1.047  0.2556 -0.1312 -0.3413
13864SOL    HW147554   7.893   3.586   0.986  0.8553  0.0951  0.0328
13864SOL    HW247555   7.893   3.551   1.134  0.7893 -0.6998 -0.1509
13865SOL     OW47556   4.170   1.819   4.741  0.0646  0.1266 -0.1867
13865SOL    HW147557   4.160   1.726   4.760  0.9337 -0.0568 -0.5862
13865SOL    HW247558   4.238   1.823   4.674 -0.8342  0.9685 -1.0775
13866SOL     OW47559   3.648   7.439   8.273  0.2491  0.7215 -0.2703
13866SOL    HW147560   3.719   7.387   8.237 -0.2120  1.3277 -2.1746
13866SOL    HW247561   3.641   7.411   8.365  1.7368 -0.6173 -0.5300
13867SOL     OW47562   7.366   3.652   2.256 -0.4162  0.1974  0.1498
13867SOL    HW147563   7.286   3.622   2.297 -0.0352  1.2393  1.7291
13867SOL    HW247564   7.435   3.596   2.293 -0.2047  0.4084  0.0803
13868SOL     OW47565   7.015   4.479   3.088  0.2286 -0.7799  0.0315
13868SOL    HW147566   6.998   4.559   3.138 -1.7189 -2.0061  1.4837
13868SOL    HW247567   7.050   4.510   3.005 -0.2534  1.5700  0.6222
13869SOL     OW47568   9.178   8.627   0.761 -0.1901  0.5223  0.3454
13869SOL    HW147569   9.248   8.597   0.703 -1.5943 -0.8400 -0.7401
13869SOL    HW247570   9.182   8.568   0.836  1.0027  1.6613  1.2094
13870SOL     OW47571   9.233   3.947   4.270 -0.3317  0.3770  0.1421
13870SOL    HW147572   9.171   3.916   4.337 -2.8411  1.2396 -1.6129
13870SOL    HW247573   9.243   4.041   4.289  0.7146  0.1849  0.5880
13871SOL     OW47574   1.552   3.187   0.169  0.5657 -0.2544  0.0794
13871SOL    HW147575   1.612   3.206   0.241 -1.0395 -1.2636  1.7597
13871SOL    HW247576   1.517   3.272   0.143  0.3931  0.0349  1.2088
13872SOL     OW47577   3.988   0.298   6.575  0.7340  0.0754 -0.5241
13872SOL    HW147578   3.944   0.224   6.533 -0.0804  0.3806 -0.2223
13872SOL    HW247579   4.044   0.258   6.642  0.0088 -0.2525 -0.1011
13873SOL     OW47580   7.744   4.034   1.483  0.2211 -0.2674 -0.1159
13873SOL    HW147581   7.801   4.103   1.517 -1.0131  0.6678  0.1110
13873SOL    HW247582   7.770   3.955   1.531  1.8931 -0.0690 -0.6332
13874SOL     OW47583   7.099   6.290   6.627  0.3919 -0.2204 -0.3184
13874SOL    HW147584   7.138   6.357   6.571 -1.6937 -0.3741 -2.1139
13874SOL    HW247585   7.126   6.313   6.716  1.7076  1.5555 -1.1231
13875SOL     OW47586   7.484   3.890   2.338  0.0702  0.2892 -0.5041
13875SOL    HW147587   7.545   3.849   2.399 -1.7498 -1.2404  0.3883
13875SOL    HW247588   7.440   3.816   2.295 -0.2424  1.3423 -2.0750
13876SOL     OW47589   3.509   1.062   6.156 -0.5658  0.0020 -0.8300
13876SOL    HW147590   3.594   1.063   6.113 -0.3547 -0.5995 -0.4419
13876SOL    HW247591   3.465   0.984   6.121  0.5925 -2.0395  1.8422
13877SOL     OW47592   5.419   3.381   6.092  0.4260 -0.5760 -0.2342
13877SOL    HW147593   5.354   3.417   6.032  0.2134 -0.0563  0.2924
13877SOL    HW247594   5.495   3.362   6.037  0.6421  0.9355 -0.5084
13878SOL     OW47595   3.065   1.650   7.976  0.2987 -0.0162 -0.0392
13878SOL    HW147596   3.109   1.581   8.026  0.6347 -0.3103 -0.7351
13878SOL    HW247597   3.005   1.690   8.039  0.7544 -0.3448  0.6173
13879SOL     OW47598   7.061   7.877   4.170 -0.0922  0.6892 -0.7715
13879SOL    HW147599   7.133   7.918   4.218 -0.5747  0.2720  0.3185
13879SOL    HW247600   7.095   7.868   4.081  0.5634  2.0901 -0.6939
13880SOL     OW47601   1.266   7.074   0.764  0.6441 -0.0960 -0.2242
13880SOL    HW147602   1.182   7.107   0.794 -0.3012 -1.0234 -1.7209
13880SOL    HW247603   1.306   7.147   0.717 -0.6216 -0.4483 -1.9493
13881SOL     OW47604   5.826   1.574   4.740 -0.5557  0.7470  0.5078
13881SOL    HW147605   5.742   1.613   4.715 -0.8454  0.6138  1.2477
13881SOL    HW247606   5.889   1.609   4.676 -1.5215 -0.8186 -1.3850
13882SOL     OW47607   0.195   3.200   6.728  0.1951  0.5395 -0.7870
13882SOL    HW147608   0.168   3.170   6.814 -2.6803  0.2683 -1.6907
13882SOL    HW247609   0.121   3.253   6.696  1.7790  1.8707 -2.5069
13883SOL     OW47610   7.219   8.753   4.729  0.1249  0.3654  0.6905
13883SOL    HW147611   7.245   8.840   4.758  2.3373  0.5190 -1.3893
13883SOL    HW247612   7.287   8.727   4.666 -2.1354 -1.5188 -1.2013
13884SOL     OW47613   7.313   0.628   7.234  0.6620  0.1551 -0.0882
13884SOL    HW147614   7.408   0.626   7.244  0.6935  0.4943 -0.3089
13884SOL    HW247615   7.285   0.710   7.275  0.3692 -0.3362  0.7224
13885SOL     OW47616   0.920   3.067   0.449 -0.3165 -0.0418  0.8337
13885SOL    HW147617   0.860   3.136   0.476 -1.0834  0.1305 -1.2022
13885SOL    HW247618   0.960   3.100   0.369 -0.1330 -1.6533  0.2391
13886SOL     OW47619   7.039   3.792   1.537 -0.0808  0.3148  0.0446
13886SOL    HW147620   6.993   3.869   1.570  0.2758  0.3482  0.4688
13886SOL    HW247621   7.002   3.778   1.450 -2.0695 -0.6272  0.9872
13887SOL     OW47622   7.401   4.209   8.420  0.3829 -0.2032 -0.4180
13887SOL    HW147623   7.332   4.231   8.483  1.1224  1.4769 -0.1299
13887SOL    HW247624   7.374   4.253   8.339  1.4877  1.1820 -0.0725
13888SOL     OW47625   7.402   9.242   0.542  0.3170 -0.1065 -0.1164
13888SOL    HW147626   7.330   9.301   0.521  1.1170  1.0100  0.1117
13888SOL    HW247627   7.408   9.182   0.468 -2.0660 -1.4960  0.7448
13889SOL     OW47628   6.330   7.991   9.106  0.5243  0.6543 -0.3118
13889SOL    HW147629   6.381   8.003   9.186 -0.3223 -2.3376  0.7974
13889SOL    HW247630   6.243   8.024   9.129  0.7709  1.6330 -0.7191
13890SOL     OW47631   7.764   2.505   2.896 -0.0572  0.4074 -0.3303
13890SOL    HW147632   7.859   2.513   2.905 -0.1098  0.2236  0.5638
13890SOL    HW247633   7.739   2.443   2.965 -0.7310 -0.1897 -1.0929
13891SOL     OW47634   1.945   3.871   1.289 -0.3557  0.4546 -0.5663
13891SOL    HW147635   1.985   3.814   1.223 -1.1826 -0.8519  0.0308
13891SOL    HW247636   1.970   3.833   1.373 -1.4619  0.5829 -0.1649
13892SOL     OW47637   0.652   1.979   5.731  0.6028 -0.5282 -0.3867
13892SOL    HW147638   0.731   1.926   5.720  0.1057 -0.8382 -3.2511
13892SOL    HW247639   0.587   1.938   5.674 -1.8556 -0.5761  2.2131
13893SOL     OW47640   8.646   7.766   7.061 -0.1942  0.7897 -0.0216
13893SOL    HW147641   8.695   7.774   7.143 -1.4164  1.1257  0.7106
13893SOL    HW247642   8.618   7.855   7.041 -1.8897  0.4194  0.4993
13894SOL     OW47643   2.425   0.203   1.340  0.3930  0.5067 -0.3502
13894SOL    HW147644   2.402   0.228   1.430 -0.8630 -0.3172 -0.4116
13894SOL    HW247645   2.503   0.149   1.349 -0.3398 -0.4622  0.3685
13895SOL     OW47646   6.300   0.323   6.420  0.0555  0.7619 -0.4036
13895SOL    HW147647   6.300   0.343   6.327 -2.8862 -2.1731 -1.2203
13895SOL    HW247648   6.245   0.392   6.459 -0.2379  0.9496 -1.1417
13896SOL     OW47649   4.724   4.751   9.159  0.3060  0.2659  0.5392
13896SOL    HW147650   4.656   4.761   9.093  1.3207  0.1821 -0.5404
13896SOL    HW247651   4.807   4.760   9.111  1.1681 -2.7087  1.2346
13897SOL     OW47652   4.706   4.549   2.871 -0.0326  0.4808 -0.2728
13897SOL    HW147653   4.757   4.477   2.908 -0.9651  0.1525  0.4112
13897SOL    HW247654   4.740   4.628   2.913 -1.2185  0.0944  1.4999
13898SOL     OW47655   7.297   2.089   5.381  0.2283 -0.1894 -0.5522
13898SOL    HW147656   7.212   2.065   5.418  1.6569 -1.4584  2.2651
13898SOL    HW247657   7.312   2.179   5.412  0.1094 -0.1219 -0.6886
13899SOL     OW47658   0.618   8.503   4.319  0.2852 -0.2438  0.4413
13899SOL    HW147659   0.596   8.509   4.412  0.3749 -1.0349  0.5266
13899SOL    HW247660   0.712   8.522   4.315 -0.3810  3.6834  0.0105
13900SOL     OW47661   4.487   5.060   9.249  0.2096 -0.0543 -0.0006
13900SOL    HW147662   4.505   4.999   9.321  1.5199  0.8810  0.5139
13900SOL    HW247663   4.554   5.128   9.258 -0.6809  1.0215 -1.0580
13901SOL     OW47664   5.617   3.499   2.400 -0.3637 -0.0007  0.2588
13901SOL    HW147665   5.537   3.455   2.371  1.2112 -1.3294 -2.4283
13901SOL    HW247666   5.688   3.447   2.364  1.7458  1.7048  1.6677
13902SOL     OW47667   2.637   2.659   3.527  0.3212  0.2218 -0.1675
13902SOL    HW147668   2.591   2.739   3.502 -1.1962 -1.0779 -1.6568
13902SOL    HW247669   2.689   2.686   3.603 -2.8148  1.8089  1.6391
13903SOL     OW47670   8.932   8.383   5.149 -0.5094 -0.6763 -0.2664
13903SOL    HW147671   8.865   8.378   5.081 -0.4912  0.6778 -0.4113
13903SOL    HW247672   8.908   8.461   5.200  0.4064 -0.7348  0.2672
13904SOL     OW47673   3.048   4.557   0.353 -0.0387 -0.4019  0.0402
13904SOL    HW147674   3.031   4.618   0.281 -0.0568 -0.1713  0.2382
13904SOL    HW247675   3.124   4.506   0.324  0.1091 -0.1385 -0.0338
13905SOL     OW47676   4.815   4.855   5.333  0.2150 -0.3070 -0.0397
13905SOL    HW147677   4.892   4.866   5.278  0.7243 -1.7785  0.3399
13905SOL    HW247678   4.748   4.822   5.273 -0.0457  0.6527 -0.2999
13906SOL     OW47679   4.445   2.742   0.905 -0.3049  0.6376  0.5571
13906SOL    HW147680   4.434   2.695   0.823  1.0737  0.5879  0.3799
13906SOL    HW247681   4.425   2.833   0.884  0.7403  0.7433 -0.0188
13907SOL     OW47682   7.724   3.190   2.390 -0.5385  0.0428  0.1095
13907SOL    HW147683   7.750   3.184   2.482  1.3836 -1.7375 -0.4579
13907SOL    HW247684   7.717   3.099   2.361  1.0248  0.4964 -1.9955
13908SOL     OW47685   4.018   8.498   2.316  0.5120  0.5840 -0.1186
13908SOL    HW147686   4.105   8.537   2.303  0.7691  1.5252  3.4941
13908SOL    HW247687   4.035   8.413   2.357 -0.2731  0.7318  0.5358
13909SOL     OW47688   0.492   0.909   8.867  0.2897  0.3871  0.2872
13909SOL    HW147689   0.503   0.976   8.799  0.2510 -0.3177 -0.4325
13909SOL    HW247690   0.488   0.958   8.949  2.4169  1.1284  0.0013
13910SOL     OW47691   6.494   8.221   2.309 -0.1504 -0.0100  0.4926
13910SOL    HW147692   6.445   8.287   2.357 -0.9443 -0.1160 -0.1609
13910SOL    HW247693   6.541   8.172   2.377 -0.4898  0.4572  1.0723
13911SOL     OW47694   4.702   6.346   8.163 -0.2162  0.4059  0.4293
13911SOL    HW147695   4.695   6.251   8.171 -1.8971  0.5419  0.8938
13911SOL    HW247696   4.796   6.362   8.150 -0.2356 -1.5506 -3.1869
13912SOL     OW47697   8.253   4.113   2.923  0.1868 -0.1181 -0.3471
13912SOL    HW147698   8.237   4.112   2.828 -1.8086  0.8814 -0.0729
13912SOL    HW247699   8.346   4.130   2.931 -0.0992  3.1677 -2.1522
13913SOL     OW47700   0.423   7.646   8.171  0.0135 -0.6768 -0.3075
13913SOL    HW147701   0.483   7.599   8.112 -0.0325 -1.8451  0.5318
13913SOL    HW247702   0.340   7.599   8.162 -0.0531 -0.7314  0.5052
13914SOL     OW47703   8.747   9.364   5.072 -0.2405 -0.2128  0.7078
13914SOL    HW147704   8.701   9.445   5.093 -2.4544 -0.9563 -0.8916
13914SOL    HW247705   8.782   9.334   5.156 -1.1594  1.3282  1.6982
13915SOL     OW47706   9.033   1.773   1.575  0.3418  0.2311  0.3928
13915SOL    HW147707   9.075   1.737   1.497  0.2675  1.5658 -0.2953
13915SOL    HW247708   9.101   1.768   1.643  0.1216 -1.7572  0.5240
13916SOL     OW47709   0.903   4.489   4.864 -0.2324 -0.1509 -0.1342
13916SOL    HW147710   0.948   4.553   4.808  1.9461 -0.9696  0.5675
13916SOL    HW247711   0.947   4.498   4.949 -1.0967 -1.3519  0.4560
13917SOL     OW47712   2.539   2.088   1.671 -0.5579 -0.5971 -0.6189
13917SOL    HW147713   2.528   2.023   1.740  0.1020 -2.3223 -2.0631
13917SOL    HW247714   2.515   2.042   1.590 -1.2071  1.3163 -1.5906
13918SOL     OW47715   7.518   5.572   5.857 -0.0814 -0.5778 -0.3021
13918SOL    HW147716   7.543   5.590   5.767 -0.8103  0.5459 -0.2993
13918SOL    HW247717   7.489   5.657   5.892 -0.9942 -1.2271  0.5931
13919SOL     OW47718   1.379   4.101   6.203  0.5637 -0.1440  0.4844
13919SOL    HW147719   1.331   4.124   6.123  1.5564 -1.5410 -0.5725
13919SOL    HW247720   1.471   4.098   6.176  1.2410  1.9403  2.3406
13920SOL     OW47721   5.123   0.783   8.631 -0.4178  0.0358  0.2552
13920SOL    HW147722   5.047   0.789   8.688 -0.3586  1.9463  0.2182
13920SOL    HW247723   5.193   0.826   8.681  0.8682 -2.2679  0.5736
13921SOL     OW47724   7.690   6.458   8.527 -0.3153  0.1751 -0.1676
13921SOL    HW147725   7.768   6.505   8.495 -1.3818  0.9540 -1.7616
13921SOL    HW247726   7.688   6.476   8.621  0.7545  1.1594 -0.3090
13922SOL     OW47727   0.352   1.861   1.574 -0.4681 -0.6143 -0.5104
13922SOL    HW147728   0.428   1.859   1.633 -0.6372  0.3028 -0.2316
13922SOL    HW247729   0.362   1.785   1.518 -0.2871 -1.5173  0.7050
13923SOL     OW47730   1.266   3.540   0.118 -0.8525  0.0836 -0.1359
13923SOL    HW147731   1.318   3.611   0.155 -0.9749  0.7622 -1.2201
13923SOL    HW247732   1.295   3.534   0.027 -0.3102 -1.7652  0.1250
13924SOL     OW47733   6.903   2.232   6.604 -0.4626 -0.4511 -0.6184
13924SOL    HW147734   6.876   2.312   6.651 -0.4691 -0.3032 -0.8713
13924SOL    HW247735   6.966   2.263   6.539 -1.7714 -0.3802 -1.9125
13925SOL     OW47736   8.046   4.539   5.470  0.1910  0.3096 -0.0932
13925SOL    HW147737   8.108   4.535   5.543  0.0025 -1.1195  0.0153
13925SOL    HW247738   8.101   4.527   5.392  0.2326  0.4859 -0.0906
13926SOL     OW47739   3.606   8.059   2.618 -0.0551 -0.3724  0.5128
13926SOL    HW147740   3.518   8.052   2.655 -0.0278 -0.3918  0.5753
13926SOL    HW247741   3.658   7.999   2.671 -0.5524 -2.4766 -1.2337
13927SOL     OW47742   4.729   8.095   0.240 -0.0920  0.1055 -0.7594
13927SOL    HW147743   4.640   8.059   0.239 -0.6225  1.3495 -0.7587
13927SOL    HW247744   4.768   8.060   0.320 -0.1002 -1.5324 -1.4471
13928SOL     OW47745   4.197   8.578   1.867  0.3282 -0.0105 -0.5146
13928SOL    HW147746   4.150   8.534   1.938  0.2896 -0.6333 -0.9188
13928SOL    HW247747   4.158   8.542   1.787  0.7972  0.2217 -0.8480
13929SOL     OW47748   7.733   6.172   5.091 -0.0528 -0.0289 -0.6922
13929SOL    HW147749   7.797   6.124   5.039 -0.0576 -0.7257 -0.0600
13929SOL    HW247750   7.707   6.112   5.161 -1.3960  0.2421 -0.9217
13930SOL     OW47751   1.653   5.767   3.533  0.0092 -0.0105  0.5716
13930SOL    HW147752   1.703   5.805   3.461  1.6464 -0.2583  1.5091
13930SOL    HW247753   1.665   5.828   3.606 -0.9713 -0.1481  0.8705
13931SOL     OW47754   5.824   4.270   2.522  0.0563 -0.1542  0.2228
13931SOL    HW147755   5.863   4.306   2.601 -1.9928  0.7863  0.8871
13931SOL    HW247756   5.775   4.343   2.484  0.5028 -0.7571 -1.5900
13932SOL     OW47757   7.725   3.961   4.138 -0.3945  0.0265  0.5765
13932SOL    HW147758   7.730   3.866   4.153  1.2619 -0.0711 -0.3649
13932SOL    HW247759   7.703   3.969   4.046  0.0203  0.5601  0.5239
13933SOL     OW47760   8.769   2.715   5.238  0.0425  0.0190 -0.7027
13933SOL    HW147761   8.694   2.773   5.253 -0.0323  0.2321 -1.8059
13933SOL    HW247762   8.800   2.738   5.150 -0.1610 -1.7749 -1.2947
13934SOL     OW47763   3.869   3.557   5.913  0.0066  0.5170  0.0438
13934SOL    HW147764   3.935   3.582   5.849  1.1441  0.1731  1.0406
13934SOL    HW247765   3.908   3.483   5.960 -0.1554  1.6369  2.0648
13935SOL     OW47766   2.839   4.563   0.511  0.4530 -0.2755  0.2212
13935SOL    HW147767   2.833   4.469   0.531  0.2451 -0.0853  1.1216
13935SOL    HW247768   2.905   4.569   0.442  0.8064 -1.0446  0.4826
13936SOL     OW47769   2.179   6.683   2.073 -0.9449  0.1646  0.7565
13936SOL    HW147770   2.094   6.669   2.115 -1.4851 -1.1160 -0.6549
13936SOL    HW247771   2.184   6.615   2.006  1.0138  0.4993  0.4975
13937SOL     OW47772   0.342   0.209   2.961  0.1327 -0.2406  0.1251
13937SOL    HW147773   0.295   0.263   2.898 -2.4948 -2.2947  0.1452
13937SOL    HW247774   0.323   0.119   2.935  1.8623 -1.1690  1.8212
13938SOL     OW47775   5.137   5.862   4.565  0.0209  0.0891 -0.0788
13938SOL    HW147776   5.200   5.896   4.502 -0.6703 -0.1380 -0.9037
13938SOL    HW247777   5.189   5.843   4.643  1.0777 -0.6551 -0.9410
13939SOL     OW47778   6.251   6.588   3.305 -0.5528 -0.5780 -0.0241
13939SOL    HW147779   6.221   6.617   3.219 -0.1825 -0.4930 -0.1297
13939SOL    HW247780   6.264   6.670   3.354 -2.4053 -0.6696  0.7008
13940SOL     OW47781   8.205   7.234   1.080 -0.3716  0.6978 -0.8820
13940SOL    HW147782   8.125   7.258   1.127  0.9028  4.2426 -0.2588
13940SOL    HW247783   8.268   7.214   1.148 -0.2558 -0.6176 -1.3418
13941SOL     OW47784   8.655   3.408   2.631  0.1351 -0.3623  0.1965
13941SOL    HW147785   8.619   3.388   2.545  1.7512 -0.1429 -0.5697
13941SOL    HW247786   8.581   3.397   2.691 -1.6959  1.8993 -1.4667
13942SOL     OW47787   2.457   5.834   8.859  0.4261 -0.2868  0.4145
13942SOL    HW147788   2.465   5.793   8.773  0.3601  1.1570 -0.3103
13942SOL    HW247789   2.408   5.915   8.843  1.1152  0.4108  1.6790
13943SOL     OW47790   7.347   8.340   5.615 -0.2434 -0.1043  0.2951
13943SOL    HW147791   7.370   8.433   5.612  0.8152 -0.3462  0.5808
13943SOL    HW247792   7.359   8.310   5.525 -2.3697  0.4212 -0.2130
13944SOL     OW47793   5.848   6.342   0.462  0.1904  0.1872  0.2550
13944SOL    HW147794   5.882   6.289   0.534  0.8627 -0.3489 -0.4451
13944SOL    HW247795   5.820   6.423   0.503  0.7142 -0.0510  1.0998
13945SOL     OW47796   4.456   5.388   0.033 -0.2503  0.2355 -0.3011
13945SOL    HW147797   4.534   5.338   0.010  1.3444  1.9402  1.0665
13945SOL    HW247798   4.464   5.404   0.127 -0.9102  2.5393 -0.5593
13946SOL     OW47799   7.723   9.160   4.610 -0.4929 -0.9084  0.0033
13946SOL    HW147800   7.671   9.213   4.550 -1.0755 -0.0528  1.2200
13946SOL    HW247801   7.675   9.163   4.693  0.9482 -0.9723  0.8808
13947SOL     OW47802   3.930   5.783   3.974  0.7529 -0.0915 -0.3179
13947SOL    HW147803   3.838   5.777   3.948  0.6690 -0.2421  0.0076
13947SOL    HW247804   3.978   5.747   3.899  0.5875  0.4991 -0.7189
13948SOL     OW47805   2.379   7.178   7.885  0.3285 -0.2009  0.5268
13948SOL    HW147806   2.387   7.203   7.977  0.3628 -0.0635  0.4864
13948SOL    HW247807   2.358   7.259   7.840 -0.2225 -0.3604  0.4810
13949SOL     OW47808   7.392   5.117   8.405 -0.5687  0.2307 -0.3753
13949SOL    HW147809   7.446   5.090   8.331  0.8809  1.2889  0.2391
13949SOL    HW247810   7.364   5.206   8.382 -0.0097  0.6098  0.3670
13950SOL     OW47811   5.116   2.557   8.856 -0.5130  0.2679  0.0169
13950SOL    HW147812   5.140   2.465   8.851 -0.2865  0.4068 -1.9124
13950SOL    HW247813   5.188   2.597   8.905  0.4468 -0.2547 -0.9166
13951SOL     OW47814   4.004   2.262   0.680  0.4001 -0.1134 -0.5415
13951SOL    HW147815   3.954   2.291   0.756 -1.8016 -2.1775 -1.1039
13951SOL    HW247816   3.960   2.303   0.605  0.6112 -0.5989 -0.9355
13952SOL     OW47817   0.361   2.140   4.800  0.3830 -0.3237  0.0728
13952SOL    HW147818   0.362   2.085   4.879 -0.0035  0.5861  0.7355
13952SOL    HW247819   0.282   2.114   4.754 -0.2481  0.2316  0.8097
13953SOL     OW47820   3.338   3.284   3.379  0.3134  0.7289 -0.5440
13953SOL    HW147821   3.315   3.196   3.407  0.4390  1.3011  1.5534
13953SOL    HW247822   3.338   3.280   3.283  0.5026 -1.5764 -0.5069
13954SOL     OW47823   7.494   6.509   2.077  0.5733 -0.1459 -0.0760
13954SOL    HW147824   7.551   6.446   2.033  0.8559 -0.2174  0.3910
13954SOL    HW247825   7.422   6.457   2.112 -0.0851  0.0132 -1.1419
13955SOL     OW47826   3.198   8.805   7.769 -0.1957  0.1838  0.7269
13955SOL    HW147827   3.212   8.790   7.676 -1.3899  0.3478  0.5081
13955SOL    HW247828   3.123   8.750   7.791 -1.0508  1.5066  1.1934
13956SOL     OW47829   1.953   9.284   0.906 -0.4149 -0.0608 -0.2048
13956SOL    HW147830   2.014   9.350   0.873  3.0027 -1.9922  1.7007
13956SOL    HW247831   1.884   9.335   0.949  0.4332  2.2509 -1.4078
13957SOL     OW47832   8.286   0.722   5.086 -0.0383 -0.7611  0.0597
13957SOL    HW147833   8.238   0.804   5.097  0.2647 -0.6040  0.2147
13957SOL    HW247834   8.303   0.692   5.175  1.1319 -0.2381  0.0268
13958SOL     OW47835   1.052   5.606   2.484  0.6232  0.3895 -0.0625
13958SOL    HW147836   0.978   5.657   2.451  1.4118  1.4220 -0.2714
13958SOL    HW247837   1.075   5.548   2.412  0.2049  0.2664 -0.1020
13959SOL     OW47838   1.332   3.408   0.820 -0.1849  0.3347  0.4764
13959SOL    HW147839   1.250   3.360   0.810 -0.6902  1.2581  0.0939
13959SOL    HW247840   1.306   3.499   0.833  0.7960  0.9235 -1.2574
13960SOL     OW47841   4.031   7.151   2.606 -0.0819  0.0212 -0.3414
13960SOL    HW147842   4.027   7.058   2.584  0.2132 -0.2044  0.5280
13960SOL    HW247843   4.041   7.195   2.521  0.7407 -0.7948 -0.6903
13961SOL     OW47844   4.572   5.742   1.038  0.0986  0.0951  0.0819
13961SOL    HW147845   4.614   5.824   1.061  1.8030 -1.6075  3.9038
13961SOL    HW247846   4.505   5.730   1.106 -0.8196 -1.2379 -1.0016
13962SOL     OW47847   2.479   7.118   2.108 -0.2174 -0.8310  0.6708
13962SOL    HW147848   2.438   7.045   2.062  0.9369  0.2808 -2.4185
13962SOL    HW247849   2.561   7.082   2.142 -0.5101 -1.3999  0.7845
13963SOL     OW47850   3.228   7.565   9.179  0.0694  0.2104  0.0709
13963SOL    HW147851   3.238   7.549   9.272  0.6108 -0.3750 -0.0754
13963SOL    HW247852   3.294   7.509   9.138 -1.5082 -1.1007 -0.7811
13964SOL     OW47853   0.533   4.799   8.185 -0.1465  0.0893  0.2775
13964SOL    HW147854   0.516   4.865   8.118 -0.4486 -0.7812 -0.5318
13964SOL    HW247855   0.497   4.718   8.148  0.2366 -0.5328  1.2309
13965SOL     OW47856   8.833   4.455   4.195 -0.1714 -0.0902  0.4301
13965SOL    HW147857   8.773   4.392   4.154  0.6524 -0.5872 -0.0376
13965SOL    HW247858   8.797   4.469   4.282 -1.3425  0.1290 -0.0634
13966SOL     OW47859   4.161   0.556   2.702  0.3553  0.4288 -0.6535
13966SOL    HW147860   4.189   0.598   2.620 -2.1869 -0.3419 -2.0221
13966SOL    HW247861   4.240   0.513   2.734  1.4005  0.5202 -2.8669
13967SOL     OW47862   0.486   9.364   7.912 -0.6029  0.3847 -0.6113
13967SOL    HW147863   0.503   9.274   7.938 -1.3012  0.3147 -0.3912
13967SOL    HW247864   0.455   9.358   7.822  1.9934  0.6419 -1.6100
13968SOL     OW47865   6.251   2.070   0.278 -0.5431 -0.4411  0.0098
13968SOL    HW147866   6.203   2.024   0.347 -1.0014  0.7654  0.5256
13968SOL    HW247867   6.188   2.131   0.241  0.4607  0.9555  0.4825
13969SOL     OW47868   0.622   2.477   3.083  0.1355 -0.1013  0.3573
13969SOL    HW147869   0.581   2.520   3.007 -0.9435 -1.4691  0.1247
13969SOL    HW247870   0.661   2.397   3.047  0.4954 -0.2658  1.0913
13970SOL     OW47871   8.096   0.344   4.911  0.2199  0.0820 -0.1669
13970SOL    HW147872   8.162   0.281   4.940  0.8445 -0.4462 -2.4936
13970SOL    HW247873   8.017   0.292   4.897  0.8098 -0.3135 -2.3450
13971SOL     OW47874   6.183   0.053   4.519  0.8824 -0.1198 -0.2713
13971SOL    HW147875   6.216   0.043   4.608  1.1434  0.4070 -0.3051
13971SOL    HW247876   6.124   0.128   4.523 -0.6519 -1.2882 -0.1235
13972SOL     OW47877   9.248   9.313   2.552  0.0879  0.4462  0.1821
13972SOL    HW147878   9.311   9.378   2.520  0.6440  0.0839  0.5264
13972SOL    HW247879   9.282   9.286   2.637  0.3462 -0.9184 -0.3136
13973SOL     OW47880   5.644   0.329   2.414 -0.3682  0.0480  0.0091
13973SOL    HW147881   5.696   0.249   2.406 -1.4454 -0.7610  0.8748
13973SOL    HW247882   5.708   0.400   2.410  0.7225 -0.9000  0.3093
13974SOL     OW47883   6.527   2.256   1.160 -0.1271  0.5937 -0.1282
13974SOL    HW147884   6.617   2.261   1.125  0.1080 -0.9476  0.1760
13974SOL    HW247885   6.497   2.347   1.162  1.9224  1.3056  1.0311
13975SOL     OW47886   4.600   8.767   1.906  0.4890  0.3216  0.4625
13975SOL    HW147887   4.661   8.702   1.941  0.7191 -0.5918 -1.4903
13975SOL    HW247888   4.656   8.839   1.878  1.2348 -1.6650 -3.9661
13976SOL     OW47889   0.734   2.756   0.264 -0.0732  0.2017  0.0010
13976SOL    HW147890   0.702   2.799   0.185 -0.3260  0.0244  0.0045
13976SOL    HW247891   0.677   2.788   0.333 -0.7707 -0.7291 -0.1223
13977SOL     OW47892   7.101   4.468   8.551 -0.3393 -0.0208 -0.3536
13977SOL    HW147893   7.125   4.447   8.461 -0.9163 -1.4087 -0.2046
13977SOL    HW247894   7.043   4.397   8.578 -1.1633  1.0103  0.7138
13978SOL     OW47895   6.417   7.755   8.202  0.1305 -0.6795  0.0828
13978SOL    HW147896   6.389   7.787   8.287 -1.0199 -1.4534  0.0246
13978SOL    HW247897   6.368   7.807   8.139  0.7487 -0.3160 -0.1055
13979SOL     OW47898   9.090   7.875   2.402 -0.1265  0.6277 -0.3542
13979SOL    HW147899   9.034   7.944   2.367  0.4681  1.2798 -0.0411
13979SOL    HW247900   9.145   7.848   2.329  1.6275  2.4997  0.1904
13980SOL     OW47901   4.412   8.773   4.046  0.2692 -0.2048 -0.0402
13980SOL    HW147902   4.383   8.693   4.003  1.7847  0.1472 -1.8691
13980SOL    HW247903   4.363   8.843   4.003  0.5296  0.0112  0.0071
13981SOL     OW47904   3.919   4.379   2.432  0.6112 -0.2241  0.6621
13981SOL    HW147905   3.868   4.436   2.489  0.4899  1.3285 -0.9075
13981SOL    HW247906   3.896   4.290   2.460 -1.7264  0.4304  1.0733
13982SOL     OW47907   1.069   5.867   2.923  0.1704  0.2994  0.3369
13982SOL    HW147908   1.018   5.895   2.847 -0.8386 -0.4942  0.6899
13982SOL    HW247909   1.025   5.787   2.953  0.0696  1.0255  2.2404
13983SOL     OW47910   3.633   4.709   0.962  0.2324  0.0283  0.2892
13983SOL    HW147911   3.551   4.724   1.010 -0.1122 -0.5028 -0.1157
13983SOL    HW247912   3.669   4.630   1.001  0.5229  0.2241  0.4207
13984SOL     OW47913   5.425   9.318   5.179  0.1650 -0.5683  0.7119
13984SOL    HW147914   5.356   9.264   5.140 -0.5335  2.0597 -2.0807
13984SOL    HW247915   5.507   9.278   5.147 -0.3032 -0.6016 -0.5252
13985SOL     OW47916   0.965   7.368   7.358 -0.1793  0.5213  0.4245
13985SOL    HW147917   1.056   7.359   7.386  0.1167 -0.9104 -0.9065
13985SOL    HW247918   0.956   7.461   7.335  0.5193  0.9874  1.9052
13986SOL     OW47919   5.407   3.925   1.033  0.0095  0.4377  0.1051
13986SOL    HW147920   5.382   3.872   1.109  1.0523  1.5423  1.2624
13986SOL    HW247921   5.496   3.955   1.052 -0.4405  2.3999 -0.5807
13987SOL     OW47922   8.227   3.277   3.817 -0.3975  0.7673 -0.5936
13987SOL    HW147923   8.166   3.345   3.787 -0.8190 -0.2844 -2.2152
13987SOL    HW247924   8.306   3.291   3.765 -0.1244  0.6165 -0.2225
13988SOL     OW47925   1.245   8.247   0.152  0.8155  0.0938  0.2575
13988SOL    HW147926   1.274   8.317   0.210  1.8684 -0.0942 -0.0099
13988SOL    HW247927   1.197   8.291   0.082  0.9929  0.4942  0.3861
13989SOL     OW47928   1.379   0.396   1.058  0.1882  0.1539  0.6143
13989SOL    HW147929   1.441   0.338   1.014  0.5802  0.9821  0.0402
13989SOL    HW247930   1.430   0.475   1.078 -0.1851  0.0984  1.8747
13990SOL     OW47931   6.904   7.578   5.590  0.1651 -0.2746  0.1109
13990SOL    HW147932   6.885   7.529   5.670 -1.3941  0.2171  0.0697
13990SOL    HW247933   6.942   7.660   5.620  0.3819 -0.4431  0.2996
13991SOL     OW47934   3.753   5.243   7.063 -0.5350  0.1172  0.0005
13991SOL    HW147935   3.671   5.193   7.068 -0.8424  0.6192  0.0268
13991SOL    HW247936   3.727   5.333   7.081 -0.1118  0.4256 -0.8977
13992SOL     OW47937   3.636   5.779   7.751 -0.1623  0.1633  0.0709
13992SOL    HW147938   3.627   5.846   7.819  0.1341  0.1945  0.0832
13992SOL    HW247939   3.716   5.731   7.775 -0.2233 -0.0211 -0.0875
13993SOL     OW47940   7.057   5.432   5.672  0.1951  0.0910  0.6898
13993SOL    HW147941   7.115   5.379   5.726  0.7621 -1.1783 -1.0539
13993SOL    HW247942   6.993   5.370   5.636  0.7489  0.5660 -1.2445
13994SOL     OW47943   8.395   1.082   2.040  0.1755 -0.1453 -0.3600
13994SOL    HW147944   8.348   0.998   2.036 -2.2119  1.1708 -2.4820
13994SOL    HW247945   8.431   1.093   1.952  0.9853  0.8058  0.0785
13995SOL     OW47946   1.359   6.756   5.162 -0.2549 -0.3500 -0.0346
13995SOL    HW147947   1.281   6.794   5.203 -0.0208  0.2064 -0.1039
13995SOL    HW247948   1.412   6.725   5.235 -0.5180 -0.7031  0.0149
13996SOL     OW47949   6.597   2.319   7.945  0.2133  0.4024 -0.5060
13996SOL    HW147950   6.541   2.252   7.985 -0.1307  0.5013 -0.8181
13996SOL    HW247951   6.581   2.311   7.851 -1.0923  2.0061 -0.4701
13997SOL     OW47952   5.868   1.922   1.864  0.1420  0.3460 -0.1610
13997SOL    HW147953   5.889   1.927   1.957  0.7123  0.2611 -0.2813
13997SOL    HW247954   5.901   1.837   1.836 -1.1226 -0.1612 -0.1831
13998SOL     OW47955   2.286   3.915   1.239  0.1063  0.0453 -0.2263
13998SOL    HW147956   2.275   3.827   1.204  0.7018 -0.5799  1.1029
13998SOL    HW247957   2.210   3.929   1.295 -0.8852  1.0769 -1.7285
13999SOL     OW47958   5.277   5.987   5.579  0.0420 -0.1005  0.3025
13999SOL    HW147959   5.218   6.046   5.627  0.1370 -0.2806  0.6431
13999SOL    HW247960   5.239   5.900   5.591  0.2179 -0.1802  0.2834
14000SOL     OW47961   1.982   6.521   7.027 -0.6416  0.4533 -0.1252
14000SOL    HW147962   1.922   6.593   7.048 -1.2927 -0.3826  1.0051
14000SOL    HW247963   2.069   6.560   7.034 -0.9698  1.0568  0.8628
14001SOL     OW47964   0.979   3.536   4.190 -0.0858  0.2869 -0.3712
14001SOL    HW147965   0.985   3.440   4.185  0.5177  0.2290  1.0620
14001SOL    HW247966   0.981   3.565   4.099  0.2338 -1.0363 -0.8038
14002SOL     OW47967   7.246   2.671   2.420  0.0406  0.6171  0.4896
14002SOL    HW147968   7.335   2.686   2.451  0.4148  0.1224 -0.3186
14002SOL    HW247969   7.249   2.690   2.326 -0.8636  1.2541  0.5785
14003SOL     OW47970   5.937   0.304   6.850 -0.0269  0.1073  0.2729
14003SOL    HW147971   5.984   0.253   6.784 -1.2707  1.1231 -1.4985
14003SOL    HW247972   6.005   0.339   6.907  1.2261  0.1897 -1.2176
14004SOL     OW47973   6.718   5.372   3.336 -0.4390 -0.3133 -0.2659
14004SOL    HW147974   6.782   5.305   3.361  0.3519  1.0042  1.4521
14004SOL    HW247975   6.652   5.324   3.286  0.8986 -2.0687 -0.4707
14005SOL     OW47976   6.595   8.607   7.337  0.3613 -0.2103 -0.3548
14005SOL    HW147977   6.517   8.662   7.349  1.4060  1.7695 -1.9722
14005SOL    HW247978   6.663   8.651   7.388  0.9731 -0.5500 -0.8666
14006SOL     OW47979   1.966   0.176   8.874  0.2477 -0.0561 -0.1184
14006SOL    HW147980   1.927   0.254   8.833  0.0233  0.1705  0.5189
14006SOL    HW247981   2.032   0.147   8.811 -0.4546 -0.0290 -0.8942
14007SOL     OW47982   4.340   7.772   4.588 -0.4859  0.5758 -0.3325
14007SOL    HW147983   4.272   7.712   4.556 -1.5044  1.3034  0.4043
14007SOL    HW247984   4.375   7.729   4.666 -1.0663  0.8277  0.0724
14008SOL     OW47985   5.574   2.141   8.497 -0.1046 -0.6540  0.0621
14008SOL    HW147986   5.610   2.052   8.487  1.8540  0.3091 -2.6602
14008SOL    HW247987   5.650   2.195   8.519 -0.8058  0.6754 -0.6645
14009SOL     OW47988   1.488   3.085   2.021  0.0403 -0.0619 -0.0666
14009SOL    HW147989   1.547   3.020   2.058  0.6924  0.4281 -0.2406
14009SOL    HW247990   1.404   3.039   2.012  0.7073 -1.1284 -0.9884
14010SOL     OW47991   8.009   8.872   5.433 -0.5745 -0.2233  0.2676
14010SOL    HW147992   7.927   8.919   5.448 -1.0156 -1.2902  1.4139
14010SOL    HW247993   8.014   8.860   5.338 -1.5747  0.1613  0.1618
14011SOL     OW47994   3.313   5.210   7.920 -0.0650 -0.2069 -0.1778
14011SOL    HW147995   3.384   5.218   7.984  0.2802 -0.0220 -0.5735
14011SOL    HW247996   3.256   5.142   7.954 -0.5409  0.7254  0.9423
14012SOL     OW47997   3.452   1.104   1.365  0.4501  0.6462 -0.1337
14012SOL    HW147998   3.412   1.088   1.280 -1.5611 -1.2897  1.0317
14012SOL    HW247999   3.540   1.136   1.346  0.4762 -0.7939 -2.9375
14013SOL     OW48000   0.913   7.429   3.259  0.1605 -0.2509  0.1338
14013SOL    HW148001   0.853   7.441   3.332  0.1055 -1.5491  0.3393
14013SOL    HW248002   0.896   7.339   3.229  0.5969  0.0574 -1.0905
14014SOL     OW48003   9.289   2.742   6.512  0.1296  0.8809  0.1883
14014SOL    HW148004   9.287   2.735   6.607  1.0845  0.5727  0.1992
14014SOL    HW248005   9.261   2.656   6.481 -0.5580  1.1015  0.1770
14015SOL     OW48006   6.229   7.116   4.424  0.5327 -0.2303 -0.1062
14015SOL    HW148007   6.306   7.158   4.385  1.5175 -1.2859  0.6619
14015SOL    HW248008   6.209   7.169   4.501 -0.4093  0.8804 -1.0714
14016SOL     OW48009   6.493   3.792   7.056  0.0576  0.0869 -0.6588
14016SOL    HW148010   6.571   3.806   7.002 -0.3250  0.1303 -1.2006
14016SOL    HW248011   6.451   3.878   7.060  0.0564  0.0726 -0.3298
14017SOL     OW48012   7.741   3.513   5.292  0.4160  0.3238  0.1566
14017SOL    HW148013   7.668   3.496   5.351 -0.3869  0.1128 -0.8765
14017SOL    HW248014   7.701   3.544   5.211  1.5297  1.2404 -0.0796
14018SOL     OW48015   7.819   0.281   1.060 -0.3799 -0.1353  0.0188
14018SOL    HW148016   7.906   0.241   1.063 -0.7619 -0.9738 -0.0060
14018SOL    HW248017   7.767   0.223   1.005 -0.8021  0.6867 -0.4799
14019SOL     OW48018   6.132   3.709   4.126  0.1453  0.4698  0.0565
14019SOL    HW148019   6.206   3.669   4.080 -0.4632 -1.2375  0.4807
14019SOL    HW248020   6.169   3.785   4.170  1.4693  0.0993 -0.3771
14020SOL     OW48021   6.810   2.963   5.543  0.2194  0.3128 -0.4140
14020SOL    HW148022   6.885   2.905   5.556  1.0945  0.4912 -3.6990
14020SOL    HW248023   6.806   2.976   5.448 -3.0023  1.6469 -0.2307
14021SOL     OW48024   2.436   7.512   1.440 -0.2833 -0.0611  0.1203
14021SOL    HW148025   2.503   7.579   1.431  0.0756 -0.5150 -0.6611
14021SOL    HW248026   2.353   7.561   1.443 -0.0022  0.4301 -0.0871
14022SOL     OW48027   2.714   2.034   3.795  0.7042 -0.4174 -0.2877
14022SOL    HW148028   2.677   2.043   3.707  3.3154 -1.6945 -1.6050
14022SOL    HW248029   2.789   2.093   3.796 -0.6341  1.4607  2.0275
14023SOL     OW48030   4.554   5.782   2.781  0.6869 -0.2027  0.5452
14023SOL    HW148031   4.631   5.806   2.833  0.1383  1.3604  0.6769
14023SOL    HW248032   4.589   5.768   2.693  0.7618  4.0554 -0.3013
14024SOL     OW48033   1.304   2.366   1.712 -0.0210 -0.0453  0.1034
14024SOL    HW148034   1.355   2.292   1.680  0.2121 -0.0016  0.3656
14024SOL    HW248035   1.310   2.432   1.643  2.4010  0.9598  1.1292
14025SOL     OW48036   8.188   0.350   9.201 -0.1323 -0.7874 -0.0911
14025SOL    HW148037   8.266   0.334   9.254  1.3481 -0.1459 -1.9787
14025SOL    HW248038   8.165   0.441   9.218  1.2219 -0.1169 -1.5332
14026SOL     OW48039   6.705   5.206   0.203  0.5019 -0.0476 -0.0250
14026SOL    HW148040   6.721   5.264   0.278  0.6958  0.1127 -0.1899
14026SOL    HW248041   6.779   5.222   0.145  0.8680 -0.8870  0.1931
14027SOL     OW48042   6.996   3.267   0.597  0.3071 -0.0679 -0.1810
14027SOL    HW148043   6.907   3.282   0.630  0.6565  0.6206  0.4879
14027SOL    HW248044   7.030   3.195   0.652  0.4716  0.2767  0.1752
14028SOL     OW48045   5.813   8.058   7.796 -0.3385 -0.1259 -0.3263
14028SOL    HW148046   5.760   7.985   7.828  1.9511 -1.0119  1.7040
14028SOL    HW248047   5.867   8.019   7.727 -0.3903  0.1292 -0.5144
14029SOL     OW48048   5.286   5.983   7.152  0.2058 -0.1290  0.1452
14029SOL    HW148049   5.204   5.951   7.114  0.4550 -1.1725  0.4570
14029SOL    HW248050   5.281   5.957   7.244  0.8559 -0.1326  0.1805
14030SOL     OW48051   4.018   3.573   7.295  0.2886 -0.1642 -0.7435
14030SOL    HW148052   4.092   3.619   7.333  0.6486  0.3670 -2.0311
14030SOL    HW248053   4.013   3.605   7.205  0.4954 -2.5774 -1.6793
14031SOL     OW48054   7.394   2.856   0.535 -0.1273 -0.3054  0.5022
14031SOL    HW148055   7.447   2.780   0.513  1.3450  0.8371 -0.1010
14031SOL    HW248056   7.450   2.909   0.592 -1.2356  0.1801  1.1665
14032SOL     OW48057   3.351   6.113   8.588  0.2106  0.0783  0.2335
14032SOL    HW148058   3.347   6.099   8.683 -0.8383  0.5416  0.2762
14032SOL    HW248059   3.325   6.029   8.550  2.2522 -0.6381  0.2923
14033SOL     OW48060   7.785   7.051   8.361  0.0451  0.1830  0.1569
14033SOL    HW148061   7.839   7.130   8.370  0.8977 -0.4482  0.7579
14033SOL    HW248062   7.735   7.047   8.443 -1.0928  0.8752 -0.4829
14034SOL     OW48063   4.069   4.712   3.255  0.1711 -0.4056  0.0017
14034SOL    HW148064   4.145   4.747   3.301  0.9297 -1.2625 -0.5538
14034SOL    HW248065   3.996   4.726   3.315  0.9634 -0.5977  1.0507
14035SOL     OW48066   3.799   1.131   1.020  0.0210 -0.2302  0.2843
14035SOL    HW148067   3.839   1.109   0.935  0.5408 -0.5894  0.6149
14035SOL    HW248068   3.801   1.049   1.069  2.0286  0.5155  1.5515
14036SOL     OW48069   8.974   0.351   0.743  0.4077  0.2903 -0.2106
14036SOL    HW148070   8.950   0.324   0.832  0.2708  0.8736 -0.0638
14036SOL    HW248071   8.933   0.286   0.686  0.1493  0.1481  0.1342
14037SOL     OW48072   5.578   8.414   6.512  0.5090 -0.5267 -0.3153
14037SOL    HW148073   5.499   8.426   6.565  0.6279  0.0706 -0.2621
14037SOL    HW248074   5.553   8.445   6.425  1.0071  0.7138 -0.0278
14038SOL     OW48075   3.482   7.377   1.001  0.2394 -0.0274 -0.2207
14038SOL    HW148076   3.521   7.455   1.039  0.9571  0.4416 -1.8279
14038SOL    HW248077   3.528   7.365   0.917 -2.6749  0.2956 -2.0218
14039SOL     OW48078   9.036   3.159   2.642 -0.7127 -0.0293 -0.0195
14039SOL    HW148079   9.084   3.193   2.718  0.2673 -1.0808 -0.1260
14039SOL    HW248080   9.007   3.237   2.595 -0.8880  0.6381  1.1518
14040SOL     OW48081   0.537   0.751   8.480 -0.3324  0.3128 -0.3658
14040SOL    HW148082   0.585   0.833   8.477 -1.0211  1.0346  3.2933
14040SOL    HW248083   0.586   0.697   8.542 -1.6223 -0.7646 -0.2289
14041SOL     OW48084   1.755   2.797   2.283  0.1185  0.2894  0.7688
14041SOL    HW148085   1.693   2.791   2.210  1.0097 -1.8291  0.1124
14041SOL    HW248086   1.801   2.880   2.268 -0.4251  0.3857 -0.4951
14042SOL     OW48087   5.321   7.734   4.246 -0.5341  0.2118 -0.1621
14042SOL    HW148088   5.346   7.801   4.183  0.3535 -1.0599 -1.2008
14042SOL    HW248089   5.378   7.750   4.321 -2.6312  2.6955  1.0666
14043SOL     OW48090   8.566   5.890   3.006 -0.2373 -0.0082 -0.5565
14043SOL    HW148091   8.606   5.975   3.020 -0.0969  0.0197 -1.0852
14043SOL    HW248092   8.510   5.903   2.929  2.4199 -1.2182 -2.9013
14044SOL     OW48093   5.317   8.438   0.764 -0.1866 -0.3047 -0.2569
14044SOL    HW148094   5.291   8.389   0.686 -1.2310 -1.2550  0.6379
14044SOL    HW248095   5.285   8.385   0.837 -1.6719  1.8598  0.7843
14045SOL     OW48096   5.671   4.318   7.045 -0.0475 -0.2183  0.8138
14045SOL    HW148097   5.744   4.356   6.996  0.1987 -1.1857  0.3853
14045SOL    HW248098   5.595   4.370   7.020  0.3343  0.1918  0.4988
14046SOL     OW48099   2.406   5.132   5.442 -0.4380  0.0068  0.2603
14046SOL    HW148100   2.405   5.079   5.521 -0.0930 -0.4473 -0.0339
14046SOL    HW248101   2.481   5.191   5.453 -0.5180  0.0884  0.3647
14047SOL     OW48102   1.700   0.352   7.100 -0.0020 -0.1236 -0.1843
14047SOL    HW148103   1.608   0.378   7.101  0.2562  0.8234  0.4398
14047SOL    HW248104   1.716   0.316   7.187  0.4029  0.4625 -0.0036
14048SOL     OW48105   5.437   8.967   7.367  0.4879  0.4625 -0.7938
14048SOL    HW148106   5.345   8.971   7.393  0.2142  2.4973 -1.8361
14048SOL    HW248107   5.435   8.953   7.272  1.2448  0.5975 -0.8371
14049SOL     OW48108   2.385   1.600   8.850 -0.4082 -0.4435 -0.2421
14049SOL    HW148109   2.347   1.545   8.918 -0.8460  0.4763  0.2765
14049SOL    HW248110   2.460   1.642   8.892 -0.7038  0.1560 -0.3006
14050SOL     OW48111   3.090   7.406   1.736  0.7180 -0.2326  0.0204
14050SOL    HW148112   3.118   7.473   1.799 -1.3499 -0.8071  1.6559
14050SOL    HW248113   3.166   7.348   1.728  1.3238  0.3317  1.3306
14051SOL     OW48114   7.053   3.196   7.423  0.0076 -0.0759 -0.4751
14051SOL    HW148115   7.107   3.194   7.343 -2.0240 -1.3014 -1.9089
14051SOL    HW248116   6.980   3.254   7.400 -1.1409 -1.2641  0.1118
14052SOL     OW48117   5.353   0.104   4.021  0.6906 -0.2298  0.3237
14052SOL    HW148118   5.318   0.020   3.992  0.8835 -0.0973 -0.3070
14052SOL    HW248119   5.394   0.141   3.943 -0.9281  1.2528  0.1028
14053SOL     OW48120   5.810   4.616   2.674 -0.1973  0.1384  0.5976
14053SOL    HW148121   5.794   4.536   2.724  1.0368 -0.3544  0.2612
14053SOL    HW248122   5.905   4.627   2.678 -0.2391  0.9476 -0.3250
14054SOL     OW48123   4.516   4.360   7.768 -0.0024  0.1302 -0.5365
14054SOL    HW148124   4.445   4.315   7.815 -0.8913  1.1234 -0.8797
14054SOL    HW248125   4.563   4.289   7.724 -0.3272 -0.6243  0.2967
14055SOL     OW48126   1.404   6.792   8.788 -0.2094 -0.5317 -0.0889
14055SOL    HW148127   1.343   6.824   8.721  1.1345  1.9013 -0.2657
14055SOL    HW248128   1.374   6.831   8.869  1.4267  1.3390 -0.2955
14056SOL     OW48129   1.892   7.761   8.953 -0.2008 -0.0048  0.1130
14056SOL    HW148130   1.876   7.798   8.867  0.0740  0.0081  0.0676
14056SOL    HW248131   1.899   7.667   8.939  1.0325  0.1001 -0.0574
14057SOL     OW48132   6.310   7.959   3.160  0.2453 -0.4597  0.5697
14057SOL    HW148133   6.247   8.020   3.200  1.1186 -1.0660  3.0739
14057SOL    HW248134   6.272   7.937   3.075 -1.5791  1.2325  0.8759
14058SOL     OW48135   8.419   7.615   7.069  0.2604  0.3486 -0.2186
14058SOL    HW148136   8.405   7.608   7.163  0.0206  1.7887 -0.1145
14058SOL    HW248137   8.494   7.673   7.060  0.9659 -0.6439 -0.9153
14059SOL     OW48138   3.115   2.062   3.104  0.2962 -0.5035  0.6625
14059SOL    HW148139   3.129   2.104   3.019 -0.7237 -1.5488 -0.0477
14059SOL    HW248140   3.042   2.110   3.143 -0.2843 -1.0261  0.2381
14060SOL     OW48141   9.090   4.812   9.023 -0.0498  0.3075 -0.2239
14060SOL    HW148142   9.003   4.825   8.984 -0.3186 -0.3340  0.1518
14060SOL    HW248143   9.118   4.726   8.991 -0.4934 -0.4714  1.3606
14061SOL     OW48144   6.151   7.613   1.074  0.5044  0.3225 -0.3345
14061SOL    HW148145   6.217   7.628   1.007  2.1345 -1.0147  0.8839
14061SOL    HW248146   6.126   7.521   1.064  0.7403  0.1075  0.8317
14062SOL     OW48147   3.383   9.223   0.090 -0.1676  0.2933  0.3222
14062SOL    HW148148   3.290   9.203   0.104 -0.6862  1.1955 -1.4990
14062SOL    HW248149   3.419   9.143   0.053 -0.5873  0.3973 -0.3385
14063SOL     OW48150   5.678   8.749   3.054 -0.5541  0.0385  0.2823
14063SOL    HW148151   5.713   8.838   3.068  1.6874 -0.3994 -1.8847
14063SOL    HW248152   5.594   8.763   3.010  0.2823  1.1435 -1.0549
14064SOL     OW48153   0.489   6.361   0.612 -0.0937  0.7747 -0.6784
14064SOL    HW148154   0.573   6.323   0.587 -0.5590 -0.3729 -0.5830
14064SOL    HW248155   0.429   6.286   0.617 -1.0500  1.5245 -0.4353
14065SOL     OW48156   7.268   1.454   0.895  0.1027  0.1249  0.3853
14065SOL    HW148157   7.189   1.497   0.928  0.4308  0.5793  0.5877
14065SOL    HW248158   7.321   1.438   0.973 -0.3093 -1.2779  0.3974
14066SOL     OW48159   0.628   3.996   2.325  0.1741 -0.1140  0.3024
14066SOL    HW148160   0.697   3.971   2.387  0.1353  0.3455  0.5401
14066SOL    HW248161   0.645   4.088   2.306 -0.7804  0.2071  0.9145
14067SOL     OW48162   1.265   2.308   1.016 -0.0595  0.0402  0.0702
14067SOL    HW148163   1.210   2.230   1.027 -0.2626  0.2998  0.9974
14067SOL    HW248164   1.333   2.298   1.083 -0.1264  0.6893  0.2364
14068SOL     OW48165   2.916   2.068   4.136 -0.3079  0.2186  0.0438
14068SOL    HW148166   2.830   2.047   4.099  0.1072 -1.2779 -0.1303
14068SOL    HW248167   2.906   2.052   4.230  0.3109 -2.0718 -0.2098
14069SOL     OW48168   6.063   1.067   5.744  0.2595 -0.3100 -0.4886
14069SOL    HW148169   6.049   1.140   5.683 -0.9258 -0.7589 -0.7675
14069SOL    HW248170   5.977   1.028   5.756  0.9593 -2.0516 -0.8204
14070SOL     OW48171   7.745   3.340   8.546  0.5711 -0.1176 -0.2173
14070SOL    HW148172   7.725   3.418   8.598  1.9782 -0.5979  1.0957
14070SOL    HW248173   7.659   3.307   8.521 -0.2796 -0.5315  2.8472
14071SOL     OW48174   4.721   9.273   2.568 -0.2266  0.0897 -0.5337
14071SOL    HW148175   4.776   9.339   2.528  1.6788 -0.9909  0.1621
14071SOL    HW248176   4.635   9.285   2.528  0.4145  2.0426 -1.4277
14072SOL     OW48177   4.479   8.127   8.883  0.5554  0.2798 -0.2783
14072SOL    HW148178   4.418   8.187   8.841  0.0724 -0.6856 -0.9802
14072SOL    HW248179   4.437   8.104   8.966  1.3387  1.8934  0.6114
14073SOL     OW48180   4.457   5.781   4.461 -0.1423 -0.2879  0.1791
14073SOL    HW148181   4.396   5.821   4.522  0.7665 -0.3224  1.1474
14073SOL    HW248182   4.528   5.844   4.452 -0.2987 -0.2388 -0.9484
14074SOL     OW48183   8.516   0.638   3.402  0.2606  0.0219  0.3568
14074SOL    HW148184   8.442   0.611   3.348  0.7326  1.4921 -1.0923
14074SOL    HW248185   8.527   0.566   3.465  1.3015 -3.1693 -3.0724
14075SOL     OW48186   4.870   5.720   6.392  0.0099 -0.5879 -0.2341
14075SOL    HW148187   4.892   5.681   6.308 -1.8773  0.5977 -1.3614
14075SOL    HW248188   4.840   5.646   6.445 -2.2967 -0.9815 -1.8986
14076SOL     OW48189   0.719   4.969   9.253  0.0663  0.1737  0.4121
14076SOL    HW148190   0.727   5.008   9.165 -1.3707 -1.1120 -0.3421
14076SOL    HW248191   0.735   5.042   9.313  0.0814  1.3212 -0.9298
14077SOL     OW48192   2.487   2.145   8.038 -0.2441  0.3570 -0.5972
14077SOL    HW148193   2.458   2.182   8.121 -0.8736 -0.2224 -0.5446
14077SOL    HW248194   2.408   2.105   8.001 -0.0524  0.8799 -1.6267
14078SOL     OW48195   1.188   4.245   3.545  0.0878  0.1957  0.3139
14078SOL    HW148196   1.185   4.229   3.451  0.2978 -3.0661  0.7599
14078SOL    HW248197   1.097   4.242   3.573 -0.0163  1.5937  0.2280
14079SOL     OW48198   6.787   2.216   4.112 -0.7198 -0.5193 -0.1349
14079SOL    HW148199   6.778   2.300   4.067  0.2302  0.1326  0.8421
14079SOL    HW248200   6.882   2.206   4.125 -0.8427 -1.6087  0.0298
14080SOL     OW48201   5.080   4.582   5.450  0.7628  0.5649  0.4090
14080SOL    HW148202   5.156   4.591   5.508  1.1222  0.5198 -0.0536
14080SOL    HW248203   5.094   4.647   5.382  0.5254  0.3630  0.1679
14081SOL     OW48204   6.345   2.879   3.353 -0.1195  0.9513 -0.4898
14081SOL    HW148205   6.411   2.818   3.385 -3.2461 -1.6240  1.7266
14081SOL    HW248206   6.353   2.956   3.410  2.3923  1.7791 -1.8347
14082SOL     OW48207   4.836   6.787   5.316 -0.1738  0.3690  0.0450
14082SOL    HW148208   4.912   6.813   5.368 -0.0745  0.7939 -0.3070
14082SOL    HW248209   4.832   6.692   5.325 -0.9456  0.5322  1.9255
14083SOL     OW48210   2.126   7.077   5.494 -0.4865  0.1018  0.2556
14083SOL    HW148211   2.070   7.151   5.518 -0.5493  0.1727 -0.0913
14083SOL    HW248212   2.154   7.097   5.404  0.1416  0.0917  0.4453
14084SOL     OW48213   9.019   1.403   2.005 -0.0296 -0.3102 -0.6931
14084SOL    HW148214   9.113   1.389   2.000  0.1020 -0.0810  0.6434
14084SOL    HW248215   9.009   1.498   2.015 -0.2554 -0.4760  1.0564
14085SOL     OW48216   8.687   4.149   4.498 -0.6904  0.7350  0.5232
14085SOL    HW148217   8.681   4.055   4.516  0.1772  0.6374  0.3353
14085SOL    HW248218   8.759   4.180   4.553 -0.5029  1.1506  0.0577
14086SOL     OW48219   7.311   1.702   8.459 -0.8255 -0.1156 -0.9135
14086SOL    HW148220   7.336   1.616   8.493 -0.6623  1.1484  2.5437
14086SOL    HW248221   7.394   1.746   8.439 -0.8621 -0.3059 -1.5056
14087SOL     OW48222   8.269   7.003   3.217  0.4869 -0.1593  0.5671
14087SOL    HW148223   8.283   6.947   3.141 -0.1771  2.4112 -1.5979
14087SOL    HW248224   8.174   6.999   3.232  0.6767 -1.0866  1.6893
14088SOL     OW48225   9.130   7.389   2.271 -0.0165 -0.1703 -0.1098
14088SOL    HW148226   9.161   7.429   2.190  0.2470 -0.1133  0.0179
14088SOL    HW248227   9.035   7.381   2.259 -0.2523  1.5129  0.3041
14089SOL     OW48228   7.447   5.888   6.657 -0.7141  0.5696  0.1221
14089SOL    HW148229   7.543   5.884   6.649 -0.4535 -1.8428  2.6715
14089SOL    HW248230   7.415   5.819   6.598 -0.5652 -0.7953  1.5618
14090SOL     OW48231   1.467   6.819   7.235 -0.3343  0.0918 -0.0340
14090SOL    HW148232   1.475   6.724   7.238 -0.8665 -0.0383 -1.5893
14090SOL    HW248233   1.522   6.851   7.306 -0.1838 -1.3790  0.5319
14091SOL     OW48234   6.163   5.438   2.556 -0.8603 -0.2901  0.2849
14091SOL    HW148235   6.174   5.528   2.587 -0.3372 -0.5518  0.8831
14091SOL    HW248236   6.192   5.441   2.465 -0.4602  0.0677  0.4193
14092SOL     OW48237   6.373   6.127   3.706  0.3107  0.0048  0.0470
14092SOL    HW148238   6.393   6.080   3.787 -0.2274  0.9892  0.7779
14092SOL    HW248239   6.283   6.103   3.686  0.7061 -0.8830 -0.7353
14093SOL     OW48240   7.250   6.596   4.371  0.3441 -0.5335 -0.1605
14093SOL    HW148241   7.323   6.540   4.398 -0.2572 -1.0186  0.5062
14093SOL    HW248242   7.173   6.539   4.374 -0.0892 -0.0010 -0.7304
14094SOL     OW48243   7.097   2.836   3.743 -0.3146  0.3809 -0.0442
14094SOL    HW148244   7.050   2.857   3.662  2.0872  0.1444 -1.6100
14094SOL    HW248245   7.090   2.915   3.796 -2.9643  0.1267  0.1469
14095SOL     OW48246   7.993   7.377   2.491 -0.0537  0.0466  0.3890
14095SOL    HW148247   8.025   7.331   2.569  2.6869 -0.9588 -1.1696
14095SOL    HW248248   7.910   7.334   2.470 -0.2037 -0.5260  2.0047
14096SOL     OW48249   5.167   0.500   8.651  0.2697 -0.0450 -0.1692
14096SOL    HW148250   5.219   0.497   8.731  1.4939  0.0767 -0.9428
14096SOL    HW248251   5.170   0.592   8.623  0.0281 -0.1273 -0.4762
14097SOL     OW48252   6.857   8.554   1.775  0.3793 -1.0388  0.4532
14097SOL    HW148253   6.928   8.497   1.803  1.0569  0.5834  2.2997
14097SOL    HW248254   6.780   8.523   1.822 -0.0563 -2.4252 -1.0910
14098SOL     OW48255   4.001   0.503   8.509  0.4137 -0.4305 -0.6450
14098SOL    HW148256   4.038   0.455   8.434  0.7822  0.8016 -1.2687
14098SOL    HW248257   3.962   0.581   8.470 -1.8823 -1.1083  0.1305
14099SOL     OW48258   5.833   3.822   7.612  0.2119  0.8387 -0.2425
14099SOL    HW148259   5.901   3.836   7.547  0.5427  2.1433  0.3424
14099SOL    HW248260   5.778   3.753   7.575  0.6525  1.2191 -1.6804
14100SOL     OW48261   5.686   6.499   4.633  0.3110  0.5412  0.5808
14100SOL    HW148262   5.659   6.562   4.566  1.0648  1.3322  0.9969
14100SOL    HW248263   5.772   6.530   4.662  0.5952 -0.5505  0.9679
14101SOL     OW48264   6.882   4.079   6.339 -0.2332 -0.1318  0.0736
14101SOL    HW148265   6.928   4.043   6.263  0.2616  1.9404 -0.6719
14101SOL    HW248266   6.818   4.012   6.362 -1.7809 -0.0748 -3.4036
14102SOL     OW48267   2.995   8.770   1.088  0.1377 -0.2573 -0.5890
14102SOL    HW148268   3.058   8.798   1.156  0.4994  1.8704 -1.7040
14102SOL    HW248269   2.911   8.766   1.134  0.3662  1.1992  0.0297
14103SOL     OW48270   6.872   3.755   4.151 -0.5840 -0.0374 -0.0559
14103SOL    HW148271   6.886   3.727   4.060 -0.9154  0.8962 -0.4044
14103SOL    HW248272   6.889   3.849   4.150 -0.2802 -0.0638  0.9243
14104SOL     OW48273   5.908   4.324   6.560 -0.7315  0.1789 -0.3354
14104SOL    HW148274   5.918   4.233   6.532 -1.8129 -0.3153  0.8115
14104SOL    HW248275   5.997   4.360   6.556 -0.3142 -0.8793 -0.9265
14105SOL     OW48276   0.965   0.665   7.118  0.1965 -0.0598 -0.1917
14105SOL    HW148277   0.914   0.683   7.039 -1.0876 -0.6759  0.4687
14105SOL    HW248278   1.046   0.715   7.107  0.7490 -1.3642 -2.6082
14106SOL     OW48279   5.754   7.843   7.140  0.6341 -0.2400  0.2173
14106SOL    HW148280   5.681   7.869   7.196  1.4101  1.3323  0.5620
14106SOL    HW248281   5.830   7.847   7.198  1.4374  1.2941 -0.8831
14107SOL     OW48282   6.108   2.830   3.976 -0.0561 -0.1479  0.0125
14107SOL    HW148283   6.053   2.770   4.026  0.4661  0.6970  1.6742
14107SOL    HW248284   6.051   2.904   3.955  0.1190  0.2153  0.7655
14108SOL     OW48285   8.336   7.941   6.676  0.6791  0.5851  0.0944
14108SOL    HW148286   8.347   8.035   6.663  2.1010  0.3437 -0.5659
14108SOL    HW248287   8.303   7.909   6.592  0.3328  0.4583  0.2750
14109SOL     OW48288   2.697   5.952   2.802  0.1089 -0.3008 -0.2419
14109SOL    HW148289   2.708   6.047   2.812  0.8330 -0.4543  0.5633
14109SOL    HW248290   2.654   5.942   2.717  1.0900  0.6968 -0.8966
14110SOL     OW48291   1.296   9.051   5.233  0.2445 -0.4343  0.1024
14110SOL    HW148292   1.310   9.058   5.139 -2.1135  1.8371 -0.1732
14110SOL    HW248293   1.340   9.127   5.270 -1.0259  0.1256  0.5102
14111SOL     OW48294   7.183   6.294   7.324 -0.1021 -0.0999  0.2145
14111SOL    HW148295   7.140   6.379   7.321 -0.0517 -0.0881 -0.4288
14111SOL    HW248296   7.241   6.293   7.247  2.5396  0.6453  2.0633
14112SOL     OW48297   2.499   2.070   8.514 -0.2004  0.2001 -0.2288
14112SOL    HW148298   2.470   2.131   8.582 -0.1732 -0.1980  0.1424
14112SOL    HW248299   2.589   2.049   8.538 -0.2737 -0.1330 -0.2496
14113SOL     OW48300   6.329   4.881   7.010 -0.3803  0.2248 -0.2711
14113SOL    HW148301   6.303   4.897   6.919  2.2698 -1.8863 -1.5534
14113SOL    HW248302   6.423   4.867   7.006 -0.3114 -0.8717  2.6814
14114SOL     OW48303   1.795   3.674   6.655 -0.0510  0.5401  0.3944
14114SOL    HW148304   1.765   3.599   6.706  0.1574  0.9854  1.1936
14114SOL    HW248305   1.716   3.726   6.639 -0.0810  0.5168  0.4678
14115SOL     OW48306   2.324   3.714   5.248 -0.0652  0.1971  0.0954
14115SOL    HW148307   2.358   3.786   5.196 -0.3387  0.0152 -0.3397
14115SOL    HW248308   2.286   3.653   5.184 -0.1481 -0.1650  0.4815
14116SOL     OW48309   0.014   6.774   1.679  1.1049  0.5002  0.4644
14116SOL    HW148310   0.056   6.857   1.658 -1.1939  1.7297  0.3843
14116SOL    HW248311   0.082   6.723   1.723  2.4575  2.5949  0.9375
14117SOL     OW48312   3.401   7.631   8.544 -0.6628 -0.1004 -0.2686
14117SOL    HW148313   3.402   7.552   8.598 -0.5383  0.8412  1.1527
14117SOL    HW248314   3.309   7.644   8.522 -0.7299 -0.4268 -0.1857
14118SOL     OW48315   1.646   2.581   1.190  0.5092  0.3541  0.0514
14118SOL    HW148316   1.617   2.568   1.281 -0.1811  0.0532 -0.2078
14118SOL    HW248317   1.565   2.581   1.139  0.9990 -1.6296 -0.8221
14119SOL     OW48318   3.665   7.866   0.072  0.0100  0.1709  0.1366
14119SOL    HW148319   3.581   7.899   0.039  0.2553  0.3618 -0.3061
14119SOL    HW248320   3.730   7.928   0.038  0.5524 -1.1468 -1.2878
14120SOL     OW48321   2.275   2.000   6.850 -0.1334 -0.0881 -0.0428
14120SOL    HW148322   2.196   2.055   6.858  0.0473  0.1008  0.4667
14120SOL    HW248323   2.243   1.919   6.811 -0.8104 -0.4975  1.3224
14121SOL     OW48324   3.156   6.717   3.245 -0.5151  0.0565 -0.3423
14121SOL    HW148325   3.173   6.642   3.302  1.2582 -0.2487 -1.1918
14121SOL    HW248326   3.075   6.755   3.278  0.6348  0.1745  2.6570
14122SOL     OW48327   4.551   5.368   5.366 -0.6756 -0.4138  0.5269
14122SOL    HW148328   4.558   5.305   5.437  0.5435 -0.4937  0.3414
14122SOL    HW248329   4.522   5.316   5.291 -1.9694 -0.3287  0.9392
14123SOL     OW48330   0.665   2.901   9.049 -0.6690 -0.2041  0.2286
14123SOL    HW148331   0.719   2.970   9.089 -0.4683  0.5908 -1.3335
14123SOL    HW248332   0.728   2.833   9.025 -0.7282 -0.4679  0.8011
14124SOL     OW48333   7.543   2.296   6.063  0.1953  0.0698  0.0081
14124SOL    HW148334   7.636   2.275   6.072 -0.1422 -1.2870  0.5996
14124SOL    HW248335   7.515   2.247   5.986  0.1230  1.1132 -0.6519
14125SOL     OW48336   8.904   4.103   6.365  0.2786 -0.4415 -0.1415
14125SOL    HW148337   8.825   4.097   6.419  0.0867 -0.0478 -0.3758
14125SOL    HW248338   8.873   4.126   6.278  0.6005 -0.9591 -0.3953
14126SOL     OW48339   6.151   1.098   2.505  0.1561 -0.4198 -0.5845
14126SOL    HW148340   6.126   1.116   2.415 -1.3357  0.3277 -0.0557
14126SOL    HW248341   6.084   1.142   2.558  1.0730 -0.7178  0.8893
14127SOL     OW48342   5.361   4.891   6.675  0.0003 -0.2406 -0.2631
14127SOL    HW148343   5.322   4.849   6.599  0.9455  0.8457 -1.4008
14127SOL    HW248344   5.394   4.819   6.728 -1.9894 -1.0952 -0.1053
14128SOL     OW48345   6.040   5.413   8.018  0.0296  0.3599  0.5322
14128SOL    HW148346   6.042   5.498   7.974 -1.2348 -1.1251 -2.7043
14128SOL    HW248347   6.133   5.389   8.026  0.3972  1.9068  1.3325
14129SOL     OW48348   8.043   0.569   0.196 -0.5724  0.0849 -0.3360
14129SOL    HW148349   7.992   0.493   0.223  1.0038 -0.1849  2.2213
14129SOL    HW248350   8.056   0.619   0.277  2.1126  0.7460 -1.0885
14130SOL     OW48351   5.575   5.576   8.141  0.5072  0.0655  0.0157
14130SOL    HW148352   5.602   5.495   8.185 -1.3203 -1.8696 -2.1499
14130SOL    HW248353   5.588   5.558   8.048  1.2066  2.7982 -0.4921
14131SOL     OW48354   2.171   4.717   5.261  0.1200 -0.0845 -0.3177
14131SOL    HW148355   2.258   4.717   5.221  0.3956  0.2155  0.2784
14131SOL    HW248356   2.112   4.742   5.189  0.2255 -2.4682 -1.3301
14132SOL     OW48357   0.585   5.288   7.127  0.2748  0.5132 -0.0991
14132SOL    HW148358   0.538   5.210   7.157  0.2391  0.0110 -1.4281
14132SOL    HW248359   0.549   5.359   7.181 -1.6700  0.0667 -0.7252
14133SOL     OW48360   6.700   5.208   8.579  0.1826 -0.0339  0.2858
14133SOL    HW148361   6.708   5.216   8.674 -0.6379  0.4993  0.3201
14133SOL    HW248362   6.630   5.269   8.555  1.1781  0.7431 -0.8063
14134SOL     OW48363   5.346   8.303   1.627 -0.4665  0.1411  0.2148
14134SOL    HW148364   5.426   8.271   1.586 -1.7027 -1.2507 -1.2083
14134SOL    HW248365   5.362   8.396   1.640  1.5258 -0.1751  0.3380
14135SOL     OW48366   2.094   2.442   0.214 -0.1720  0.1372  0.8497
14135SOL    HW148367   2.015   2.443   0.268  0.0789 -0.7194  1.2396
14135SOL    HW248368   2.139   2.361   0.238  0.2758  0.0704 -0.1706
14136SOL     OW48369   4.949   2.422   3.775  0.5058  0.1113 -0.2277
14136SOL    HW148370   4.956   2.327   3.764 -1.3219 -0.0853  0.0986
14136SOL    HW248371   4.902   2.452   3.698  2.5349  1.0354 -1.1951
14137SOL     OW48372   4.426   9.279   2.235 -0.9543  0.4364  0.4983
14137SOL    HW148373   4.407   9.285   2.141 -0.6044  0.0406  0.3989
14137SOL    HW248374   4.512   9.321   2.245  0.0191 -1.4050  0.2935
14138SOL     OW48375   8.933   3.259   5.761  0.3094  0.1380 -0.1673
14138SOL    HW148376   9.004   3.197   5.776  0.4461 -0.3244 -2.4261
14138SOL    HW248377   8.854   3.205   5.759  0.2322  0.2575 -0.4294
14139SOL     OW48378   0.128   5.129   0.445  0.5133  0.1271  0.4349
14139SOL    HW148379   0.217   5.096   0.449  0.9962  1.4369  1.3102
14139SOL    HW248380   0.098   5.108   0.357  1.2476 -1.3881  0.5165
14140SOL     OW48381   3.591   0.699   3.420 -0.4153  0.5869 -0.4156
14140SOL    HW148382   3.505   0.686   3.459  1.0781 -1.3735  2.6676
14140SOL    HW248383   3.591   0.642   3.342 -1.5087 -0.3765  0.2542
14141SOL     OW48384   6.828   6.529   9.348  0.2843 -0.2174 -0.2463
14141SOL    HW148385   6.769   6.453   9.352  1.0409 -0.9724 -2.1459
14141SOL    HW248386   6.899   6.507   9.408  1.9090 -2.3991 -2.7312
14142SOL     OW48387   4.410   0.311   9.188  0.5332 -0.0486 -0.0585
14142SOL    HW148388   4.328   0.341   9.228  0.9307  0.5685  0.3238
14142SOL    HW248389   4.393   0.313   9.094  0.4486  1.1505 -0.0346
14143SOL     OW48390   0.345   8.414   2.461  0.0942 -0.4416 -0.1823
14143SOL    HW148391   0.305   8.353   2.399 -0.9918 -0.1494  0.2067
14143SOL    HW248392   0.360   8.494   2.409 -1.5498  0.0769  0.0965
14144SOL     OW48393   0.218   3.130   9.324 -0.1921  0.0596  0.1206
14144SOL    HW148394   0.202   3.218   9.359 -1.9704 -0.4767  0.8045
14144SOL    HW248395   0.270   3.087   9.391  0.9682  0.6596 -0.3632
14145SOL     OW48396   5.376   5.675   1.045  0.2178 -0.0349 -0.9326
14145SOL    HW148397   5.415   5.682   1.132 -2.2930  1.0288  0.2136
14145SOL    HW248398   5.296   5.625   1.058 -1.3169  1.9378 -2.1530
14146SOL     OW48399   8.767   3.454   7.889  0.2294 -0.0554  0.4442
14146SOL    HW148400   8.696   3.494   7.839  1.3466  1.2610 -0.1479
14146SOL    HW248401   8.736   3.366   7.908 -1.7868  0.6733  0.7036
14147SOL     OW48402   5.682   1.301   5.265 -0.3102  0.6980  0.0637
14147SOL    HW148403   5.612   1.353   5.226 -0.5547  0.0562 -0.3839
14147SOL    HW248404   5.677   1.320   5.359 -2.3898 -0.7980  0.3272
14148SOL     OW48405   7.553   7.260   7.995  0.7383 -0.8870  0.0914
14148SOL    HW148406   7.550   7.278   8.089 -1.0861 -0.1451 -0.0692
14148SOL    HW248407   7.626   7.199   7.984  0.6025 -1.4593  2.0664
14149SOL     OW48408   0.432   8.348   4.758 -0.4469  0.5158  0.5688
14149SOL    HW148409   0.497   8.324   4.825  0.0488  1.0578  0.2877
14149SOL    HW248410   0.374   8.272   4.753 -2.2922  1.5396  3.7189
14150SOL     OW48411   3.812   0.330   6.161  0.3890  0.0980  0.0642
14150SOL    HW148412   3.735   0.297   6.207 -0.2587  0.5866 -0.6512
14150SOL    HW248413   3.837   0.409   6.210 -0.6220  0.9215 -0.6976
14151SOL     OW48414   7.040   0.516   4.440  0.0358  0.1721 -0.0182
14151SOL    HW148415   7.126   0.476   4.448  0.1105  0.3624  0.1257
14151SOL    HW248416   7.034   0.541   4.347 -0.4529 -1.1598 -0.3617
14152SOL     OW48417   4.844   0.818   6.188  0.0304  0.2416 -0.1219
14152SOL    HW148418   4.920   0.784   6.141  1.0033 -0.0779  1.5994
14152SOL    HW248419   4.812   0.743   6.239 -1.5921  0.3174 -0.9412
14153SOL     OW48420   7.946   2.595   8.921 -0.5071 -0.2606 -0.2499
14153SOL    HW148421   7.918   2.647   8.846 -0.3271  0.2925  0.0579
14153SOL    HW248422   7.959   2.507   8.886 -1.7202 -0.3183 -0.5847
14154SOL     OW48423   8.874   8.572   0.676 -0.0210 -0.0529 -0.6547
14154SOL    HW148424   8.957   8.598   0.634 -0.2655  0.7520 -0.6621
14154SOL    HW248425   8.825   8.654   0.682  0.3006  0.0239  1.8766
14155SOL     OW48426   3.237   5.640   0.245  0.2078  0.5493 -0.2914
14155SOL    HW148427   3.176   5.601   0.309 -0.7331  0.8033 -1.0152
14155SOL    HW248428   3.201   5.616   0.160  1.8317 -0.3767 -0.7596
14156SOL     OW48429   4.645   5.572   5.226 -0.1217 -0.2524 -0.3815
14156SOL    HW148430   4.630   5.496   5.283 -0.9051  0.9614  1.1329
14156SOL    HW248431   4.624   5.648   5.282  0.6539  1.0803 -1.8221
14157SOL     OW48432   3.418   6.505   8.845 -0.1587  0.0472  0.1408
14157SOL    HW148433   3.477   6.468   8.779  1.2148 -0.2749  1.4914
14157SOL    HW248434   3.408   6.597   8.819 -0.4026 -0.3041 -1.0301
14158SOL     OW48435   4.336   0.134   6.551 -0.8634 -0.1978 -0.5920
14158SOL    HW148436   4.413   0.122   6.606 -2.4844  0.0711  1.8911
14158SOL    HW248437   4.297   0.046   6.546 -0.1112 -0.4823 -2.4252
14159SOL     OW48438   9.267   5.408   5.815 -0.4753 -0.2925  0.6637
14159SOL    HW148439   9.180   5.395   5.777 -0.0474 -0.3479 -0.3054
14159SOL    HW248440   9.251   5.468   5.889 -1.3680 -0.4965  0.6483
14160SOL     OW48441   0.669   7.698   2.605 -0.2123 -0.4175  0.2017
14160SOL    HW148442   0.738   7.659   2.659 -0.3440 -0.4743  0.3313
14160SOL    HW248443   0.686   7.792   2.610 -0.8363 -0.3452  1.1986
14161SOL     OW48444   6.070   9.052   8.109 -0.0505  0.1048  0.1559
14161SOL    HW148445   6.042   8.962   8.119  0.6849 -0.0033  1.3665
14161SOL    HW248446   6.164   9.051   8.127 -0.1611  1.2168  0.9330
14162SOL     OW48447   6.052   3.826   5.379  0.2983  0.0329  0.2603
14162SOL    HW148448   6.046   3.752   5.319 -1.7596 -0.2195  0.6768
14162SOL    HW248449   6.063   3.902   5.322 -1.2683 -0.2432 -0.4748
14163SOL     OW48450   4.838   6.854   7.029 -0.5490 -0.3105 -0.8871
14163SOL    HW148451   4.793   6.882   7.109  0.4274  0.0083 -0.4266
14163SOL    HW248452   4.915   6.912   7.024 -0.3067 -0.6981 -1.7536
14164SOL     OW48453   1.705   0.950   8.063  0.0956  0.0246  0.4026
14164SOL    HW148454   1.665   1.020   8.011  0.3239 -0.0495  0.1252
14164SOL    HW248455   1.672   0.964   8.152 -0.0972  0.3038  0.2877
14165SOL     OW48456   4.312   6.055   4.815 -0.0339  0.6579  0.1860
14165SOL    HW148457   4.359   6.016   4.888 -1.2832  0.6201  0.9988
14165SOL    HW248458   4.379   6.102   4.765  1.2177 -1.1288  0.1032
14166SOL     OW48459   2.065   6.728   6.255 -0.1954  0.2677 -0.1009
14166SOL    HW148460   2.097   6.768   6.336  0.2250 -1.0739  0.4223
14166SOL    HW248461   2.016   6.651   6.284 -0.3802 -0.0070 -1.1102
14167SOL     OW48462   2.993   4.074   4.561  0.0772  0.3087  0.1199
14167SOL    HW148463   3.033   4.060   4.647 -0.5258 -0.7304  0.2479
14167SOL    HW248464   2.996   4.169   4.548  0.5171  0.4441  1.1149
14168SOL     OW48465   8.237   3.323   4.751 -0.2737  0.6243 -0.2051
14168SOL    HW148466   8.202   3.398   4.799  0.4958  0.5379  0.5075
14168SOL    HW248467   8.252   3.257   4.818 -1.8447 -0.5446 -0.9358
14169SOL     OW48468   0.903   3.208   3.395 -0.5389  0.6709 -0.0174
14169SOL    HW148469   0.967   3.137   3.389 -0.4373  0.5710  1.7986
14169SOL    HW248470   0.872   3.220   3.305 -1.8775 -2.8706 -0.2024
14170SOL     OW48471   5.759   2.885   1.618  0.6179 -0.2524 -0.3487
14170SOL    HW148472   5.691   2.824   1.590 -0.7459  1.2532 -0.4145
14170SOL    HW248473   5.779   2.936   1.540 -1.0188  1.9168  0.5461
14171SOL     OW48474   6.514   0.866   3.541 -0.1862 -0.1320 -0.0807
14171SOL    HW148475   6.449   0.795   3.535  1.0204 -1.2379 -0.7727
14171SOL    HW248476   6.508   0.897   3.631  0.1434 -2.0260  0.6427
14172SOL     OW48477   0.391   7.640   2.174 -0.6500 -0.0624 -0.3559
14172SOL    HW148478   0.333   7.627   2.099  0.2024 -0.0632 -1.0320
14172SOL    HW248479   0.334   7.667   2.245 -1.6367 -1.1952 -0.6850
14173SOL     OW48480   0.912   0.501   3.911 -0.2885 -0.3832  0.4812
14173SOL    HW148481   0.850   0.500   3.838 -0.5709 -0.0040  0.7091
14173SOL    HW248482   0.998   0.505   3.870 -0.4668  0.3885  0.1696
14174SOL     OW48483   8.457   7.031   1.170 -0.0632  0.2241 -0.8262
14174SOL    HW148484   8.503   7.091   1.112  2.2031  0.2654  0.8453
14174SOL    HW248485   8.517   7.019   1.244 -1.4392 -2.2507  0.0189
14175SOL     OW48486   3.989   4.421   0.863 -0.0471 -0.1183 -0.3476
14175SOL    HW148487   3.998   4.326   0.859  1.0980  0.0039 -0.8873
14175SOL    HW248488   4.048   4.454   0.795 -0.8630  0.9577 -0.5662
14176SOL     OW48489   0.035   3.090   9.116 -0.0651 -0.4366  0.0518
14176SOL    HW148490   0.092   3.114   9.189  0.4691  0.6134 -0.6940
14176SOL    HW248491  -0.038   3.044   9.157  0.4309 -0.2201  1.2065
14177SOL     OW48492   5.793   1.006   5.609 -0.5282  1.0580 -0.7087
14177SOL    HW148493   5.791   0.910   5.609 -1.7332  1.0642 -0.6690
14177SOL    HW248494   5.850   1.029   5.535 -1.4996  0.3084 -1.7296
14178SOL     OW48495   8.450   5.008   3.246 -0.2443  0.0890 -0.0721
14178SOL    HW148496   8.375   5.048   3.289 -1.0767 -0.7622 -0.6993
14178SOL    HW248497   8.481   5.075   3.185 -0.4022  0.4977  0.2913
14179SOL     OW48498   7.834   7.865   2.270 -0.2071 -0.1207 -0.0043
14179SOL    HW148499   7.887   7.833   2.342 -1.7654 -1.1922  0.7010
14179SOL    HW248500   7.760   7.805   2.265 -1.4764  1.4237 -0.8165
14180SOL     OW48501   4.489   9.102   0.990 -0.0200  0.0816 -0.0894
14180SOL    HW148502   4.502   9.016   1.030 -0.5733  0.1239  0.1925
14180SOL    HW248503   4.409   9.135   1.030 -0.8374 -0.0581 -1.5425
14181SOL     OW48504   5.042   6.603   2.780 -0.1532 -0.5180 -0.1191
14181SOL    HW148505   5.069   6.631   2.867  0.1486  0.0744 -0.4002
14181SOL    HW248506   4.946   6.603   2.783 -0.1488  0.0873  0.0257
14182SOL     OW48507   2.695   4.103   1.350  0.1425 -0.2535  0.1357
14182SOL    HW148508   2.683   4.009   1.343 -1.4836  0.0134 -1.3703
14182SOL    HW248509   2.745   4.127   1.272 -0.3358  0.2426 -0.0258
14183SOL     OW48510   1.039   8.401   7.575  0.0942 -0.4495  0.0427
14183SOL    HW148511   1.043   8.388   7.480  0.7973  0.2439 -0.0331
14183SOL    HW248512   0.946   8.401   7.595 -0.0884  0.0755 -0.7480
14184SOL     OW48513   7.240   6.505   6.486  0.3609 -0.2985  0.2681
14184SOL    HW148514   7.329   6.539   6.481 -0.3837  1.5827 -2.5915
14184SOL    HW248515   7.186   6.582   6.508 -0.6749 -1.2094  1.0350
14185SOL     OW48516   7.828   0.917   6.245  0.2968 -0.2626  0.3288
14185SOL    HW148517   7.817   0.824   6.226  1.2132 -0.5306  1.0558
14185SOL    HW248518   7.751   0.940   6.297 -0.1443 -0.5045 -0.2066
14186SOL     OW48519   4.940   5.385   0.926  0.1348  0.5822  0.1788
14186SOL    HW148520   5.028   5.393   0.962  0.3024  1.2607 -0.3479
14186SOL    HW248521   4.920   5.292   0.932  1.0274  0.3675 -0.0182
14187SOL     OW48522   9.366   8.566   0.045  0.2035 -0.3161  0.7507
14187SOL    HW148523   9.413   8.642   0.011 -0.2355 -0.7564 -0.9739
14187SOL    HW248524   9.436   8.505   0.070  0.5972 -0.4951 -0.6732
14188SOL     OW48525   5.694   6.005   5.819 -0.5384 -0.0488  0.1923
14188SOL    HW148526   5.621   5.944   5.813 -0.5663  0.0757 -0.8600
14188SOL    HW248527   5.705   6.020   5.913 -2.4014  0.5864  0.3519
14189SOL     OW48528   2.696   0.462   0.304  0.2289 -0.0610 -0.0192
14189SOL    HW148529   2.650   0.379   0.289  0.3478 -0.0180 -0.6438
14189SOL    HW248530   2.773   0.457   0.248  0.7589  0.0615  0.6811
14190SOL     OW48531   2.949   3.204   6.504  0.0699 -0.4924 -0.5445
14190SOL    HW148532   2.883   3.267   6.476  1.7030  2.8106  2.3887
14190SOL    HW248533   3.022   3.217   6.443  0.0292 -0.3222 -0.5557
14191SOL     OW48534   8.621   4.292   8.714 -0.0944  0.2057  0.3780
14191SOL    HW148535   8.630   4.381   8.681  1.1137 -0.1349 -0.2600
14191SOL    HW248536   8.640   4.299   8.807 -1.5121  0.8401  0.6497
14192SOL     OW48537   7.695   3.189   7.742  0.0540 -0.2470  0.1089
14192SOL    HW148538   7.693   3.094   7.742  2.0267 -0.3278  0.4803
14192SOL    HW248539   7.682   3.214   7.833  1.0306 -0.2513  0.2649
14193SOL     OW48540   3.818   4.590   7.504 -0.0463  0.0415  0.2723
14193SOL    HW148541   3.843   4.616   7.415 -1.0544  0.6664  0.1514
14193SOL    HW248542   3.867   4.650   7.561 -3.2125  3.2539 -0.0235
14194SOL     OW48543   5.822   2.024   6.280 -0.1102 -0.0269  0.2030
14194SOL    HW148544   5.890   2.084   6.311 -0.5160  1.5268 -1.7143
14194SOL    HW248545   5.741   2.075   6.284 -0.5959 -0.7038 -0.7137
14195SOL     OW48546   9.359   8.423   7.420 -0.3987 -0.1793 -0.4153
14195SOL    HW148547   9.395   8.339   7.392 -0.7612 -0.6123  0.3857
14195SOL    HW248548   9.363   8.420   7.516  1.5525  1.5731 -0.3594
14196SOL     OW48549   5.538   5.908   0.405 -0.4862  0.2269 -0.5546
14196SOL    HW148550   5.512   5.909   0.497 -0.8186  1.4335 -0.6419
14196SOL    HW248551   5.626   5.871   0.405 -0.3691  0.4849  0.2905
14197SOL     OW48552   4.839   7.228   8.414 -0.0752  0.6593  0.7748
14197SOL    HW148553   4.904   7.202   8.480 -0.1371 -0.1710  0.5291
14197SOL    HW248554   4.870   7.313   8.383  0.8856  0.3056  0.7016
14198SOL     OW48555   7.277   8.419   8.472 -0.5610 -0.5109 -0.3016
14198SOL    HW148556   7.208   8.482   8.493  0.1270  0.8288 -1.8400
14198SOL    HW248557   7.346   8.437   8.535 -1.4124 -1.6128  1.0107
14199SOL     OW48558   2.767   5.861   3.202  0.6696 -0.0286 -0.2106
14199SOL    HW148559   2.700   5.819   3.256  0.8398 -0.0730 -0.0333
14199SOL    HW248560   2.832   5.792   3.187  0.3536 -0.1755 -0.9332
14200SOL     OW48561   1.715   0.413   8.570 -0.1984  0.1921  0.0467
14200SOL    HW148562   1.690   0.498   8.607 -0.3349  1.0744 -1.9664
14200SOL    HW248563   1.633   0.374   8.541  0.0024 -0.0713 -0.1703
14201SOL     OW48564   9.096   2.530   1.972 -0.4296 -0.0970 -0.3341
14201SOL    HW148565   9.156   2.597   1.938  0.0634 -0.8477 -1.0134
14201SOL    HW248566   9.102   2.537   2.067 -0.3310  0.7692 -0.4041
14202SOL     OW48567   7.825   0.120   1.895  0.1280 -0.1861  0.3205
14202SOL    HW148568   7.804   0.211   1.912 -1.1935 -0.8036  2.3845
14202SOL    HW248569   7.814   0.076   1.980  0.1445 -2.3632 -0.7199
14203SOL     OW48570   9.259   0.256   1.085 -0.1712 -0.2268  0.2052
14203SOL    HW148571   9.168   0.286   1.077 -0.1685 -0.6478 -2.1229
14203SOL    HW248572   9.253   0.178   1.139 -1.4640 -1.1005 -1.1040
14204SOL     OW48573   8.337   6.927   2.853 -0.0131  0.2582 -0.0891
14204SOL    HW148574   8.335   6.856   2.917 -1.4439 -0.9912 -1.4529
14204SOL    HW248575   8.330   6.884   2.768  1.0206  1.9273 -1.0843
14205SOL     OW48576   0.144   0.900   4.386 -0.2090  0.1770  0.0591
14205SOL    HW148577   0.065   0.919   4.336  1.8867 -0.6774 -4.0356
14205SOL    HW248578   0.195   0.980   4.382  0.7477 -0.4468 -0.9010
14206SOL     OW48579   0.693   4.433   0.921 -0.0665 -0.0631  0.2455
14206SOL    HW148580   0.781   4.447   0.957  0.0561 -0.8450  0.2707
14206SOL    HW248581   0.691   4.487   0.841 -0.1444  1.2454  1.0997
14207SOL     OW48582   5.623   6.459   6.849  0.1093  0.1395 -0.0223
14207SOL    HW148583   5.665   6.406   6.917 -1.6675 -0.8200  0.3916
14207SOL    HW248584   5.642   6.411   6.768 -2.7632 -2.1875  0.4924
14208SOL     OW48585   7.826   3.144   3.353  0.0390  0.5645 -0.4759
14208SOL    HW148586   7.920   3.129   3.361 -0.1112 -0.1162  0.0650
14208SOL    HW248587   7.786   3.070   3.397 -0.7615  0.7164 -0.9316
14209SOL     OW48588   1.947   2.604   9.176  0.2567 -0.1330 -0.5265
14209SOL    HW148589   2.015   2.621   9.241 -1.2087  1.5088  0.6656
14209SOL    HW248590   1.924   2.512   9.190  0.3394  0.0452  0.9379
14210SOL     OW48591   8.345   5.674   6.871  0.2417  0.2282  0.2857
14210SOL    HW148592   8.302   5.605   6.921 -0.1062  1.3266  1.5529
14210SOL    HW248593   8.273   5.719   6.827  0.4768 -0.2504 -0.6111
14211SOL     OW48594   3.968   7.329   6.469 -0.0017 -0.5091 -0.3070
14211SOL    HW148595   3.886   7.375   6.486  1.2945  1.8134  0.1453
14211SOL    HW248596   3.960   7.297   6.379 -2.0302 -1.8825  0.2982
14212SOL     OW48597   1.904   6.854   2.559  0.3410  0.5560  0.4232
14212SOL    HW148598   1.947   6.769   2.554  0.4035  0.6346 -0.7246
14212SOL    HW248599   1.960   6.906   2.617  0.4272 -0.1051  0.9390
14213SOL     OW48600   3.067   2.321   7.354  0.5378  0.2633 -0.4681
14213SOL    HW148601   3.133   2.367   7.406  0.5590 -0.3672  0.0610
14213SOL    HW248602   3.013   2.392   7.316  1.5262  0.7887 -0.9383
14214SOL     OW48603   1.732   2.223   4.439 -0.0168 -0.4613  0.2086
14214SOL    HW148604   1.679   2.302   4.447 -0.1445 -0.6454  1.3885
14214SOL    HW248605   1.669   2.153   4.422 -0.1005 -0.5795  0.9675
14215SOL     OW48606   4.273   1.961   0.891 -0.4191  0.4483 -0.1113
14215SOL    HW148607   4.361   1.938   0.923 -0.5140 -4.1324 -2.3089
14215SOL    HW248608   4.288   2.026   0.823  1.1264  0.6846  0.4192
14216SOL     OW48609   8.612   3.094   6.434 -0.3672  0.5241 -0.8090
14216SOL    HW148610   8.705   3.098   6.411  0.4291  1.8309  2.1013
14216SOL    HW248611   8.586   3.185   6.448 -1.5988  0.0823  0.0268
14217SOL     OW48612   4.017   3.786   0.929 -0.0980 -0.5780 -0.5857
14217SOL    HW148613   4.037   3.864   0.982 -0.2081  0.1372 -1.5667
14217SOL    HW248614   3.951   3.739   0.980 -0.3650  0.2063 -0.1908
14218SOL     OW48615   1.629   6.925   1.177 -0.5410 -0.0672  0.2498
14218SOL    HW148616   1.571   6.948   1.105 -0.4292 -1.9230 -0.4851
14218SOL    HW248617   1.708   6.977   1.161 -0.3885 -0.6843 -1.1732
14219SOL     OW48618   4.332   5.448   8.773  0.3107 -0.6080  0.8076
14219SOL    HW148619   4.305   5.402   8.694  1.6296 -1.0768  0.6013
14219SOL    HW248620   4.320   5.383   8.843 -0.8552 -0.1939  1.0156
14220SOL     OW48621   6.804   4.882   1.885  0.4338 -0.3972  0.1769
14220SOL    HW148622   6.764   4.952   1.938 -0.5557 -0.9622  0.2066
14220SOL    HW248623   6.773   4.899   1.796  0.2363 -0.7639  0.1762
14221SOL     OW48624   7.969   4.797   5.142  0.1123 -0.0719  0.1692
14221SOL    HW148625   7.989   4.836   5.227 -0.9142  0.6493  0.0987
14221SOL    HW248626   7.934   4.869   5.090  1.4625 -0.3143 -1.1541
14222SOL     OW48627   8.321   1.782   0.010  0.1196  0.4062 -0.0276
14222SOL    HW148628   8.365   1.867   0.014 -0.5479  0.7817 -0.3598
14222SOL    HW248629   8.331   1.754  -0.081 -1.6936  1.2691 -0.5357
14223SOL     OW48630   5.616   7.382   2.155  0.0612  0.2219  0.0467
14223SOL    HW148631   5.677   7.445   2.192  0.9590  0.5609 -1.8680
14223SOL    HW248632   5.642   7.298   2.194 -0.5340  0.8489  1.8811
14224SOL     OW48633   0.522   1.144   6.555 -0.1889  0.2089 -0.4902
14224SOL    HW148634   0.449   1.168   6.613  0.5166  1.7039 -0.1872
14224SOL    HW248635   0.597   1.193   6.588  1.4986 -2.7207  0.3789
14225SOL     OW48636   5.271   8.348   1.030 -0.0322 -0.3239 -0.9110
14225SOL    HW148637   5.242   8.269   1.075  2.8577 -1.2968 -0.4984
14225SOL    HW248638   5.366   8.349   1.043  0.0754  3.1886 -0.9802
14226SOL     OW48639   8.459   3.488   8.537  0.1558 -0.1992 -0.2378
14226SOL    HW148640   8.517   3.557   8.569 -2.2454  1.5335  0.6173
14226SOL    HW248641   8.485   3.475   8.446  0.4780  2.0947 -0.5294
14227SOL     OW48642   8.125   8.818   3.552  0.3675  0.7851  0.8866
14227SOL    HW148643   8.057   8.884   3.538  1.1220  1.1690 -1.3781
14227SOL    HW248644   8.080   8.734   3.539  0.0642  0.9904  0.5985
14228SOL     OW48645   1.978   0.283   7.580  0.1773  0.1764  0.1646
14228SOL    HW148646   1.918   0.352   7.549  1.6107  0.6416 -1.7234
14228SOL    HW248647   2.038   0.329   7.639  0.1251  0.1753  0.2199
14229SOL     OW48648   5.858   3.016   4.287 -0.0754  0.3552  0.6514
14229SOL    HW148649   5.796   3.067   4.234  0.6035  0.6330  0.1003
14229SOL    HW248650   5.940   3.066   4.282  0.4913 -0.5743  0.4520
14230SOL     OW48651   8.619   4.939   4.072 -0.0064  0.0269 -0.1689
14230SOL    HW148652   8.617   4.844   4.085  0.8059 -0.0193 -0.3109
14230SOL    HW248653   8.528   4.963   4.058 -0.3102 -0.6295  0.5842
14231SOL     OW48654   8.909   3.278   2.004  0.0234 -0.2545  0.3536
14231SOL    HW148655   8.941   3.362   2.038 -2.1722  0.5687  0.5802
14231SOL    HW248656   8.909   3.290   1.909  2.6576 -1.2093  0.1505
14232SOL     OW48657   0.600   3.137   5.524 -0.1021 -0.4289 -0.0335
14232SOL    HW148658   0.616   3.131   5.618  1.8271 -2.3167 -0.4081
14232SOL    HW248659   0.611   3.230   5.504 -0.5226  0.0033  1.5619
14233SOL     OW48660   7.241   1.663   2.203  0.8054  0.8303  0.2579
14233SOL    HW148661   7.208   1.742   2.247  0.7970  0.3530  1.1269
14233SOL    HW248662   7.163   1.617   2.174  0.7548  0.5458  0.8236
14234SOL     OW48663   4.017   7.631   3.647  0.2782  0.1166  0.5460
14234SOL    HW148664   3.960   7.701   3.616 -0.1308 -0.7485 -0.7038
14234SOL    HW248665   4.060   7.668   3.725 -1.3670  1.0654  1.0439
14235SOL     OW48666   1.976   1.183   0.541 -0.2459 -0.0803 -0.2064
14235SOL    HW148667   2.044   1.163   0.477 -0.5786 -0.1406 -0.5459
14235SOL    HW248668   2.009   1.145   0.623 -0.1260 -0.6052 -0.4895
14236SOL     OW48669   5.163   7.327   7.790  0.6520 -0.4889  0.3068
14236SOL    HW148670   5.206   7.356   7.709  2.0503  0.2249  1.2582
14236SOL    HW248671   5.215   7.253   7.820  0.8307 -0.0404  1.1332
14237SOL     OW48672   1.603   4.822   1.118  0.3276 -0.0977  0.2511
14237SOL    HW148673   1.540   4.750   1.122 -1.5542  1.4664  4.4799
14237SOL    HW248674   1.565   4.885   1.057 -1.5329  0.1832  1.6449
14238SOL     OW48675   8.929   1.317   0.793  0.0646  0.1997 -0.3057
14238SOL    HW148676   8.945   1.410   0.811 -1.8643  1.0658 -2.4744
14238SOL    HW248677   8.836   1.304   0.812  0.5654 -1.6588  1.1407
14239SOL     OW48678   7.994   4.129   4.520  0.3772  0.2698  0.5572
14239SOL    HW148679   7.960   4.189   4.586  1.6209  1.9371 -0.2428
14239SOL    HW248680   7.957   4.044   4.543 -2.2979  1.4899  1.1537
14240SOL     OW48681   1.305   2.566   1.518 -0.1919 -0.5289 -0.2256
14240SOL    HW148682   1.222   2.562   1.470  0.4252 -0.1182 -1.3582
14240SOL    HW248683   1.365   2.609   1.458  2.0797 -4.5515 -1.1823
14241SOL     OW48684   6.839   3.161   2.498  0.2983 -0.6099 -0.2597
14241SOL    HW148685   6.914   3.198   2.451  0.6874 -0.2079  0.6644
14241SOL    HW248686   6.878   3.119   2.575 -0.4522 -0.1445  0.3834
14242SOL     OW48687   7.713   0.462   3.794  0.0823  0.1764  0.2430
14242SOL    HW148688   7.678   0.460   3.705 -0.5990  0.1921  0.5014
14242SOL    HW248689   7.723   0.369   3.818 -0.5906  0.1553  0.4687
14243SOL     OW48690   3.636   5.711   0.519  0.0718  0.3221 -0.4286
14243SOL    HW148691   3.591   5.686   0.438  0.4778  0.3629 -0.6684
14243SOL    HW248692   3.581   5.675   0.588 -0.9180  1.3020 -0.6676
14244SOL     OW48693   7.124   1.322   5.961  0.0966  0.0735  0.0252
14244SOL    HW148694   7.205   1.281   5.990 -0.2902 -1.1052 -0.5003
14244SOL    HW248695   7.149   1.377   5.887  0.5017  0.1726  0.2342
14245SOL     OW48696   7.930   5.813   3.040  0.2096 -0.0896 -0.3625
14245SOL    HW148697   8.005   5.854   3.083  0.2164  2.3816 -2.4649
14245SOL    HW248698   7.861   5.880   3.043 -0.6241 -0.8338 -1.7947
14246SOL     OW48699   4.166   7.808   2.505 -0.0383  0.1222 -0.0793
14246SOL    HW148700   4.257   7.785   2.526 -0.4960  0.2491  2.3298
14246SOL    HW248701   4.173   7.868   2.431  1.6136 -2.3206 -2.0966
14247SOL     OW48702   8.331   7.669   3.549  0.5868 -0.1459 -0.0554
14247SOL    HW148703   8.381   7.750   3.536  0.1601  0.0482 -0.5400
14247SOL    HW248704   8.274   7.687   3.623  0.0806  0.2127 -0.5180
14248SOL     OW48705   4.684   0.944   7.934  0.1208 -0.3331  0.0064
14248SOL    HW148706   4.597   0.959   7.971 -1.2176 -0.1048 -2.9865
14248SOL    HW248707   4.716   0.865   7.977 -2.3111 -1.4095 -0.0472
14249SOL     OW48708   9.027   4.098   1.257  0.6361  0.1085  0.6671
14249SOL    HW148709   8.985   4.046   1.188 -1.1733  1.9917  0.2689
14249SOL    HW248710   8.971   4.086   1.334  1.0164  0.3299  0.9826
14250SOL     OW48711   1.418   0.218   8.679 -0.6814 -0.4898 -0.3049
14250SOL    HW148712   1.474   0.185   8.608  0.1392 -0.1415  0.1653
14250SOL    HW248713   1.353   0.272   8.635 -1.3299 -1.7579 -0.9734
14251SOL     OW48714   8.340   3.357   7.790  0.2490  0.4134  0.1152
14251SOL    HW148715   8.361   3.286   7.730 -2.2344 -0.0727 -0.3034
14251SOL    HW248716   8.332   3.316   7.876 -2.7818 -0.2453 -0.3769
14252SOL     OW48717   0.721   8.939   1.977  0.2429 -0.1152 -0.0076
14252SOL    HW148718   0.792   8.876   1.974  0.9672  0.6631  0.4158
14252SOL    HW248719   0.763   9.024   1.968 -0.6601  0.3480 -0.0364
14253SOL     OW48720   6.896   8.230   2.868  0.3451 -0.2658  0.1598
14253SOL    HW148721   6.902   8.269   2.955  0.6320 -0.9592  0.4559
14253SOL    HW248722   6.915   8.303   2.808  1.9513 -0.1553  0.7354
14254SOL     OW48723   2.710   1.296   5.515  0.2568 -0.2466 -0.4515
14254SOL    HW148724   2.714   1.388   5.542 -2.3542  0.9026 -3.4563
14254SOL    HW248725   2.767   1.290   5.439  0.3654 -1.1192 -0.3154
14255SOL     OW48726   1.743   1.227   7.211 -0.8128 -0.3646 -0.0776
14255SOL    HW148727   1.687   1.152   7.229 -2.4713  1.3183  2.5380
14255SOL    HW248728   1.831   1.198   7.234 -1.5506 -1.2912  1.7955
14256SOL     OW48729   5.481   6.864   4.297 -0.3209 -0.0559 -0.4353
14256SOL    HW148730   5.475   6.810   4.219  0.0651  0.2539 -0.6856
14256SOL    HW248731   5.393   6.864   4.334 -0.5209 -0.1516 -0.9056
14257SOL     OW48732   2.230   5.111   4.385  0.1131  0.0356 -0.0027
14257SOL    HW148733   2.261   5.038   4.439 -2.1235 -0.3895  0.8086
14257SOL    HW248734   2.310   5.146   4.345  1.6541 -0.7788  2.1291
14258SOL     OW48735   1.725   2.747   0.892  0.0241 -0.1547 -0.1984
14258SOL    HW148736   1.793   2.681   0.900  0.0195 -0.2051 -0.5444
14258SOL    HW248737   1.653   2.716   0.947  1.0157  0.8801  1.8196
14259SOL     OW48738   7.924   5.794   2.347 -0.0000 -0.2082  0.2078
14259SOL    HW148739   7.931   5.889   2.357  1.9664 -0.1025 -1.3809
14259SOL    HW248740   7.833   5.774   2.369 -0.8523  2.2261 -0.7220
14260SOL     OW48741   3.393   2.677   1.396 -0.0450  0.0004 -0.0003
14260SOL    HW148742   3.397   2.650   1.488  2.5154 -1.2940 -0.3841
14260SOL    HW248743   3.479   2.715   1.379 -0.9376  1.4230 -1.5522
14261SOL     OW48744   5.064   5.007   3.799  0.2426 -0.7746 -0.3336
14261SOL    HW148745   5.133   5.048   3.746  0.2616 -0.9763 -0.4674
14261SOL    HW248746   5.100   4.922   3.823 -0.2164 -1.1551 -0.9583
14262SOL     OW48747   5.666   5.934   5.354  0.0780  0.7950 -0.2960
14262SOL    HW148748   5.694   5.870   5.288 -1.8952 -1.5173  0.9404
14262SOL    HW248749   5.676   5.888   5.437 -2.6724  1.5744  0.5437
14263SOL     OW48750   5.897   1.928   7.668 -0.1558  0.1454  0.0166
14263SOL    HW148751   5.873   1.973   7.587 -1.5154 -0.6775 -0.0673
14263SOL    HW248752   5.912   1.999   7.730 -2.2925  0.7804 -0.1062
14264SOL     OW48753   0.228   4.390   2.327 -0.1057  0.3354  0.1885
14264SOL    HW148754   0.158   4.337   2.290  0.6110 -1.5899  1.4133
14264SOL    HW248755   0.233   4.467   2.270  0.4919 -2.0565 -3.2960
14265SOL     OW48756   7.509   0.865   6.119  0.3090 -0.0645  0.5463
14265SOL    HW148757   7.564   0.787   6.117 -0.3039 -0.4979 -0.7523
14265SOL    HW248758   7.557   0.930   6.068  0.0995 -0.1180  0.2744
14266SOL     OW48759   8.789   1.642   6.405 -0.5029 -0.0047  0.6766
14266SOL    HW148760   8.870   1.636   6.355 -0.3791 -1.6948  1.0285
14266SOL    HW248761   8.746   1.720   6.371  0.0690 -0.5045 -1.3371
14267SOL     OW48762   2.509   3.005   1.397 -0.6561 -0.7279  0.2565
14267SOL    HW148763   2.551   3.047   1.323 -0.5270  1.0731  1.2918
14267SOL    HW248764   2.415   3.009   1.377 -0.5825 -0.8831 -0.1190
14268SOL     OW48765   8.755   4.912   7.023 -0.0993  0.6790  0.0385
14268SOL    HW148766   8.806   4.852   7.077 -2.9300 -1.3143  0.7619
14268SOL    HW248767   8.711   4.969   7.086 -2.2420 -0.6669 -0.1437
14269SOL     OW48768   2.518   3.290   6.168  0.2160 -0.2152 -0.2381
14269SOL    HW148769   2.517   3.382   6.196  2.1385  0.1183 -1.1625
14269SOL    HW248770   2.469   3.290   6.086 -0.3452 -0.1554  0.0870
14270SOL     OW48771   4.832   5.777   2.811 -0.3394 -0.0400  0.1894
14270SOL    HW148772   4.808   5.685   2.821 -1.4486  0.2177  0.0424
14270SOL    HW248773   4.911   5.787   2.864  0.8561 -1.4894 -1.2266
14271SOL     OW48774   0.808   5.064   3.925  0.3308  0.1685 -0.1137
14271SOL    HW148775   0.799   5.058   4.021  1.3732  0.1814 -0.0079
14271SOL    HW248776   0.850   4.982   3.900 -0.3401 -0.0241 -0.6226
14272SOL     OW48777   7.680   8.902   0.711  0.3781  0.0237  0.0251
14272SOL    HW148778   7.609   8.963   0.733 -0.2042 -1.0760  1.3304
14272SOL    HW248779   7.717   8.938   0.630 -0.7209  1.4299  0.0900
14273SOL     OW48780   8.054   7.981   2.970  0.4161 -0.2864  0.2714
14273SOL    HW148781   8.091   7.947   2.888 -1.3394 -3.4806  0.6395
14273SOL    HW248782   7.982   8.038   2.941  0.4753 -0.5539 -0.4217
14274SOL     OW48783   7.516   3.613   0.293 -0.3315 -0.0224 -0.3133
14274SOL    HW148784   7.540   3.683   0.233  0.2837 -1.3475 -1.6788
14274SOL    HW248785   7.457   3.557   0.243 -0.6362 -0.6073  0.6718
14275SOL     OW48786   2.322   0.094   8.986  0.1104 -0.4011 -0.0203
14275SOL    HW148787   2.251   0.030   8.979  0.6897 -0.9609 -0.8569
14275SOL    HW248788   2.402   0.043   8.982  0.5726  0.2459  0.7588
14276SOL     OW48789   5.166   8.332   0.022 -0.5258  0.3955  0.0279
14276SOL    HW148790   5.143   8.297  -0.064  0.0338  2.0442 -0.8295
14276SOL    HW248791   5.085   8.370   0.055 -0.6925 -0.0599  0.1561
14277SOL     OW48792   0.852   0.899   6.616  0.0938 -0.5992  0.6860
14277SOL    HW148793   0.872   0.979   6.567  1.5979 -1.1991  0.2837
14277SOL    HW248794   0.756   0.892   6.611 -0.0385  0.9676  0.4156
14278SOL     OW48795   6.373   3.849   8.247 -0.1575 -0.1373 -0.4116
14278SOL    HW148796   6.322   3.855   8.166  0.0445  1.2376 -0.4711
14278SOL    HW248797   6.308   3.842   8.317 -0.3112 -2.7031 -0.7444
14279SOL     OW48798   4.421   5.441   6.627 -0.2303  0.5427  0.1445
14279SOL    HW148799   4.336   5.459   6.588 -0.4080  1.1483  0.7857
14279SOL    HW248800   4.425   5.346   6.635  0.4972  0.2204 -2.8395
14280SOL     OW48801   6.043   3.103   5.617  0.0475  0.0539 -0.0547
14280SOL    HW148802   6.044   3.043   5.543  0.7108 -0.1009  0.0734
14280SOL    HW248803   6.095   3.059   5.685  1.2928  1.1126 -0.2626
14281SOL     OW48804   6.145   1.836   4.691  0.3041  0.3279  0.2472
14281SOL    HW148805   6.225   1.786   4.709  0.9093  0.1455 -2.5405
14281SOL    HW248806   6.176   1.919   4.655 -0.7856  1.2436  1.2948
14282SOL     OW48807   6.654   7.097   2.650  0.6916  0.0976 -0.5665
14282SOL    HW148808   6.596   7.025   2.625 -0.2942  0.8364 -0.4684
14282SOL    HW248809   6.610   7.139   2.724  1.6976  0.2568 -0.0448
14283SOL     OW48810   8.013   3.118   1.845  0.0007  0.3556 -0.4879
14283SOL    HW148811   8.058   3.198   1.818 -0.1807  0.2924 -0.9955
14283SOL    HW248812   7.995   3.072   1.763 -1.9457  0.8908 -0.3907
14284SOL     OW48813   6.072   6.858   4.596  0.4886 -0.3817  0.2942
14284SOL    HW148814   5.995   6.840   4.541  1.1280 -0.7504 -0.5139
14284SOL    HW248815   6.092   6.950   4.579  0.2115 -0.2809  0.5190
14285SOL     OW48816   9.268   2.887   3.667 -0.1738  0.8186 -0.2093
14285SOL    HW148817   9.179   2.890   3.632 -0.4918  0.0387  0.4734
14285SOL    HW248818   9.313   2.960   3.625 -0.7393  0.3841 -1.6215
14286SOL     OW48819   1.777   0.770   8.334  0.1573  0.3369  0.5585
14286SOL    HW148820   1.717   0.792   8.405 -1.3862  2.4314 -1.2666
14286SOL    HW248821   1.827   0.850   8.319 -0.3079  0.2975 -1.3825
14287SOL     OW48822   8.930   1.948   6.359  0.0806 -0.6405  0.4635
14287SOL    HW148823   9.022   1.973   6.363 -0.3942  1.3819 -0.1409
14287SOL    HW248824   8.906   1.926   6.449  1.1786 -1.3991  0.5907
14288SOL     OW48825   1.052   7.217   4.858 -0.1773 -0.5208 -0.9292
14288SOL    HW148826   1.089   7.146   4.806  0.1573 -0.5504 -0.6536
14288SOL    HW248827   1.056   7.185   4.948  0.8517  0.2244 -0.7011
14289SOL     OW48828   4.313   4.546   8.536  0.3030 -0.5640 -0.8078
14289SOL    HW148829   4.308   4.628   8.487  2.0503 -0.3556 -0.7055
14289SOL    HW248830   4.267   4.482   8.482 -2.1689  0.6955 -0.3274
14290SOL     OW48831   1.664   6.462   1.681  0.8450  0.1582  0.0153
14290SOL    HW148832   1.599   6.517   1.726  0.3218  0.0176 -0.5511
14290SOL    HW248833   1.747   6.508   1.692  0.1468  2.0287 -1.9753
14291SOL     OW48834   5.062   0.667   4.719  0.3910  0.0279 -0.3181
14291SOL    HW148835   5.121   0.619   4.778  0.5406  0.7782  0.1463
14291SOL    HW248836   4.977   0.623   4.730  0.7676 -0.8412 -0.7346
14292SOL     OW48837   4.532   0.736   5.693 -0.1631  0.2061  0.3782
14292SOL    HW148838   4.622   0.715   5.716 -0.8729 -2.0868  1.3310
14292SOL    HW248839   4.511   0.676   5.622 -1.1177  0.3407  0.5350
14293SOL     OW48840   3.257   4.850   1.705  0.3787  0.2671  0.2241
14293SOL    HW148841   3.274   4.893   1.621 -0.7371  0.4324  0.0591
14293SOL    HW248842   3.167   4.875   1.727  0.9252  0.9363  1.9048
14294SOL     OW48843   7.987   5.060   8.937  0.0326  0.0882 -0.1032
14294SOL    HW148844   7.945   5.140   8.903 -0.3312 -0.9702 -2.3717
14294SOL    HW248845   7.973   4.996   8.868  3.2295 -1.0351  0.1494
14295SOL     OW48846   2.218   6.351   6.181  0.7494 -0.0436  0.0504
14295SOL    HW148847   2.202   6.379   6.091 -0.2981 -1.5598 -0.2579
14295SOL    HW248848   2.260   6.266   6.173  3.0684  0.9073  0.9943
14296SOL     OW48849   3.839   7.678   0.337  0.7004 -0.0121  0.1598
14296SOL    HW148850   3.801   7.764   0.353 -1.4860 -0.8515 -0.1267
14296SOL    HW248851   3.864   7.646   0.424  1.0711  0.6946  0.3215
14297SOL     OW48852   6.891   1.276   1.419 -0.1444 -0.4274  0.2669
14297SOL    HW148853   6.854   1.350   1.466  0.0122  0.4549 -0.9577
14297SOL    HW248854   6.822   1.250   1.358 -0.0010 -0.9533  0.3233
14298SOL     OW48855   4.039   7.846   8.238  0.2714  0.1703  0.0050
14298SOL    HW148856   4.044   7.906   8.313 -1.4528  1.0109 -0.4932
14298SOL    HW248857   3.974   7.781   8.265  1.6306 -1.1156  0.2698
14299SOL     OW48858   6.331   5.193   4.760 -0.1177  0.4269 -0.5760
14299SOL    HW148859   6.272   5.118   4.752  0.8211 -0.3248 -0.6032
14299SOL    HW248860   6.354   5.196   4.852  0.7352 -0.0160 -0.7704
14300SOL     OW48861   0.612   7.632   8.389  0.3820  0.2295  0.3122
14300SOL    HW148862   0.533   7.631   8.335  1.4580  1.3178 -1.3582
14300SOL    HW248863   0.684   7.637   8.327  1.7128  0.9602  1.8300
14301SOL     OW48864   2.668   0.517   8.118  0.5634  0.2654  0.4688
14301SOL    HW148865   2.588   0.532   8.169 -1.1259  1.6175 -2.3318
14301SOL    HW248866   2.654   0.567   8.038  2.0802 -3.3792 -2.3255
14302SOL     OW48867   6.859   6.892   0.014  0.4185  0.0962  0.4456
14302SOL    HW148868   6.793   6.858   0.075  0.1608 -1.5400 -0.7058
14302SOL    HW248869   6.941   6.853   0.043  0.3539 -0.4015 -0.0406
14303SOL     OW48870   5.883   3.050   4.563 -0.0222  0.2862  0.2560
14303SOL    HW148871   5.911   3.045   4.471 -0.3759 -0.3957  0.1763
14303SOL    HW248872   5.802   3.100   4.560  0.2599  0.7523  0.2716
14304SOL     OW48873   5.316   5.075   2.444  0.1906  0.2369 -0.5882
14304SOL    HW148874   5.381   5.029   2.391 -0.9688 -0.6908 -1.2395
14304SOL    HW248875   5.368   5.135   2.498  1.4330  1.2625 -2.7790
14305SOL     OW48876   6.135   7.187   5.933 -0.1139  0.6000 -0.3560
14305SOL    HW148877   6.090   7.128   5.872  1.8149 -1.3017 -0.0648
14305SOL    HW248878   6.217   7.208   5.889  0.3950  0.8778  0.6894
14306SOL     OW48879   6.512   3.954   6.811  0.1480 -0.1900 -0.3289
14306SOL    HW148880   6.578   3.941   6.743 -0.2444 -0.2707 -0.7018
14306SOL    HW248881   6.524   4.045   6.840  0.6810 -0.3284 -0.1122
14307SOL     OW48882   1.225   0.386   7.545  0.0285  0.1462 -0.0487
14307SOL    HW148883   1.139   0.374   7.505  1.5250 -0.2623 -3.4924
14307SOL    HW248884   1.247   0.300   7.580 -0.3130 -0.1856 -0.6288
14308SOL     OW48885   2.862   7.887   8.732 -0.1754 -0.2263  0.3248
14308SOL    HW148886   2.865   7.938   8.651  1.1288 -1.6220 -0.5580
14308SOL    HW248887   2.954   7.871   8.755 -0.4870 -2.8089  0.1034
14309SOL     OW48888   6.789   5.668   2.497  0.1514 -0.4372  0.0513
14309SOL    HW148889   6.835   5.735   2.446 -0.8855 -0.3682 -0.8190
14309SOL    HW248890   6.824   5.585   2.464  0.7317 -0.3605  0.4522
14310SOL     OW48891   5.811   1.828   5.596  0.1899  0.0338  0.2302
14310SOL    HW148892   5.770   1.800   5.515  0.2325 -0.3525  0.3400
14310SOL    HW248893   5.762   1.782   5.665 -0.4148  1.0241  0.4875
14311SOL     OW48894   1.848   6.976   8.740  0.1179 -0.1564 -0.4123
14311SOL    HW148895   1.808   6.944   8.660 -0.9392 -2.7239  1.0376
14311SOL    HW248896   1.849   7.071   8.730  0.7637 -0.4208 -3.7533
14312SOL     OW48897   4.431   2.500   4.695  0.2328 -0.5614 -0.5907
14312SOL    HW148898   4.387   2.417   4.678 -0.6989 -0.5919  1.5960
14312SOL    HW248899   4.435   2.506   4.791  0.1185  1.9811 -0.6701
14313SOL     OW48900   1.387   1.764   1.271  0.0346 -0.2551  0.0788
14313SOL    HW148901   1.372   1.683   1.318  0.1070 -0.5174 -0.3495
14313SOL    HW248902   1.466   1.748   1.220 -0.4283 -0.2130 -0.6626
14314SOL     OW48903   8.538   4.748   3.290 -0.4023 -0.1863  0.1690
14314SOL    HW148904   8.599   4.748   3.364  0.4578 -1.3294 -0.5113
14314SOL    HW248905   8.526   4.841   3.269  0.0306  0.1155  1.1744
14315SOL     OW48906   0.051   2.488   0.247  0.0605  0.0292  0.3159
14315SOL    HW148907   0.120   2.430   0.214  1.8178  2.1379  0.1288
14315SOL    HW248908   0.040   2.461   0.339  2.5460  0.8791  0.9284
14316SOL     OW48909   1.940   3.072   3.086 -0.3370 -0.0184 -0.1537
14316SOL    HW148910   1.979   3.156   3.062 -0.3200 -0.7003 -2.8734
14316SOL    HW248911   1.987   3.046   3.165  0.9210  1.7031 -0.2737
14317SOL     OW48912   2.260   4.416   1.788 -0.1496  0.0060  0.4973
14317SOL    HW148913   2.355   4.430   1.784 -0.3213  0.8400 -1.3596
14317SOL    HW248914   2.247   4.329   1.749 -0.2868  0.7178 -1.1127
14318SOL     OW48915   4.871   3.821   4.831  0.7504 -0.1668 -0.0650
14318SOL    HW148916   4.863   3.764   4.755  0.9590 -1.0179  0.5434
14318SOL    HW248917   4.964   3.820   4.852  0.5770 -0.5842  0.6927
14319SOL     OW48918   6.923   5.234   0.026  0.5772  0.1938 -0.0971
14319SOL    HW148919   6.949   5.325   0.038  0.8185  0.1271 -0.1091
14319SOL    HW248920   6.937   5.217  -0.067  2.3633 -0.4125  0.2383
14320SOL     OW48921   8.583   9.002   8.359  0.7842  0.1213  0.3438
14320SOL    HW148922   8.564   8.908   8.359 -0.9880  0.4368  0.9222
14320SOL    HW248923   8.579   9.027   8.451 -2.3963  1.3391  0.0267
14321SOL     OW48924   5.115   7.576   7.921 -0.2913 -0.2001  0.3445
14321SOL    HW148925   5.124   7.490   7.881 -0.2616 -0.1647  0.2744
14321SOL    HW248926   5.172   7.573   7.998 -0.6051 -0.3809  0.5718
14322SOL     OW48927   6.000   0.579   1.214  0.5529 -0.3661 -0.5940
14322SOL    HW148928   5.984   0.519   1.287 -0.6677 -0.0612 -0.5896
14322SOL    HW248929   5.921   0.573   1.161  1.0468  0.1158 -1.4074
14323SOL     OW48930   7.770   6.493   5.334 -0.1925  0.1774 -0.3715
14323SOL    HW148931   7.797   6.584   5.326  0.4615  0.4874  3.4617
14323SOL    HW248932   7.842   6.451   5.381 -2.0038 -1.3943  1.1801
14324SOL     OW48933   7.403   5.966   3.247 -0.5258 -0.0779 -0.1565
14324SOL    HW148934   7.361   6.018   3.316 -1.3679 -1.7330  0.6285
14324SOL    HW248935   7.364   5.997   3.166 -1.2224  0.3163  0.3224
14325SOL     OW48936   2.255   3.795   4.555  0.1705 -0.3409  0.1652
14325SOL    HW148937   2.187   3.767   4.495 -2.3349 -0.1308  2.7087
14325SOL    HW248938   2.296   3.713   4.585 -0.5701 -0.6438  0.3662
14326SOL     OW48939   3.454   5.446   1.775 -0.0181 -0.4822  0.3300
14326SOL    HW148940   3.483   5.490   1.855 -0.6212  0.3282  0.1135
14326SOL    HW248941   3.446   5.516   1.710 -0.4018 -0.9990 -0.1955
14327SOL     OW48942   8.822   5.618   7.749 -0.5224 -0.0857  0.7717
14327SOL    HW148943   8.864   5.663   7.676 -1.9679 -0.7987 -0.5535
14327SOL    HW248944   8.781   5.541   7.710 -0.1291 -1.2966  2.5821
14328SOL     OW48945   6.946   5.904   6.165 -0.0465  0.3887 -0.1576
14328SOL    HW148946   6.929   5.945   6.251  2.1296  0.7921  0.1362
14328SOL    HW248947   6.898   5.821   6.168  1.8323 -0.7293  2.4386
14329SOL     OW48948   0.133   8.786   9.330 -0.5026 -0.3331  0.3111
14329SOL    HW148949   0.121   8.805   9.237 -2.4967 -1.1850  0.3400
14329SOL    HW248950   0.116   8.869   9.374 -0.3997 -0.1244 -0.0401
14330SOL     OW48951   4.592   3.243   6.190  0.4500 -0.6129  0.3465
14330SOL    HW148952   4.646   3.261   6.266  1.0448 -0.3744 -0.1216
14330SOL    HW248953   4.549   3.160   6.210 -0.9431  0.4033  1.7733
14331SOL     OW48954   0.364   1.468   6.708 -0.0306 -0.1460 -0.1583
14331SOL    HW148955   0.295   1.533   6.707  0.3186  0.2230 -0.6977
14331SOL    HW248956   0.320   1.386   6.731 -0.6574  0.0655 -0.5936
14332SOL     OW48957   0.569   3.625   4.321  0.0192  0.2097 -0.1064
14332SOL    HW148958   0.657   3.658   4.338  0.2675 -0.7849  0.5806
14332SOL    HW248959   0.513   3.703   4.327  0.4328  0.4123  2.6806
14333SOL     OW48960   2.818   5.504   5.724  0.1390 -0.1219  0.3645
14333SOL    HW148961   2.754   5.434   5.714 -1.5762  1.2745  1.1053
14333SOL    HW248962   2.879   5.491   5.652 -1.2915 -1.1562 -0.7235
14334SOL     OW48963   3.185   5.922   0.439  0.3417 -0.2701  0.7782
14334SOL    HW148964   3.262   5.892   0.487 -0.5981 -2.1999  1.1776
14334SOL    HW248965   3.199   5.892   0.349  0.4166  0.1016  0.6631
14335SOL     OW48966   3.631   1.175   4.137  0.1127 -0.2997 -0.9820
14335SOL    HW148967   3.687   1.247   4.166 -2.1061  1.5394 -1.0149
14335SOL    HW248968   3.590   1.143   4.217 -1.0154  0.3869 -1.2589
14336SOL     OW48969   5.944   4.806   5.364 -0.0672  0.7429  0.1670
14336SOL    HW148970   5.913   4.769   5.447 -1.4656  1.4035 -0.0177
14336SOL    HW248971   5.993   4.735   5.323  0.3765  0.3018  1.4036
14337SOL     OW48972   5.276   7.172   8.110 -0.1075  0.0656  0.4132
14337SOL    HW148973   5.368   7.179   8.083  0.3338  1.2920  2.0561
14337SOL    HW248974   5.262   7.079   8.125  0.4003 -0.3254 -1.2728
14338SOL     OW48975   7.655   2.545   4.810 -0.4009 -0.1265 -0.1392
14338SOL    HW148976   7.673   2.552   4.717 -0.4795  0.1485 -0.1345
14338SOL    HW248977   7.741   2.554   4.852 -0.2125 -1.3907 -0.2354
14339SOL     OW48978   7.795   8.237   8.761  0.1221 -0.2988  0.3439
14339SOL    HW148979   7.841   8.240   8.677 -1.5571 -0.0226 -0.6098
14339SOL    HW248980   7.707   8.270   8.742 -0.6304 -1.1985  2.0034
14340SOL     OW48981   5.705   0.838   8.285 -0.1403 -0.3566  0.1416
14340SOL    HW148982   5.621   0.870   8.319 -0.1178 -1.3241  1.1906
14340SOL    HW248983   5.753   0.813   8.364  1.3395  0.6453 -0.4177
14341SOL     OW48984   5.991   6.732   8.115  0.1615  0.0644 -0.3025
14341SOL    HW148985   6.041   6.651   8.129  1.6552  0.9636 -0.2358
14341SOL    HW248986   6.057   6.798   8.098 -1.0607  1.2132 -0.7520
14342SOL     OW48987   2.081   7.555   7.499  0.1062 -0.5007  0.0811
14342SOL    HW148988   2.028   7.632   7.481  1.4413  0.9795  2.0534
14342SOL    HW248989   2.058   7.493   7.429  0.0465  2.1801 -2.4847
14343SOL     OW48990   4.009   2.657   0.627  0.0922  0.4253 -0.4428
14343SOL    HW148991   3.964   2.740   0.613  0.1501  0.5426  0.0351
14343SOL    HW248992   4.011   2.647   0.722  0.3135  0.0020 -0.4901
14344SOL     OW48993   0.980   6.280   7.974  0.1520 -0.2073  0.5216
14344SOL    HW148994   1.006   6.321   7.892  0.3858  0.4025  0.8908
14344SOL    HW248995   0.890   6.309   7.988 -0.7246 -2.1640 -0.6591
14345SOL     OW48996   6.692   0.901   8.123  0.0189  0.5288 -0.3187
14345SOL    HW148997   6.701   0.825   8.065  0.8070  0.2316  0.1631
14345SOL    HW248998   6.782   0.919   8.152 -0.3557  0.6196  0.8516
14346SOL     OW48999   5.458   2.460   5.361  0.2320 -0.3416 -0.5595
14346SOL    HW149000   5.513   2.397   5.407  0.4302  0.1355 -0.1245
14346SOL    HW249001   5.495   2.465   5.273 -0.2509 -1.3866 -0.8331
14347SOL     OW49002   5.325   1.742   5.454  0.6541  0.5785 -0.0165
14347SOL    HW149003   5.309   1.802   5.381 -0.5082 -0.4008 -0.6102
14347SOL    HW249004   5.313   1.795   5.533 -1.4144  0.9376 -0.5149
14348SOL     OW49005   8.196   2.338   4.558  0.1752  0.3425 -0.5859
14348SOL    HW149006   8.214   2.431   4.546 -1.1414  0.8993  1.1791
14348SOL    HW249007   8.204   2.324   4.652  0.0409 -1.2741 -0.7831
14349SOL     OW49008   8.439   4.015   7.588  0.6660  0.4205 -0.0036
14349SOL    HW149009   8.352   4.044   7.561 -0.1288 -1.4518  0.3822
14349SOL    HW249010   8.496   4.038   7.515 -0.8567 -1.7057 -2.0287
14350SOL     OW49011   6.867   1.945   8.308  0.4847  0.2191  0.9493
14350SOL    HW149012   6.839   1.978   8.222  0.7204  0.2988  0.9030
14350SOL    HW249013   6.925   1.872   8.287 -0.6109 -0.7039  1.0541
14351SOL     OW49014   1.647   4.430   0.554 -0.2151 -0.7341  0.0008
14351SOL    HW149015   1.599   4.511   0.536  2.4229  0.2783 -3.5902
14351SOL    HW249016   1.633   4.376   0.477  2.1010 -1.4974  0.0475
14352SOL     OW49017   7.823   7.141   7.287 -0.1347  0.3455 -0.8504
14352SOL    HW149018   7.829   7.190   7.206 -0.4982 -0.2186 -1.2251
14352SOL    HW249019   7.881   7.188   7.348  1.6880 -0.3155 -1.9911
14353SOL     OW49020   7.857   1.513   1.050  0.0627  0.2014 -0.3802
14353SOL    HW149021   7.811   1.576   1.106 -0.2911  1.0272 -1.5588
14353SOL    HW249022   7.892   1.566   0.979  0.3250 -0.8512 -1.0488
14354SOL     OW49023   5.424   4.483   2.633 -0.2356 -0.8892 -0.3166
14354SOL    HW149024   5.382   4.422   2.693  0.2682  0.0459  1.0357
14354SOL    HW249025   5.355   4.508   2.571 -0.8631 -1.6047  0.0848
14355SOL     OW49026   8.895   7.162   0.738 -0.4267  0.3907  0.3527
14355SOL    HW149027   8.922   7.084   0.688 -1.2330 -0.1036  0.6595
14355SOL    HW249028   8.815   7.191   0.694 -0.6166  0.5136  0.7783
14356SOL     OW49029   6.934   5.720   0.662 -0.1738  0.2174  0.0706
14356SOL    HW149030   6.995   5.656   0.626 -1.4673 -1.2086  0.3425
14356SOL    HW249031   6.926   5.696   0.755 -1.5194  0.0632 -0.0687
14357SOL     OW49032   0.493   4.476   1.897 -0.4700 -0.1079  0.3860
14357SOL    HW149033   0.513   4.569   1.892 -0.2730  0.0678  3.0096
14357SOL    HW249034   0.401   4.470   1.871 -0.1231  0.5901 -1.1060
14358SOL     OW49035   1.510   2.142   1.914 -0.1830  0.0785  0.1451
14358SOL    HW149036   1.470   2.124   1.829  1.4267 -0.4732 -0.5383
14358SOL    HW249037   1.472   2.225   1.941  0.8917  1.4529 -2.2067
14359SOL     OW49038   4.168   8.856   5.246 -0.8767  0.1495  0.5491
14359SOL    HW149039   4.115   8.832   5.170  1.2284 -2.1698 -0.2900
14359SOL    HW249040   4.152   8.950   5.257 -2.2900  0.2755 -1.8903
14360SOL     OW49041   6.334   7.597   4.621 -0.0547  0.3763 -0.2937
14360SOL    HW149042   6.276   7.669   4.596 -0.7344 -0.7196 -2.0397
14360SOL    HW249043   6.407   7.640   4.665 -1.7687  1.8737  1.2750
14361SOL     OW49044   3.380   9.263   7.750  0.2360 -0.4097  0.1854
14361SOL    HW149045   3.450   9.220   7.700  2.0689 -0.0701  2.2904
14361SOL    HW249046   3.425   9.299   7.827 -2.4784 -1.2122  2.2789
14362SOL     OW49047   2.753   3.116   8.436 -0.1464 -0.4089  0.6509
14362SOL    HW149048   2.692   3.115   8.510  0.6629  0.5799  1.3568
14362SOL    HW249049   2.812   3.189   8.454  1.4160 -1.4890  0.1134
14363SOL     OW49050   2.250   4.687   1.747  0.1618 -0.5785 -0.9976
14363SOL    HW149051   2.334   4.697   1.702  0.1699 -1.2451 -1.1414
14363SOL    HW249052   2.240   4.592   1.759  0.6787 -0.4133  1.3770
14364SOL     OW49053   3.337   8.867   8.280  0.6895 -0.2553  0.6087
14364SOL    HW149054   3.381   8.791   8.319  1.1879  0.2741  1.0900
14364SOL    HW249055   3.282   8.902   8.350 -1.5633 -1.6712 -0.3475
14365SOL     OW49056   4.054   4.709   4.526  0.1231  0.4008 -0.4486
14365SOL    HW149057   4.068   4.786   4.472  0.3010  1.7411  1.4002
14365SOL    HW249058   4.077   4.737   4.615 -2.1122 -1.0381  0.7104
14366SOL     OW49059   7.026   6.687   4.773  0.2107  0.4294  0.1646
14366SOL    HW149060   6.990   6.617   4.827  0.7296  1.7521  2.4030
14366SOL    HW249061   7.121   6.677   4.781  0.3513  2.4600  2.2297
14367SOL     OW49062   3.884   5.841   0.140  0.1598  0.0989  0.0612
14367SOL    HW149063   3.907   5.752   0.115 -1.1790 -0.3763  0.4076
14367SOL    HW249064   3.858   5.834   0.232  0.4117  0.9164  0.2030
14368SOL     OW49065   6.868   8.285   7.239 -0.6849 -0.6901  0.2930
14368SOL    HW149066   6.878   8.332   7.322 -2.2996 -2.7754  1.7835
14368SOL    HW249067   6.792   8.325   7.198 -0.1408  0.0581 -0.0163
14369SOL     OW49068   1.098   3.457   8.808 -0.0588  0.1051  0.4411
14369SOL    HW149069   1.005   3.449   8.787 -0.2249 -0.2257  1.2655
14369SOL    HW249070   1.142   3.402   8.744 -0.6768 -2.2847  1.9549
14370SOL     OW49071   5.347   4.455   7.792 -0.2794  0.2233 -0.0204
14370SOL    HW149072   5.439   4.453   7.766 -0.5591  2.1203 -1.3946
14370SOL    HW249073   5.308   4.380   7.748  0.2734  0.4464 -0.9145
14371SOL     OW49074   8.584   6.309   4.061 -0.3626 -0.2060 -0.1305
14371SOL    HW149075   8.629   6.376   4.111  1.6745 -1.6545  0.1325
14371SOL    HW249076   8.642   6.292   3.986 -0.5609 -1.9170  0.0464
14372SOL     OW49077   8.802   6.123   5.839 -0.2187  0.1341 -0.4852
14372SOL    HW149078   8.766   6.210   5.852  0.3933  0.2283  0.7742
14372SOL    HW249079   8.896   6.137   5.832  0.2713 -0.6104  2.8295
14373SOL     OW49080   8.255   4.845   3.091  0.3795  0.2232 -0.0781
14373SOL    HW149081   8.312   4.902   3.142  1.9169 -0.5718 -0.8302
14373SOL    HW249082   8.311   4.771   3.066 -1.2576 -1.1173  0.0049
14374SOL     OW49083   6.162   1.405   1.323  0.0430  0.3296 -0.4247
14374SOL    HW149084   6.218   1.345   1.373 -0.7444  0.7139  0.9890
14374SOL    HW249085   6.218   1.481   1.305 -0.1363  1.0086  1.5647
14375SOL     OW49086   1.522   1.924   1.444 -0.0596  0.2176 -0.1658
14375SOL    HW149087   1.596   1.868   1.418 -0.1829 -0.1213  0.2063
14375SOL    HW249088   1.448   1.891   1.393  0.3338  1.4501 -1.5931
14376SOL     OW49089   6.202   4.712   7.930  0.4166 -0.3409 -0.5240
14376SOL    HW149090   6.160   4.798   7.925 -1.3148 -1.1267 -0.4345
14376SOL    HW249091   6.229   4.704   8.022 -1.0431 -0.5645 -0.0809
14377SOL     OW49092   6.490   1.292   3.544  0.4078 -0.1613 -0.2983
14377SOL    HW149093   6.579   1.261   3.524  0.4210  0.4904 -1.3189
14377SOL    HW249094   6.496   1.326   3.633  0.5893 -2.2913  0.5762
14378SOL     OW49095   2.892   0.430   6.601  0.2208 -0.2596  0.5583
14378SOL    HW149096   2.829   0.404   6.668  2.4102 -2.9256  1.7785
14378SOL    HW249097   2.882   0.364   6.532  1.6058 -0.6968  0.7555
14379SOL     OW49098   6.958   5.887   3.661 -0.3311 -0.0744  0.0693
14379SOL    HW149099   6.934   5.925   3.746 -1.0455 -3.0080  1.3062
14379SOL    HW249100   7.053   5.895   3.658 -0.3430  0.5420  0.9055
14380SOL     OW49101   2.776   7.422   1.572 -0.6099  0.4431 -0.0202
14380SOL    HW149102   2.846   7.453   1.515 -2.2988 -0.0188 -2.5009
14380SOL    HW249103   2.717   7.372   1.514 -2.3801 -0.1919  2.1580
14381SOL     OW49104   4.505   6.548   1.539 -0.2340  0.4628  0.1945
14381SOL    HW149105   4.414   6.544   1.511 -0.7444 -1.3912  1.8718
14381SOL    HW249106   4.531   6.456   1.550  1.0659  0.9857  2.0313
14382SOL     OW49107   6.429   1.358   4.274  0.4192  0.7109 -0.0609
14382SOL    HW149108   6.424   1.438   4.325  0.2468  1.1570 -0.7687
14382SOL    HW249109   6.393   1.381   4.188  0.1883 -0.1692 -0.2150
14383SOL     OW49110   1.502   8.877   2.053  0.1180  0.3408 -0.3245
14383SOL    HW149111   1.511   8.958   2.002 -1.8213  0.9696  0.2290
14383SOL    HW249112   1.511   8.905   2.144 -0.6126 -0.0376 -0.1260
14384SOL     OW49113   6.108   4.452   3.328 -0.3456 -0.4485 -0.8124
14384SOL    HW149114   6.056   4.475   3.405 -0.1664  0.1991 -0.8875
14384SOL    HW249115   6.188   4.503   3.336 -0.5191 -0.0316 -1.6591
14385SOL     OW49116   5.041   7.586   5.303 -0.3922 -0.4804 -0.0450
14385SOL    HW149117   5.126   7.551   5.330 -0.1711 -0.1626 -0.3212
14385SOL    HW249118   4.992   7.509   5.275  0.2189 -0.5356 -1.0030
14386SOL     OW49119   7.255   8.100   8.869 -0.2021 -0.1914 -0.1097
14386SOL    HW149120   7.202   8.021   8.874  0.4625 -0.6513 -0.2541
14386SOL    HW249121   7.241   8.144   8.953  0.2682 -1.0067  0.4051
14387SOL     OW49122   5.375   3.671   4.821  0.2653  0.0031 -0.2442
14387SOL    HW149123   5.424   3.679   4.739 -1.2192 -3.3587 -1.6520
14387SOL    HW249124   5.442   3.669   4.889  1.6252  1.4438 -1.4625
14388SOL     OW49125   5.494   1.443   0.990 -0.6072 -0.3050  0.2826
14388SOL    HW149126   5.507   1.537   0.979  1.3790 -0.7151 -1.4285
14388SOL    HW249127   5.566   1.415   1.047 -1.2262 -0.7964  0.8484
14389SOL     OW49128   6.008   1.297   0.088 -0.1860  0.1441  0.2425
14389SOL    HW149129   5.916   1.284   0.111  0.0477  0.1955  1.2572
14389SOL    HW249130   6.047   1.337   0.166  1.0086 -1.1687  0.3582
14390SOL     OW49131   6.844   4.015   0.476  0.1497  0.4003  0.7277
14390SOL    HW149132   6.833   3.923   0.449 -0.4599  0.0645  2.0585
14390SOL    HW249133   6.905   4.011   0.550  1.7396  1.2970 -0.4686
14391SOL     OW49134   6.108   8.032   9.264 -0.3610 -0.4139  0.0654
14391SOL    HW149135   6.088   8.107   9.321 -0.8816 -0.4664 -0.0439
14391SOL    HW249136   6.027   8.016   9.216 -0.1765 -0.8942 -0.0920
14392SOL     OW49137   6.918   6.408   6.000  0.0186  0.3698 -0.1102
14392SOL    HW149138   6.836   6.443   5.965  0.2616  0.5725 -0.4918
14392SOL    HW249139   6.985   6.435   5.936  0.5746  1.3156  0.8349
14393SOL     OW49140   3.838   5.639   8.529 -0.2076 -0.1583  0.0964
14393SOL    HW149141   3.825   5.546   8.551  1.1671 -0.3951  0.0128
14393SOL    HW249142   3.883   5.675   8.605 -0.6818  0.4460  0.1016
14394SOL     OW49143   8.164   7.161   6.156 -0.3735  0.7292 -0.1434
14394SOL    HW149144   8.160   7.183   6.249  0.0765  0.6944 -0.1149
14394SOL    HW249145   8.182   7.067   6.154  2.5918  1.1978 -0.2310
14395SOL     OW49146   4.872   0.461   5.684  0.5859  0.1640 -0.2748
14395SOL    HW149147   4.967   0.471   5.680  0.3648  2.3073 -1.9658
14395SOL    HW249148   4.849   0.416   5.603  0.1888 -1.1707  0.5407
14396SOL     OW49149   0.532   8.771   3.111  0.3584  0.0181 -0.3627
14396SOL    HW149150   0.539   8.727   3.026  1.9762  0.8211 -0.6806
14396SOL    HW249151   0.553   8.702   3.175  1.4689 -0.0447 -0.7725
14397SOL     OW49152   1.928   4.471   0.234  0.0333  0.4901  0.3920
14397SOL    HW149153   1.930   4.448   0.327 -2.0021 -1.0692  0.1204
14397SOL    HW249154   1.978   4.552   0.228  0.3612  0.5307  2.8102
14398SOL     OW49155   8.641   3.456   7.312 -0.3475 -0.1229  0.4166
14398SOL    HW149156   8.641   3.436   7.219  0.1732 -0.1353  0.4156
14398SOL    HW249157   8.550   3.475   7.333 -0.5011 -0.3454 -0.0460
14399SOL     OW49158   7.789   0.382   4.633 -0.3593  0.3841  0.3445
14399SOL    HW149159   7.854   0.453   4.638  1.1515 -1.0075  2.1163
14399SOL    HW249160   7.818   0.319   4.700 -3.2135 -0.6093  0.7611
14400SOL     OW49161   6.130   1.754   0.654  0.4504 -0.1190  0.7482
14400SOL    HW149162   6.147   1.679   0.711 -0.9418 -0.6466  0.5057
14400SOL    HW249163   6.196   1.818   0.679  1.5496 -1.3412  1.0907
14401SOL     OW49164   8.546   4.945   2.011  0.1885 -0.2430  0.7940
14401SOL    HW149165   8.455   4.925   1.990 -0.2168  0.3657  1.8987
14401SOL    HW249166   8.582   4.983   1.930 -1.0777  1.2607  0.9017
14402SOL     OW49167   4.243   6.362   9.213 -0.1422 -0.0789 -0.1109
14402SOL    HW149168   4.229   6.344   9.306 -0.5344  1.8828  0.2482
14402SOL    HW249169   4.278   6.280   9.178  1.6891 -0.3551  2.1225
14403SOL     OW49170   0.326   5.464   5.879 -0.4412 -0.3214 -0.2629
14403SOL    HW149171   0.274   5.510   5.945  0.2145 -0.1253  0.1156
14403SOL    HW249172   0.389   5.529   5.848 -1.1293 -0.2207 -1.5306
14404SOL     OW49173   6.856   0.834   5.311  0.0019  0.5727 -0.3984
14404SOL    HW149174   6.773   0.803   5.347  1.0408  0.0119  1.6651
14404SOL    HW249175   6.923   0.801   5.371  1.5388  3.1435 -0.5226
14405SOL     OW49176   2.680   3.675   7.721 -0.0346  0.1482 -0.0363
14405SOL    HW149177   2.588   3.691   7.742  0.0379  0.4058  0.0939
14405SOL    HW249178   2.696   3.585   7.748 -0.1870  0.1782  0.1526
14406SOL     OW49179   6.665   2.549   5.303  0.1334  1.0729  0.2819
14406SOL    HW149180   6.643   2.618   5.240 -1.1204  0.9774  0.5955
14406SOL    HW249181   6.687   2.473   5.249 -1.9392  0.6711 -0.0999
14407SOL     OW49182   7.633   3.653   6.436 -0.2011 -0.4117 -0.1781
14407SOL    HW149183   7.619   3.649   6.531  0.1666 -2.1430 -0.1691
14407SOL    HW249184   7.590   3.734   6.409  0.4857  0.6098  1.5959
14408SOL     OW49185   7.269   3.327   7.624 -0.3574 -0.4156  0.3609
14408SOL    HW149186   7.240   3.269   7.554  0.0009 -1.0655  0.7376
14408SOL    HW249187   7.364   3.331   7.615 -0.2582 -0.9095  1.1073
14409SOL     OW49188   8.707   5.275   3.265 -0.3699  0.0640  0.7163
14409SOL    HW149189   8.766   5.329   3.213 -1.0035  0.5493  0.4897
14409SOL    HW249190   8.715   5.309   3.354  1.7159 -1.6158  1.2511
14410SOL     OW49191   4.182   7.789   4.224  0.3575 -0.5101  0.0726
14410SOL    HW149192   4.103   7.741   4.248 -0.2308  1.3851  2.2709
14410SOL    HW249193   4.177   7.797   4.129 -1.1921 -1.8810 -0.0114
14411SOL     OW49194   5.252   2.094   3.702 -0.2799 -0.4903  0.0448
14411SOL    HW149195   5.275   2.145   3.625 -1.1478  0.0549  0.1437
14411SOL    HW249196   5.284   2.146   3.776 -1.3829  0.0526  0.1590
14412SOL     OW49197   7.107   3.271   5.486  0.4645  0.6978  0.1605
14412SOL    HW149198   7.035   3.260   5.547  1.0342  2.7185  1.2804
14412SOL    HW249199   7.181   3.228   5.528  0.4573  0.6187  0.0928
14413SOL     OW49200   3.767   8.180   4.068 -0.2484 -0.4645 -1.0419
14413SOL    HW149201   3.680   8.215   4.091 -0.5111 -1.0870 -1.0640
14413SOL    HW249202   3.784   8.213   3.981  0.1329  0.7685 -0.5160
14414SOL     OW49203   3.291   1.672   1.331 -0.6011  0.0783 -0.4669
14414SOL    HW149204   3.357   1.718   1.381 -1.6950  0.9397  0.2361
14414SOL    HW249205   3.291   1.583   1.366  0.4532 -0.0546 -0.7724
14415SOL     OW49206   1.130   6.941   5.699 -0.6847  0.5019  0.3116
14415SOL    HW149207   1.104   7.032   5.718 -0.1629  0.9102 -0.8068
14415SOL    HW249208   1.058   6.907   5.646 -0.4266  0.5959 -0.1047
14416SOL     OW49209   2.383   4.371   4.976 -0.0503 -0.2742  0.0227
14416SOL    HW149210   2.462   4.406   4.936  1.0465 -2.2296  0.3661
14416SOL    HW249211   2.407   4.356   5.068 -1.0913 -0.1206  0.3390
14417SOL     OW49212   2.257   5.917   4.581 -0.6801  0.5277 -0.0055
14417SOL    HW149213   2.341   5.934   4.623  0.1718  1.6195 -1.9760
14417SOL    HW249214   2.267   5.830   4.541 -1.2306 -0.1947  1.3798
14418SOL     OW49215   4.216   8.477   2.701  0.1954 -0.0903  0.1848
14418SOL    HW149216   4.155   8.437   2.763 -0.2861  2.0877  1.1812
14418SOL    HW249217   4.233   8.564   2.736  1.7025  0.3812 -1.5707
14419SOL     OW49218   4.303   2.067   4.931  0.0113 -0.1630 -0.2391
14419SOL    HW149219   4.254   2.093   5.009  0.8764  0.4666  0.1206
14419SOL    HW249220   4.281   1.975   4.918 -2.7106  0.5476 -1.2111
14420SOL     OW49221   2.336   4.581   1.266  0.4026  0.4061 -0.2685
14420SOL    HW149222   2.261   4.523   1.254 -0.5657  0.8764  2.7133
14420SOL    HW249223   2.374   4.554   1.350  3.4171  0.4377 -1.4956
14421SOL     OW49224   8.970   0.482   5.526 -0.0989 -0.1203  0.1274
14421SOL    HW149225   9.007   0.440   5.604 -2.5267 -0.5871  1.1400
14421SOL    HW249226   8.982   0.575   5.541  0.5214 -0.2542  0.4833
14422SOL     OW49227   2.476   8.795   1.934 -0.3419  0.1600 -0.1554
14422SOL    HW149228   2.444   8.845   1.859  0.7446  2.0127  0.5700
14422SOL    HW249229   2.571   8.801   1.929 -0.2128 -0.8754  0.6215
14423SOL     OW49230   0.361   6.052   3.368 -0.5994 -0.1519  0.0515
14423SOL    HW149231   0.451   6.025   3.388 -1.1128 -2.0664 -0.0220
14423SOL    HW249232   0.359   6.145   3.388  1.4267 -0.0469 -0.0239
14424SOL     OW49233   5.230   8.149   2.100  0.6177 -0.1754  0.2342
14424SOL    HW149234   5.202   8.184   2.015  1.5306  0.4223  0.1706
14424SOL    HW249235   5.309   8.099   2.081  1.3077  0.6532  0.8431
14425SOL     OW49236   2.138   6.639   1.217  0.1065 -0.0033  0.3185
14425SOL    HW149237   2.063   6.695   1.240 -0.7477 -1.4437  1.2151
14425SOL    HW249238   2.121   6.557   1.263  0.4118 -1.6642 -2.3345
14426SOL     OW49239   8.192   4.306   2.058  0.2013  0.5101  0.4447
14426SOL    HW149240   8.213   4.238   2.122 -1.1303 -3.6965 -3.0697
14426SOL    HW249241   8.107   4.340   2.086  0.3530 -0.0803  1.6800
14427SOL     OW49242   5.280   0.836   1.328 -0.3135 -0.2578  0.3755
14427SOL    HW149243   5.199   0.790   1.305  0.6473 -0.6985 -2.4735
14427SOL    HW249244   5.250   0.919   1.365 -2.1058 -0.0991 -1.2923
14428SOL     OW49245   7.538   1.007   1.444  0.6041 -0.0441  0.5305
14428SOL    HW149246   7.445   1.014   1.422  0.4449 -1.6709  0.5995
14428SOL    HW249247   7.582   1.056   1.374 -0.2280 -0.2069 -0.1343
14429SOL     OW49248   5.883   8.107   8.208  0.2849 -0.7340  0.5601
14429SOL    HW149249   5.970   8.088   8.244 -0.3400 -0.1868  2.4444
14429SOL    HW249250   5.838   8.022   8.209  0.0525 -0.6084  1.7418
14430SOL     OW49251   4.139   0.939   7.074 -0.2671 -0.0081  0.3489
14430SOL    HW149252   4.050   0.968   7.055 -0.3368 -0.2230  0.3442
14430SOL    HW249253   4.142   0.848   7.045 -0.0098  0.0336  0.2376
14431SOL     OW49254   2.112   7.227   8.720  0.1480 -0.2515  0.0151
14431SOL    HW149255   2.125   7.283   8.797  0.7663  0.0609 -0.3060
14431SOL    HW249256   2.038   7.268   8.674 -1.1926 -1.2687  1.1621
14432SOL     OW49257   4.122   8.609   7.898 -0.2720  0.6808  0.8017
14432SOL    HW149258   4.133   8.515   7.884  2.2531  1.0625 -0.3918
14432SOL    HW249259   4.114   8.619   7.993 -1.0811 -0.7548  0.9081
14433SOL     OW49260   4.938   8.062   2.387  0.4214 -0.1832  0.3439
14433SOL    HW149261   4.869   8.071   2.452  0.4728 -0.7833  0.4906
14433SOL    HW249262   4.894   8.026   2.310  0.5213 -0.3202  0.3504
14434SOL     OW49263   7.435   8.703   3.459  0.1766 -0.0983 -0.1384
14434SOL    HW149264   7.390   8.769   3.512  1.8382  1.1471 -0.1652
14434SOL    HW249265   7.371   8.633   3.448 -0.6259  0.0708  2.5633
14435SOL     OW49266   8.082   2.469   8.047  0.0141  0.0836  0.3183
14435SOL    HW149267   8.085   2.461   7.952 -0.2762  1.2578  0.1920
14435SOL    HW249268   8.138   2.398   8.079  2.6467  1.4973 -0.8305
14436SOL     OW49269   8.149   7.131   8.234 -0.0860  0.3827 -0.1698
14436SOL    HW149270   8.144   7.058   8.296 -1.0085  1.2299  0.7940
14436SOL    HW249271   8.154   7.089   8.148  3.0482 -0.8594  0.4954
14437SOL     OW49272   0.712   0.839   7.542  0.3201  0.5997  0.0103
14437SOL    HW149273   0.791   0.857   7.592 -0.6627  1.4907  1.2990
14437SOL    HW249274   0.715   0.903   7.470  0.4495  1.0806  0.4363
14438SOL     OW49275   0.086   7.025   4.456  0.2383 -0.4833 -0.4215
14438SOL    HW149276   0.091   7.120   4.440 -2.9061 -0.0324  0.5765
14438SOL    HW249277   0.009   6.996   4.406  0.6693 -2.3682 -0.0677
14439SOL     OW49278   4.526   5.552   7.367  0.8000 -0.0003  0.5060
14439SOL    HW149279   4.444   5.555   7.417  1.6502 -0.5136  1.9863
14439SOL    HW249280   4.592   5.588   7.426  1.6134  0.7416 -0.7880
14440SOL     OW49281   2.206   0.968   6.995 -0.1345  0.5412  0.2309
14440SOL    HW149282   2.174   1.015   6.919 -1.2044  0.8917  0.8720
14440SOL    HW249283   2.165   0.881   6.989  0.6440  0.1877 -0.1547
14441SOL     OW49284   5.961   1.175   2.688 -0.4342 -0.1456  0.0985
14441SOL    HW149285   5.996   1.150   2.773 -1.7568  0.8099  0.9667
14441SOL    HW249286   5.962   1.271   2.690 -0.4089 -0.1111 -1.0094
14442SOL     OW49287   0.163   5.129   4.649  0.5100 -0.3067  0.1643
14442SOL    HW149288   0.229   5.197   4.635 -0.1391  0.1665 -0.7508
14442SOL    HW249289   0.147   5.093   4.562 -1.3624  0.4934  0.1230
14443SOL     OW49290   3.304   2.465   2.128 -0.1053 -0.2094 -0.0498
14443SOL    HW149291   3.225   2.470   2.182 -0.0515 -1.5133  0.1656
14443SOL    HW249292   3.342   2.553   2.133 -0.3239 -0.1940  1.6966
14444SOL     OW49293   2.250   7.183   1.610 -0.4842  0.1337 -0.1016
14444SOL    HW149294   2.306   7.117   1.651 -0.7911 -0.3853 -0.5112
14444SOL    HW249295   2.263   7.170   1.516 -0.0895  1.0542 -0.1845
14445SOL     OW49296   1.640   0.360   7.382  0.6855  0.0397 -0.0155
14445SOL    HW149297   1.650   0.289   7.445  1.2418  0.0014 -0.1350
14445SOL    HW249298   1.596   0.429   7.430 -0.3178 -0.5643 -0.0380
14446SOL     OW49299   5.171   4.135   0.450  0.0637 -0.3303  0.0776
14446SOL    HW149300   5.176   4.103   0.360  0.5073  1.7250 -0.6651
14446SOL    HW249301   5.259   4.121   0.485 -0.1745 -1.3653  0.3245
14447SOL     OW49302   8.319   8.113   6.359  0.2146 -0.2186  0.5318
14447SOL    HW149303   8.316   8.017   6.363 -0.6557 -0.1613  2.4263
14447SOL    HW249304   8.244   8.137   6.304  1.6405 -0.6326 -1.7136
14448SOL     OW49305   0.924   6.492   3.112 -0.5054  0.2694 -0.0988
14448SOL    HW149306   0.977   6.430   3.062 -0.0648 -0.0485  0.7347
14448SOL    HW249307   0.983   6.565   3.132 -0.5614  0.2173  0.2737
14449SOL     OW49308   2.114   7.096   3.224 -0.2439  0.3162  0.1826
14449SOL    HW149309   2.160   7.014   3.208  0.2085  0.5928  0.0343
14449SOL    HW249310   2.136   7.150   3.148 -0.8959  0.4156  0.0648
14450SOL     OW49311   6.148   0.333   5.293  0.4016  0.1964  0.8001
14450SOL    HW149312   6.136   0.284   5.211  1.3824  0.3885  0.5291
14450SOL    HW249313   6.122   0.423   5.271 -0.5214  0.0097  1.0526
14451SOL     OW49314   4.649   3.080   7.317  0.5263  0.3892  0.2993
14451SOL    HW149315   4.576   3.133   7.287  0.4981  0.9517  1.3077
14451SOL    HW249316   4.715   3.144   7.344  1.3875 -0.1083 -0.5555
14452SOL     OW49317   4.448   8.259   9.216 -0.2896 -0.2080 -0.7103
14452SOL    HW149318   4.368   8.215   9.184 -0.3431 -2.8894  2.5738
14452SOL    HW249319   4.508   8.187   9.235  0.6725  1.2621  2.4483
14453SOL     OW49320   5.206   6.306   6.877  0.5051 -0.0564 -0.4020
14453SOL    HW149321   5.113   6.284   6.877  0.3165  0.6846 -1.0002
14453SOL    HW249322   5.250   6.228   6.844 -0.1484  0.4678 -2.6444
14454SOL     OW49323   4.141   6.341   0.355  0.0343  0.2049 -0.3362
14454SOL    HW149324   4.100   6.405   0.412  0.1864  0.1967 -0.2155
14454SOL    HW249325   4.136   6.259   0.403  0.5430  0.2801 -0.1452
14455SOL     OW49326   8.335   5.994   4.556  0.0042  0.1606  0.0381
14455SOL    HW149327   8.330   5.929   4.626  0.1334  0.2846  0.1637
14455SOL    HW249328   8.411   6.048   4.579 -1.1223  1.4650  0.8970
14456SOL     OW49329   7.068   9.278   7.850 -0.2656 -0.1345  0.3544
14456SOL    HW149330   6.998   9.330   7.811  1.5845  1.1021 -1.5195
14456SOL    HW249331   7.072   9.307   7.941 -2.1573 -0.2760  0.5213
14457SOL     OW49332   8.963   7.640   4.535  0.2624  0.3294  0.0710
14457SOL    HW149333   9.027   7.699   4.574  1.0988  0.2594 -1.1419
14457SOL    HW249334   9.002   7.614   4.451 -0.3089 -1.5399  0.3383
14458SOL     OW49335   1.548   0.875   6.781 -0.0262  0.3611  0.2452
14458SOL    HW149336   1.613   0.895   6.713 -1.3907  0.7780 -0.9807
14458SOL    HW249337   1.565   0.784   6.806  0.7917  0.3581 -0.3068
14459SOL     OW49338   5.947   5.945   0.512  0.1745  0.2675  0.1320
14459SOL    HW149339   5.873   5.885   0.504 -1.1431  2.1074 -3.4316
14459SOL    HW249340   5.949   5.968   0.605 -2.0071 -1.8269  0.8017
14460SOL     OW49341   3.844   7.897   1.725  0.0289 -0.6734  0.4062
14460SOL    HW149342   3.845   7.824   1.662 -0.6397 -0.4594  0.1370
14460SOL    HW249343   3.849   7.854   1.811 -0.5107 -1.0566  0.2544
14461SOL     OW49344   3.275   7.075   0.986  0.1237  0.2199 -0.2103
14461SOL    HW149345   3.231   7.099   0.904 -0.0558 -0.0428 -0.1938
14461SOL    HW249346   3.214   7.102   1.055 -0.4049 -0.9002 -0.2116
14462SOL     OW49347   5.058   3.212   7.342  0.2303 -0.0853 -0.3209
14462SOL    HW149348   5.002   3.244   7.271  1.0136 -2.1373 -1.9678
14462SOL    HW249349   5.013   3.134   7.374  0.8287 -0.2363  0.1716
14463SOL     OW49350   0.896   2.929   5.518  0.1936  0.2110  0.1863
14463SOL    HW149351   0.871   3.001   5.461  0.4715  1.9447  2.1210
14463SOL    HW249352   0.888   2.965   5.607  2.0560 -1.5917  1.1643
14464SOL     OW49353   1.238   7.900   0.550 -0.0963 -0.1093 -0.1099
14464SOL    HW149354   1.237   7.946   0.634 -1.9379  1.6802 -1.0114
14464SOL    HW249355   1.185   7.955   0.492  1.3439 -1.1151 -2.5601
14465SOL     OW49356   6.207   1.998   1.140 -0.2426  0.2478 -0.0657
14465SOL    HW149357   6.236   2.089   1.141  1.2268 -0.1505 -1.6333
14465SOL    HW249358   6.118   2.003   1.105 -0.7413  1.1871  1.2676
14466SOL     OW49359   4.351   9.006   9.337  0.1343  0.0760 -0.5985
14466SOL    HW149360   4.432   9.039   9.376  0.5209 -2.4463  1.0333
14466SOL    HW249361   4.305   8.964   9.410 -1.2191 -1.1100 -2.0502
14467SOL     OW49362   5.307   1.657   8.350 -0.4953  0.4604 -0.2059
14467SOL    HW149363   5.284   1.689   8.263  0.0906  1.2731 -0.0680
14467SOL    HW249364   5.238   1.594   8.371  0.7555 -1.7579 -2.3309
14468SOL     OW49365   2.593   4.452   8.813 -0.5722  0.0268 -0.4990
14468SOL    HW149366   2.593   4.379   8.751  0.2584 -1.3577  1.0828
14468SOL    HW249367   2.518   4.436   8.869  0.4385 -0.4639  0.7700
14469SOL     OW49368   6.060   1.951   5.674 -0.0812  0.2650  0.2617
14469SOL    HW149369   6.059   2.047   5.673  0.2302  0.2734  0.7669
14469SOL    HW249370   5.982   1.926   5.624 -0.9795  0.7805  1.3809
14470SOL     OW49371   0.183   7.493   7.766  0.5181  0.1939 -0.2478
14470SOL    HW149372   0.232   7.523   7.842  0.8101 -0.0454 -0.3406
14470SOL    HW249373   0.148   7.408   7.792 -0.1181  0.4995 -0.0668
14471SOL     OW49374   6.416   0.275   2.549 -0.0913  0.3291  0.0132
14471SOL    HW149375   6.505   0.262   2.514 -0.2371 -0.2688 -0.1562
14471SOL    HW249376   6.359   0.247   2.477 -0.4251  1.1020 -0.0272
14472SOL     OW49377   7.081   0.273   0.905  0.3924  0.9215 -0.0219
14472SOL    HW149378   6.995   0.312   0.917 -0.0005  0.0436  0.1151
14472SOL    HW249379   7.071   0.183   0.936  1.8014  1.2653  1.5857
14473SOL     OW49380   1.855   7.025   8.452  0.3179 -0.3141  0.5351
14473SOL    HW149381   1.765   7.039   8.424  0.2293  0.8866  1.3231
14473SOL    HW249382   1.875   7.102   8.506  1.5315 -0.9724  1.0586
14474SOL     OW49383   2.081   4.562   7.382  0.2107  0.1584 -0.7647
14474SOL    HW149384   1.998   4.595   7.415  0.2362 -0.7628  0.2912
14474SOL    HW249385   2.112   4.503   7.450  1.4818  0.0823 -1.3756
14475SOL     OW49386   2.251   2.582   8.664 -0.3700 -0.0210  0.0540
14475SOL    HW149387   2.211   2.559   8.748 -0.4232 -1.1475 -0.2753
14475SOL    HW249388   2.269   2.499   8.622  0.0279  0.5296 -0.8930
14476SOL     OW49389   8.262   4.904   5.523 -0.2822 -0.1797 -0.0302
14476SOL    HW149390   8.209   4.976   5.489 -0.0258 -0.1038 -0.2756
14476SOL    HW249391   8.348   4.917   5.482 -0.3985 -0.9657 -0.5398
14477SOL     OW49392   8.114   6.877   5.876  0.3559  0.2792 -0.2753
14477SOL    HW149393   8.037   6.933   5.862 -0.1919 -0.5965 -0.8216
14477SOL    HW249394   8.152   6.866   5.789  0.8830  0.3756 -0.0640
14478SOL     OW49395   9.300   2.888   2.757  0.2049  0.3249  0.0205
14478SOL    HW149396   9.320   2.860   2.847 -0.7308 -1.7279 -0.3472
14478SOL    HW249397   9.273   2.979   2.766  0.2808  0.2163  1.8123
14479SOL     OW49398   3.605   1.715   4.667  0.2603  0.6703 -0.0024
14479SOL    HW149399   3.630   1.740   4.756  1.7103  1.5446 -0.6255
14479SOL    HW249400   3.687   1.715   4.619 -0.2409 -1.4825 -0.9722
14480SOL     OW49401   3.895   3.075   0.040 -0.4462 -0.1641  0.1847
14480SOL    HW149402   3.982   3.093   0.004 -0.6521  0.3597 -0.0611
14480SOL    HW249403   3.894   3.122   0.124 -1.6218  2.6064 -1.2608
14481SOL     OW49404   1.638   3.415   4.746 -0.0107  0.2703  0.7330
14481SOL    HW149405   1.560   3.368   4.715  0.6219 -1.3764  1.5102
14481SOL    HW249406   1.604   3.494   4.787 -0.9981  1.7318 -2.5385
14482SOL     OW49407   0.895   2.533   4.394  0.1115 -0.0412 -0.0181
14482SOL    HW149408   0.836   2.519   4.468 -0.1321  0.1124 -0.1828
14482SOL    HW249409   0.972   2.480   4.414 -0.3186 -0.6990 -0.0708
14483SOL     OW49410   9.294   0.200   0.795  0.7490  0.2289  0.4579
14483SOL    HW149411   9.279   0.186   0.889 -1.5509  2.2067  0.4797
14483SOL    HW249412   9.226   0.149   0.752  0.5570  0.8689 -0.0145
14484SOL     OW49413   3.206   7.350   7.532 -0.5882  0.0551  0.1007
14484SOL    HW149414   3.192   7.396   7.450  0.1911 -0.6917 -0.4692
14484SOL    HW249415   3.119   7.321   7.559 -0.7244 -0.7311 -1.0932
14485SOL     OW49416   2.998   1.044   0.961 -0.7469  0.4727  0.4022
14485SOL    HW149417   2.942   1.094   0.901  0.2417  1.6742  0.4448
14485SOL    HW249418   3.069   1.104   0.982  0.2018 -0.7946  0.8794
14486SOL     OW49419   1.479   8.578   8.511  0.4768 -0.5984  0.1976
14486SOL    HW149420   1.446   8.561   8.423 -1.2392  0.6403  0.5321
14486SOL    HW249421   1.400   8.586   8.564  1.4517 -0.3422  1.6498
14487SOL     OW49422   1.904   4.207   2.657  0.2111  0.4979 -0.0658
14487SOL    HW149423   1.954   4.134   2.693 -0.4099 -0.5951 -1.3014
14487SOL    HW249424   1.819   4.169   2.635  0.2156  1.3106 -1.6903
14488SOL     OW49425   5.138   2.050   1.826  0.4090 -0.1627  1.0660
14488SOL    HW149426   5.056   2.099   1.828  0.1413 -0.6176  1.1293
14488SOL    HW249427   5.187   2.081   1.903  0.3997  0.2804  0.8950
14489SOL     OW49428   1.333   7.049   0.353  0.0694  0.1711  0.1267
14489SOL    HW149429   1.418   7.052   0.396  0.4523 -0.4913 -0.5517
14489SOL    HW249430   1.331   6.963   0.310 -1.2580 -0.1324  0.7624
14490SOL     OW49431   2.773   3.939   7.636  0.1193  0.3056 -0.3526
14490SOL    HW149432   2.845   3.983   7.592  0.3935 -1.4239 -1.7416
14490SOL    HW249433   2.761   3.857   7.587  0.9865 -2.1883  3.1926
14491SOL     OW49434   9.069   5.174   7.125 -0.3905 -0.2485 -0.3628
14491SOL    HW149435   9.089   5.113   7.054  0.2698 -0.5801  0.0943
14491SOL    HW249436   9.112   5.136   7.202 -0.2033  0.6498 -0.0078
14492SOL     OW49437   1.774   2.056   0.806 -0.6457 -0.0826 -0.2158
14492SOL    HW149438   1.831   1.994   0.852 -0.3683 -1.4164 -2.1780
14492SOL    HW249439   1.687   2.039   0.841 -0.2427  0.0307  0.8738
14493SOL     OW49440   2.828   8.506   6.997 -0.1501 -0.8407 -0.2799
14493SOL    HW149441   2.759   8.571   6.987  2.6187  2.1741 -1.8135
14493SOL    HW249442   2.830   8.460   6.914 -0.3270 -0.9386 -0.2302
14494SOL     OW49443   8.837   2.269   3.713 -0.6082  1.0993  0.1255
14494SOL    HW149444   8.858   2.362   3.702 -1.9259  1.2982 -0.9845
14494SOL    HW249445   8.823   2.237   3.624  0.5622 -0.3780  0.4271
14495SOL     OW49446   8.949   8.734   2.864  0.0753 -0.4500 -0.2955
14495SOL    HW149447   8.925   8.644   2.844  2.0947 -1.0989  0.0133
14495SOL    HW249448   9.030   8.749   2.816  0.4667  0.7807  0.6938
14496SOL     OW49449   9.159   7.536   0.656 -0.2293  0.2137  0.0419
14496SOL    HW149450   9.082   7.533   0.713 -1.2242  2.1586 -1.0755
14496SOL    HW249451   9.169   7.629   0.636  0.0571 -0.3910 -2.9542
14497SOL     OW49452   3.018   9.076   4.033  0.5963  0.0732  0.0840
14497SOL    HW149453   3.046   9.076   3.942 -0.8760 -0.0301 -0.3917
14497SOL    HW249454   2.970   9.157   4.044 -1.8365 -1.2583 -0.1146
14498SOL     OW49455   3.552   2.006   4.059 -0.3450  0.1974  0.3636
14498SOL    HW149456   3.480   2.046   4.107  0.0302 -0.3211  1.3807
14498SOL    HW249457   3.627   2.063   4.074 -0.6920  1.2009 -1.3842
14499SOL     OW49458   8.992   1.379   3.029  0.4204 -0.2826  0.2664
14499SOL    HW149459   8.963   1.331   2.951 -0.4992  1.0813 -0.2644
14499SOL    HW249460   8.941   1.461   3.027 -0.3181 -0.6154  2.8195
14500SOL     OW49461   5.718   2.207   5.543  0.0836  0.2010 -0.2981
14500SOL    HW149462   5.699   2.114   5.538  0.2743  0.0404  1.3504
14500SOL    HW249463   5.804   2.216   5.502  0.9717 -0.6979  1.2711
14501SOL     OW49464   7.308   4.447   6.000 -0.2448 -0.6821  0.3840
14501SOL    HW149465   7.368   4.483   6.065 -1.7785 -0.6503  1.8824
14501SOL    HW249466   7.239   4.405   6.053 -0.0584 -3.2712 -1.2512
14502SOL     OW49467   8.829   5.084   8.567 -0.1224  0.1794  0.7286
14502SOL    HW149468   8.752   5.028   8.567 -0.1359  0.1965  0.9183
14502SOL    HW249469   8.883   5.051   8.495 -1.6434  2.0222 -1.3955
14503SOL     OW49470   8.371   2.181   0.894  0.3881  0.0852 -0.4563
14503SOL    HW149471   8.309   2.185   0.966  0.6441 -0.5143 -0.1961
14503SOL    HW249472   8.371   2.269   0.857 -0.0886  0.2706 -0.0158
14504SOL     OW49473   2.012   3.905   0.189  0.1210  0.6726 -0.1129
14504SOL    HW149474   2.008   3.976   0.125  0.0433 -0.7157 -1.7138
14504SOL    HW249475   1.946   3.927   0.254  0.4240  2.2932 -0.3224
14505SOL     OW49476   0.928   4.711   0.509 -0.6337  0.4230 -0.2747
14505SOL    HW149477   1.012   4.711   0.464 -0.3353 -1.7458  0.1786
14505SOL    HW249478   0.920   4.800   0.545  1.4643  0.6828 -0.3150
14506SOL     OW49479   6.082   4.331   1.601 -0.0214  0.3008 -0.5081
14506SOL    HW149480   6.061   4.313   1.510 -0.9194 -1.9894  0.0818
14506SOL    HW249481   6.032   4.409   1.622  1.0903  1.5485 -2.2373
14507SOL     OW49482   8.751   2.867   4.716 -0.2133 -0.1017  0.7751
14507SOL    HW149483   8.695   2.862   4.638  0.4097  0.3863  0.2825
14507SOL    HW249484   8.830   2.911   4.685 -1.1324  2.8675  2.3426
14508SOL     OW49485   8.370   6.423   6.405  0.2960 -0.5056 -0.5280
14508SOL    HW149486   8.454   6.469   6.400  0.4976 -0.7370  0.5589
14508SOL    HW249487   8.353   6.395   6.315  1.4327 -0.5502 -0.7465
14509SOL     OW49488   7.975   8.854   2.334  0.0712 -0.3909  0.3208
14509SOL    HW149489   8.064   8.869   2.303 -0.0231  1.1591  0.7181
14509SOL    HW249490   7.983   8.779   2.394  0.8388 -1.1550 -0.6870
14510SOL     OW49491   7.316   0.219   1.033 -0.1684  0.3483 -0.2743
14510SOL    HW149492   7.234   0.231   0.984 -0.0481  0.1260 -0.5276
14510SOL    HW249493   7.363   0.150   0.986 -0.8617 -1.1912  1.1619
14511SOL     OW49494   9.219   6.764   5.529  0.0106 -0.2740  0.4345
14511SOL    HW149495   9.131   6.802   5.521 -0.2106 -0.6404  1.0427
14511SOL    HW249496   9.277   6.831   5.494 -0.4511  0.2759  0.6935
14512SOL     OW49497   6.928   5.761   5.087 -0.1626  0.1730  0.0523
14512SOL    HW149498   6.962   5.807   5.010 -1.8219  2.2587  0.4699
14512SOL    HW249499   6.886   5.829   5.139 -1.1627 -1.5700  1.6478
14513SOL     OW49500   2.380   5.373   7.632 -0.7203 -0.0561  0.2443
14513SOL    HW149501   2.345   5.303   7.578 -1.4637  1.7619 -1.7810
14513SOL    HW249502   2.460   5.337   7.670  0.6159 -1.0529 -3.1587
14514SOL     OW49503   3.539   9.186   6.461  0.5739 -0.2564 -0.8920
14514SOL    HW149504   3.578   9.226   6.539 -0.7905 -0.4140 -0.0899
14514SOL    HW249505   3.610   9.181   6.398  1.4799  0.7497  0.0167
14515SOL     OW49506   5.890   6.215   5.852  0.5168 -0.3603 -0.0049
14515SOL    HW149507   5.968   6.270   5.864 -0.0507  0.4971 -0.1261
14515SOL    HW249508   5.850   6.211   5.939  1.3810 -1.9034  0.3567
14516SOL     OW49509   7.048   8.584   9.203  0.0602 -0.1114 -0.3056
14516SOL    HW149510   6.969   8.620   9.244 -0.4987 -1.7726  0.1314
14516SOL    HW249511   7.117   8.599   9.269 -0.2095 -0.0481 -0.0338
14517SOL     OW49512   0.348   1.982   5.040 -0.2114 -0.0394 -0.3212
14517SOL    HW149513   0.271   1.932   5.015  0.2165 -1.1328  0.4954
14517SOL    HW249514   0.344   1.987   5.135  0.3889  0.4657 -0.3115
14518SOL     OW49515   0.576   1.311   3.064  0.1349  0.4958 -0.5017
14518SOL    HW149516   0.619   1.363   3.132 -0.6456 -0.4223  0.7461
14518SOL    HW249517   0.643   1.249   3.034  0.0630 -0.1463  0.5910
14519SOL     OW49518   3.996   5.484   6.739  0.2142 -0.0108 -0.1126
14519SOL    HW149519   4.043   5.402   6.753  1.6172  0.8317  0.2756
14519SOL    HW249520   4.049   5.551   6.783 -0.3210  1.2763 -1.3121
14520SOL     OW49521   7.692   6.235   8.340  0.0536  0.5437  0.1048
14520SOL    HW149522   7.776   6.213   8.381  0.0770  0.8300  0.2106
14520SOL    HW249523   7.679   6.327   8.361 -0.6369  0.3168  0.7004
14521SOL     OW49524   4.201   4.939   5.907 -0.3065 -0.5503  0.5251
14521SOL    HW149525   4.267   4.945   5.837 -1.1691  2.9465 -0.1874
14521SOL    HW249526   4.121   4.912   5.862 -0.0581 -1.9534  0.8841
14522SOL     OW49527   3.901   6.759   6.936  0.1982 -0.1761 -0.6076
14522SOL    HW149528   3.820   6.708   6.928 -0.6778  1.1645 -0.7798
14522SOL    HW249529   3.958   6.727   6.867 -0.4468 -0.7140 -0.8922
14523SOL     OW49530   4.618   5.395   8.163  0.0337 -0.1369  0.5486
14523SOL    HW149531   4.526   5.391   8.135  0.4737 -3.1122 -0.9283
14523SOL    HW249532   4.655   5.468   8.113 -1.1126 -0.0787 -0.2756
14524SOL     OW49533   5.224   1.910   8.499 -0.2857 -0.0600  0.0114
14524SOL    HW149534   5.254   1.980   8.441 -0.0052 -0.4419 -0.3097
14524SOL    HW249535   5.276   1.834   8.474  0.7833  0.0863  1.6743
14525SOL     OW49536   8.687   3.038   1.559  0.1197  0.2718 -0.5969
14525SOL    HW149537   8.614   2.976   1.546  0.0694  0.3399 -0.6471
14525SOL    HW249538   8.664   3.113   1.504 -1.1775  1.5051  1.5062
14526SOL     OW49539   3.317   6.039   9.259  0.0645  0.2624  0.6721
14526SOL    HW149540   3.298   5.965   9.201  0.5653 -0.4118  1.3442
14526SOL    HW249541   3.321   6.000   9.346 -0.5860  1.2484  1.1553
14527SOL     OW49542   0.662   6.923   3.340  0.1866  0.6502  0.1279
14527SOL    HW149543   0.645   6.856   3.406  2.1703 -0.3089 -0.2745
14527SOL    HW249544   0.666   7.005   3.390  2.3322 -0.1444  1.3656
14528SOL     OW49545   5.749   6.295   7.557  0.1504  0.6303  0.6669
14528SOL    HW149546   5.710   6.367   7.507  0.9655  0.5689 -0.0805
14528SOL    HW249547   5.705   6.216   7.524 -0.6533  0.7609  1.3972
14529SOL     OW49548   8.502   6.946   1.769 -0.2496  0.5495 -0.2158
14529SOL    HW149549   8.569   7.002   1.731 -0.5669  0.9096 -0.2408
14529SOL    HW249550   8.485   6.879   1.702  0.7151 -0.0706  0.1359
14530SOL     OW49551   1.633   5.021   1.882 -0.6455  0.7799 -0.2195
14530SOL    HW149552   1.719   4.990   1.910 -1.1569 -0.4086  0.0822
14530SOL    HW249553   1.651   5.070   1.802  0.4830  1.8287  0.6446
14531SOL     OW49554   0.494   4.238   7.160 -0.0175  0.1664  0.2608
14531SOL    HW149555   0.586   4.233   7.186  0.2447  2.2238 -0.0680
14531SOL    HW249556   0.496   4.279   7.073 -1.2800  1.3886  0.7608
14532SOL     OW49557   7.112   2.399   5.228 -0.0791  0.4991  0.2614
14532SOL    HW149558   7.036   2.341   5.227 -2.5827  3.4981  0.5757
14532SOL    HW249559   7.134   2.412   5.136 -1.3828  1.2377  0.0294
14533SOL     OW49560   9.114   9.223   6.920 -0.2899  0.8718 -0.3291
14533SOL    HW149561   9.086   9.132   6.918  0.6596  0.5737 -0.4679
14533SOL    HW249562   9.186   9.227   6.858 -0.1782  1.6721 -0.1577
14534SOL     OW49563   9.155   6.413   5.151  0.0554  0.9005 -0.1350
14534SOL    HW149564   9.128   6.505   5.146  1.4112  1.2890 -0.8725
14534SOL    HW249565   9.145   6.380   5.061  2.1646  1.1433 -0.5196
14535SOL     OW49566   1.497   4.419   6.687  0.1201  0.1020 -0.1013
14535SOL    HW149567   1.515   4.329   6.661 -1.0819  0.0242 -0.7651
14535SOL    HW249568   1.540   4.473   6.621 -0.5443 -0.0346 -0.6564
14536SOL     OW49569   6.342   4.252   3.981  0.1146  0.4633  0.8557
14536SOL    HW149570   6.251   4.277   3.995 -0.0440  0.1118  0.4891
14536SOL    HW249571   6.343   4.157   3.990  0.5238  0.5053  1.2688
14537SOL     OW49572   0.561   4.902   8.567  0.0630 -0.3147 -0.4559
14537SOL    HW149573   0.495   4.971   8.571  0.7721  0.3501  0.3216
14537SOL    HW249574   0.644   4.949   8.562  0.5950 -1.0885  0.6619
14538SOL     OW49575   4.803   3.230   2.326  0.0217  0.1161 -0.3264
14538SOL    HW149576   4.752   3.271   2.256 -1.9157 -0.3291  0.7274
14538SOL    HW249577   4.780   3.280   2.405  1.1664 -0.1675  0.2061
14539SOL     OW49578   3.334   1.303   6.264 -0.3829 -0.4244  0.7184
14539SOL    HW149579   3.379   1.223   6.238 -2.4411 -1.0295 -1.3294
14539SOL    HW249580   3.279   1.276   6.338  0.4290 -0.3835  1.3451
14540SOL     OW49581   2.347   2.137   0.957  0.2695  0.1541 -0.7386
14540SOL    HW149582   2.400   2.125   0.877  0.6390 -1.9800 -0.2523
14540SOL    HW249583   2.373   2.064   1.013 -0.1538  1.4792  1.2758
14541SOL     OW49584   6.109   1.042   0.082 -0.1705  0.1416  0.4770
14541SOL    HW149585   6.098   1.137   0.075 -0.1199  0.0415 -1.4588
14541SOL    HW249586   6.024   1.006   0.058 -0.3094 -0.3128  1.6042
14542SOL     OW49587   7.712   7.029   3.080  0.2687  0.6281 -0.2407
14542SOL    HW149588   7.709   7.109   3.028 -2.5958  0.8417  0.0710
14542SOL    HW249589   7.670   7.052   3.163 -1.1157 -1.2369 -0.3289
14543SOL     OW49590   0.272   4.395   4.449 -0.4243 -0.2865  0.4171
14543SOL    HW149591   0.290   4.416   4.358  0.8737 -2.3314  0.1388
14543SOL    HW249592   0.225   4.471   4.483  0.5330  1.2395 -1.5007
14544SOL     OW49593   2.606   4.267   8.564 -0.6041  0.3582  0.1081
14544SOL    HW149594   2.540   4.283   8.496  0.4924  0.1202 -1.0382
14544SOL    HW249595   2.683   4.314   8.535 -0.4901  1.3592  1.8822
14545SOL     OW49596   7.823   6.533   6.709 -0.1241  0.3272 -0.2237
14545SOL    HW149597   7.915   6.508   6.717 -0.0465  0.4977 -0.5923
14545SOL    HW249598   7.778   6.478   6.774  0.2940  0.5571  0.2699
14546SOL     OW49599   0.730   6.615   1.796 -0.2753  0.2169 -0.2059
14546SOL    HW149600   0.723   6.661   1.712 -0.3435 -0.1898 -0.4234
14546SOL    HW249601   0.663   6.547   1.792 -1.3040  1.1318  0.7865
14547SOL     OW49602   6.363   0.868   3.043 -0.0966 -0.7288  0.1168
14547SOL    HW149603   6.270   0.876   3.023 -0.0005 -2.8394 -1.3812
14547SOL    HW249604   6.384   0.776   3.028  2.4103 -0.1573 -0.3298
14548SOL     OW49605   0.899   7.071   2.819 -0.2936 -0.7322  0.1816
14548SOL    HW149606   0.965   7.086   2.751  0.6668  0.4299  1.3107
14548SOL    HW249607   0.933   7.117   2.896 -3.2517  1.4975  0.3370
14549SOL     OW49608   3.029   2.027   1.363  0.2647 -0.1812 -0.2221
14549SOL    HW149609   3.121   2.055   1.367  0.7755 -1.8817  1.0918
14549SOL    HW249610   2.988   2.067   1.439  0.1127 -0.0942 -0.3486
14550SOL     OW49611   8.502   2.270   3.108 -1.0225  0.4956 -0.1451
14550SOL    HW149612   8.492   2.336   3.040  1.4511  1.3868  0.2569
14550SOL    HW249613   8.593   2.242   3.100 -1.3509 -1.1156  1.2765
14551SOL     OW49614   7.481   7.905   9.003 -0.0932 -0.2545 -0.5344
14551SOL    HW149615   7.402   7.958   8.991  1.1136  1.6595 -0.3627
14551SOL    HW249616   7.544   7.964   9.045  0.7029 -2.3956  1.4741
14552SOL     OW49617   7.491   3.363   4.944  0.3464  0.1489 -1.0895
14552SOL    HW149618   7.426   3.318   4.891  0.9989  0.6717 -2.3757
14552SOL    HW249619   7.569   3.366   4.889  0.5697  2.1309 -0.7359
14553SOL     OW49620   5.506   0.548   2.707  0.4134 -0.2508 -0.6023
14553SOL    HW149621   5.481   0.468   2.661  1.0772 -0.2638 -0.9548
14553SOL    HW249622   5.599   0.536   2.726 -0.4172 -1.6926  3.6245
14554SOL     OW49623   7.346   2.160   9.003  1.2543 -0.9023 -0.3338
14554SOL    HW149624   7.338   2.115   9.087  0.5770 -0.8347 -0.3596
14554SOL    HW249625   7.391   2.242   9.024  0.1317 -0.3918  0.1441
14555SOL     OW49626   8.633   0.620   7.398  0.3001 -0.4716 -0.1477
14555SOL    HW149627   8.714   0.666   7.422  0.4549  0.4654 -2.2177
14555SOL    HW249628   8.642   0.533   7.438  1.0689  0.4758  1.9245
14556SOL     OW49629   1.346   5.726   2.846  0.4859  0.1956  0.0168
14556SOL    HW149630   1.251   5.723   2.833  0.3433  4.1578 -1.2400
14556SOL    HW249631   1.382   5.695   2.764  0.2986 -0.8688  0.3239
14557SOL     OW49632   8.297   0.686   4.353 -0.4647 -0.4086 -0.4988
14557SOL    HW149633   8.377   0.647   4.389 -1.3042  1.1150  3.4752
14557SOL    HW249634   8.231   0.616   4.359 -0.2678 -0.5981 -0.5107
14558SOL     OW49635   1.487   4.617   0.447 -0.4096  0.0367  0.7601
14558SOL    HW149636   1.533   4.682   0.395 -0.3209  0.2903  1.1528
14558SOL    HW249637   1.410   4.662   0.481 -0.1683  0.0406  1.3125
14559SOL     OW49638   5.999   7.224   2.516 -0.0332  0.1365  0.9246
14559SOL    HW149639   5.937   7.163   2.476 -0.8843  1.7742 -0.3838
14559SOL    HW249640   6.071   7.230   2.453 -0.4101  1.1621  0.5634
14560SOL     OW49641   6.417   6.321   8.741  0.1730  0.5266 -0.2295
14560SOL    HW149642   6.359   6.279   8.804  0.7632 -1.3986 -0.9094
14560SOL    HW249643   6.371   6.315   8.657  1.2523 -0.9537 -0.7619
14561SOL     OW49644   2.305   0.297   1.648 -0.1016 -0.1810 -0.1202
14561SOL    HW149645   2.344   0.271   1.731 -2.5299 -3.6288  0.1520
14561SOL    HW249646   2.237   0.360   1.673  1.1790  1.1901  0.0608
14562SOL     OW49647   6.084   8.002   4.785 -0.1772  0.2570  0.2937
14562SOL    HW149648   5.999   8.045   4.798 -0.0780 -0.0926  2.5720
14562SOL    HW249649   6.147   8.063   4.823  0.3319 -0.3987  0.5100
14563SOL     OW49650   6.841   1.559   6.387  0.1176 -0.2849 -0.1088
14563SOL    HW149651   6.865   1.572   6.295  1.2577  1.2912  0.3682
14563SOL    HW249652   6.752   1.525   6.384  0.7483 -1.9248 -1.8404
14564SOL     OW49653   5.325   2.854   8.382 -0.2480  0.3366 -0.1227
14564SOL    HW149654   5.408   2.858   8.430 -0.4512 -1.3919  0.4534
14564SOL    HW249655   5.279   2.779   8.420 -0.4952 -1.0442 -2.8801
14565SOL     OW49656   5.042   5.139   4.219  0.4256 -0.0807  0.5775
14565SOL    HW149657   5.004   5.189   4.147  2.2184 -0.4857 -0.7247
14565SOL    HW249658   5.038   5.048   4.190 -1.7014 -0.6552  2.4022
14566SOL     OW49659   5.906   5.421   5.710 -0.2636  0.4806 -0.2839
14566SOL    HW149660   5.894   5.333   5.744 -1.6145  0.6457 -0.2445
14566SOL    HW249661   5.905   5.411   5.615  0.9733  0.3046 -0.2845
14567SOL     OW49662   8.564   9.149   9.032  0.3496 -0.5158 -0.8294
14567SOL    HW149663   8.657   9.160   9.017  1.3162 -3.1433  2.0504
14567SOL    HW249664   8.531   9.111   8.951  2.2854 -1.5562 -1.1887
14568SOL     OW49665   5.010   1.556   3.522  0.1328 -0.5743  0.1401
14568SOL    HW149666   4.971   1.643   3.529  1.6941  0.1533  0.0626
14568SOL    HW249667   5.046   1.553   3.433 -1.3902 -1.9604 -0.4830
14569SOL     OW49668   1.471   3.383   8.821  0.0790  0.2948  0.1766
14569SOL    HW149669   1.469   3.371   8.726 -1.4262  1.9384 -0.0520
14569SOL    HW249670   1.431   3.303   8.855  2.4159 -1.2059 -0.3943
14570SOL     OW49671   7.441   5.233   0.891 -0.4372  0.3178  0.6745
14570SOL    HW149672   7.491   5.160   0.854 -1.6682  0.5110 -1.5849
14570SOL    HW249673   7.366   5.243   0.832 -1.7089  1.7545  2.3974
14571SOL     OW49674   4.910   0.533   2.560 -0.0607 -0.7274 -0.6358
14571SOL    HW149675   4.907   0.457   2.619  0.1372 -2.1719 -2.3778
14571SOL    HW249676   4.822   0.570   2.565 -0.6020 -1.9332 -0.7728
14572SOL     OW49677   2.117   4.309   5.052  0.0709  0.2833 -0.3321
14572SOL    HW149678   2.210   4.312   5.031 -0.3691  0.1009 -2.5117
14572SOL    HW249679   2.114   4.305   5.148  2.2309  2.1193 -0.1151
14573SOL     OW49680   0.262   2.934   1.738 -0.2581  0.4568 -0.0400
14573SOL    HW149681   0.245   2.968   1.826 -1.7549  1.0699 -0.5273
14573SOL    HW249682   0.345   2.973   1.712 -1.4876  3.1755 -0.2353
14574SOL     OW49683   7.789   6.708   0.813 -0.1042 -0.3369  0.3810
14574SOL    HW149684   7.821   6.690   0.902 -1.2312 -0.3316  0.7965
14574SOL    HW249685   7.869   6.712   0.760  0.9131  2.5695  1.8682
14575SOL     OW49686   2.627   0.205   3.738 -0.4557 -0.0600  0.1275
14575SOL    HW149687   2.551   0.172   3.690 -1.0378  1.2212  0.1096
14575SOL    HW249688   2.621   0.162   3.824 -1.3282  0.1802  0.1976
14576SOL     OW49689   2.304   0.552   0.372  0.7671  0.6150  0.5258
14576SOL    HW149690   2.215   0.523   0.393  1.1695 -1.7179 -0.6739
14576SOL    HW249691   2.298   0.586   0.283  1.0827  0.3961  0.4201
14577SOL     OW49692   5.840   7.785   5.077 -0.3343  0.2490 -0.1840
14577SOL    HW149693   5.879   7.824   5.155 -0.5057  0.1919 -0.0687
14577SOL    HW249694   5.746   7.785   5.095 -0.3250 -0.3447 -0.1274
14578SOL     OW49695   0.665   8.003   7.026 -0.2631 -0.0952  0.1139
14578SOL    HW149696   0.626   7.996   6.939  0.6494 -0.1965 -0.3033
14578SOL    HW249697   0.759   7.998   7.010 -0.0537  0.6206  1.0398
14579SOL     OW49698   9.323   3.888   4.840 -0.0964  0.4667 -0.1862
14579SOL    HW149699   9.386   3.816   4.838 -0.5615  0.0619 -1.8145
14579SOL    HW249700   9.361   3.953   4.780 -0.6749  0.7021 -0.2989
14580SOL     OW49701   6.094   1.104   4.636  0.5464  0.0725  0.5138
14580SOL    HW149702   6.172   1.157   4.618 -0.3063  1.3927  0.5356
14580SOL    HW249703   6.060   1.082   4.549  0.4987  0.1843  0.5040
14581SOL     OW49704   5.403   3.972   5.852 -0.0315  0.3985  0.3447
14581SOL    HW149705   5.313   4.005   5.855 -0.2423  0.5183 -3.1428
14581SOL    HW249706   5.456   4.045   5.884 -1.0160  1.3651 -0.1420
14582SOL     OW49707   2.106   4.443   1.439  0.0480 -0.6844  0.0566
14582SOL    HW149708   2.040   4.508   1.462  1.4589  1.1052 -0.7834
14582SOL    HW249709   2.060   4.359   1.449 -2.0928  0.4364  0.2859
14583SOL     OW49710   3.623   1.031   7.027  0.2779 -0.0295 -0.3526
14583SOL    HW149711   3.546   1.067   7.072  0.7386 -2.1887  2.4520
14583SOL    HW249712   3.603   0.938   7.017  2.2583 -0.5071 -0.1602
14584SOL     OW49713   2.454   7.326   0.129  0.3251 -0.1726  0.2975
14584SOL    HW149714   2.505   7.258   0.086 -2.3733 -2.3246  0.2158
14584SOL    HW249715   2.487   7.329   0.218  0.1246 -2.1044  0.4744
14585SOL     OW49716   4.614   0.297   4.502 -0.2184  0.8984  0.0614
14585SOL    HW149717   4.614   0.217   4.450  1.1207  1.0076 -0.1435
14585SOL    HW249718   4.581   0.364   4.442  0.0757  0.7765 -0.2403
14586SOL     OW49719   7.535   0.508   4.615 -0.0521 -0.0927  0.4211
14586SOL    HW149720   7.623   0.473   4.600 -0.0594  0.2582 -0.5242
14586SOL    HW249721   7.527   0.512   4.710  0.6282 -0.9377  0.5276
14587SOL     OW49722   8.144   0.957   9.179  0.3898 -0.9990  0.4350
14587SOL    HW149723   8.230   0.998   9.170  0.2967 -0.5464  1.4296
14587SOL    HW249724   8.101   1.008   9.248 -1.5706  0.3160 -1.6132
14588SOL     OW49725   4.541   4.157   5.701  0.2290 -0.4896 -0.3716
14588SOL    HW149726   4.626   4.197   5.684  0.4313 -1.5560 -2.0230
14588SOL    HW249727   4.516   4.192   5.787  1.2595  1.6187 -0.8479
14589SOL     OW49728   7.356   6.568   1.703  0.1069 -0.0779  0.0685
14589SOL    HW149729   7.435   6.566   1.649  2.9766  1.5387  3.7527
14589SOL    HW249730   7.366   6.495   1.764 -0.9796  0.4991  0.9738
14590SOL     OW49731   7.497   3.618   5.647  0.1678  0.1337 -0.0599
14590SOL    HW149732   7.544   3.699   5.627 -0.3246  0.3929 -0.1858
14590SOL    HW249733   7.448   3.637   5.727  0.0113 -0.0186 -0.1174
14591SOL     OW49734   5.295   7.821   8.943 -0.3753  0.0447 -0.3879
14591SOL    HW149735   5.284   7.774   9.025  2.7982  0.7531  0.5482
14591SOL    HW249736   5.330   7.756   8.882 -0.5667  0.0736 -0.5322
14592SOL     OW49737   8.912   8.066   3.715 -0.5519 -0.1417 -0.3153
14592SOL    HW149738   8.873   8.050   3.629 -1.1455 -0.2727 -0.0309
14592SOL    HW249739   8.973   7.994   3.728  0.2063  0.3610 -1.0026
14593SOL     OW49740   7.966   7.268   1.205 -0.0536 -0.4647  0.2531
14593SOL    HW149741   7.880   7.242   1.172  0.2833 -1.3327  0.0049
14593SOL    HW249742   7.960   7.254   1.300  0.3339 -2.2315  0.0639
14594SOL     OW49743   3.456   2.237   4.656  0.4041  0.0339  0.6560
14594SOL    HW149744   3.470   2.184   4.735  0.4316 -0.4608  0.3254
14594SOL    HW249745   3.533   2.220   4.602 -0.0140 -0.2949  0.1567
14595SOL     OW49746   7.633   8.605   0.726  0.5437 -0.0578  0.1120
14595SOL    HW149747   7.675   8.589   0.811 -1.1302 -0.6605  0.8771
14595SOL    HW249748   7.665   8.692   0.700  0.4759  0.5068  1.7572
14596SOL     OW49749   6.277   0.453   6.169  0.0311 -0.2343  0.5882
14596SOL    HW149750   6.325   0.522   6.215  0.0161 -0.0097  0.2748
14596SOL    HW249751   6.198   0.497   6.137  0.8398  0.0806 -1.1395
14597SOL     OW49752   2.117   4.877   8.183  0.5021 -0.1518  0.1400
14597SOL    HW149753   2.159   4.945   8.129  0.4160  1.1513  1.6539
14597SOL    HW249754   2.189   4.840   8.234  0.5500 -1.2596 -0.6771
14598SOL     OW49755   6.342   2.963   6.216  0.0327  0.1546 -0.2923
14598SOL    HW149756   6.356   2.890   6.156 -0.5786 -1.0672  0.9869
14598SOL    HW249757   6.323   2.921   6.300 -1.0848  1.7944  0.3093
14599SOL     OW49758   7.123   2.503   4.212  0.2332 -0.1537 -0.2301
14599SOL    HW149759   7.078   2.419   4.214  1.5533 -0.8676  0.6862
14599SOL    HW249760   7.210   2.483   4.177  0.7407  0.7328  0.4894
14600SOL     OW49761   4.432   0.549   5.050 -0.1314 -0.1620  0.7824
14600SOL    HW149762   4.383   0.601   5.113  0.3774 -1.1153  2.0235
14600SOL    HW249763   4.455   0.469   5.098 -0.8806 -1.5424 -1.0403
14601SOL     OW49764   1.849   8.595   3.851 -0.3050  0.0391  0.1218
14601SOL    HW149765   1.928   8.583   3.903  0.0641 -1.2203 -0.6813
14601SOL    HW249766   1.812   8.507   3.843 -0.6656  0.2946 -1.2385
14602SOL     OW49767   3.423   2.276   7.868 -1.3243 -0.1972 -0.2533
14602SOL    HW149768   3.465   2.363   7.868 -1.1494 -0.2660  0.6985
14602SOL    HW249769   3.333   2.293   7.840 -1.0967  0.1834 -0.7741
14603SOL     OW49770   4.604   6.381   6.038 -0.1802  0.3801  0.0524
14603SOL    HW149771   4.657   6.347   5.965  0.2826 -1.1084  1.0346
14603SOL    HW249772   4.551   6.450   5.999  0.8125  0.3238 -1.4713
14604SOL     OW49773   0.530   5.724   2.617 -0.0045 -0.3241 -0.3604
14604SOL    HW149774   0.469   5.716   2.691 -1.8367  0.3412 -1.7114
14604SOL    HW249775   0.558   5.635   2.600  0.1487 -0.5346  0.8858
14605SOL     OW49776   4.822   4.442   7.705 -0.1979 -0.3189  0.1327
14605SOL    HW149777   4.816   4.388   7.784 -0.3238 -0.0181  0.3352
14605SOL    HW249778   4.736   4.485   7.699 -1.1078 -2.2375 -1.5788
14606SOL     OW49779   9.012   1.947   3.640 -0.0080 -0.5017  0.5664
14606SOL    HW149780   9.069   2.008   3.593  0.4433 -1.6773 -0.4680
14606SOL    HW249781   8.970   2.001   3.707  1.6852  0.5844  0.8337
14607SOL     OW49782   8.349   3.491   2.149  0.0781  0.2067  0.1786
14607SOL    HW149783   8.332   3.583   2.130 -2.2641  0.3847  2.5516
14607SOL    HW249784   8.295   3.444   2.085  2.2535  0.3379 -1.8855
14608SOL     OW49785   7.175   9.273   1.986  0.3905  0.1221  0.7111
14608SOL    HW149786   7.255   9.297   2.032  0.1070  1.1061  0.7225
14608SOL    HW249787   7.108   9.332   2.022 -0.3560 -0.7291  0.7544
14609SOL     OW49788   7.782   5.061   4.058  0.3625  0.5077  0.4305
14609SOL    HW149789   7.819   4.986   4.011 -0.8916 -0.1125  0.4051
14609SOL    HW249790   7.688   5.054   4.044  0.1779  1.7671  0.9206
14610SOL     OW49791   4.886   1.919   9.176  0.4794 -0.7708  0.1166
14610SOL    HW149792   4.866   1.827   9.193 -0.7932 -0.7741 -1.2219
14610SOL    HW249793   4.922   1.921   9.087 -0.6038  0.1296 -0.3317
14611SOL     OW49794   0.482   5.800   6.739 -0.0168  0.1216 -0.4700
14611SOL    HW149795   0.450   5.808   6.829 -2.1669 -1.1996 -1.0492
14611SOL    HW249796   0.463   5.886   6.700 -0.3070  0.2594 -0.0357
14612SOL     OW49797   8.495   0.886   7.851 -0.3765 -0.8345  0.7156
14612SOL    HW149798   8.423   0.861   7.793 -0.3537  0.6284  0.0239
14612SOL    HW249799   8.454   0.939   7.919  0.2656  1.8817 -0.8863
14613SOL     OW49800   0.070   7.238   1.445  0.6612  0.1948  0.2439
14613SOL    HW149801  -0.025   7.229   1.438  0.2969  1.9055  1.9644
14613SOL    HW249802   0.084   7.331   1.459  2.4345 -0.2199  1.6296
14614SOL     OW49803   1.024   1.736   8.774  0.2498 -0.3498  0.1675
14614SOL    HW149804   0.952   1.673   8.780 -1.7917  1.8232  0.1641
14614SOL    HW249805   1.084   1.711   8.845  0.8127 -3.6317 -1.2667
14615SOL     OW49806   1.665   4.520   1.336 -0.2821  0.7116  0.2053
14615SOL    HW149807   1.593   4.486   1.281 -0.8117  0.4040  1.0629
14615SOL    HW249808   1.622   4.546   1.418  0.7336 -0.5495  1.1777
14616SOL     OW49809   7.417   3.633   7.165 -0.3983 -0.6098 -0.2238
14616SOL    HW149810   7.329   3.664   7.187 -0.2153 -0.1923 -0.0656
14616SOL    HW249811   7.410   3.538   7.167 -0.7798 -0.5791  0.0612
14617SOL     OW49812   0.488   4.688   4.982 -0.1018  0.7970 -0.1261
14617SOL    HW149813   0.537   4.630   5.040  0.8595  0.9471 -0.7775
14617SOL    HW249814   0.435   4.741   5.042  0.2638  0.3964  0.5693
14618SOL     OW49815   3.762   7.600   0.698 -0.0785  0.1926 -0.2277
14618SOL    HW149816   3.740   7.507   0.708 -0.7158  0.3544 -0.0886
14618SOL    HW249817   3.689   7.637   0.648 -1.1339  1.1311  1.8652
14619SOL     OW49818   6.401   6.018   2.522  0.0560  0.4301 -0.5603
14619SOL    HW149819   6.373   6.026   2.613 -0.5668  0.6596 -0.7697
14619SOL    HW249820   6.496   6.029   2.525  0.0571  0.2617  0.0807
14620SOL     OW49821   3.820   6.919   5.691  0.0027  0.3535 -0.3064
14620SOL    HW149822   3.747   6.941   5.749 -0.2260  1.5555 -1.0194
14620SOL    HW249823   3.877   6.864   5.744 -0.9407  0.1968  0.5753
14621SOL     OW49824   5.548   5.144   7.630 -0.0490  0.0657 -0.0676
14621SOL    HW149825   5.635   5.105   7.622 -0.0881  0.1282 -0.9509
14621SOL    HW249826   5.535   5.157   7.724  2.1691  2.9133 -0.0132
14622SOL     OW49827   2.922   5.385   6.180  0.0071 -0.4031 -0.0129
14622SOL    HW149828   2.927   5.375   6.275  0.2053  1.9334  0.2664
14622SOL    HW249829   2.828   5.382   6.160 -0.0068 -1.5514  0.1355
14623SOL     OW49830   6.742   6.714   0.199  0.2243  0.0318  0.0267
14623SOL    HW149831   6.821   6.675   0.163  0.5381  0.8526 -0.1896
14623SOL    HW249832   6.680   6.641   0.206  1.6758 -1.0912  2.2430
14624SOL     OW49833   7.759   5.762   0.672  0.6042 -0.0457 -0.0103
14624SOL    HW149834   7.830   5.760   0.736 -0.8513  2.9779  1.9096
14624SOL    HW249835   7.795   5.810   0.598  0.6254  1.4514  0.9387
14625SOL     OW49836   9.129   4.867   0.285  0.0685  0.4677 -0.3425
14625SOL    HW149837   9.075   4.897   0.358  0.0543  0.3787 -0.3176
14625SOL    HW249838   9.077   4.798   0.244  0.5413 -0.2038  0.1885
14626SOL     OW49839   8.830   9.077   3.258  0.3131 -0.3757  0.2070
14626SOL    HW149840   8.749   9.089   3.307  0.9180 -1.6565  1.5891
14626SOL    HW249841   8.815   8.999   3.204  0.9014 -1.1649  1.1476
14627SOL     OW49842   3.043   6.039   9.271  0.9976 -0.4963 -0.2289
14627SOL    HW149843   2.983   6.000   9.334  2.1121 -0.7593  0.7141
14627SOL    HW249844   3.116   6.072   9.325  0.4641  2.2690 -1.0313
14628SOL     OW49845   3.446   2.693   7.805  0.2087  0.0824  0.1326
14628SOL    HW149846   3.499   2.759   7.849 -0.7624  0.7709  0.2926
14628SOL    HW249847   3.416   2.636   7.875  1.2436 -0.7021 -0.0320
14629SOL     OW49848   4.649   8.310   0.545  0.1520 -0.4963  0.5801
14629SOL    HW149849   4.635   8.230   0.494 -0.2922 -0.8496  1.2402
14629SOL    HW249850   4.744   8.323   0.546  0.1576 -0.3476 -0.5312
14630SOL     OW49851   7.340   3.452   1.651 -0.4454  0.2630 -0.2883
14630SOL    HW149852   7.306   3.540   1.633 -1.7368 -0.0879  0.3072
14630SOL    HW249853   7.301   3.397   1.583 -1.5689 -0.2393  0.7178
14631SOL     OW49854   6.425   3.753   4.640  0.4147 -0.2894  0.3386
14631SOL    HW149855   6.508   3.800   4.643  1.1093 -1.5429  1.0809
14631SOL    HW249856   6.447   3.665   4.611 -0.1784 -1.5213  3.2670
14632SOL     OW49857   7.074   1.821   7.077  0.3126  0.4283 -0.0688
14632SOL    HW149858   7.133   1.883   7.034  0.0971  0.0557 -0.9362
14632SOL    HW249859   7.038   1.769   7.005  1.1613 -1.2981  0.6882
14633SOL     OW49860   0.181   0.721   6.580  0.1826 -0.3843  0.2239
14633SOL    HW149861   0.248   0.708   6.647  0.9792 -2.3405 -0.8718
14633SOL    HW249862   0.231   0.728   6.498 -0.8638  0.0680 -0.3925
14634SOL     OW49863   5.458   5.687   1.292  0.8534 -1.0237  0.2113
14634SOL    HW149864   5.528   5.750   1.311 -0.9985  1.6862 -1.2820
14634SOL    HW249865   5.404   5.688   1.371  0.0300  0.5052 -0.3283
14635SOL     OW49866   1.143   2.444   3.455  0.0597  0.6496  0.8337
14635SOL    HW149867   1.204   2.370   3.457  0.9694  1.2863 -0.8088
14635SOL    HW249868   1.198   2.520   3.478 -0.7582  0.9028  2.0476
14636SOL     OW49869   6.287   0.720   6.918  0.2080  0.1061 -0.1974
14636SOL    HW149870   6.322   0.772   6.989  0.4687  0.7638 -0.7953
14636SOL    HW249871   6.221   0.776   6.877  0.6849  0.0851 -1.0198
14637SOL     OW49872   8.602   4.441   1.283 -0.5495 -0.3900  0.7904
14637SOL    HW149873   8.688   4.408   1.310  0.5520  1.9054  0.2639
14637SOL    HW249874   8.577   4.386   1.209  1.1570 -0.1742  0.0174
14638SOL     OW49875   7.016   1.415   7.602  0.3558 -0.0816 -0.1951
14638SOL    HW149876   6.972   1.452   7.526  0.3198 -0.9072 -0.5864
14638SOL    HW249877   7.020   1.487   7.665  0.5435  0.6585 -1.0368
14639SOL     OW49878   1.655   4.562   5.234 -0.5640 -0.1591  0.3563
14639SOL    HW149879   1.611   4.548   5.150 -2.2218  1.5630  0.8707
14639SOL    HW249880   1.585   4.564   5.298  0.3376  1.5211  1.3729
14640SOL     OW49881   2.226   5.510   8.675  0.3119 -0.1478  0.4760
14640SOL    HW149882   2.265   5.524   8.588  0.1185 -1.9102  0.0561
14640SOL    HW249883   2.297   5.472   8.727  0.2332  0.2641  0.8848
14641SOL     OW49884   2.689   4.398   3.527 -0.2813 -0.1438 -0.1537
14641SOL    HW149885   2.742   4.453   3.586 -1.0182  1.1485 -0.6599
14641SOL    HW249886   2.599   4.416   3.552 -0.5602 -0.5327 -0.8577
14642SOL     OW49887   9.186   5.984   5.651 -0.1557  0.3107 -0.0569
14642SOL    HW149888   9.222   6.005   5.564 -1.3035  0.1532 -0.5920
14642SOL    HW249889   9.257   6.004   5.712  0.6233  0.5687 -1.0211
14643SOL     OW49890   8.760   4.059   2.561  0.5609 -0.0897  0.1424
14643SOL    HW149891   8.772   4.134   2.620  0.4857 -1.5618  2.1239
14643SOL    HW249892   8.696   4.004   2.606  1.6913 -2.0556 -0.5638
14644SOL     OW49893   6.372   3.883   6.170 -0.1148  0.5245 -0.0037
14644SOL    HW149894   6.398   3.792   6.155  0.1478  0.1995  2.1259
14644SOL    HW249895   6.453   3.933   6.163  0.1112  0.2962  0.8640
14645SOL     OW49896   2.759   6.597   8.063  0.3695 -0.3405  0.0770
14645SOL    HW149897   2.691   6.551   8.013  0.1069  0.9208 -0.7832
14645SOL    HW249898   2.735   6.583   8.154  0.3671 -1.9725 -0.1304
14646SOL     OW49899   0.570   6.648   7.602  0.0763 -0.0436  0.2942
14646SOL    HW149900   0.555   6.667   7.694 -2.6085  0.5328 -0.1659
14646SOL    HW249901   0.550   6.730   7.557 -3.5550 -1.4642 -1.0857
14647SOL     OW49902   2.688   7.403   5.818 -0.2543  0.3947 -0.0316
14647SOL    HW149903   2.727   7.324   5.856  0.1737  1.2589  1.3984
14647SOL    HW249904   2.747   7.428   5.747  1.7287  1.4943  1.8791
14648SOL     OW49905   7.995   1.828   1.669  0.3332  0.6493 -0.6537
14648SOL    HW149906   8.027   1.836   1.579  2.5835 -1.3177 -0.1359
14648SOL    HW249907   7.930   1.758   1.665 -1.1977  2.0228 -1.0414
14649SOL     OW49908   1.526   0.090   0.077  0.0327 -0.5971  0.0348
14649SOL    HW149909   1.496   0.082  -0.013 -1.4585  2.1578  0.1896
14649SOL    HW249910   1.530   0.000   0.109 -0.6880 -1.5521 -2.3378
14650SOL     OW49911   7.300   5.443   0.295 -0.3346 -0.6231  0.1208
14650SOL    HW149912   7.308   5.362   0.345 -0.9392 -0.9944 -0.3663
14650SOL    HW249913   7.339   5.422   0.210  2.2750  0.5176  0.9276
14651SOL     OW49914   3.054   0.213   0.877 -0.3092  0.0940  0.6415
14651SOL    HW149915   3.011   0.257   0.951 -0.8015 -0.3726  0.6341
14651SOL    HW249916   3.079   0.127   0.912 -0.3751 -0.0567  0.3167
14652SOL     OW49917   9.088   4.439   9.133 -0.1955 -0.3899  0.0016
14652SOL    HW149918   9.007   4.406   9.172 -1.4819  3.2137  0.8080
14652SOL    HW249919   9.158   4.401   9.187 -0.9322 -5.3897 -2.0513
14653SOL     OW49920   2.503   5.801   0.841 -0.5708 -0.3066  0.4917
14653SOL    HW149921   2.576   5.745   0.815 -2.0697 -1.0265 -2.7487
14653SOL    HW249922   2.493   5.787   0.935  1.7395 -2.2260  0.5350
14654SOL     OW49923   8.780   3.365   6.019 -0.3310 -0.2123  0.0286
14654SOL    HW149924   8.832   3.306   5.965 -1.9073 -2.2326  0.5750
14654SOL    HW249925   8.720   3.406   5.958  0.0964  0.0462 -0.2191
14655SOL     OW49926   7.103   3.601   3.393  0.2997  0.2696  0.0007
14655SOL    HW149927   7.057   3.680   3.368 -0.6065  0.2019  1.3095
14655SOL    HW249928   7.193   3.629   3.411  0.8609  0.3929 -2.6455
14656SOL     OW49929   0.477   9.140   5.439 -0.2392 -0.0828  0.2266
14656SOL    HW149930   0.413   9.211   5.447 -1.6096 -1.4210  1.9087
14656SOL    HW249931   0.452   9.094   5.359 -0.4265  0.2908  0.0677
14657SOL     OW49932   0.355   0.396   2.179 -0.2347  0.0423  0.7820
14657SOL    HW149933   0.423   0.364   2.120  0.5614  2.1276  0.4735
14657SOL    HW249934   0.277   0.403   2.123  0.5947  2.3274 -0.2381
14658SOL     OW49935   7.189   0.222   4.678  0.0597 -0.3286  0.4280
14658SOL    HW149936   7.249   0.189   4.611  1.0317 -1.4591  1.7987
14658SOL    HW249937   7.196   0.317   4.671 -0.8732 -0.3874 -1.9178
14659SOL     OW49938   4.797   6.833   8.274 -0.2665 -0.2566 -0.1192
14659SOL    HW149939   4.844   6.865   8.351 -0.4604  1.2930 -0.6200
14659SOL    HW249940   4.750   6.755   8.305  0.7053 -0.4290  0.9805
14660SOL     OW49941   5.975   0.741   0.796  0.3902 -0.3085 -0.7463
14660SOL    HW149942   6.042   0.762   0.861  0.2858 -0.2327 -0.6635
14660SOL    HW249943   5.930   0.824   0.780 -0.2225 -0.5278 -0.1988
14661SOL     OW49944   0.884   6.477   9.152 -0.0675  0.7801 -0.3773
14661SOL    HW149945   0.928   6.448   9.232 -0.3045  1.2166 -0.0803
14661SOL    HW249946   0.866   6.397   9.104  1.8879  0.6626 -0.9629
14662SOL     OW49947   1.877   1.112   2.531 -0.2556 -0.6281  0.3098
14662SOL    HW149948   1.932   1.138   2.457 -0.9305  0.2192  0.0893
14662SOL    HW249949   1.788   1.115   2.497 -0.8355  2.2755  1.7612
14663SOL     OW49950   5.205   2.224   2.043  0.2503 -0.7111 -0.9147
14663SOL    HW149951   5.241   2.312   2.049  0.5174 -0.9083  0.8979
14663SOL    HW249952   5.110   2.237   2.036  0.1986 -0.2744  0.3875
14664SOL     OW49953   2.690   2.298   9.259  0.2216 -0.2521 -0.4511
14664SOL    HW149954   2.716   2.206   9.258  1.3856  0.0591 -0.2083
14664SOL    HW249955   2.755   2.343   9.206 -1.0032  0.2866 -1.5585
14665SOL     OW49956   5.938   0.323   5.792  0.6252  0.2374  0.0886
14665SOL    HW149957   5.901   0.343   5.706 -0.0172  0.9229  0.5081
14665SOL    HW249958   5.986   0.241   5.779  1.8616  1.1315 -1.2897
14666SOL     OW49959   4.810   4.620   7.024 -0.4887  0.4355  0.4697
14666SOL    HW149960   4.886   4.618   6.966 -0.8031  1.2977  0.0110
14666SOL    HW249961   4.745   4.566   6.979  0.1404 -1.0786  1.3112
14667SOL     OW49962   4.023   8.744   3.162 -0.4308 -0.1213  0.0540
14667SOL    HW149963   4.109   8.767   3.198 -1.5150  1.5725  1.6990
14667SOL    HW249964   3.990   8.675   3.219 -0.6964  0.1324  0.2093
14668SOL     OW49965   9.183   8.541   7.264  0.2580 -0.6327 -0.0546
14668SOL    HW149966   9.245   8.495   7.321  0.1804 -0.1286  0.4466
14668SOL    HW249967   9.134   8.598   7.323  0.9182  0.7097 -0.7620
14669SOL     OW49968   5.900   2.354   6.410  0.0750 -0.1521  0.0254
14669SOL    HW149969   5.941   2.440   6.404 -0.0049  0.1097  2.5040
14669SOL    HW249970   5.813   2.366   6.373 -0.5377  1.3077  1.8275
14670SOL     OW49971   5.331   5.986   4.064  0.8357 -0.5320  0.0180
14670SOL    HW149972   5.426   5.980   4.073  1.1125 -2.5280 -2.7959
14670SOL    HW249973   5.301   5.895   4.069 -0.2010 -0.6116 -4.0842
14671SOL     OW49974   8.271   9.103   4.111  0.3113  0.0696  0.2496
14671SOL    HW149975   8.303   9.171   4.052  1.9641 -0.5748  0.3733
14671SOL    HW249976   8.347   9.076   4.161 -0.7918 -0.3094  1.8008
14672SOL     OW49977   5.594   1.669   5.076 -0.4541 -0.0137 -0.8625
14672SOL    HW149978   5.536   1.712   5.139 -0.2414 -1.2840  0.2473
14672SOL    HW249979   5.542   1.599   5.038 -0.2112 -0.0084 -1.2131
14673SOL     OW49980   4.207   3.487   2.220 -0.0170 -0.0534 -0.2416
14673SOL    HW149981   4.245   3.503   2.134  0.6220 -0.8357 -0.1160
14673SOL    HW249982   4.140   3.554   2.229  1.3616  1.4117 -0.4441
14674SOL     OW49983   1.767   2.328   1.112 -0.7717  0.0877  0.3431
14674SOL    HW149984   1.741   2.415   1.140 -1.6577  0.1574 -0.6761
14674SOL    HW249985   1.750   2.272   1.188 -0.0975  0.8013  1.0343
14675SOL     OW49986   5.646   6.319   1.277 -0.1411  0.4122  0.4699
14675SOL    HW149987   5.565   6.335   1.228 -0.5539 -1.3331  0.5170
14675SOL    HW249988   5.692   6.403   1.275 -0.0220  0.4085 -3.1355
14676SOL     OW49989   7.240   5.880   3.618  0.5861 -0.1659  0.3767
14676SOL    HW149990   7.259   5.948   3.553 -1.7114 -0.6645 -0.9128
14676SOL    HW249991   7.325   5.840   3.637  1.6218  1.4402 -0.6483
14677SOL     OW49992   2.021   8.169   0.140  0.8206 -0.0439 -0.3058
14677SOL    HW149993   2.080   8.207   0.204  0.9671  0.0769 -0.5126
14677SOL    HW249994   2.022   8.230   0.066 -1.6814  1.4321  0.7540
14678SOL     OW49995   4.209   5.875   0.168 -0.1495  0.3961  0.1390
14678SOL    HW149996   4.197   5.788   0.205  4.0929 -0.4280  0.0574
14678SOL    HW249997   4.181   5.867   0.077 -0.7117 -0.5636  0.3886
14679SOL     OW49998   5.497   1.740   4.221  0.4290 -0.3062 -0.0778
14679SOL    HW149999   5.491   1.828   4.183  0.3520  0.0604  0.7709
14679SOL    HW250000   5.522   1.754   4.312  1.4861 -1.2196 -0.2069
14680SOL     OW50001   1.401   4.471   4.439 -0.1152  0.3733 -0.9256
14680SOL    HW150002   1.326   4.495   4.494 -0.1383  0.1725 -0.8678
14680SOL    HW250003   1.447   4.554   4.424  0.2112  0.3491 -0.1281
14681SOL     OW50004   5.352   6.417   7.397 -0.1667 -0.1290  0.7476
14681SOL    HW150005   5.378   6.431   7.306 -0.5846 -0.8358  0.5127
14681SOL    HW250006   5.258   6.397   7.392  0.1040 -1.5526  1.1945
14682SOL     OW50007   1.957   4.122   6.179 -0.0363  0.1229  0.3714
14682SOL    HW150008   1.867   4.154   6.182  0.4599  1.6323  0.3848
14682SOL    HW250009   1.975   4.091   6.267 -1.3048 -2.5785 -0.2208
14683SOL     OW50010   4.439   7.242   7.343 -0.2925  0.0136 -0.2122
14683SOL    HW150011   4.388   7.287   7.276 -2.3536 -1.6524  0.1357
14683SOL    HW250012   4.403   7.274   7.426  0.1472 -0.2046  0.0658
14684SOL     OW50013   6.213   6.666   2.512 -0.3691 -0.3870 -0.2692
14684SOL    HW150014   6.186   6.753   2.540  0.8244 -0.4354  1.1049
14684SOL    HW250015   6.252   6.679   2.426  0.4872  0.5615  0.2520
14685SOL     OW50016   0.110   2.650   8.428 -0.0398  0.2857 -0.5967
14685SOL    HW150017   0.085   2.585   8.362  0.1311  1.0454 -1.4221
14685SOL    HW250018   0.029   2.670   8.474 -0.1925 -0.1150 -0.6873
14686SOL     OW50019   8.554   2.655   7.887  0.0118  0.7114  0.5704
14686SOL    HW150020   8.497   2.720   7.845 -0.3753  0.6844  1.0372
14686SOL    HW250021   8.635   2.702   7.906 -0.7198  1.4509  2.0714
14687SOL     OW50022   6.480   5.468   4.551 -0.6076  0.5335  0.1367
14687SOL    HW150023   6.438   5.526   4.488 -0.0747 -0.2358 -0.9671
14687SOL    HW250024   6.414   5.401   4.570 -2.3744  2.9246  3.6880
14688SOL     OW50025   1.917   9.351   9.030 -0.0524  0.3637 -0.3517
14688SOL    HW150026   1.995   9.296   9.037 -0.2367  0.2096  0.5973
14688SOL    HW250027   1.936   9.410   8.956  0.4159 -0.5207 -0.9536
14689SOL     OW50028   3.983   0.050   7.428  0.5024 -0.1995  0.5448
14689SOL    HW150029   3.904   0.079   7.384  0.4685 -0.7159  0.2547
14689SOL    HW250030   4.003  -0.035   7.388  0.2221 -0.8881  1.8084
14690SOL     OW50031   4.795   0.704   5.744 -0.6033 -0.0201  0.1454
14690SOL    HW150032   4.873   0.755   5.763 -1.0444  0.5730  0.4080
14690SOL    HW250033   4.826   0.614   5.738  0.5162  0.4569 -2.2741
14691SOL     OW50034   7.772   7.302   0.258 -0.3634  0.0256  0.0187
14691SOL    HW150035   7.697   7.313   0.200  0.1991 -0.1811 -0.7617
14691SOL    HW250036   7.832   7.372   0.233 -0.3180  0.2217  0.6723
14692SOL     OW50037   8.739   9.285   8.466 -0.4131 -0.4429  0.2573
14692SOL    HW150038   8.784   9.264   8.384  0.3143 -0.7840  0.7266
14692SOL    HW250039   8.750   9.380   8.476  0.2806 -0.5293  0.3937
14693SOL     OW50040   3.307   3.378   2.599 -0.3791 -0.3537 -0.6947
14693SOL    HW150041   3.275   3.324   2.527  0.3755 -1.3597 -0.2957
14693SOL    HW250042   3.370   3.323   2.645  0.4247  0.8720 -0.2733
14694SOL     OW50043   3.296   4.071   3.972 -0.1164  0.2896  0.0920
14694SOL    HW150044   3.289   4.049   3.879  0.4654  1.2886 -0.1980
14694SOL    HW250045   3.228   4.136   3.987 -0.2184  0.1215  0.3727
14695SOL     OW50046   0.588   4.038   5.326 -0.4293 -0.2949 -0.2709
14695SOL    HW150047   0.578   3.945   5.345 -1.8972 -0.1891 -0.4445
14695SOL    HW250048   0.614   4.042   5.234  0.7657 -0.5608  0.0388
14696SOL     OW50049   1.490   0.580   6.831 -0.2845 -0.1613 -0.3583
14696SOL    HW150050   1.407   0.589   6.784 -0.3793 -0.5696 -0.2781
14696SOL    HW250051   1.469   0.523   6.905  0.7830 -3.4032 -2.3066
14697SOL     OW50052   6.414   5.626   2.994 -0.6151 -0.1931 -0.0307
14697SOL    HW150053   6.495   5.665   3.028 -0.7777 -0.0452  0.1910
14697SOL    HW250054   6.370   5.699   2.949 -1.9265  0.4570  2.1575
14698SOL     OW50055   1.849   1.057   7.005  0.3890 -0.1401 -0.2743
14698SOL    HW150056   1.844   1.028   6.914  2.0924 -2.7317  0.3703
14698SOL    HW250057   1.941   1.076   7.020  0.1047  0.4465  0.8946
14699SOL     OW50058   4.562   1.741   4.746 -0.3018  0.3040  0.4655
14699SOL    HW150059   4.564   1.646   4.759  0.0220  0.3910  1.1172
14699SOL    HW250060   4.655   1.765   4.739 -0.3633  0.6233  0.7372
14700SOL     OW50061   4.518   7.435   1.469 -0.2479 -0.3961 -0.4405
14700SOL    HW150062   4.579   7.416   1.540  0.1909  1.7362 -0.1741
14700SOL    HW250063   4.434   7.446   1.512  0.2432  2.1826  0.0274
14701SOL     OW50064   8.281   7.845   0.832 -0.3456 -0.1992  0.0100
14701SOL    HW150065   8.269   7.799   0.748 -2.9271 -0.6227  0.5145
14701SOL    HW250066   8.350   7.797   0.876 -0.9137 -1.7468 -0.7240
14702SOL     OW50067   0.069   7.913   2.998  0.4506  0.3330 -0.5485
14702SOL    HW150068   0.083   7.950   2.911  0.0244  1.2458 -0.2445
14702SOL    HW250069   0.026   7.829   2.982 -0.0571  0.7080 -1.1989
14703SOL     OW50070   1.389   4.759   5.092  0.1228 -0.1735 -0.1839
14703SOL    HW150071   1.420   4.672   5.067 -1.3958 -0.1488 -2.4852
14703SOL    HW250072   1.404   4.813   5.015  1.4259  1.7848  1.3338
14704SOL     OW50073   7.105   5.659   8.640  0.2413  0.1213 -0.5085
14704SOL    HW150074   7.152   5.733   8.600  0.3798  0.4334  0.2165
14704SOL    HW250075   7.013   5.675   8.619  0.2575  0.5754 -0.2539
14705SOL     OW50076   7.093   3.109   9.151 -0.1029 -0.3647 -0.4431
14705SOL    HW150077   7.182   3.088   9.181 -0.0875  0.2403 -0.0359
14705SOL    HW250078   7.101   3.115   9.056 -0.2708 -2.8474 -0.6744
14706SOL     OW50079   5.678   1.400   0.682  0.0025 -0.0538 -0.1421
14706SOL    HW150080   5.621   1.344   0.736  0.3421  0.9388  1.3174
14706SOL    HW250081   5.758   1.408   0.734  0.5057  0.6144 -1.0060
14707SOL     OW50082   4.446   1.308   1.641  0.0262 -0.8040 -0.0443
14707SOL    HW150083   4.487   1.340   1.721 -1.3072  0.3783  0.2173
14707SOL    HW250084   4.448   1.384   1.582  0.2213 -1.4016 -0.8181
14708SOL     OW50085   6.239   4.585   2.344  0.5395 -0.4564  0.2098
14708SOL    HW150086   6.210   4.652   2.406  0.0975 -1.2391  0.8866
14708SOL    HW250087   6.298   4.630   2.285  1.4699  0.2000  1.5819
14709SOL     OW50088   5.561   0.445   0.706 -0.6906  0.4918 -0.2692
14709SOL    HW150089   5.630   0.493   0.752  1.6134  0.1869 -3.1536
14709SOL    HW250090   5.489   0.508   0.700 -0.2935  1.2284  1.7922
14710SOL     OW50091   1.318   7.289   5.667  0.4057  0.1140  0.1802
14710SOL    HW150092   1.317   7.353   5.595  0.3096  0.8521  0.8214
14710SOL    HW250093   1.226   7.266   5.679  0.3008  0.8412  0.8004
14711SOL     OW50094   4.143   5.766   8.309  0.0886 -0.0098  0.4404
14711SOL    HW150095   4.180   5.758   8.221 -1.7280 -4.3174 -0.1929
14711SOL    HW250096   4.058   5.808   8.296 -0.0136 -0.2971  0.1624
14712SOL     OW50097   3.892   3.144   0.749  0.0777 -0.2914  0.7230
14712SOL    HW150098   3.980   3.142   0.788 -0.1963  0.4870  1.4127
14712SOL    HW250099   3.834   3.162   0.823 -0.7569 -1.5400  0.4001
14713SOL     OW50100   0.855   8.151   0.415  0.2045  0.3988 -0.5484
14713SOL    HW150101   0.860   8.062   0.450 -0.8857  0.4789 -0.1481
14713SOL    HW250102   0.946   8.180   0.409  0.5397 -0.5461 -0.1846
14714SOL     OW50103   3.595   7.800   8.521 -0.1950 -0.4051  0.0467
14714SOL    HW150104   3.515   7.749   8.510  0.3450 -1.5950  1.3264
14714SOL    HW250105   3.599   7.818   8.615  2.2968 -2.5662  0.4534
14715SOL     OW50106   8.985   2.724   8.794  0.0728 -0.6634 -0.1184
14715SOL    HW150107   9.058   2.662   8.782 -0.1671 -1.1891  1.0017
14715SOL    HW250108   9.028   2.807   8.815  0.3875 -1.2338  1.7307
14716SOL     OW50109   3.445   9.359   1.568 -0.4425  0.0672 -0.0893
14716SOL    HW150110   3.538   9.371   1.550 -0.6969  1.9535 -0.3166
14716SOL    HW250111   3.442   9.291   1.636  0.8559 -2.6993 -2.5459
14717SOL     OW50112   0.689   4.902   5.918 -0.1712 -0.0665  0.4803
14717SOL    HW150113   0.629   4.899   5.992  0.0072 -1.5980  0.5878
14717SOL    HW250114   0.741   4.822   5.925  1.4489  0.8966  0.0053
14718SOL     OW50115   7.700   0.413   3.074 -0.2731  0.1450 -0.5071
14718SOL    HW150116   7.658   0.332   3.046 -1.3623  0.2086  0.8716
14718SOL    HW250117   7.645   0.482   3.038  0.8987  0.3311 -2.0613
14719SOL     OW50118   3.212   8.826   3.535 -0.0030  0.4445 -0.4149
14719SOL    HW150119   3.305   8.852   3.538 -0.3044  1.6441 -0.7793
14719SOL    HW250120   3.192   8.800   3.625  0.7252  0.0222 -0.3629
14720SOL     OW50121   4.062   6.789   8.885  0.5735  0.6205  0.6897
14720SOL    HW150122   3.978   6.745   8.893  0.7146  0.5001  1.7451
14720SOL    HW250123   4.111   6.761   8.963  0.4583  3.0715  1.7331
14721SOL     OW50124   3.831   9.247   5.499 -0.0825  0.2990  0.1077
14721SOL    HW150125   3.772   9.270   5.427 -0.9739 -3.0283 -0.4080
14721SOL    HW250126   3.772   9.225   5.571  0.5507 -1.3850  0.1470
14722SOL     OW50127   8.629   8.410   5.256  0.1849  0.1708  0.3840
14722SOL    HW150128   8.592   8.449   5.335 -4.3304 -0.4650 -1.0957
14722SOL    HW250129   8.642   8.483   5.196  0.7638  0.3342  0.7034
14723SOL     OW50130   7.416   6.918   7.234  0.3794  0.0550 -0.4270
14723SOL    HW150131   7.337   6.889   7.188 -0.4198  2.4403 -0.6767
14723SOL    HW250132   7.393   6.914   7.327 -0.0740  0.7893 -0.5012
14724SOL     OW50133   5.591   0.480   5.404 -0.5348 -0.8035  0.3994
14724SOL    HW150134   5.651   0.424   5.354 -0.8151 -0.5369 -0.2493
14724SOL    HW250135   5.532   0.516   5.338  0.5849  1.4844  0.5309
14725SOL     OW50136   6.543   5.367   2.989 -0.3197 -0.1919  0.3840
14725SOL    HW150137   6.495   5.311   3.051 -0.4012  2.0247  2.5192
14725SOL    HW250138   6.493   5.449   2.989 -0.8312 -0.3634 -3.4372
14726SOL     OW50139   8.578   1.486   3.794  0.0724  0.1107 -0.5826
14726SOL    HW150140   8.641   1.555   3.772  0.6053  0.2656  1.2662
14726SOL    HW250141   8.595   1.417   3.730  2.9152 -0.3051  0.4816
14727SOL     OW50142   3.689   0.667   1.265  0.2619 -0.1212 -0.5651
14727SOL    HW150143   3.769   0.649   1.314  0.0380  0.9673  0.2463
14727SOL    HW250144   3.706   0.633   1.177  1.6223  0.0954 -0.4097
14728SOL     OW50145   7.254   3.096   0.914  0.0850 -0.5220 -0.0712
14728SOL    HW150146   7.253   3.135   0.826 -0.0794 -0.4741 -0.0481
14728SOL    HW250147   7.347   3.086   0.934  0.1496  0.5342  0.2249
14729SOL     OW50148   1.901   2.348   9.193  0.9101 -0.0042  0.1953
14729SOL    HW150149   1.962   2.277   9.211  0.7266 -0.0835  0.5204
14729SOL    HW250150   1.874   2.335   9.103  1.2120 -0.0936  0.1175
14730SOL     OW50151   9.164   1.863   4.930  0.0903  0.0272  0.4845
14730SOL    HW150152   9.073   1.891   4.938  0.7847  2.3993  1.0323
14730SOL    HW250153   9.197   1.862   5.020  0.2097 -2.5176  0.4789
14731SOL     OW50154   8.790   8.361   8.855  0.0977  0.3589 -0.0460
14731SOL    HW150155   8.855   8.337   8.921 -0.4060 -0.2920  0.2218
14731SOL    HW250156   8.723   8.293   8.861  0.2013  0.0986 -1.4538
14732SOL     OW50157   0.734   8.738   8.109 -0.4511 -0.2039 -0.0276
14732SOL    HW150158   0.750   8.666   8.169 -0.5169 -0.4393 -0.2898
14732SOL    HW250159   0.684   8.700   8.037  0.2845 -0.1062 -0.6142
14733SOL     OW50160   2.975   4.060   0.602 -0.0559  0.0053 -0.1548
14733SOL    HW150161   3.018   4.021   0.527 -0.8295 -1.4436  0.1121
14733SOL    HW250162   3.038   4.124   0.636  1.9796 -2.1078  0.3256
14734SOL     OW50163   2.245   4.158   1.700  0.1785  0.2408 -0.0301
14734SOL    HW150164   2.162   4.110   1.697  0.3201 -0.1503  1.3534
14734SOL    HW250165   2.277   4.157   1.610 -0.3654 -1.3127 -0.2382
14735SOL     OW50166   2.959   4.738   8.169  0.2166 -0.3243 -0.3437
14735SOL    HW150167   3.019   4.671   8.136  0.2094 -0.6396  0.2763
14735SOL    HW250168   2.872   4.710   8.140  0.3558  0.1436 -1.2591
14736SOL     OW50169   0.936   8.726   0.219  0.4132  0.5850 -0.1543
14736SOL    HW150170   1.009   8.667   0.240  0.2895  0.7958  0.9018
14736SOL    HW250171   0.876   8.672   0.168  0.4427 -0.1274  0.5474
14737SOL     OW50172   9.089   3.497   2.003 -0.4625 -0.5081 -0.2754
14737SOL    HW150173   9.176   3.485   2.041 -0.2252 -0.7541 -0.8852
14737SOL    HW250174   9.097   3.466   1.913 -0.9870  0.1711 -0.5663
14738SOL     OW50175   4.932   4.480   4.120 -0.3032  0.2236 -0.2424
14738SOL    HW150176   4.845   4.452   4.094  0.2780 -0.4646 -1.5592
14738SOL    HW250177   4.949   4.559   4.067  0.0730  0.0447 -0.3956
14739SOL     OW50178   2.641   0.499   7.227  0.2075 -0.0393  0.4508
14739SOL    HW150179   2.620   0.587   7.261 -0.4295 -0.1728  0.4127
14739SOL    HW250180   2.633   0.442   7.303 -0.3571 -0.2097  0.2651
14740SOL     OW50181   0.114   1.920   2.218 -0.0659  0.2460  0.0015
14740SOL    HW150182   0.048   1.857   2.245  0.2773 -0.0777  0.0852
14740SOL    HW250183   0.136   1.967   2.299 -2.8380  2.9080 -0.6007
14741SOL     OW50184   8.164   8.371   7.630 -0.5791  0.1876  0.1336
14741SOL    HW150185   8.204   8.322   7.702 -1.0078  0.4229  0.5300
14741SOL    HW250186   8.180   8.317   7.553  1.0730  0.5627  0.1706
14742SOL     OW50187   5.023   2.098   2.744  0.2087 -0.1979  0.0499
14742SOL    HW150188   5.113   2.129   2.737  0.8070 -1.9773 -0.6564
14742SOL    HW250189   4.994   2.086   2.653  0.3435 -2.5017  0.2518
14743SOL     OW50190   0.046   6.419   5.205 -0.2561 -0.0560 -0.4856
14743SOL    HW150191   0.087   6.452   5.125 -0.0001  4.1361  1.1512
14743SOL    HW250192  -0.047   6.433   5.192 -0.4269 -1.2551 -0.7311
14744SOL     OW50193   8.090   5.392   7.038  0.3561 -0.2088  0.4082
14744SOL    HW150194   8.087   5.475   6.989  1.4137 -1.7575 -2.5528
14744SOL    HW250195   8.156   5.406   7.106  0.2309  1.4928  0.2192
14745SOL     OW50196   1.052   1.947   0.192  0.3781  0.7360 -0.0112
14745SOL    HW150197   0.963   1.929   0.221  0.8044  1.5350  1.9933
14745SOL    HW250198   1.062   1.898   0.110 -1.3809 -0.6368  0.5417
14746SOL     OW50199   2.908   7.238   0.613 -0.0362 -0.1110 -0.1096
14746SOL    HW150200   2.844   7.267   0.548 -0.7873 -0.0702  0.6231
14746SOL    HW250201   2.861   7.172   0.664  0.7215 -0.5322  0.0436
14747SOL     OW50202   5.796   7.455   3.075 -0.6436 -0.2576 -0.8471
14747SOL    HW150203   5.748   7.432   3.155 -0.6257  1.4064 -0.3157
14747SOL    HW250204   5.888   7.458   3.102 -0.6538  0.4691 -0.8673
14748SOL     OW50205   7.515   9.259   2.880  0.2224 -0.2012 -0.8169
14748SOL    HW150206   7.429   9.291   2.905  1.5290  1.4180  2.1112
14748SOL    HW250207   7.540   9.312   2.804 -0.0575  1.6404  0.3480
14749SOL     OW50208   7.637   7.331   6.680  0.1384  0.2289 -0.7371
14749SOL    HW150209   7.642   7.399   6.747 -0.9119 -0.8846  0.5112
14749SOL    HW250210   7.581   7.264   6.717  0.7148 -1.1033 -2.1600
14750SOL     OW50211   6.908   3.830   4.857  0.4673 -0.0375  0.1841
14750SOL    HW150212   6.877   3.858   4.943 -1.1788  0.4548 -0.5265
14750SOL    HW250213   6.949   3.908   4.820  0.1488  0.0828  0.0804
14751SOL     OW50214   3.446   5.064   7.176 -0.5109  0.1872 -0.1421
14751SOL    HW150215   3.436   5.107   7.091  0.6382  1.6525  0.4119
14751SOL    HW250216   3.366   5.085   7.223 -1.1110 -0.5520 -0.8092
14752SOL     OW50217   8.860   4.278   8.896  0.6783 -0.5686  0.2626
14752SOL    HW150218   8.934   4.312   8.847 -2.1921  2.1965 -2.6506
14752SOL    HW250219   8.827   4.353   8.945 -1.9360 -0.7531 -1.0161
14753SOL     OW50220   5.239   5.118   4.012 -0.3265 -0.3779  0.3226
14753SOL    HW150221   5.211   5.052   4.075 -1.7161  0.1162  0.2707
14753SOL    HW250222   5.165   5.125   3.951 -0.1480  1.0874  0.2294
14754SOL     OW50223   8.036   0.798   5.881 -0.0716  0.3565 -0.8356
14754SOL    HW150224   8.032   0.770   5.972  1.8873  0.4443 -0.6817
14754SOL    HW250225   7.966   0.750   5.837 -1.1048  0.4026  0.7241
14755SOL     OW50226   8.426   4.792   1.569  0.4306 -0.0831  0.6060
14755SOL    HW150227   8.348   4.819   1.520  1.4804  0.0612 -1.0746
14755SOL    HW250228   8.400   4.712   1.613 -0.5894 -0.2121 -0.1840
14756SOL     OW50229   1.848   9.276   6.256 -0.7876 -0.0589  0.5494
14756SOL    HW150230   1.806   9.223   6.324 -1.7636  0.4847  0.4017
14756SOL    HW250231   1.940   9.254   6.261 -1.1310 -1.5464  0.6785
14757SOL     OW50232   2.640   0.111   8.521 -0.5064  0.0690  0.2076
14757SOL    HW150233   2.633   0.118   8.616 -0.3499 -0.3245  0.2491
14757SOL    HW250234   2.647   0.202   8.491  0.8876  0.1399  0.6802
14758SOL     OW50235   8.518   7.889   3.249 -0.3085  0.1503 -0.0278
14758SOL    HW150236   8.519   7.805   3.203 -0.6367  0.2588 -0.2344
14758SOL    HW250237   8.436   7.931   3.221  0.0340  0.7044 -0.2200
14759SOL     OW50238   8.039   0.892   7.989  0.8145 -0.7408  0.3851
14759SOL    HW150239   8.086   0.903   7.906 -0.9822  0.7934 -0.4843
14759SOL    HW250240   8.053   0.974   8.036 -3.0202  0.9527 -1.0499
14760SOL     OW50241   2.361   2.442   2.297  0.7614 -0.3032  0.7726
14760SOL    HW150242   2.354   2.529   2.336  1.5571  0.2505 -0.2689
14760SOL    HW250243   2.270   2.416   2.279  0.5451  0.5978  0.5108
14761SOL     OW50244   3.242   0.775   7.066 -0.1318  0.2286 -0.0511
14761SOL    HW150245   3.175   0.821   7.016 -1.1401  0.1688  1.2052
14761SOL    HW250246   3.200   0.695   7.095  0.6817 -0.1017  0.2498
14762SOL     OW50247   2.447   8.575   4.989  0.2846  0.2110 -0.1437
14762SOL    HW150248   2.422   8.501   5.045  1.6584  0.7518  1.2521
14762SOL    HW250249   2.402   8.650   5.026  0.9507  0.5198  0.0591
14763SOL     OW50250   5.722   6.294   3.682 -0.2173 -0.4848 -0.1167
14763SOL    HW150251   5.760   6.216   3.722  2.4957  1.5280  1.5484
14763SOL    HW250252   5.658   6.325   3.745 -1.1001 -1.1642 -0.6566
14764SOL     OW50253   2.206   6.723   8.683 -0.3173 -0.0238  0.0803
14764SOL    HW150254   2.163   6.637   8.683  0.0040 -0.1954 -1.1290
14764SOL    HW250255   2.257   6.725   8.602  2.3055  0.0167  1.6150
14765SOL     OW50256   1.809   6.455   8.875 -0.0502 -0.0493  0.9037
14765SOL    HW150257   1.770   6.542   8.868 -0.4302 -0.2492  0.4594
14765SOL    HW250258   1.877   6.464   8.942  1.3890  1.1137 -0.6367
14766SOL     OW50259   5.474   7.080   8.901  0.1714 -0.2813 -0.0837
14766SOL    HW150260   5.434   7.135   8.968 -0.7349 -2.2536  1.0660
14766SOL    HW250261   5.554   7.047   8.942 -0.8319 -2.2001  0.4326
14767SOL     OW50262   2.162   3.217   7.461 -0.2955 -0.4814  0.2437
14767SOL    HW150263   2.089   3.252   7.408 -2.7235 -2.6293  1.9282
14767SOL    HW250264   2.187   3.290   7.518 -0.2472  0.6749 -1.2046
14768SOL     OW50265   0.219   7.879   4.297 -0.3418  0.5096  0.1205
14768SOL    HW150266   0.176   7.941   4.356 -1.5255 -0.5535  0.4272
14768SOL    HW250267   0.153   7.811   4.282  0.5970 -0.2027 -0.9377
14769SOL     OW50268   8.594   2.531   0.892 -0.6922 -0.1101 -0.5258
14769SOL    HW150269   8.569   2.495   0.806  0.2557 -0.9206 -0.4747
14769SOL    HW250270   8.528   2.497   0.952 -0.5045 -0.7699 -0.6882
14770SOL     OW50271   9.247   4.343   2.722  0.1812 -0.3416 -0.3599
14770SOL    HW150272   9.241   4.248   2.714  0.0954 -0.2937 -0.9475
14770SOL    HW250273   9.274   4.372   2.635 -1.4675  0.3057 -0.6955
14771SOL     OW50274   0.044   2.328   6.738  0.0366  0.1789  0.1220
14771SOL    HW150275   0.056   2.408   6.687  2.4658 -0.3597 -0.2867
14771SOL    HW250276   0.042   2.358   6.829 -1.2726  0.8634 -0.1035
14772SOL     OW50277   2.364   4.656   6.979  0.1717 -0.7775 -0.5385
14772SOL    HW150278   2.287   4.662   6.922 -1.3543  1.1052  1.5753
14772SOL    HW250279   2.433   4.701   6.931 -1.1135  0.8981 -0.8905
14773SOL     OW50280   5.082   1.568   8.493 -0.0132 -0.4089 -0.0037
14773SOL    HW150281   5.016   1.547   8.428  0.1288 -0.4230 -0.1430
14773SOL    HW250282   5.034   1.611   8.563 -0.1136 -0.0987 -0.2645
14774SOL     OW50283   6.941   3.070   0.278  0.5678 -0.1448  0.3774
14774SOL    HW150284   6.974   3.030   0.197 -0.0591 -0.6558  0.3663
14774SOL    HW250285   6.991   3.151   0.287 -0.5198  0.7878 -1.4354
14775SOL     OW50286   4.690   2.815   1.946 -0.5294  0.3554  0.0642
14775SOL    HW150287   4.706   2.729   1.907 -0.6633  0.6549 -0.6797
14775SOL    HW250288   4.775   2.859   1.943 -0.7144  0.6788 -0.6690
14776SOL     OW50289   5.909   4.787   9.112  0.1316  0.7890  0.0303
14776SOL    HW150290   5.997   4.753   9.130  0.3392  1.4459  0.2899
14776SOL    HW250291   5.919   4.835   9.029 -0.0716  0.5361 -0.1404
14777SOL     OW50292   2.045   1.960   4.236  0.5340 -0.1423 -0.2359
14777SOL    HW150293   2.017   2.034   4.290  0.8138  0.5268 -1.0027
14777SOL    HW250294   1.990   1.964   4.158 -0.6528 -1.7735  0.4484
14778SOL     OW50295   5.330   6.718   8.354  0.0194  0.0673 -0.1765
14778SOL    HW150296   5.268   6.723   8.427  0.0292 -0.9409 -0.0780
14778SOL    HW250297   5.360   6.808   8.341  0.9190  0.1152  1.8494
14779SOL     OW50298   1.547   5.494   8.321  0.2716 -0.2398 -0.3030
14779SOL    HW150299   1.457   5.499   8.289  0.4746  0.6032 -0.7915
14779SOL    HW250300   1.574   5.405   8.302  0.1867  0.0630 -2.0174
14780SOL     OW50301   5.582   6.863   7.873  0.3508  0.5677 -0.5661
14780SOL    HW150302   5.650   6.921   7.837  0.5053 -0.0555 -1.2989
14780SOL    HW250303   5.623   6.826   7.952  0.8729  0.2057 -0.9956
14781SOL     OW50304   8.150   6.738   7.574 -0.8428  0.7452 -0.5055
14781SOL    HW150305   8.117   6.649   7.560 -0.3181  0.5944 -0.8467
14781SOL    HW250306   8.220   6.727   7.638  0.0726  0.7159 -1.4816
14782SOL     OW50307   1.950   6.816   9.092 -0.5644  0.1131 -0.4163
14782SOL    HW150308   2.017   6.750   9.112 -1.2488 -0.2348  0.8324
14782SOL    HW250309   1.991   6.872   9.026  0.9538 -0.1147  0.2711
14783SOL     OW50310   1.016   4.933   2.236 -0.1689  0.5092  0.7589
14783SOL    HW150311   1.045   4.980   2.315  1.0862 -0.4170  0.8838
14783SOL    HW250312   1.076   4.859   2.229  0.8117  1.4329 -1.9786
14784SOL     OW50313   1.985   6.996   8.233  0.0387  0.6733  0.1152
14784SOL    HW150314   1.961   6.992   8.325  0.9879  1.2818  0.4120
14784SOL    HW250315   1.910   7.037   8.190 -0.6519 -0.1610  0.5113
14785SOL     OW50316   2.903   1.644   0.956  0.1722  0.2969  0.0413
14785SOL    HW150317   2.976   1.648   1.018 -0.3343 -1.7648  0.8818
14785SOL    HW250318   2.833   1.694   0.998  1.4008  3.4794 -1.3962
14786SOL     OW50319   3.016   4.362   6.812  0.0772  0.1531  0.2364
14786SOL    HW150320   2.976   4.425   6.752  0.0303  0.4421  0.5674
14786SOL    HW250321   3.058   4.297   6.755  0.3602  0.6351 -0.1052
14787SOL     OW50322   7.279   3.998   1.974 -0.3042  0.5122  0.9650
14787SOL    HW150323   7.349   4.019   2.036  1.0877 -0.6442 -0.1455
14787SOL    HW250324   7.290   4.062   1.903  0.0630 -0.0892  0.4740
14788SOL     OW50325   7.586   9.044   6.594  0.4395 -0.1254  0.7275
14788SOL    HW150326   7.529   8.970   6.614 -1.0889  0.8772  0.2321
14788SOL    HW250327   7.661   9.033   6.653  0.4291 -2.2289  0.4425
14789SOL     OW50328   2.743   8.684   1.515  0.0998 -0.0971  0.5110
14789SOL    HW150329   2.762   8.627   1.589  0.3419 -0.0402  0.4928
14789SOL    HW250330   2.705   8.625   1.449 -1.2012  0.0524  1.1014
14790SOL     OW50331   5.819   4.612   6.034 -0.3498  0.2822 -0.5321
14790SOL    HW150332   5.838   4.704   6.014 -0.3272  0.3428 -0.2346
14790SOL    HW250333   5.738   4.615   6.085  0.1618  0.2195  0.3052
14791SOL     OW50334   2.040   5.434   4.341  0.6503  0.3126  0.4157
14791SOL    HW150335   2.127   5.429   4.301  0.5917  2.1944 -0.0344
14791SOL    HW250336   1.979   5.417   4.270  0.6047  1.0393  0.2807
14792SOL     OW50337   1.447   0.491   0.025 -0.3102  0.7814  0.5873
14792SOL    HW150338   1.435   0.586   0.016 -1.8150  0.5872  0.2708
14792SOL    HW250339   1.453   0.477   0.119  3.8326  1.5535  0.6348
14793SOL     OW50340   7.073   1.927   2.700 -0.4835 -0.1906  0.6163
14793SOL    HW150341   7.020   1.925   2.780 -1.1033  1.5897  0.3115
14793SOL    HW250342   7.016   1.893   2.632 -1.0592  1.0858  0.4177
14794SOL     OW50343   0.060   4.139   9.111  0.6819  0.6691 -0.5105
14794SOL    HW150344   0.113   4.075   9.063 -0.9277 -1.0479 -0.1166
14794SOL    HW250345   0.026   4.090   9.186 -0.7883  1.9293 -0.3147
14795SOL     OW50346   6.115   1.430   0.320 -0.5406  0.0082  0.1852
14795SOL    HW150347   6.159   1.348   0.338  2.3180  1.4121  0.1571
14795SOL    HW250348   6.072   1.453   0.402 -0.4697 -0.9961  0.5122
14796SOL     OW50349   4.228   3.696   7.412 -0.3831 -0.1078  0.5111
14796SOL    HW150350   4.298   3.680   7.475 -0.3391  3.1014  1.4676
14796SOL    HW250351   4.268   3.681   7.327  0.2529 -2.1929  1.1242
14797SOL     OW50352   0.691   5.947   1.362 -1.0163  0.0315  0.1011
14797SOL    HW150353   0.616   5.970   1.307 -0.8690  2.0724  0.6501
14797SOL    HW250354   0.750   6.022   1.354 -0.1114 -0.4911  1.5271
14798SOL     OW50355   1.854   1.782   8.461 -0.0469 -0.2586  0.0955
14798SOL    HW150356   1.818   1.870   8.447  0.1127 -0.3328 -0.8605
14798SOL    HW250357   1.923   1.795   8.526 -0.7649  0.1347  0.8025
14799SOL     OW50358   2.354   6.031   5.196  0.7336  1.1767 -0.1267
14799SOL    HW150359   2.297   5.956   5.180  0.1915  2.0787 -3.1982
14799SOL    HW250360   2.404   6.007   5.273  0.7811 -2.4838 -1.0900
14800SOL     OW50361   2.984   2.708   0.674  0.3950  0.0604  0.4872
14800SOL    HW150362   2.940   2.643   0.729  0.2142  0.2892  0.6161
14800SOL    HW250363   2.982   2.788   0.726  1.2670 -0.0042  0.6383
14801SOL     OW50364   4.575   7.092   0.184  0.5300  0.0787  0.1623
14801SOL    HW150365   4.578   7.186   0.170  2.6018  0.4990  2.6321
14801SOL    HW250366   4.559   7.055   0.098 -0.8718  2.6689 -0.7928
14802SOL     OW50367   5.143   1.989   3.397 -0.2692 -0.2127 -0.0767
14802SOL    HW150368   5.176   1.936   3.470 -0.1618  0.1642  0.1486
14802SOL    HW250369   5.174   1.943   3.319 -0.2031 -0.5005  0.1171
14803SOL     OW50370   7.834   4.181   4.249  0.3028  0.2882  0.4571
14803SOL    HW150371   7.785   4.106   4.216 -0.6086  0.4456  1.4028
14803SOL    HW250372   7.859   4.156   4.338 -0.6461  1.3686  1.0512
14804SOL     OW50373   2.701   4.646   1.167  0.2289  0.2815 -0.2272
14804SOL    HW150374   2.635   4.707   1.135 -0.1122 -0.1085 -0.2833
14804SOL    HW250375   2.656   4.562   1.172  1.2861 -0.4927 -2.4170
14805SOL     OW50376   1.690   1.294   8.347 -0.0092 -0.0148 -0.1027
14805SOL    HW150377   1.713   1.268   8.437 -0.5718  1.6219  0.5466
14805SOL    HW250378   1.622   1.232   8.321 -1.4507  0.8103  1.4637
14806SOL     OW50379   4.719   6.797   7.525  0.1306  0.0177  0.6925
14806SOL    HW150380   4.739   6.705   7.505  1.6279  0.3174  0.6429
14806SOL    HW250381   4.740   6.806   7.618 -0.0049  0.3152  0.6937
14807SOL     OW50382   0.503   1.468   4.546  0.3725 -0.3993  0.1837
14807SOL    HW150383   0.487   1.531   4.475 -2.0644  2.3871  2.8992
14807SOL    HW250384   0.595   1.482   4.569  0.4986  0.5090 -0.7514
14808SOL     OW50385   8.880   9.311   5.297  0.1393  0.0396  0.3467
14808SOL    HW150386   8.953   9.250   5.303  1.2847  1.1016 -1.8418
14808SOL    HW250387   8.879   9.356   5.382  2.7305  0.7549  0.0549
14809SOL     OW50388   8.878   8.482   0.064 -0.2260  0.2801 -0.4945
14809SOL    HW150389   8.865   8.551  -0.001  0.0228  0.7769 -0.0214
14809SOL    HW250390   8.958   8.506   0.110 -0.7049  0.2410  0.3830
14810SOL     OW50391   1.042   3.981   7.011 -0.6358  0.7261  0.9220
14810SOL    HW150392   1.044   4.042   7.085  1.0406  1.2598  0.4994
14810SOL    HW250393   1.121   3.928   7.023 -0.8190  0.2339  0.0088
14811SOL     OW50394   8.162   8.171   2.584  0.2347  0.6994  0.1948
14811SOL    HW150395   8.147   8.080   2.609  1.1170  0.3044 -0.6399
14811SOL    HW250396   8.205   8.210   2.660  3.0084 -0.5177 -0.6484
14812SOL     OW50397   5.111   3.443   1.259 -0.2377  0.2960 -0.1019
14812SOL    HW150398   5.204   3.459   1.241  0.5638 -1.4971  2.0305
14812SOL    HW250399   5.079   3.525   1.295  0.5957  0.8130 -0.5035
14813SOL     OW50400   0.597   2.981   1.122 -0.1703  0.9918 -0.3170
14813SOL    HW150401   0.560   2.908   1.074 -1.1804  0.1367  1.6634
14813SOL    HW250402   0.554   3.059   1.086  0.4123  0.5859 -1.9594
14814SOL     OW50403   6.659   1.844   1.028 -0.5209 -0.0814  0.4149
14814SOL    HW150404   6.589   1.893   1.071  0.1677  0.8354  0.5136
14814SOL    HW250405   6.703   1.798   1.100 -0.0313  0.6117  0.5657
14815SOL     OW50406   1.760   8.967   3.066  0.3790  0.5559 -0.0704
14815SOL    HW150407   1.751   9.025   3.141  0.0489 -0.2566  0.5269
14815SOL    HW250408   1.749   8.879   3.101 -1.4916  0.2259 -1.3081
14816SOL     OW50409   5.933   9.198   4.579 -0.0473 -0.0542  0.0380
14816SOL    HW150410   5.960   9.287   4.600 -0.7393  0.7013 -2.0483
14816SOL    HW250411   5.910   9.201   4.487 -0.0211 -2.4307 -0.1081
14817SOL     OW50412   6.375   7.127   8.428 -0.2052 -0.2700  0.2984
14817SOL    HW150413   6.452   7.184   8.435 -0.2526 -0.3223  1.5364
14817SOL    HW250414   6.339   7.145   8.341  0.8238  0.2489 -0.0284
14818SOL     OW50415   5.454   7.714   1.006 -0.5827  0.2167  0.5102
14818SOL    HW150416   5.479   7.651   1.074 -0.6184 -0.1120  0.2171
14818SOL    HW250417   5.384   7.765   1.046 -1.8536 -1.1486  0.0978
14819SOL     OW50418   9.187   2.830   1.241 -0.2912 -0.2320 -0.6851
14819SOL    HW150419   9.157   2.758   1.186  2.6265 -0.8121 -1.7309
14819SOL    HW250420   9.157   2.807   1.329  0.0003 -2.4577 -1.0898
14820SOL     OW50421   6.797   0.353   8.584 -0.3160 -0.2870  0.4228
14820SOL    HW150422   6.760   0.339   8.671 -0.7371 -0.1315  0.2730
14820SOL    HW250423   6.792   0.448   8.571 -1.3901 -0.4147 -0.2510
14821SOL     OW50424   2.185   5.463   3.957  0.2905  0.1531  0.4275
14821SOL    HW150425   2.212   5.371   3.965  2.8205  0.8527  0.5977
14821SOL    HW250426   2.096   5.458   3.921  0.5635 -2.3383 -0.1075
14822SOL     OW50427   4.478   8.735   3.713  0.2482 -0.0905  0.6647
14822SOL    HW150428   4.570   8.757   3.730  1.0013 -2.5795  0.2827
14822SOL    HW250429   4.477   8.639   3.707 -2.5233 -0.1978  1.3900
14823SOL     OW50430   1.809   4.718   2.304 -0.3999 -0.0885 -0.9287
14823SOL    HW150431   1.900   4.723   2.276  0.3009  2.7946  1.3989
14823SOL    HW250432   1.772   4.803   2.279 -1.2771  0.3595  1.6223
14824SOL     OW50433   8.042   8.691   1.281 -0.6131  0.2781  0.3994
14824SOL    HW150434   8.009   8.686   1.371  0.4815  0.0841  0.8031
14824SOL    HW250435   8.137   8.686   1.290 -0.5387 -1.5227 -0.8864
14825SOL     OW50436   2.469   4.783   7.337  0.2954  0.2255 -0.2149
14825SOL    HW150437   2.388   4.833   7.323 -0.7566 -1.1902  0.5493
14825SOL    HW250438   2.448   4.695   7.306  2.2564  0.3054 -1.9451
14826SOL     OW50439   5.659   2.820   8.651 -0.2297 -0.4085  0.2607
14826SOL    HW150440   5.672   2.727   8.632  0.4330 -0.0625 -1.0856
14826SOL    HW250441   5.706   2.865   8.581  0.6385  0.9670  1.6883
14827SOL     OW50442   6.448   4.997   9.069  0.0902  0.2531 -0.5039
14827SOL    HW150443   6.398   5.003   8.988 -0.9234  1.7175  0.1829
14827SOL    HW250444   6.410   5.064   9.126  0.2793 -1.2125  1.4593
14828SOL     OW50445   4.157   4.258   2.895 -0.4162 -0.7837  0.4762
14828SOL    HW150446   4.216   4.214   2.833 -2.0722 -0.3593 -1.5370
14828SOL    HW250447   4.080   4.279   2.842 -2.5740 -1.6944  3.0847
14829SOL     OW50448   4.749   9.066   6.045  0.2627  0.0498 -0.0189
14829SOL    HW150449   4.705   9.074   6.129 -1.9010  1.5267 -1.1962
14829SOL    HW250450   4.831   9.114   6.055  0.7873 -1.1075  1.6494
14830SOL     OW50451   1.568   3.561   1.046 -0.2424  0.3670  0.4011
14830SOL    HW150452   1.494   3.621   1.038  0.7949  1.4828 -1.6026
14830SOL    HW250453   1.586   3.533   0.956  0.5135 -1.4712  1.0774
14831SOL     OW50454   2.286   6.534   0.990 -0.0009 -0.1572 -0.1407
14831SOL    HW150455   2.207   6.574   1.027  0.5949  0.6020  0.3507
14831SOL    HW250456   2.258   6.496   0.907 -1.2464 -1.3412  0.7740
14832SOL     OW50457   6.581   6.047   5.074 -0.0338 -0.7726  0.1892
14832SOL    HW150458   6.573   5.981   5.005  1.1634 -1.5191  0.7431
14832SOL    HW250459   6.670   6.037   5.107  0.7169  2.1107 -0.6812
14833SOL     OW50460   0.375   6.738   0.219  0.2025  0.0240 -0.3498
14833SOL    HW150461   0.322   6.698   0.288 -0.3409  0.2913 -0.6062
14833SOL    HW250462   0.380   6.830   0.242  1.8432 -0.2406  0.4865
14834SOL     OW50463   6.517   5.406   8.573  0.2760  0.3318 -0.4394
14834SOL    HW150464   6.587   5.426   8.635  0.8455 -3.2887  0.3127
14834SOL    HW250465   6.437   5.414   8.626  0.6669 -1.5783  0.5113
14835SOL     OW50466   9.041   7.886   7.193 -0.2001 -0.2288 -0.1290
14835SOL    HW150467   9.091   7.945   7.249 -0.0301 -1.2045  0.7865
14835SOL    HW250468   9.097   7.809   7.184 -1.0405 -0.8643 -0.0481
14836SOL     OW50469   8.654   2.133   1.392 -0.1743 -0.0364  0.0527
14836SOL    HW150470   8.691   2.049   1.419 -0.6080  0.2683  1.6967
14836SOL    HW250471   8.730   2.186   1.366  0.2621 -0.3987  0.5744
14837SOL     OW50472   7.640   0.591   9.023  0.3544  0.1689 -0.4357
14837SOL    HW150473   7.655   0.529   8.952 -0.1679 -0.1665 -0.2579
14837SOL    HW250474   7.600   0.667   8.981  1.5599  0.6466 -0.7512
14838SOL     OW50475   8.409   4.805   6.719 -0.2603 -0.1330 -0.3371
14838SOL    HW150476   8.405   4.875   6.784 -0.8855  1.4884 -2.0427
14838SOL    HW250477   8.328   4.755   6.731 -0.2895  0.0515  0.2333
14839SOL     OW50478   5.318   8.105   4.201 -0.1498  0.6089 -0.5403
14839SOL    HW150479   5.350   8.035   4.143 -1.5602  0.4397 -1.1478
14839SOL    HW250480   5.223   8.105   4.188 -0.3283  1.5975  0.6459
14840SOL     OW50481   7.921   7.144   1.461 -0.0078  0.4422  0.1517
14840SOL    HW150482   7.838   7.182   1.433  0.0445  0.9284  0.6332
14840SOL    HW250483   7.937   7.182   1.547  1.1698  1.0888 -0.3216
14841SOL     OW50484   5.903   8.871   0.899  0.1922  0.1958 -0.0038
14841SOL    HW150485   5.861   8.869   0.985  2.0542  1.1411  1.0162
14841SOL    HW250486   5.858   8.941   0.852  2.3092  3.2820  2.1307
14842SOL     OW50487   2.965   2.061   2.784  0.6235 -0.2962  0.0123
14842SOL    HW150488   2.876   2.026   2.794  0.7624 -0.4488  0.7969
14842SOL    HW250489   2.952   2.154   2.766  0.3227 -0.0162  1.5385
14843SOL     OW50490   4.864   3.846   8.950 -0.4712 -0.0544 -0.2095
14843SOL    HW150491   4.877   3.802   9.034 -3.8331  1.2821  1.1906
14843SOL    HW250492   4.895   3.935   8.964  0.4227 -0.2373 -0.9390
14844SOL     OW50493   0.834   4.171   8.529 -0.3237  0.0440 -0.2937
14844SOL    HW150494   0.892   4.247   8.535  2.1467 -1.6821 -0.6228
14844SOL    HW250495   0.851   4.136   8.442 -0.3384 -1.6545  0.3558
14845SOL     OW50496   5.439   7.371   4.827  0.1502 -0.0763  0.0747
14845SOL    HW150497   5.437   7.317   4.906  0.0895  0.1974  0.2620
14845SOL    HW250498   5.347   7.378   4.800  0.2103 -0.5077 -0.2556
14846SOL     OW50499   6.044   2.069   7.362  0.0585  0.2257  0.5901
14846SOL    HW150500   6.070   2.160   7.378 -0.0201  0.3219  0.1907
14846SOL    HW250501   6.082   2.048   7.276 -1.8422  0.6458 -0.4133
14847SOL     OW50502   2.557   4.625   3.367  0.6125 -0.0150  0.1922
14847SOL    HW150503   2.487   4.612   3.431  1.0825  1.7332  1.1257
14847SOL    HW250504   2.601   4.540   3.362 -0.3532 -0.5968  1.0578
14848SOL     OW50505   6.143   4.826   0.725  0.0149  0.1592 -0.0350
14848SOL    HW150506   6.143   4.737   0.762  0.8968  0.0094 -0.3746
14848SOL    HW250507   6.203   4.875   0.780  1.0161  0.0405 -0.9804
14849SOL     OW50508   1.229   6.841   0.003  0.4204 -0.2022 -0.0901
14849SOL    HW150509   1.312   6.841   0.051  1.1052  0.7709 -1.2115
14849SOL    HW250510   1.209   6.933  -0.011 -1.0317 -0.4130  0.4273
14850SOL     OW50511   3.542   0.888   8.841  0.0639 -0.1362 -0.2013
14850SOL    HW150512   3.572   0.806   8.802  0.1423  0.0797 -0.6050
14850SOL    HW250513   3.619   0.945   8.839  0.0318 -0.0747  0.1497
14851SOL     OW50514   8.705   7.757   4.278 -0.5727 -0.2278 -0.7652
14851SOL    HW150515   8.650   7.683   4.304  1.1210 -1.3174 -0.1573
14851SOL    HW250516   8.709   7.752   4.182  0.2745 -1.5143 -0.6783
14852SOL     OW50517   1.617   7.051   8.316  0.5213  0.0526  0.0741
14852SOL    HW150518   1.580   7.134   8.345  1.5592  0.0313  1.5870
14852SOL    HW250519   1.548   6.986   8.333 -0.7618  0.6906 -2.2370
14853SOL     OW50520   0.229   7.403   1.712  0.1655  0.1194  0.5143
14853SOL    HW150521   0.137   7.419   1.687  0.4634  0.3509 -0.4842
14853SOL    HW250522   0.267   7.491   1.716  0.0470  0.1123  2.1662
14854SOL     OW50523   0.488   4.533   0.655 -0.2708 -0.2460 -0.3172
14854SOL    HW150524   0.510   4.598   0.590  0.3724 -0.6517 -0.5129
14854SOL    HW250525   0.565   4.476   0.659  0.8760  1.2941  2.7180
14855SOL     OW50526   6.081   7.646   7.338 -0.3622  0.0313  0.0089
14855SOL    HW150527   6.014   7.577   7.338 -0.8656  0.5051  0.0628
14855SOL    HW250528   6.160   7.604   7.371 -0.7067 -0.4808  0.1905
14856SOL     OW50529   8.534   7.131   8.528  0.6815  0.0470  0.7694
14856SOL    HW150530   8.452   7.115   8.575  0.3253  0.1951  0.2006
14856SOL    HW250531   8.595   7.160   8.596  0.2478 -0.0084  1.1861
14857SOL     OW50532   2.374   0.029   8.638  0.2098 -0.0324  0.2145
14857SOL    HW150533   2.453   0.036   8.692 -0.3592  0.4054  1.0156
14857SOL    HW250534   2.399   0.064   8.553  0.7270  0.6206  0.6278
14858SOL     OW50535   8.335   8.923   2.529  0.2903 -0.3108 -0.2314
14858SOL    HW150536   8.286   8.977   2.590  0.0461  0.2909 -0.9475
14858SOL    HW250537   8.409   8.890   2.580 -0.7876 -1.1771  0.8514
14859SOL     OW50538   2.172   0.380   8.396 -0.4649  0.6470 -0.1207
14859SOL    HW150539   2.237   0.426   8.449 -1.0247  1.1286  0.1506
14859SOL    HW250540   2.091   0.385   8.447 -0.3855 -1.2612  0.2568
14860SOL     OW50541   4.669   0.193   0.857 -0.2447 -0.2562 -0.1410
14860SOL    HW150542   4.624   0.120   0.900 -1.5917 -0.2827 -1.4868
14860SOL    HW250543   4.759   0.189   0.890 -0.6586 -1.6000  0.9357
14861SOL     OW50544   3.920   8.834   8.971  0.1864  0.3063 -0.0008
14861SOL    HW150545   3.924   8.927   8.952 -0.9114  0.1407 -1.1925
14861SOL    HW250546   3.961   8.792   8.895  0.1066 -0.1953  0.2255
14862SOL     OW50547   3.683   8.093   6.035  0.2417  0.9626 -0.2765
14862SOL    HW150548   3.665   8.181   6.001 -1.3114  1.0067  0.5924
14862SOL    HW250549   3.673   8.101   6.130 -0.4206 -0.2605 -0.2280
14863SOL     OW50550   9.181   5.689   8.749 -0.4050  0.1209  0.3838
14863SOL    HW150551   9.216   5.601   8.767 -1.2482  0.1495  2.5128
14863SOL    HW250552   9.113   5.675   8.683  0.4779 -0.5867 -0.4050
14864SOL     OW50553   3.097   0.005   3.461 -0.2120 -0.0198  0.5515
14864SOL    HW150554   3.039  -0.038   3.525  0.0605  1.8832  2.1641
14864SOL    HW250555   3.184  -0.028   3.481 -0.4839 -1.8495 -0.9949
14865SOL     OW50556   4.175   1.619   8.996  0.8290 -0.9700 -0.0624
14865SOL    HW150557   4.246   1.659   8.945  0.8628 -2.2375 -1.0634
14865SOL    HW250558   4.192   1.525   8.992 -1.3233 -1.3982 -1.0755
14866SOL     OW50559   7.217   5.777   8.938 -0.2977  0.6450  0.1177
14866SOL    HW150560   7.198   5.739   8.852  0.3814 -1.0575  0.6821
14866SOL    HW250561   7.246   5.866   8.918 -0.1009  0.2700 -1.4325
14867SOL     OW50562   5.611   0.311   3.448 -0.2037 -0.3100 -0.1164
14867SOL    HW150563   5.557   0.233   3.460  0.9224 -0.8286  1.9795
14867SOL    HW250564   5.551   0.384   3.464 -1.2567 -0.6963 -2.0646
14868SOL     OW50565   0.901   8.629   3.417 -0.8750  0.2739  0.1862
14868SOL    HW150566   0.971   8.695   3.414  0.0590 -0.7233 -1.2765
14868SOL    HW250567   0.887   8.613   3.511  1.1535  0.2272  0.5329
14869SOL     OW50568   8.932   4.665   1.336  0.0220 -0.1594 -0.2204
14869SOL    HW150569   8.966   4.659   1.425 -0.9996  2.0349  0.3940
14869SOL    HW250570   8.839   4.686   1.348 -0.4698 -1.2414 -1.8280
14870SOL     OW50571   7.475   5.180   3.784  0.4923  0.2585 -0.0610
14870SOL    HW150572   7.469   5.118   3.856  0.2252  0.0895 -0.2273
14870SOL    HW250573   7.409   5.151   3.721  0.2514  0.8050 -0.0655
14871SOL     OW50574   8.852   3.525   2.778 -0.2033 -0.4839  0.5725
14871SOL    HW150575   8.896   3.589   2.722 -0.7100  0.9571  1.7394
14871SOL    HW250576   8.769   3.507   2.734 -0.3816  0.2459  0.6037
14872SOL     OW50577   6.086   5.746   8.427  0.1231  0.4079 -0.3953
14872SOL    HW150578   5.994   5.724   8.442 -0.2775  1.0842 -1.7377
14872SOL    HW250579   6.126   5.664   8.397 -0.1170  0.2013 -0.1603
14873SOL     OW50580   4.774   0.682   7.285 -0.2557 -0.0295  0.5649
14873SOL    HW150581   4.735   0.740   7.350  0.0719  1.3715 -0.4641
14873SOL    HW250582   4.797   0.603   7.335  0.2805  1.1277  2.2129
14874SOL     OW50583   7.841   4.186   6.907  0.4492 -0.6101  0.1687
14874SOL    HW150584   7.753   4.165   6.938  0.2163  0.8784  0.5671
14874SOL    HW250585   7.880   4.238   6.977  2.0564 -2.1353  0.4598
14875SOL     OW50586   2.913   0.460   8.579  0.5807 -0.0453 -0.3653
14875SOL    HW150587   2.995   0.457   8.530  1.3623 -1.6068  0.9155
14875SOL    HW250588   2.941   0.461   8.671 -0.8154 -1.3100  0.1163
14876SOL     OW50589   8.362   2.809   4.630 -0.0514 -0.0036 -0.1702
14876SOL    HW150590   8.446   2.812   4.585  0.3980 -1.3168  0.5491
14876SOL    HW250591   8.315   2.736   4.590  0.1708 -0.8927  1.1566
14877SOL     OW50592   7.992   6.507   1.488  0.2192 -0.2439  0.1019
14877SOL    HW150593   7.965   6.557   1.565  0.5499  2.1245 -1.2481
14877SOL    HW250594   8.082   6.480   1.506 -0.1735 -0.9735  1.0992
14878SOL     OW50595   8.591   7.784   8.689  0.1494 -0.7410 -0.1213
14878SOL    HW150596   8.665   7.846   8.685 -1.6883  1.6061 -0.0088
14878SOL    HW250597   8.600   7.742   8.775 -0.1248  1.5956  1.1326
14879SOL     OW50598   5.479   3.697   5.915  0.0092  0.2705  0.1004
14879SOL    HW150599   5.452   3.660   5.999 -0.2570 -0.4866 -0.3118
14879SOL    HW250600   5.442   3.786   5.914 -1.0733 -0.1699  0.2390
14880SOL     OW50601   8.121   2.939   5.885  0.2803  0.1012 -0.1735
14880SOL    HW150602   8.138   2.968   5.974  1.2187 -1.3725  0.1617
14880SOL    HW250603   8.134   2.844   5.887  1.1366  0.1145 -2.0355
14881SOL     OW50604   0.591   0.505   8.797 -0.1006  0.1482  0.3225
14881SOL    HW150605   0.650   0.497   8.872  0.4784  1.7121  0.0845
14881SOL    HW250606   0.649   0.529   8.724 -0.5550 -1.9978 -0.8193
14882SOL     OW50607   5.164   3.443   4.211 -0.3692  0.2383 -0.5861
14882SOL    HW150608   5.175   3.420   4.303 -1.5514 -0.6780 -0.6575
14882SOL    HW250609   5.072   3.423   4.192 -0.2337  0.7595 -1.8728
14883SOL     OW50610   8.229   0.046   5.955 -0.4327 -0.3430  0.1763
14883SOL    HW150611   8.211  -0.011   5.880  0.5580 -0.0964 -0.2681
14883SOL    HW250612   8.305   0.006   5.998 -2.4239 -1.9013  2.5597
14884SOL     OW50613   3.603   9.213   9.212 -0.4923  0.2459 -0.6760
14884SOL    HW150614   3.547   9.151   9.165  0.4580  0.2890 -1.8916
14884SOL    HW250615   3.542   9.272   9.257 -1.4219 -1.4098  0.3415
14885SOL     OW50616   2.924   7.446   6.043  0.4691 -0.8315 -0.3344
14885SOL    HW150617   2.975   7.513   6.088 -0.7480 -0.7018  0.9501
14885SOL    HW250618   2.967   7.435   5.959  1.8120  0.1966  0.1772
14886SOL     OW50619   4.592   8.576   0.132  0.5061  0.3031 -0.2857
14886SOL    HW150620   4.515   8.615   0.091  1.8337  0.9677 -2.2964
14886SOL    HW250621   4.606   8.628   0.212 -1.0069  0.2521  0.0409
14887SOL     OW50622   0.709   6.048   7.221 -0.2110 -0.2462  0.1978
14887SOL    HW150623   0.664   6.074   7.301  0.0822 -1.6445  0.8433
14887SOL    HW250624   0.761   6.125   7.197 -1.2686  0.6380  0.6218
14888SOL     OW50625   6.560   7.955   1.974  0.2224 -0.1294  0.8637
14888SOL    HW150626   6.627   8.010   2.014 -0.5026  1.6579 -0.2490
14888SOL    HW250627   6.502   7.930   2.047  1.9046 -1.5140  1.7943
14889SOL     OW50628   2.102   6.547   4.522 -0.1611  0.0984  0.1134
14889SOL    HW150629   2.052   6.564   4.443 -0.7856  0.0384  0.4950
14889SOL    HW250630   2.039   6.555   4.593  0.4005  0.1750  0.6105
14890SOL     OW50631   1.221   4.706   8.687 -0.4085 -0.4333  0.0579
14890SOL    HW150632   1.262   4.789   8.663 -2.1516 -0.0011 -1.7158
14890SOL    HW250633   1.268   4.640   8.635 -0.0016 -0.3586  0.3282
14891SOL     OW50634   9.342   8.197   4.396  0.2751 -1.0548 -0.3817
14891SOL    HW150635   9.413   8.176   4.456  1.0417  1.0018 -0.5034
14891SOL    HW250636   9.376   8.173   4.309  0.9305  0.0965 -0.4619
14892SOL     OW50637   0.856   7.185   8.748  0.5651  0.5379  0.1054
14892SOL    HW150638   0.845   7.263   8.802  1.0199 -0.3641  1.5610
14892SOL    HW250639   0.944   7.192   8.713  0.4093  0.9378 -0.2110
14893SOL     OW50640   2.518   0.643   0.532  0.4287  0.3507 -0.8471
14893SOL    HW150641   2.589   0.579   0.536 -0.0572 -0.1315  0.2398
14893SOL    HW250642   2.461   0.612   0.461  1.0242  0.4782 -1.3975
14894SOL     OW50643   0.612   1.124   0.711  0.3960  0.1939  0.2531
14894SOL    HW150644   0.704   1.116   0.738  0.4784  1.3307  0.3702
14894SOL    HW250645   0.616   1.124   0.615  0.4734 -0.1886  0.2550
14895SOL     OW50646   6.338   3.045   7.571 -0.3415  0.4902  0.6267
14895SOL    HW150647   6.349   2.964   7.522  0.2367  0.7417  0.3222
14895SOL    HW250648   6.246   3.069   7.559 -0.1792  0.6181 -0.4550
14896SOL     OW50649   3.039   4.394   2.441 -0.0493  0.3533  0.0563
14896SOL    HW150650   3.016   4.454   2.512  0.2292 -0.7824  1.1347
14896SOL    HW250651   3.040   4.307   2.482 -1.3356 -0.5314 -1.6506
14897SOL     OW50652   0.665   8.412   4.914 -0.3977  0.3225  0.2478
14897SOL    HW150653   0.730   8.399   4.845 -0.1741 -1.7712  0.7967
14897SOL    HW250654   0.698   8.487   4.965  1.1538 -0.1802  0.0188
14898SOL     OW50655   8.436   2.460   9.313  0.4226 -0.4591 -0.3903
14898SOL    HW150656   8.426   2.551   9.283  3.1999  0.0213 -0.1735
14898SOL    HW250657   8.368   2.412   9.267 -0.1700  1.4965 -1.6990
14899SOL     OW50658   0.873   5.833   6.039 -0.0715  0.0527  0.8076
14899SOL    HW150659   0.891   5.768   6.107 -1.8019 -0.7011  0.5887
14899SOL    HW250660   0.838   5.783   5.966  2.4519  0.7415 -1.0132
14900SOL     OW50661   3.701   9.243   3.234  0.6454  0.2555  0.2329
14900SOL    HW150662   3.724   9.160   3.274 -1.7076 -0.4134  0.3093
14900SOL    HW250663   3.649   9.220   3.157  1.7130  1.6288 -0.9804
14901SOL     OW50664   8.699   9.231   3.958 -0.1937 -0.1307 -1.0047
14901SOL    HW150665   8.731   9.193   4.040 -0.1399  0.0745 -0.9296
14901SOL    HW250666   8.775   9.230   3.900 -0.6090 -1.6895 -1.5716
14902SOL     OW50667   5.962   6.818   8.471 -0.2424 -0.0939  0.8764
14902SOL    HW150668   5.895   6.756   8.500  0.0919 -0.6018  0.5836
14902SOL    HW250669   6.022   6.765   8.418 -0.7050  0.7402 -0.5453
14903SOL     OW50670   7.215   0.335   2.569  0.1137 -0.6050  0.2173
14903SOL    HW150671   7.229   0.366   2.659  0.6674  0.4568 -0.2288
14903SOL    HW250672   7.288   0.275   2.553  0.4273 -0.2300  0.2273
14904SOL     OW50673   5.257   3.686   0.984 -0.0817  0.1522 -0.1905
14904SOL    HW150674   5.175   3.723   1.017  0.1255 -0.2731  0.8655
14904SOL    HW250675   5.294   3.754   0.928  0.2067  1.4925  1.5440
14905SOL     OW50676   4.867   7.557   3.335  0.4691  0.4666 -0.3052
14905SOL    HW150677   4.944   7.503   3.317  0.7776 -0.0205  2.0690
14905SOL    HW250678   4.798   7.521   3.279  1.7944  0.5602 -2.0798
14906SOL     OW50679   7.665   4.436   2.172  0.0505 -0.3509 -0.4624
14906SOL    HW150680   7.683   4.513   2.226 -0.8184 -1.1247  0.9978
14906SOL    HW250681   7.742   4.381   2.182 -0.2283 -0.6289  0.2933
14907SOL     OW50682   2.900   1.380   6.462  0.3283  0.4408  0.5342
14907SOL    HW150683   2.971   1.326   6.495 -0.1542 -0.0786  0.7493
14907SOL    HW250684   2.908   1.463   6.508  0.6134  0.2773  0.7739
14908SOL     OW50685   5.655   2.290   1.044  0.0283  0.2535  0.1900
14908SOL    HW150686   5.595   2.245   0.985 -0.7009 -1.3289  2.0397
14908SOL    HW250687   5.740   2.249   1.027 -0.5909 -1.8872  1.7327
14909SOL     OW50688   2.182   5.000   6.469  0.1718  0.1292 -0.4902
14909SOL    HW150689   2.190   5.027   6.377 -0.5056  1.9022 -0.0823
14909SOL    HW250690   2.254   5.045   6.512  0.8006 -1.1173 -0.2142
14910SOL     OW50691   3.798   9.311   7.667  0.3561  0.2751  0.3675
14910SOL    HW150692   3.804   9.370   7.742  0.0473 -1.4977  1.8636
14910SOL    HW250693   3.885   9.272   7.659 -0.0538 -0.8290  0.9642
14911SOL     OW50694   4.131   2.368   8.414  0.1596  0.5010  0.2778
14911SOL    HW150695   4.178   2.341   8.494 -1.5019 -2.1566  0.4962
14911SOL    HW250696   4.173   2.317   8.344 -0.1405  0.7837 -0.1120
14912SOL     OW50697   8.312   6.290   7.573 -0.4237 -0.5184 -0.0246
14912SOL    HW150698   8.387   6.233   7.588  0.0989  0.4202  1.1481
14912SOL    HW250699   8.342   6.353   7.507 -0.0019  0.1229  0.7584
14913SOL     OW50700   0.875   4.938   0.729  0.3055  0.1288  0.7579
14913SOL    HW150701   0.902   5.025   0.697 -1.0692 -0.3375 -2.0157
14913SOL    HW250702   0.946   4.911   0.787  1.4806  2.4879  0.5623
14914SOL     OW50703   4.058   5.093   4.907  0.3133 -0.0627  0.0272
14914SOL    HW150704   4.106   5.057   4.982  1.6121 -1.4946 -1.4007
14914SOL    HW250705   4.091   5.182   4.898  0.3052  0.0502  1.0067
14915SOL     OW50706   9.333   4.912   3.477  0.1203  0.2380 -0.1717
14915SOL    HW150707   9.346   4.862   3.396  0.6952 -2.7532  1.5995
14915SOL    HW250708   9.421   4.920   3.515 -0.5175 -3.6644  2.8369
14916SOL     OW50709   8.079   5.336   6.663 -0.2226 -0.0306 -0.0624
14916SOL    HW150710   8.090   5.252   6.618  1.0226  0.6674 -1.1234
14916SOL    HW250711   8.086   5.315   6.756  0.7196 -1.0061 -0.3406
14917SOL     OW50712   1.808   7.888   3.705  0.6321 -0.2766 -0.1492
14917SOL    HW150713   1.896   7.910   3.737 -0.1758  1.9818  0.7013
14917SOL    HW250714   1.819   7.878   3.610  1.6971  0.6179 -0.1412
14918SOL     OW50715   8.092   0.528   6.894 -0.4182 -0.3117  0.3194
14918SOL    HW150716   8.141   0.555   6.971  0.2678 -0.4877 -0.0448
14918SOL    HW250717   8.157   0.489   6.837 -0.7370  0.6817 -0.7669
14919SOL     OW50718   5.636   8.634   7.805 -0.3134 -0.4815  0.5625
14919SOL    HW150719   5.636   8.540   7.789  0.7805 -0.5386  0.8508
14919SOL    HW250720   5.613   8.672   7.720 -0.1045 -0.9864  0.2742
14920SOL     OW50721   3.261   5.053   4.862  0.2355  0.0531 -0.3146
14920SOL    HW150722   3.197   5.083   4.926  1.6012  0.2811  1.0014
14920SOL    HW250723   3.293   5.133   4.821 -1.9506 -0.1708 -2.7122
14921SOL     OW50724   1.551   8.327   0.049 -0.0554  0.0523 -0.2545
14921SOL    HW150725   1.537   8.258   0.114 -0.6854  1.0835  0.7491
14921SOL    HW250726   1.519   8.406   0.091  1.3684  1.1112 -1.0841
14922SOL     OW50727   2.683   0.334   1.808 -0.0262  0.2237  0.6604
14922SOL    HW150728   2.776   0.320   1.791 -0.2303 -0.6945  0.2952
14922SOL    HW250729   2.639   0.260   1.768 -0.9783  0.9400  0.3331
14923SOL     OW50730   0.902   0.667   8.168 -0.5233  0.1140 -0.6594
14923SOL    HW150731   0.862   0.622   8.242 -1.2913 -0.6228 -1.4979
14923SOL    HW250732   0.984   0.703   8.202 -0.6581 -0.5930  0.4241
14924SOL     OW50733   5.407   6.972   1.824  0.6355 -0.1955 -0.3602
14924SOL    HW150734   5.343   6.979   1.753  0.6520  2.6564 -0.1878
14924SOL    HW250735   5.453   7.056   1.824  3.1636 -1.4802  0.7051
14925SOL     OW50736   3.411   5.164   2.523 -0.4542 -0.1223  1.1200
14925SOL    HW150737   3.474   5.229   2.491  1.6565 -3.1566 -1.5366
14925SOL    HW250738   3.329   5.186   2.478  0.7712 -0.4045 -1.4528
14926SOL     OW50739   8.811   7.194   8.569  0.2912 -0.6915  0.0727
14926SOL    HW150740   8.904   7.201   8.547  0.3807  0.0388  0.6539
14926SOL    HW250741   8.780   7.285   8.575 -0.0299 -0.8852  1.6666
14927SOL     OW50742   0.385   6.584   7.920 -0.2881 -0.0091  0.0611
14927SOL    HW150743   0.400   6.670   7.958  1.0321  0.3807 -1.2261
14927SOL    HW250744   0.343   6.602   7.836 -1.0185 -0.7001  0.2634
14928SOL     OW50745   2.388   0.773   1.448  0.1431  0.0722 -0.7198
14928SOL    HW150746   2.294   0.787   1.435  0.4042  2.3200 -0.5949
14928SOL    HW250747   2.424   0.775   1.360  0.1952  0.4152 -0.6934
14929SOL     OW50748   7.325   1.248   6.733  0.6430  0.1477 -0.1987
14929SOL    HW150749   7.319   1.171   6.789  0.4687  0.8936  0.8326
14929SOL    HW250750   7.332   1.322   6.793  0.5839  0.9684 -1.1599
14930SOL     OW50751   4.596   1.923   5.328 -0.1438  0.5788  0.0297
14930SOL    HW150752   4.674   1.898   5.279  0.3055 -0.4932  1.2367
14930SOL    HW250753   4.595   2.018   5.324  0.7360  0.5707 -0.7418
14931SOL     OW50754   9.068   6.452   0.161 -0.3500 -0.0869 -0.3065
14931SOL    HW150755   9.052   6.500   0.080 -0.1458  0.8414  0.1847
14931SOL    HW250756   9.072   6.520   0.228  1.3940 -0.6561  0.2131
14932SOL     OW50757   4.491   0.335   8.066  0.0457 -0.1778 -0.2208
14932SOL    HW150758   4.449   0.305   7.985 -0.2320 -0.1913 -0.0750
14932SOL    HW250759   4.418   0.345   8.127  0.4461 -2.0436  0.6257
14933SOL     OW50760   5.402   8.108   9.006 -0.4282  0.0429  0.3912
14933SOL    HW150761   5.353   8.035   8.971 -1.3281  0.1604  1.3474
14933SOL    HW250762   5.360   8.186   8.970  0.2006  0.1137 -0.2115
14934SOL     OW50763   8.975   7.374   4.812 -0.1982 -0.2423 -0.4278
14934SOL    HW150764   8.980   7.409   4.901  1.0353  0.8579 -0.9049
14934SOL    HW250765   8.899   7.418   4.773 -0.8184 -0.8244  0.1098
14935SOL     OW50766   8.762   1.057   6.425  0.6474  0.2113  0.6201
14935SOL    HW150767   8.822   1.127   6.399 -0.0605  1.1679  1.4673
14935SOL    HW250768   8.747   1.072   6.518 -0.9867  0.0692  0.4129
14936SOL     OW50769   0.140   5.495   5.067 -0.0904 -0.1511 -0.6187
14936SOL    HW150770   0.223   5.450   5.083  0.1883  0.1033 -1.2956
14936SOL    HW250771   0.074   5.425   5.066  0.0077 -0.2767  0.6124
14937SOL     OW50772   3.753   7.459   3.510 -0.2793  0.0716  0.2190
14937SOL    HW150773   3.733   7.368   3.489 -1.8307  0.4153  0.0665
14937SOL    HW250774   3.786   7.457   3.600  1.8288 -0.8618 -0.5065
14938SOL     OW50775   2.937   7.479   2.155  0.3559  0.1855  0.1286
14938SOL    HW150776   2.926   7.567   2.118 -2.6488  0.9116  2.3546
14938SOL    HW250777   2.943   7.421   2.079 -0.6043  2.0472 -1.4422
14939SOL     OW50778   8.408   9.162   7.962 -0.1709 -0.7766  0.4671
14939SOL    HW150779   8.479   9.158   8.027  0.9095  1.9457 -0.4167
14939SOL    HW250780   8.343   9.221   8.001 -0.1818 -0.2658 -0.3038
14940SOL     OW50781   5.092   3.158   0.845  0.8041 -0.4148  0.4104
14940SOL    HW150782   5.136   3.233   0.883  0.5227 -0.1999  0.3176
14940SOL    HW250783   5.036   3.124   0.915  1.9886 -1.4063  0.9084
14941SOL     OW50784   6.433   7.953   2.242  0.6531 -0.0615  0.3164
14941SOL    HW150785   6.341   7.953   2.216  0.5996  0.5779  0.5002
14941SOL    HW250786   6.447   8.039   2.282  0.8493 -0.8422  2.0027
14942SOL     OW50787   6.540   0.446   2.752 -0.2875  0.0336 -0.4990
14942SOL    HW150788   6.496   0.418   2.672  0.7282  0.8118 -1.3597
14942SOL    HW250789   6.542   0.368   2.807 -0.3222 -0.7229 -1.5453
14943SOL     OW50790   1.626   8.696   0.797  0.0208 -0.6295  0.3444
14943SOL    HW150791   1.711   8.735   0.775  1.0997 -3.6527 -1.3942
14943SOL    HW250792   1.635   8.672   0.890  1.0276 -0.8049  0.2143
14944SOL     OW50793   2.821   7.324   5.412  0.2703 -0.3372  0.1133
14944SOL    HW150794   2.900   7.353   5.457  0.7275 -0.9355 -0.2891
14944SOL    HW250795   2.832   7.230   5.402 -0.8920 -0.5677  0.8140
14945SOL     OW50796   9.134   7.350   3.657  0.3636 -0.1257  0.4606
14945SOL    HW150797   9.213   7.377   3.703  0.1999  1.7120 -0.2655
14945SOL    HW250798   9.156   7.354   3.564  0.0592 -1.7689  0.2820
14946SOL     OW50799   7.882   0.802   9.273 -0.4687  0.3399  0.0398
14946SOL    HW150800   7.865   0.890   9.241 -1.9276  1.1256  2.6169
14946SOL    HW250801   7.977   0.793   9.271 -0.3116  1.8833 -0.5101
14947SOL     OW50802   7.153   1.547   6.487 -0.2240  0.3757 -0.2409
14947SOL    HW150803   7.076   1.501   6.454 -0.2502  0.8129 -0.8019
14947SOL    HW250804   7.151   1.532   6.582  0.2201 -1.4461 -0.4843
14948SOL     OW50805   4.789   6.221   2.989  0.2958  0.4242  0.0056
14948SOL    HW150806   4.795   6.225   2.893 -1.4441  0.1750 -0.1564
14948SOL    HW250807   4.777   6.129   3.009 -1.7479  0.6792  0.2192
14949SOL     OW50808   3.712   6.366   5.722 -0.3257 -0.3344  0.2897
14949SOL    HW150809   3.763   6.331   5.649  0.2094 -0.4144  0.6965
14949SOL    HW250810   3.776   6.379   5.792 -0.5330  1.3310  0.2134
14950SOL     OW50811   3.164   6.944   8.143 -0.6952  0.0191 -0.3837
14950SOL    HW150812   3.205   6.903   8.067 -0.0794  1.9622 -1.1632
14950SOL    HW250813   3.159   7.037   8.120 -0.6272  0.6433  1.8904
14951SOL     OW50814   6.734   5.462   8.368  0.0962  0.5812 -0.0110
14951SOL    HW150815   6.661   5.433   8.423  0.4837  0.0085  0.2123
14951SOL    HW250816   6.732   5.402   8.293  1.4889 -0.7145  0.9135
14952SOL     OW50817   2.488   6.820   4.128  0.8452 -0.0500 -0.2227
14952SOL    HW150818   2.519   6.760   4.060 -1.4907  1.2165 -2.6133
14952SOL    HW250819   2.563   6.877   4.145  2.0598 -1.5364 -0.3463
14953SOL     OW50820   7.227   6.863   1.618 -0.1321 -0.4093 -0.4422
14953SOL    HW150821   7.276   6.795   1.571 -1.2264 -0.5565 -1.4338
14953SOL    HW250822   7.139   6.859   1.580 -1.2436 -0.8443  1.9671
14954SOL     OW50823   4.656   8.445   1.898  0.1794  0.0973 -0.2897
14954SOL    HW150824   4.647   8.409   1.986  1.7999 -1.4436 -0.6848
14954SOL    HW250825   4.716   8.519   1.909 -0.3625  0.4956  0.0230
14955SOL     OW50826   4.866   8.640   1.949  0.7133  0.4824 -0.4758
14955SOL    HW150827   4.895   8.728   1.974 -1.4424  0.4710  2.6714
14955SOL    HW250828   4.896   8.584   2.021 -3.0817 -0.2140  0.7807
14956SOL     OW50829   6.273   4.502   9.361  0.3835  0.0577  0.3674
14956SOL    HW150830   6.331   4.455   9.420 -0.5719 -0.1198  1.2020
14956SOL    HW250831   6.266   4.590   9.399  0.8180  0.3582 -0.2352
14957SOL     OW50832   8.786   0.420   8.216  0.3806  0.3953  0.0137
14957SOL    HW150833   8.734   0.460   8.146 -2.7394  1.9825  2.9469
14957SOL    HW250834   8.792   0.488   8.284  0.8525 -1.8740  2.4077
14958SOL     OW50835   2.637   9.167   3.807 -0.0271  0.0281  0.2307
14958SOL    HW150836   2.594   9.114   3.740 -1.0156 -0.5047  1.2432
14958SOL    HW250837   2.654   9.251   3.764 -0.1057 -0.4921 -0.8476
14959SOL     OW50838   4.917   6.536   5.507 -0.5364 -0.2530  0.5113
14959SOL    HW150839   4.862   6.540   5.585 -1.5978 -0.1179 -0.2119
14959SOL    HW250840   4.867   6.482   5.445  0.9633 -1.6204  0.4288
14960SOL     OW50841   2.825   1.266   3.789 -0.5646  0.4724  0.6159
14960SOL    HW150842   2.841   1.185   3.837  0.6085 -0.0427 -0.6069
14960SOL    HW250843   2.744   1.249   3.741 -0.2375 -0.0437  0.2388
14961SOL     OW50844   0.387   0.825   0.115 -0.2945 -0.2916 -0.1740
14961SOL    HW150845   0.439   0.795   0.190  0.5573  2.7635  0.5757
14961SOL    HW250846   0.451   0.844   0.047 -0.4695  2.2096  0.2894
14962SOL     OW50847   5.028   0.332   0.528  0.3631  0.1168 -0.1994
14962SOL    HW150848   5.055   0.380   0.450  2.3474 -0.9263 -0.2131
14962SOL    HW250849   4.958   0.275   0.498 -0.0801  0.9622 -0.8089
14963SOL     OW50850   0.663   6.385   0.351 -0.5732  0.0805 -0.2586
14963SOL    HW150851   0.734   6.320   0.359  0.9842  1.6731 -0.4810
14963SOL    HW250852   0.692   6.459   0.404 -0.7259  1.8611 -2.5118
14964SOL     OW50853   6.520   1.515   2.447  0.1141 -0.1729  0.1467
14964SOL    HW150854   6.541   1.604   2.420  1.9837 -0.3069  0.9591
14964SOL    HW250855   6.448   1.488   2.390 -1.0036  2.0920  0.3943
14965SOL     OW50856   4.299   6.816   1.249  0.2271  0.3729  0.1895
14965SOL    HW150857   4.203   6.813   1.245  0.1796  1.8824 -0.6195
14965SOL    HW250858   4.326   6.724   1.256 -1.2410 -0.1620 -0.7619
14966SOL     OW50859   6.712   2.233   6.356  0.6422 -0.0756 -0.1597
14966SOL    HW150860   6.741   2.313   6.400  0.1044  1.5781 -2.5864
14966SOL    HW250861   6.793   2.192   6.326  1.1416 -1.9825  3.3082
14967SOL     OW50862   7.360   1.484   7.405 -0.0032 -0.2454  0.1284
14967SOL    HW150863   7.360   1.569   7.360  1.4462  0.1519  0.8266
14967SOL    HW250864   7.370   1.505   7.497  1.7454 -1.1963  0.1980
14968SOL     OW50865   0.129   2.725   7.019  0.3005 -0.0614  0.3665
14968SOL    HW150866   0.125   2.800   6.959  2.0566 -1.4151 -1.5778
14968SOL    HW250867   0.068   2.661   6.982  0.9960 -0.7063  0.3119
14969SOL     OW50868   5.681   6.080   6.080  0.3248 -0.4040 -0.3622
14969SOL    HW150869   5.718   6.062   6.167 -1.3965  1.4572  0.8565
14969SOL    HW250870   5.616   6.011   6.068  0.0904 -0.2844  0.1677
14970SOL     OW50871   4.075   5.909   2.030 -0.0163 -0.1046  0.1537
14970SOL    HW150872   4.078   5.964   1.952  1.9813  0.5854  0.6670
14970SOL    HW250873   4.053   5.822   1.997  1.4053  0.0334 -1.2935
14971SOL     OW50874   8.666   1.224   0.226 -0.3372 -0.2981 -0.0855
14971SOL    HW150875   8.625   1.137   0.228 -2.5781  0.6779  2.0688
14971SOL    HW250876   8.614   1.274   0.164 -0.1690 -0.0346 -0.0150
14972SOL     OW50877   0.827   3.542   8.683 -0.5369 -0.1980  0.0062
14972SOL    HW150878   0.800   3.552   8.592  1.8538 -2.0546 -1.0013
14972SOL    HW250879   0.841   3.632   8.714 -1.0027  0.4371 -1.5409
14973SOL     OW50880   3.469   4.562   8.513 -0.2188  0.2198 -0.0168
14973SOL    HW150881   3.413   4.550   8.589  0.4783 -3.2046  0.1028
14973SOL    HW250882   3.556   4.582   8.549  0.0043 -0.9160  0.1016
14974SOL     OW50883   9.117   8.050   4.016  0.3830 -0.4944  0.4718
14974SOL    HW150884   9.060   8.099   4.074 -0.4995 -1.1049  0.1414
14974SOL    HW250885   9.159   7.985   4.073 -0.0443 -0.7151  0.5399
14975SOL     OW50886   7.235   3.701   6.010 -0.8393  0.0178 -0.4585
14975SOL    HW150887   7.259   3.627   5.954 -1.3519  0.9289 -1.9055
14975SOL    HW250888   7.298   3.696   6.083 -0.7592 -1.7338 -0.5963
14976SOL     OW50889   2.375   7.080   7.234  0.4991  0.1781 -0.6112
14976SOL    HW150890   2.445   7.041   7.182  0.5594  0.1903 -0.5400
14976SOL    HW250891   2.297   7.075   7.178  0.1052 -1.6215  0.0129
14977SOL     OW50892   0.275   3.942   8.149 -0.4608 -0.0204 -0.2151
14977SOL    HW150893   0.330   3.944   8.227  0.6958  0.0154 -1.0037
14977SOL    HW250894   0.188   3.920   8.181 -0.1363  0.6248  1.1527
14978SOL     OW50895   4.591   4.798   5.166 -0.7777 -0.0810 -0.9593
14978SOL    HW150896   4.563   4.722   5.116  3.0157 -2.0395 -0.4586
14978SOL    HW250897   4.593   4.870   5.102 -0.9510 -1.2883 -2.3601
14979SOL     OW50898   0.117   2.203   1.191  0.3905 -0.3615  0.2269
14979SOL    HW150899   0.030   2.218   1.153 -0.4050 -3.8025  0.4024
14979SOL    HW250900   0.178   2.237   1.125 -1.0345 -2.7862 -2.5565
14980SOL     OW50901   8.777   7.847   7.301 -0.7290  0.0204 -0.0848
14980SOL    HW150902   8.869   7.862   7.278 -0.4147 -0.5411  0.7679
14980SOL    HW250903   8.751   7.926   7.348  0.0628 -0.7849  1.8276
14981SOL     OW50904   7.584   5.613   3.453  0.1504 -0.2858  0.0064
14981SOL    HW150905   7.591   5.662   3.371  0.8308  0.0574  0.2668
14981SOL    HW250906   7.544   5.530   3.428  0.2823 -0.1501 -0.6620
14982SOL     OW50907   9.192   8.301   0.222 -0.2881  0.1085 -0.0301
14982SOL    HW150908   9.183   8.277   0.130 -0.7423 -0.9307  0.2697
14982SOL    HW250909   9.164   8.393   0.226 -2.9088 -0.5930 -0.5189
14983SOL     OW50910   4.836   5.515   0.131  0.1032 -0.8140 -0.1585
14983SOL    HW150911   4.797   5.512   0.218  0.6135 -1.4192  0.0577
14983SOL    HW250912   4.866   5.426   0.115  0.5593 -0.5731 -0.7007
14984SOL     OW50913   5.422   3.330   2.204 -0.0052 -0.1535  0.4514
14984SOL    HW150914   5.474   3.286   2.137 -0.0094 -1.3466  1.2066
14984SOL    HW250915   5.405   3.263   2.270  0.8325  1.1973  2.1349
14985SOL     OW50916   7.781   1.190   4.739 -0.0791  0.3129 -0.0528
14985SOL    HW150917   7.818   1.143   4.814  1.0319  0.0385 -0.7591
14985SOL    HW250918   7.835   1.164   4.665  0.3453  2.4352 -0.5423
14986SOL     OW50919   0.064   2.146   4.770 -0.0116  0.3115  0.9139
14986SOL    HW150920   0.031   2.064   4.734 -0.8152  0.4641  1.2648
14986SOL    HW250921   0.014   2.158   4.851 -1.1513  1.9794  0.0386
14987SOL     OW50922   0.724   7.799   4.466  0.1767  0.1750  0.2201
14987SOL    HW150923   0.806   7.846   4.454 -0.3668  1.2832  0.7514
14987SOL    HW250924   0.745   7.708   4.444  0.8209  0.9091 -2.6110
14988SOL     OW50925   7.315   9.081   6.756  0.1055 -0.0681 -0.0761
14988SOL    HW150926   7.260   9.016   6.801 -0.7628  1.0147  0.4561
14988SOL    HW250927   7.399   9.037   6.746 -0.7652 -1.6898 -0.7188
14989SOL     OW50928   1.323   6.597   8.436  0.2784  0.0580  0.1774
14989SOL    HW150929   1.300   6.538   8.508  0.7172 -0.3549 -0.0086
14989SOL    HW250930   1.247   6.597   8.379  0.4566 -0.7467 -0.0840
14990SOL     OW50931   4.962   6.603   0.467 -0.1590 -0.2634 -0.2450
14990SOL    HW150932   4.929   6.574   0.552 -0.0794  0.3215 -0.0123
14990SOL    HW250933   5.047   6.562   0.458 -0.3220 -0.6132 -0.2030
14991SOL     OW50934   4.071   5.326   8.643 -0.7605 -0.8934 -0.7157
14991SOL    HW150935   4.094   5.378   8.566  0.5154 -1.9256 -1.0651
14991SOL    HW250936   4.050   5.239   8.608 -0.8712 -1.1753  0.0303
14992SOL     OW50937   3.640   6.511   1.568  0.4290 -0.3874  0.3201
14992SOL    HW150938   3.564   6.520   1.624 -0.5859  0.1260 -1.0828
14992SOL    HW250939   3.713   6.494   1.628 -0.9346 -1.9491  1.6128
14993SOL     OW50940   6.654   4.318   5.741  0.2225 -0.0614 -0.1271
14993SOL    HW150941   6.659   4.307   5.836 -0.5110 -0.3629 -0.1157
14993SOL    HW250942   6.565   4.292   5.718  0.2176  0.5241 -0.8331
14994SOL     OW50943   6.110   3.692   7.679  0.4118  0.0236 -0.0491
14994SOL    HW150944   6.073   3.618   7.631  0.2545  0.3416 -0.4246
14994SOL    HW250945   6.088   3.675   7.771  1.2631 -0.9106 -0.0007
14995SOL     OW50946   3.759   7.963   1.270  0.1109 -0.6568 -0.3551
14995SOL    HW150947   3.693   8.030   1.253  3.2118  2.5950 -0.6113
14995SOL    HW250948   3.789   7.980   1.359  0.0969 -2.6460  0.0911
14996SOL     OW50949   4.948   0.281   9.245 -0.0596 -0.0156 -0.0986
14996SOL    HW150950   4.942   0.216   9.175  0.2457 -2.0811  1.6832
14996SOL    HW250951   4.859   0.317   9.252 -0.8392 -1.8729  0.2911
14997SOL     OW50952   4.198   6.185   0.717  0.0570 -0.1112  0.4701
14997SOL    HW150953   4.137   6.255   0.696  0.4781 -0.5135 -2.5748
14997SOL    HW250954   4.271   6.228   0.761 -0.9072  0.8914  1.1205
14998SOL     OW50955   7.255   7.032   6.362  0.8208 -0.4076  0.0583
14998SOL    HW150956   7.269   7.095   6.292  2.1609  1.1162  1.5909
14998SOL    HW250957   7.232   6.950   6.317 -2.0653  1.3363 -1.9849
14999SOL     OW50958   6.860   8.305   4.304 -0.1886  0.1954  0.0600
14999SOL    HW150959   6.829   8.217   4.324 -0.4791  0.0889 -0.8034
14999SOL    HW250960   6.888   8.340   4.388 -1.0944 -0.3231  0.5990
15000SOL     OW50961   8.357   4.580   0.043 -0.3424  0.1489  0.7259
15000SOL    HW150962   8.364   4.559   0.136  0.1030  0.8986  0.8708
15000SOL    HW250963   8.379   4.673   0.037 -2.3099  0.6161  0.1163
15001SOL     OW50964   7.672   3.213   9.244  0.2916  0.2678 -0.1084
15001SOL    HW150965   7.582   3.184   9.255  0.4749 -0.1624  0.2875
15001SOL    HW250966   7.708   3.158   9.175  0.4487 -0.0194  0.2003
15002SOL     OW50967   0.857   8.466   6.759  0.6483  0.4500 -0.6307
15002SOL    HW150968   0.781   8.523   6.745 -0.3938 -0.4429  1.0063
15002SOL    HW250969   0.848   8.397   6.694  0.3895  0.6609 -0.8232
15003SOL     OW50970   3.930   3.760   7.096  0.4472 -0.4390  0.3502
15003SOL    HW150971   4.019   3.792   7.085  0.9061 -1.4868  0.8185
15003SOL    HW250972   3.880   3.799   7.024  0.7539  1.9576  1.3402
15004SOL     OW50973   8.233   8.744   6.988  0.0753 -0.1860  0.2391
15004SOL    HW150974   8.326   8.721   6.980 -0.3133 -1.2010 -2.3156
15004SOL    HW250975   8.201   8.691   7.060  1.1471 -1.0524  0.1055
15005SOL     OW50976   3.746   6.180   6.028  0.3197 -0.2272  0.1827
15005SOL    HW150977   3.827   6.216   5.993  0.5988 -1.2522 -0.2467
15005SOL    HW250978   3.740   6.092   5.990 -1.4373  0.1514 -0.5022
15006SOL     OW50979   9.092   6.163   1.374  0.0218  0.0724  0.4226
15006SOL    HW150980   9.045   6.134   1.452  1.6413 -0.1938  1.3576
15006SOL    HW250981   9.158   6.224   1.408 -0.8573  1.9073 -1.0631
15007SOL     OW50982   6.407   5.935   2.268 -0.2089 -0.4436 -0.1577
15007SOL    HW150983   6.405   5.978   2.354  0.9778  0.7827 -0.7018
15007SOL    HW250984   6.418   5.842   2.287 -0.2656 -0.2195  1.0278
15008SOL     OW50985   6.692   6.865   2.416 -0.2970  0.3339  0.6795
15008SOL    HW150986   6.733   6.779   2.420  1.8034  1.2794  1.4494
15008SOL    HW250987   6.672   6.886   2.507  0.0078  0.9892  0.6017
15009SOL     OW50988   2.822   8.950   1.484 -0.0889 -0.7626  0.1758
15009SOL    HW150989   2.793   8.858   1.483 -2.2542 -0.1453 -1.3243
15009SOL    HW250990   2.882   8.957   1.409 -0.5868 -0.7805 -0.2307
15010SOL     OW50991   5.971   2.305   7.530  0.0932 -0.4712  0.6548
15010SOL    HW150992   6.039   2.325   7.595  0.3450  0.6240  0.0731
15010SOL    HW250993   5.898   2.362   7.554 -0.3654 -1.1389  0.8561
15011SOL     OW50994   9.106   2.807   3.107 -0.2747  0.1586  0.9900
15011SOL    HW150995   9.074   2.729   3.153  1.4682 -0.8927  0.4816
15011SOL    HW250996   9.154   2.773   3.032 -1.0661  1.7970 -0.3189
15012SOL     OW50997   1.368   9.355   0.495 -0.1195  0.1016 -0.0061
15012SOL    HW150998   1.463   9.364   0.493  0.2350 -2.0843  2.2026
15012SOL    HW250999   1.346   9.311   0.413  0.8156  0.2161 -0.3260
15013SOL     OW51000   3.691   8.410   6.046  0.0848 -0.1396 -0.2268
15013SOL    HW151001   3.689   8.493   5.999 -0.3334 -0.1449 -0.2260
15013SOL    HW251002   3.647   8.428   6.129  1.8487  0.1673  0.6893
15014SOL     OW51003   6.126   0.747   7.782 -0.4939 -0.1979  0.0194
15014SOL    HW151004   6.063   0.684   7.747 -0.8826  1.0303 -1.6157
15014SOL    HW251005   6.150   0.801   7.706  0.8476  0.7675  1.0842
15015SOL     OW51006   5.945   6.719   2.752  0.0886 -0.9185 -0.3564
15015SOL    HW151007   5.917   6.644   2.804  1.2099 -0.0448  1.6295
15015SOL    HW251008   6.020   6.755   2.799 -0.6870  1.7300 -0.9262
15016SOL     OW51009   0.368   4.083   9.367 -0.0924 -1.0717  0.5872
15016SOL    HW151010   0.317   4.079   9.448  0.4260 -0.1067  0.9866
15016SOL    HW251011   0.348   4.170   9.331  0.6589 -0.9867  0.3540
15017SOL     OW51012   3.431   2.341   2.348  0.0043  0.2241 -0.3515
15017SOL    HW151013   3.406   2.403   2.279 -2.1309  0.0659  0.2180
15017SOL    HW251014   3.362   2.349   2.413  0.4790 -1.6814  0.4392
15018SOL     OW51015   3.015   0.555   9.144 -0.2703  0.3039 -0.3966
15018SOL    HW151016   3.022   0.636   9.093  0.3491  0.4575 -0.0761
15018SOL    HW251017   3.073   0.569   9.219 -0.9631 -0.0216  0.2199
15019SOL     OW51018   4.810   4.792   7.943  0.0609 -0.6704  0.6417
15019SOL    HW151019   4.771   4.746   7.869  3.9621 -1.4594 -1.1660
15019SOL    HW251020   4.791   4.885   7.926 -0.1306 -0.9345 -0.6706
15020SOL     OW51021   0.870   8.480   2.572  0.5340  0.7006  0.5028
15020SOL    HW151022   0.800   8.516   2.517 -0.5961  0.6077  1.8371
15020SOL    HW251023   0.946   8.477   2.514 -1.1197 -1.5436 -1.8102
15021SOL     OW51024   5.041   3.776   9.216  0.0237 -0.5874 -0.5198
15021SOL    HW151025   5.044   3.704   9.153 -1.8714 -1.8961  0.7585
15021SOL    HW251026   5.061   3.735   9.300  0.4535  0.7034  0.0347
15022SOL     OW51027   5.862   1.106   3.529 -0.5044 -0.1540 -0.3805
15022SOL    HW151028   5.879   1.183   3.475 -1.7371 -0.6865 -1.5692
15022SOL    HW251029   5.780   1.125   3.573  0.0767 -0.0727  0.7011
15023SOL     OW51030   3.033   2.736   0.418 -0.4775  0.4943  0.9920
15023SOL    HW151031   3.017   2.729   0.512 -0.6228  0.9409  1.0058
15023SOL    HW251032   3.047   2.830   0.403  0.1747  0.3570  0.6667
15024SOL     OW51033   1.476   0.176   5.532  0.1589  0.0210 -0.2428
15024SOL    HW151034   1.472   0.241   5.603 -1.5760 -0.5880  0.2775
15024SOL    HW251035   1.564   0.184   5.497  0.5246  1.4991  0.9055
15025SOL     OW51036   4.278   5.484   1.246  0.0895 -0.5244 -0.4550
15025SOL    HW151037   4.238   5.408   1.203 -3.5269  0.5642  0.7108
15025SOL    HW251038   4.248   5.559   1.195  1.2844  0.3430  0.0758
15026SOL     OW51039   5.775   6.086   3.909  0.3929  0.2361  0.0436
15026SOL    HW151040   5.862   6.076   3.947  0.3232  1.8689  0.7183
15026SOL    HW251041   5.716   6.046   3.973  0.5209  0.5128  0.3401
15027SOL     OW51042   8.797   0.965   4.575 -0.1968  0.2876 -0.1997
15027SOL    HW151043   8.740   1.041   4.564  1.0875  1.0408 -2.2177
15027SOL    HW251044   8.739   0.890   4.565 -1.2543  0.9998  0.3940
15028SOL     OW51045   9.020   7.746   3.545 -0.2283 -0.3136  0.1746
15028SOL    HW151046   9.013   7.782   3.633  0.4244  0.5705 -0.1283
15028SOL    HW251047   9.054   7.818   3.491 -3.1197  0.0899 -1.3833
15029SOL     OW51048   3.830   8.199   7.937  0.5247 -0.0454 -0.4270
15029SOL    HW151049   3.833   8.294   7.946 -0.3987 -0.0277 -0.2315
15029SOL    HW251050   3.871   8.165   8.016 -1.5895  0.1789  0.8349
15030SOL     OW51051   0.158   1.614   2.541  0.2134 -0.2553 -0.0856
15030SOL    HW151052   0.093   1.566   2.593 -0.2413  1.2869  0.8153
15030SOL    HW251053   0.233   1.624   2.599  0.5449 -0.4046 -0.4827
15031SOL     OW51054   7.690   5.136   2.720 -1.0832  0.1093 -0.4206
15031SOL    HW151055   7.632   5.209   2.699  0.0065  0.6206 -1.8465
15031SOL    HW251056   7.778   5.171   2.706 -0.4068 -0.6999  1.5157
15032SOL     OW51057   6.366   1.149   5.615  0.4436  0.3065 -0.3268
15032SOL    HW151058   6.369   1.172   5.708  3.5326  1.2867 -0.5813
15032SOL    HW251059   6.291   1.199   5.582 -0.7801 -0.1205  1.6076
15033SOL     OW51060   3.684   2.977   6.824  0.2618 -0.8295 -0.3606
15033SOL    HW151061   3.677   3.008   6.734  1.1049  0.5773  0.0364
15033SOL    HW251062   3.772   3.003   6.852 -0.6384  0.4252  1.4814
15034SOL     OW51063   5.456   6.258   8.649 -0.6552  0.5685  0.4898
15034SOL    HW151064   5.549   6.257   8.670 -0.7374  1.0238  0.9045
15034SOL    HW251065   5.414   6.294   8.728 -0.9595  2.5924 -0.5203
15035SOL     OW51066   0.912   2.420   4.857 -0.1213 -0.5770  0.1057
15035SOL    HW151067   0.868   2.448   4.937  0.0362 -0.5364  0.1771
15035SOL    HW251068   1.005   2.439   4.871 -0.3108  1.3536 -0.8740
15036SOL     OW51069   1.247   3.308   0.261  0.0766  0.7959  0.2191
15036SOL    HW151070   1.252   3.387   0.207 -1.6121  1.2100  0.5972
15036SOL    HW251071   1.171   3.261   0.228  1.0773 -0.7367 -0.0296
15037SOL     OW51072   0.253   3.690   5.343  0.4419  0.0747  0.1615
15037SOL    HW151073   0.297   3.642   5.413 -3.9448 -1.7666  2.0299
15037SOL    HW251074   0.222   3.770   5.385 -1.3735 -0.5834  0.1688
15038SOL     OW51075   7.708   3.734   8.317  0.1012 -0.3864 -0.0520
15038SOL    HW151076   7.612   3.730   8.319 -0.0647  1.4359 -1.6888
15038SOL    HW251077   7.729   3.814   8.364  0.9170 -1.1713  0.9750
15039SOL     OW51078   0.355   2.633   4.790 -0.4886  0.1048  0.2097
15039SOL    HW151079   0.429   2.670   4.743  0.1178 -0.6268  0.5729
15039SOL    HW251080   0.278   2.661   4.739 -0.0646  1.7836  0.4342
15040SOL     OW51081   0.387   4.258   0.620 -0.3493  0.1588 -0.0324
15040SOL    HW151082   0.337   4.177   0.628 -0.7183  0.3171 -0.6733
15040SOL    HW251083   0.367   4.307   0.699 -2.0982  0.7013 -0.7661
15041SOL     OW51084   4.113   2.545   4.432  0.5569  0.1237 -0.6410
15041SOL    HW151085   4.130   2.553   4.526  1.1218  0.1638 -0.7463
15041SOL    HW251086   4.189   2.586   4.390 -0.4474  1.5911 -1.1027
15042SOL     OW51087   6.206   4.734   3.254  0.2817 -0.2051 -0.2384
15042SOL    HW151088   6.259   4.655   3.252  1.4373  0.5318 -1.5104
15042SOL    HW251089   6.189   4.750   3.346  0.1607 -1.8270  0.0479
15043SOL     OW51090   7.423   0.534   0.455 -0.1836  0.5407 -0.3619
15043SOL    HW151091   7.431   0.629   0.442 -1.6723  0.9478  1.2645
15043SOL    HW251092   7.370   0.525   0.534  2.3963 -1.6639  1.3017
15044SOL     OW51093   9.186   7.808   0.646  0.1859  0.0775 -0.3399
15044SOL    HW151094   9.125   7.880   0.637 -0.2530  0.0075  1.6033
15044SOL    HW251095   9.270   7.850   0.666  0.3243  0.0903 -0.9184
15045SOL     OW51096   2.396   2.724   2.402 -0.4234 -0.0385 -0.2117
15045SOL    HW151097   2.403   2.806   2.353  0.0562 -0.8420 -1.5267
15045SOL    HW251098   2.327   2.741   2.466 -1.3717  0.9160 -1.4177
15046SOL     OW51099   6.859   8.507   0.280 -0.2178 -0.6737  0.3325
15046SOL    HW151100   6.949   8.496   0.312  0.2310 -0.3725 -0.7986
15046SOL    HW251101   6.850   8.444   0.209 -0.6735 -0.2042 -0.0337
15047SOL     OW51102   8.511   0.428   2.998  0.4883 -0.5654 -0.1378
15047SOL    HW151103   8.527   0.472   2.915  0.4270 -2.2883 -1.1069
15047SOL    HW251104   8.571   0.471   3.060 -0.3717  1.5946 -0.7308
15048SOL     OW51105   6.166   0.590   3.779 -0.4494  0.0668 -0.4665
15048SOL    HW151106   6.249   0.627   3.748  1.2099 -1.9435  1.3124
15048SOL    HW251107   6.148   0.518   3.718 -1.2700  0.8862 -1.2215
15049SOL     OW51108   9.355   7.173   9.256 -0.0457  0.3739  0.8005
15049SOL    HW151109   9.377   7.252   9.306 -0.3752  0.5350  0.6959
15049SOL    HW251110   9.409   7.104   9.294  0.6588  0.7661  0.5297
15050SOL     OW51111   0.002   1.547   9.316  0.7262  0.2881  0.0658
15050SOL    HW151112  -0.044   1.563   9.398 -0.1065 -0.3728 -0.2482
15050SOL    HW251113   0.094   1.567   9.334  0.4151  0.9759  0.9058
15051SOL     OW51114   3.164   3.188   9.282 -0.2498  0.1193 -0.2567
15051SOL    HW151115   3.102   3.201   9.353 -0.8120 -0.0759 -0.7012
15051SOL    HW251116   3.234   3.135   9.319 -0.1901  0.5984  0.3308
15052SOL     OW51117   8.958   2.236   5.529 -0.0108 -0.1132 -0.4260
15052SOL    HW151118   8.966   2.155   5.580 -0.4757 -0.1426 -0.3919
15052SOL    HW251119   8.953   2.305   5.595  0.9767  0.0072 -0.4652
15053SOL     OW51120   4.749   8.068   4.019  0.3217  0.0616  0.3166
15053SOL    HW151121   4.658   8.043   4.033  0.6824 -2.1206 -0.7573
15053SOL    HW251122   4.746   8.129   3.945 -0.2338 -0.3947 -0.0447
15054SOL     OW51123   0.929   3.733   8.848  0.0967 -0.7194  0.3081
15054SOL    HW151124   0.897   3.814   8.888 -0.2434 -0.3611 -0.6465
15054SOL    HW251125   0.943   3.673   8.921  0.7670  0.3391  1.0893
15055SOL     OW51126   6.234   6.648   1.266 -0.6352 -0.2413 -0.2631
15055SOL    HW151127   6.146   6.676   1.292 -0.7006 -0.8705  0.1922
15055SOL    HW251128   6.272   6.611   1.345  0.8513  1.9274  0.1463
15056SOL     OW51129   5.497   6.034   8.486 -0.8277  0.1750  0.2643
15056SOL    HW151130   5.469   6.110   8.538  0.7666  0.7927  0.2822
15056SOL    HW251131   5.592   6.043   8.480 -0.7292 -1.2132 -0.7190
15057SOL     OW51132   8.667   2.199   5.359 -0.0422 -0.6170 -0.6259
15057SOL    HW151133   8.668   2.166   5.449  2.0025 -0.7507 -0.6372
15057SOL    HW251134   8.698   2.125   5.306  1.4888  0.2844 -1.0550
15058SOL     OW51135   8.780   1.265   8.719 -0.1560  0.2098  0.0038
15058SOL    HW151136   8.762   1.171   8.721  1.1331 -0.0338  1.8906
15058SOL    HW251137   8.695   1.306   8.731 -0.5046 -0.7634  0.9954
15059SOL     OW51138   0.071   6.976   7.312 -0.2820  0.3823  0.5038
15059SOL    HW151139   0.150   6.986   7.366  0.1883 -0.2666 -0.0486
15059SOL    HW251140   0.058   6.881   7.307  0.3982  0.3579 -1.5478
15060SOL     OW51141   0.213   3.948   0.367  0.4346  0.4123 -0.0937
15060SOL    HW151142   0.264   4.028   0.357 -0.7435  1.0996 -0.9090
15060SOL    HW251143   0.152   3.949   0.293 -0.1209 -0.8534  0.3129
15061SOL     OW51144   1.666   4.347   8.034  0.1306 -0.4152 -0.2400
15061SOL    HW151145   1.683   4.261   7.996  0.1364 -0.5206 -0.0008
15061SOL    HW251146   1.630   4.329   8.121  2.3428 -0.1841  0.7927
15062SOL     OW51147   8.612   2.910   0.561 -0.1474 -0.7278 -0.0003
15062SOL    HW151148   8.615   2.898   0.466  0.3876  1.8820 -0.3833
15062SOL    HW251149   8.702   2.929   0.586 -0.5452  0.2069  0.7745
15063SOL     OW51150   2.767   6.671   1.553 -0.5286  0.1791 -0.1706
15063SOL    HW151151   2.766   6.697   1.461  1.0339 -1.2269 -0.6443
15063SOL    HW251152   2.771   6.575   1.551 -0.7112  0.1088  1.3686
15064SOL     OW51153   1.153   7.114   2.113  0.1414  0.2919 -0.3831
15064SOL    HW151154   1.154   7.147   2.023  0.0391 -1.6594 -1.1601
15064SOL    HW251155   1.071   7.065   2.119  0.3177  0.0978  0.6686
15065SOL     OW51156   7.586   1.133   4.558  0.0240 -0.5608 -0.5144
15065SOL    HW151157   7.500   1.150   4.596  0.0866  0.7092 -0.9032
15065SOL    HW251158   7.648   1.158   4.628  0.1065  0.3755 -0.9091
15066SOL     OW51159   0.120   3.966   4.151  0.0035 -0.2394  0.2826
15066SOL    HW151160   0.159   3.879   4.142 -1.1073 -0.7517  0.2393
15066SOL    HW251161   0.033   3.950   4.187 -0.4863  0.7959 -0.3775
15067SOL     OW51162   3.472   3.276   0.039 -0.2188  0.6454 -0.6488
15067SOL    HW151163   3.468   3.364  -0.001 -0.2626  0.4330 -1.1216
15067SOL    HW251164   3.394   3.272   0.094 -0.5644  0.6778 -1.1220
15068SOL     OW51165   2.982   3.209   0.097  0.0377 -0.6336 -0.6839
15068SOL    HW151166   2.917   3.140   0.107  0.5961 -1.0986 -0.1268
15068SOL    HW251167   2.937   3.289   0.123  0.3718 -1.2873  2.4083
15069SOL     OW51168   6.837   3.522   4.658  0.2289 -1.3950  0.1282
15069SOL    HW151169   6.887   3.501   4.737  0.6917 -0.5506  0.0777
15069SOL    HW251170   6.822   3.438   4.616  2.1820 -1.6419 -0.1860
15070SOL     OW51171   2.162   6.590   1.792  0.5045  0.0250 -0.0494
15070SOL    HW151172   2.201   6.667   1.752 -0.4436  0.4300 -0.2239
15070SOL    HW251173   2.236   6.532   1.811  1.0597  0.2108 -1.5592
15071SOL     OW51174   2.701   6.043   6.727 -0.4345 -0.2103  1.1349
15071SOL    HW151175   2.714   5.968   6.785 -0.6937  0.3225  1.8962
15071SOL    HW251176   2.782   6.048   6.676 -1.0589 -2.0095 -0.1246
15072SOL     OW51177   1.981   3.584   1.247  0.1837 -0.2932  0.1375
15072SOL    HW151178   2.064   3.538   1.259  0.1804 -0.8792 -1.7393
15072SOL    HW251179   1.941   3.542   1.170 -0.7833  1.4869 -0.3838
15073SOL     OW51180   5.301   4.839   5.719  0.1141  0.4266  0.0835
15073SOL    HW151181   5.387   4.851   5.759  0.3659 -0.8058 -0.0284
15073SOL    HW251182   5.275   4.926   5.689  0.1160  1.3366  2.4873
15074SOL     OW51183   1.487   5.481   5.743  0.6785 -0.3129 -0.0177
15074SOL    HW151184   1.492   5.398   5.790 -0.1835 -0.2906  0.1192
15074SOL    HW251185   1.548   5.471   5.670  1.3545 -0.6762  0.5797
15075SOL     OW51186   1.161   0.037   8.419  0.1740  0.0684 -0.1516
15075SOL    HW151187   1.195  -0.034   8.474  0.2595 -0.1751 -0.5180
15075SOL    HW251188   1.166   0.003   8.330  0.5754  0.6842 -0.3685
15076SOL     OW51189   8.079   7.898   5.433 -0.6704 -0.1273  0.3263
15076SOL    HW151190   8.116   7.953   5.364  2.4930 -2.1987  0.1505
15076SOL    HW251191   8.038   7.824   5.387 -1.2836  0.0144  0.6296
15077SOL     OW51192   4.552   4.198   4.298 -0.1510 -0.7936  0.2692
15077SOL    HW151193   4.475   4.223   4.349  0.6291  0.5339  0.8601
15077SOL    HW251194   4.567   4.271   4.239  1.2376 -0.5552  0.8750
15078SOL     OW51195   6.979   3.289   3.549 -0.5223 -0.1427  0.0726
15078SOL    HW151196   6.999   3.336   3.468 -1.9049  0.5739  0.1034
15078SOL    HW251197   7.063   3.256   3.579  0.3170  1.2191 -0.6467
15079SOL     OW51198   3.271   9.116   3.679 -0.5453  0.0331 -0.3018
15079SOL    HW151199   3.338   9.078   3.736 -1.3441 -0.8132  0.1058
15079SOL    HW251200   3.188   9.099   3.725 -1.1825 -0.3891 -1.5651
15080SOL     OW51201   2.089   7.583   3.346 -0.1442  0.3965  0.4816
15080SOL    HW151202   2.036   7.639   3.290 -0.0830 -0.7385 -0.7556
15080SOL    HW251203   2.177   7.590   3.310 -0.0631 -0.1965  0.5581
15081SOL     OW51204   0.230   1.573   4.852 -0.3996  0.0812 -0.0976
15081SOL    HW151205   0.284   1.651   4.839  0.7048 -0.1463  2.5956
15081SOL    HW251206   0.144   1.607   4.879  0.0364  0.4122  0.9232
15082SOL     OW51207   5.694   4.899   3.073 -0.0784  0.3137 -1.1880
15082SOL    HW151208   5.698   4.806   3.052  1.1853  0.1265 -0.2449
15082SOL    HW251209   5.739   4.943   3.000  0.1036  0.1126 -1.1946
15083SOL     OW51210   1.036   8.132   4.802 -0.2170  0.3499  0.2363
15083SOL    HW151211   0.978   8.069   4.846 -0.1152  0.2003  0.1579
15083SOL    HW251212   1.096   8.077   4.752 -2.2188  0.5055 -2.5615
15084SOL     OW51213   7.118   4.593   3.906  0.2510 -0.4254  0.3301
15084SOL    HW151214   7.027   4.621   3.916  0.4920  0.6223 -0.2626
15084SOL    HW251215   7.168   4.675   3.905  1.2158 -0.9952  0.7964
15085SOL     OW51216   5.669   4.018   6.217  0.6907  0.0343  0.2471
15085SOL    HW151217   5.644   4.039   6.307 -1.9121  0.3755 -0.4500
15085SOL    HW251218   5.761   4.041   6.211  0.2944  2.5185  2.1310
15086SOL     OW51219   4.687   5.452   8.436 -0.2999 -0.1742  0.5774
15086SOL    HW151220   4.622   5.430   8.369  0.4330  0.8035 -0.4878
15086SOL    HW251221   4.645   5.427   8.518 -1.5701 -0.6156 -0.1641
15087SOL     OW51222   6.205   5.947   0.426 -0.4721 -0.5674  0.0246
15087SOL    HW151223   6.244   5.988   0.504  1.4938 -2.2772  0.0237
15087SOL    HW251224   6.114   5.932   0.450 -0.4181  0.7626  1.2189
15088SOL     OW51225   5.682   5.874   7.278  0.2243 -0.0185  0.1557
15088SOL    HW151226   5.664   5.955   7.230  0.3997  0.0116  0.1395
15088SOL    HW251227   5.687   5.807   7.211 -0.3742 -0.1232  0.2091
15089SOL     OW51228   0.470   3.563   8.440 -0.1030 -0.2710  0.2310
15089SOL    HW151229   0.442   3.528   8.355  0.6240 -0.1683 -0.0557
15089SOL    HW251230   0.388   3.579   8.487 -0.4774 -1.3262 -0.0403
15090SOL     OW51231   0.672   6.243   3.529 -0.5839  0.0524 -0.5107
15090SOL    HW151232   0.671   6.247   3.625 -2.5069  0.2804 -0.5058
15090SOL    HW251233   0.692   6.333   3.502  2.5341 -0.4925 -0.3869
15091SOL     OW51234   7.932   6.271   6.009  0.8267 -0.0308 -0.3334
15091SOL    HW151235   7.848   6.310   5.988  0.3956  0.2470  1.6689
15091SOL    HW251236   7.997   6.332   5.975  0.2493 -0.2440 -1.8822
15092SOL     OW51237   1.003   0.482   1.232  1.0220  0.4637  0.0815
15092SOL    HW151238   1.001   0.389   1.211 -0.8230  0.1853  1.2124
15092SOL    HW251239   0.983   0.485   1.326 -0.4300  2.0270 -0.2253
15093SOL     OW51240   3.891   0.545   7.222 -0.1929 -0.1141 -0.0620
15093SOL    HW151241   3.796   0.542   7.219 -0.3321 -1.5325  2.7345
15093SOL    HW251242   3.919   0.479   7.158 -1.0999 -0.4454 -0.1285
15094SOL     OW51243   4.085   1.330   5.066 -0.6741 -0.1702  0.1853
15094SOL    HW151244   4.163   1.362   5.112 -0.2600 -0.7638 -0.0932
15094SOL    HW251245   4.116   1.253   5.017 -1.4652 -0.4854  0.1743
15095SOL     OW51246   5.009   5.931   5.372 -0.1570 -0.3608  0.5163
15095SOL    HW151247   5.053   5.879   5.440 -1.6564  0.3374  2.0855
15095SOL    HW251248   4.991   5.868   5.302 -0.9147 -1.7285  1.8831
15096SOL     OW51249   4.485   8.119   0.855  0.9918  0.0957 -0.0241
15096SOL    HW151250   4.578   8.128   0.831  1.3931 -0.1467  1.3592
15096SOL    HW251251   4.478   8.030   0.889  0.2412  0.1289 -0.0909
15097SOL     OW51252   0.749   5.801   4.570 -0.0444 -0.4777  0.3518
15097SOL    HW151253   0.658   5.779   4.589 -0.1681 -0.4925 -0.2490
15097SOL    HW251254   0.799   5.759   4.640 -0.2479 -2.8121 -0.7912
15098SOL     OW51255   9.068   8.245   0.842 -0.1503 -0.0357  0.3232
15098SOL    HW151256   8.987   8.225   0.890  0.1757  0.2502  1.0116
15098SOL    HW251257   9.134   8.190   0.883  0.0332 -0.1701 -0.1512
15099SOL     OW51258   8.686   2.012   2.616  0.1562  0.0983 -0.2704
15099SOL    HW151259   8.732   1.949   2.672 -0.6591  0.1860  0.5167
15099SOL    HW251260   8.648   1.958   2.546  0.5001 -0.1160 -0.2959
15100SOL     OW51261   4.401   0.355   6.318  0.5746 -0.2698  0.6091
15100SOL    HW151262   4.428   0.287   6.379  2.7388  0.3765  0.4280
15100SOL    HW251263   4.340   0.409   6.368 -0.1193 -1.5073  1.1699
15101SOL     OW51264   0.747   1.562   2.146 -0.7435 -0.0614 -0.0483
15101SOL    HW151265   0.828   1.589   2.190 -1.0244  0.7353 -0.0057
15101SOL    HW251266   0.735   1.471   2.172 -0.4302  0.1299  0.8022
15102SOL     OW51267   5.412   7.057   9.241  0.5615 -1.0683 -0.0926
15102SOL    HW151268   5.492   7.087   9.198 -0.8182  1.5103 -1.1240
15102SOL    HW251269   5.366   7.007   9.173 -0.6279  1.2014 -1.0983
15103SOL     OW51270   5.832   3.700   4.520  0.0420 -0.0771  0.7029
15103SOL    HW151271   5.812   3.641   4.448 -1.1966  0.0544  0.9139
15103SOL    HW251272   5.835   3.787   4.481  2.1221 -0.2530  0.3450
15104SOL     OW51273   0.928   2.280   0.026 -0.0972  0.1571  0.2399
15104SOL    HW151274   0.877   2.348   0.069  0.2176  0.0063  0.8637
15104SOL    HW251275   0.866   2.209   0.009 -0.3964  0.5399 -0.2941
15105SOL     OW51276   4.716   5.670   2.205  0.3346  0.0097 -0.6745
15105SOL    HW151277   4.808   5.648   2.224  0.4064  0.1635 -0.8440
15105SOL    HW251278   4.670   5.588   2.215  0.5891 -0.2057 -1.2194
15106SOL     OW51279   4.636   6.251   1.856  0.3222  0.0529 -0.0305
15106SOL    HW151280   4.678   6.279   1.775  0.0147  0.8686  0.0784
15106SOL    HW251281   4.690   6.288   1.926 -0.6203  1.2498  0.1081
15107SOL     OW51282   1.677   6.440   5.822 -0.1371  0.1801  0.4734
15107SOL    HW151283   1.630   6.371   5.869 -1.2813  1.4186  1.2183
15107SOL    HW251284   1.746   6.468   5.883 -1.7323  1.9117  1.6214
15108SOL     OW51285   4.243   2.877   0.004 -0.2646  0.4501  0.3762
15108SOL    HW151286   4.244   2.969   0.032 -1.8433  0.3147  1.0003
15108SOL    HW251287   4.206   2.879  -0.084 -3.9564  0.1869  1.7607
15109SOL     OW51288   2.565   8.288   8.679 -0.1918  1.1612  0.8384
15109SOL    HW151289   2.616   8.221   8.724 -1.2949 -1.0962 -1.0649
15109SOL    HW251290   2.495   8.310   8.740 -0.5791 -0.4322  1.0124
15110SOL     OW51291   5.229   1.727   6.305  0.3958 -0.4771 -0.1569
15110SOL    HW151292   5.276   1.809   6.319 -1.5490  0.6006  0.3269
15110SOL    HW251293   5.196   1.733   6.216 -0.9723 -0.0542  0.3580
15111SOL     OW51294   3.307   7.035   8.800  0.4449 -0.4224  0.3581
15111SOL    HW151295   3.335   7.001   8.885  1.9779 -1.1413 -0.3953
15111SOL    HW251296   3.217   7.002   8.790  0.1179 -0.0448  1.8209
15112SOL     OW51297   2.223   8.703   7.849 -0.6882 -0.7944 -0.3400
15112SOL    HW151298   2.310   8.731   7.823 -0.7105 -0.3361  0.0766
15112SOL    HW251299   2.168   8.781   7.840 -1.0816 -1.1056 -0.7060
15113SOL     OW51300   1.198   1.351   2.289 -0.6109  0.0289  0.0911
15113SOL    HW151301   1.226   1.436   2.253 -0.8432 -0.4841 -1.3803
15113SOL    HW251302   1.268   1.325   2.347 -0.8464  1.5499  1.1253
15114SOL     OW51303   1.169   1.146   1.184 -0.1274  0.5153  0.2550
15114SOL    HW151304   1.094   1.167   1.128 -0.2538 -0.2682  0.1101
15114SOL    HW251305   1.233   1.106   1.125 -0.6501 -1.2299  0.7907
15115SOL     OW51306   7.056   8.987   1.979  0.0872 -0.0928 -0.3947
15115SOL    HW151307   7.092   8.938   1.905 -1.3043 -0.2597 -0.9835
15115SOL    HW251308   7.069   9.079   1.955  0.3936 -0.1507 -0.4577
15116SOL     OW51309   6.515   4.425   4.593 -0.2792 -0.6425 -0.3090
15116SOL    HW151310   6.562   4.491   4.644  0.7988  0.5129 -2.6671
15116SOL    HW251311   6.423   4.450   4.601 -0.1120 -0.3350  0.8288
15117SOL     OW51312   3.501   5.609   0.313  0.1188  0.2409  0.2780
15117SOL    HW151313   3.552   5.594   0.234  0.8053 -3.3608  1.2376
15117SOL    HW251314   3.410   5.592   0.287  0.3415 -0.9080  0.1996
15118SOL     OW51315   1.416   3.224   7.616 -0.1904 -0.9864 -0.3044
15118SOL    HW151316   1.350   3.278   7.572 -0.8033 -1.6040 -0.1567
15118SOL    HW251317   1.379   3.207   7.702  1.7380  1.6587  1.2051
15119SOL     OW51318   3.163   5.584   3.110 -0.1584  0.5411  0.2749
15119SOL    HW151319   3.193   5.510   3.163 -2.2149 -0.9226 -0.4983
15119SOL    HW251320   3.201   5.568   3.024  0.0888  0.8698  0.3203
15120SOL     OW51321   7.190   4.674   5.400 -0.3652  0.1653  0.0675
15120SOL    HW151322   7.151   4.670   5.487 -0.9900  0.6315 -0.1855
15120SOL    HW251323   7.202   4.767   5.383 -0.0262  0.0645 -0.2445
15121SOL     OW51324   1.535   0.617   8.771  0.2294 -0.2457  0.0158
15121SOL    HW151325   1.458   0.648   8.724 -0.4361 -0.9570  0.5929
15121SOL    HW251326   1.599   0.687   8.763 -1.0704  1.1071  0.9541
15122SOL     OW51327   4.623   8.317   1.254  0.4860  0.1212  0.1748
15122SOL    HW151328   4.679   8.241   1.269  0.5591  0.4263  1.6377
15122SOL    HW251329   4.657   8.383   1.314  0.5608  1.3968 -1.2160
15123SOL     OW51330   7.216   7.340   7.817  0.5312 -0.2461 -0.3554
15123SOL    HW151331   7.175   7.260   7.852  1.3824 -0.4571  0.1885
15123SOL    HW251332   7.192   7.409   7.879  0.5946 -0.2764 -0.2963
15124SOL     OW51333   7.924   5.206   2.607 -0.0122 -0.1822  0.5816
15124SOL    HW151334   7.919   5.294   2.644  2.4393  0.8558 -1.3551
15124SOL    HW251335   7.990   5.211   2.539 -2.1155 -2.7259 -1.9139
15125SOL     OW51336   0.033   3.070   5.942  0.0956 -0.2134  0.4114
15125SOL    HW151337   0.118   3.110   5.960 -0.2763  0.4784  0.6755
15125SOL    HW251338  -0.008   3.128   5.878  0.6583 -1.6741 -1.3787
15126SOL     OW51339   0.649   5.243   7.476 -0.7290 -0.2081 -0.6026
15126SOL    HW151340   0.739   5.275   7.472 -0.1142 -1.6179  0.9108
15126SOL    HW251341   0.638   5.192   7.395  0.3067 -1.1420 -0.1819
15127SOL     OW51342   1.522   6.052   7.003  0.6499 -0.2675 -0.0511
15127SOL    HW151343   1.580   6.005   7.063  1.6635  1.2289  0.1866
15127SOL    HW251344   1.438   6.006   7.010  0.9172 -0.5268  2.0218
15128SOL     OW51345   0.530   3.888   2.105 -0.4160  0.1767 -0.2093
15128SOL    HW151346   0.439   3.884   2.132 -0.2633 -0.5783  0.2370
15128SOL    HW251347   0.578   3.911   2.185 -0.0138 -1.5286  0.0898
15129SOL     OW51348   1.169   8.091   5.628  0.5903  0.2378  0.0836
15129SOL    HW151349   1.100   8.083   5.694 -0.5700 -0.6215 -1.1647
15129SOL    HW251350   1.139   8.035   5.556  1.9703  0.8865 -1.0331
15130SOL     OW51351   6.254   1.655   2.702  0.1960 -0.0364 -0.6877
15130SOL    HW151352   6.267   1.576   2.649  2.2464 -1.1061  1.2254
15130SOL    HW251353   6.318   1.718   2.668 -0.4953  0.3345 -1.3260
15131SOL     OW51354   5.846   1.790   9.107 -0.1665 -0.0997 -0.6020
15131SOL    HW151355   5.916   1.743   9.152  0.6809  0.3086 -1.4622
15131SOL    HW251356   5.825   1.735   9.031 -0.3099  0.1102 -0.7160
15132SOL     OW51357   2.260   3.523   2.951  0.2213  0.0781 -0.0086
15132SOL    HW151358   2.240   3.529   2.858 -1.1738  1.3227  0.3242
15132SOL    HW251359   2.310   3.602   2.970  1.5973 -0.7884  0.0784
15133SOL     OW51360   8.522   7.772   4.778 -0.0602 -0.7793 -0.3306
15133SOL    HW151361   8.590   7.769   4.710  0.3812 -0.0188  0.0746
15133SOL    HW251362   8.451   7.822   4.739  0.6755  0.7194  0.1737
15134SOL     OW51363   4.364   3.969   0.907 -0.6091  0.9737 -0.6331
15134SOL    HW151364   4.341   4.026   0.980 -1.1028 -0.4158  0.3469
15134SOL    HW251365   4.452   3.937   0.929 -1.2231 -0.3721  0.0117
15135SOL     OW51366   7.470   5.278   2.659 -0.2234  0.0977 -0.4778
15135SOL    HW151367   7.378   5.285   2.682 -0.0540  0.6542  0.0771
15135SOL    HW251368   7.489   5.359   2.612  0.4061  0.8564  1.0069
15136SOL     OW51369   3.292   1.196   5.774  0.1205  0.0087 -0.0469
15136SOL    HW151370   3.280   1.240   5.690 -1.9861 -1.9091 -0.8649
15136SOL    HW251371   3.385   1.174   5.777  0.2226  0.0251 -1.9441
15137SOL     OW51372   4.208   3.344   2.956 -0.4131 -0.6361 -0.1550
15137SOL    HW151373   4.151   3.416   2.985  1.6722  0.4344  1.5918
15137SOL    HW251374   4.257   3.380   2.882  0.3380 -0.3540  0.4612
15138SOL     OW51375   1.867   0.688   6.618  0.3509  1.0184 -0.3832
15138SOL    HW151376   1.830   0.667   6.532  0.5683  1.4849 -0.5914
15138SOL    HW251377   1.860   0.783   6.626 -0.9318  0.8571  0.7013
15139SOL     OW51378   7.624   4.294   6.475  0.2762  0.3617  0.1649
15139SOL    HW151379   7.643   4.346   6.553 -0.8236  1.4527 -0.2611
15139SOL    HW251380   7.689   4.323   6.411  1.2276 -0.5869  0.6533
15140SOL     OW51381   1.921   0.964   7.395 -0.1542  0.3809  0.7014
15140SOL    HW151382   1.964   0.968   7.481 -0.5405  0.3071  0.9010
15140SOL    HW251383   1.967   1.029   7.342 -1.2003  1.8756  1.5469
15141SOL     OW51384   8.185   3.485   4.553 -0.3404  0.4958 -0.4203
15141SOL    HW151385   8.089   3.486   4.557 -0.3736  1.8655 -1.1777
15141SOL    HW251386   8.210   3.415   4.614 -1.7823  0.6856  0.4451
15142SOL     OW51387   4.885   6.336   3.572 -0.5066  0.6080 -0.6425
15142SOL    HW151388   4.800   6.350   3.614  0.4452 -1.9787  2.5933
15142SOL    HW251389   4.869   6.266   3.508 -1.0086  0.7731 -0.6959
15143SOL     OW51390   0.417   6.358   7.121 -0.3172  0.6207  0.1065
15143SOL    HW151391   0.437   6.446   7.090  0.5413  0.9096  1.4049
15143SOL    HW251392   0.347   6.328   7.064  1.6899  0.7846 -2.6270
15144SOL     OW51393   8.051   4.786   0.068 -0.2726 -0.4812 -0.0106
15144SOL    HW151394   8.085   4.862   0.022  0.6674 -0.8785 -0.0033
15144SOL    HW251395   7.986   4.821   0.129  1.2027  0.5244  1.0642
15145SOL     OW51396   8.579   7.217   7.143  0.1167  0.0914  0.0967
15145SOL    HW151397   8.562   7.299   7.097  1.0999  0.5576  0.5524
15145SOL    HW251398   8.631   7.165   7.082  0.9577  0.4951  0.4608
15146SOL     OW51399   6.085   2.674   0.899 -0.5638 -0.8193 -0.1488
15146SOL    HW151400   6.100   2.625   0.980 -0.2821 -0.7501 -0.1589
15146SOL    HW251401   5.995   2.651   0.874 -0.7614 -0.6035  0.3464
15147SOL     OW51402   8.485   5.905   6.955 -0.1923 -0.5423  0.3305
15147SOL    HW151403   8.436   5.834   6.913  2.1750 -1.3849 -1.2499
15147SOL    HW251404   8.561   5.861   6.994 -0.2635  0.7892  2.0671
15148SOL     OW51405   5.763   1.930   8.330 -0.1249  0.0134 -0.0628
15148SOL    HW151406   5.832   1.983   8.369 -0.7641  0.1621  0.9025
15148SOL    HW251407   5.777   1.842   8.365 -0.1288 -0.0590 -0.2445
15149SOL     OW51408   0.502   5.236   4.016  0.2592 -0.1208  0.5221
15149SOL    HW151409   0.475   5.207   4.103  0.6182  0.1571  0.7339
15149SOL    HW251410   0.456   5.318   4.003 -1.8591 -1.4246 -0.6662
15150SOL     OW51411   5.760   0.733   0.226  0.1773 -0.2018 -0.6948
15150SOL    HW151412   5.811   0.658   0.196  0.4004 -0.6686  0.7669
15150SOL    HW251413   5.724   0.705   0.310 -1.0842  0.7478 -0.8901
15151SOL     OW51414   1.640   5.768   0.486 -0.0500 -0.0790  0.1099
15151SOL    HW151415   1.667   5.730   0.570  0.8763  1.2473  0.4402
15151SOL    HW251416   1.652   5.862   0.498  2.7553  0.0015 -2.3842
15152SOL     OW51417   8.165   1.391   6.328 -0.0257 -0.3937  0.2465
15152SOL    HW151418   8.227   1.463   6.316  0.8436 -1.3356 -1.2888
15152SOL    HW251419   8.215   1.313   6.306 -0.7205 -1.6067  2.6512
15153SOL     OW51420   2.845   2.438   4.397 -0.1525  0.2900 -0.1560
15153SOL    HW151421   2.912   2.371   4.407 -0.0315  0.4936  0.4210
15153SOL    HW251422   2.771   2.392   4.358  1.0352  0.5158 -2.8743
15154SOL     OW51423   3.700   2.646   3.389  0.7810 -0.2257 -0.2414
15154SOL    HW151424   3.766   2.601   3.335  1.0130  0.1546 -0.2778
15154SOL    HW251425   3.634   2.675   3.326  0.1819 -1.2719 -0.1197
15155SOL     OW51426   4.945   2.789   0.697 -0.4954  0.3181  0.2216
15155SOL    HW151427   4.851   2.800   0.708 -0.5274 -0.6563  1.0004
15155SOL    HW251428   4.971   2.862   0.639 -1.5662  1.1376  0.7404
15156SOL     OW51429   3.548   0.846   4.958  0.1579 -0.2135  0.3416
15156SOL    HW151430   3.621   0.907   4.970 -0.2168 -0.0080  1.8420
15156SOL    HW251431   3.535   0.842   4.863  0.9926  1.0820  0.1489
15157SOL     OW51432   0.228   2.970   4.852 -0.0410  0.3039 -0.0063
15157SOL    HW151433   0.221   2.930   4.765 -0.1089  1.0379 -0.3554
15157SOL    HW251434   0.162   2.925   4.905  0.4852 -0.6377 -0.1391
15158SOL     OW51435   3.062   5.731   7.259 -0.2388 -0.1141 -0.0361
15158SOL    HW151436   3.150   5.704   7.233  0.7289  2.8055 -0.0967
15158SOL    HW251437   3.073   5.816   7.301 -2.7453 -0.8500  2.5188
15159SOL     OW51438   1.719   0.778   7.113  0.2046 -0.5835  0.5078
15159SOL    HW151439   1.633   0.739   7.124 -0.7358  0.6359 -1.8012
15159SOL    HW251440   1.749   0.747   7.028  0.8223  1.1310  0.0505
15160SOL     OW51441   4.591   3.813   7.663 -0.0795 -0.2949  0.3158
15160SOL    HW151442   4.496   3.818   7.677 -0.0950 -1.5844  0.7103
15160SOL    HW251443   4.621   3.741   7.717  1.2175  0.3745  0.5430
15161SOL     OW51444   1.142   6.143   1.601  0.0815  0.1436  0.0006
15161SOL    HW151445   1.232   6.126   1.571  0.7560 -0.3715  2.1333
15161SOL    HW251446   1.125   6.075   1.665 -1.7966  0.3608 -0.2090
15162SOL     OW51447   2.711   1.469   9.147 -0.0513 -0.8385 -0.0874
15162SOL    HW151448   2.635   1.480   9.204 -0.4009  1.3528 -0.8739
15162SOL    HW251449   2.786   1.467   9.206 -0.3882  1.6517  0.5256
15163SOL     OW51450   0.919   5.057   5.961  0.2241  0.1460 -0.8569
15163SOL    HW151451   0.952   5.019   6.042  1.2987  0.8866 -0.9246
15163SOL    HW251452   0.831   5.020   5.951 -0.3815  0.8522  1.2071
15164SOL     OW51453   8.662   0.944   0.891 -0.2064  0.2470  0.0922
15164SOL    HW151454   8.623   0.993   0.818 -1.7054 -0.2328  0.5438
15164SOL    HW251455   8.632   0.990   0.970 -0.3129 -0.4600  0.4697
15165SOL     OW51456   9.056   4.565   6.167 -0.3953  0.4406 -0.0429
15165SOL    HW151457   9.063   4.474   6.136  1.7833  0.1611  1.0666
15165SOL    HW251458   9.007   4.558   6.249  1.4478 -0.0887  1.0847
15166SOL     OW51459   8.436   1.982   4.289  0.3794  0.2907 -0.2156
15166SOL    HW151460   8.370   2.049   4.273  0.5203  0.6044  0.4864
15166SOL    HW251461   8.436   1.970   4.384  0.6827 -0.3733 -0.2923
15167SOL     OW51462   4.610   3.424   7.080 -0.4663 -0.2304  0.0022
15167SOL    HW151463   4.529   3.379   7.057  0.7854 -1.5878 -2.0710
15167SOL    HW251464   4.647   3.453   6.996  0.4790  1.7216  1.0056
15168SOL     OW51465   3.962   6.750   5.876  0.0614  0.0009 -0.1267
15168SOL    HW151466   4.009   6.721   5.798 -0.5714 -0.5526 -0.3121
15168SOL    HW251467   4.030   6.787   5.933  0.9199 -1.9080  0.1519
15169SOL     OW51468   3.799   0.260   4.316  0.4081  0.4166 -0.3171
15169SOL    HW151469   3.740   0.202   4.364 -0.6895  1.4709 -0.3381
15169SOL    HW251470   3.870   0.203   4.287 -1.6504 -1.3782 -2.1646
15170SOL     OW51471   4.656   3.840   5.885 -0.1239 -0.2091  0.5287
15170SOL    HW151472   4.734   3.859   5.833 -0.7946  0.7899 -0.1719
15170SOL    HW251473   4.686   3.782   5.954  1.4360  0.8640  0.8108
15171SOL     OW51474   0.787   5.275   4.167  0.3063 -0.0737 -0.1558
15171SOL    HW151475   0.728   5.316   4.103  2.0988  0.0322 -1.8272
15171SOL    HW251476   0.745   5.191   4.187 -1.0043  0.5095 -0.3790
15172SOL     OW51477   8.897   7.923   0.970 -0.1050 -0.1833 -0.2578
15172SOL    HW151478   8.884   8.010   1.008 -2.0654 -0.3040 -0.5214
15172SOL    HW251479   8.992   7.915   0.961  0.1205  2.2225 -0.9111
15173SOL     OW51480   3.314   2.435   4.035  0.3893  0.0430  0.1621
15173SOL    HW151481   3.323   2.395   3.948 -0.9947 -0.7929  0.3870
15173SOL    HW251482   3.241   2.389   4.076 -0.0054  1.4982  1.1762
15174SOL     OW51483   7.320   0.725   7.868  0.7807 -0.6440 -0.6306
15174SOL    HW151484   7.406   0.766   7.857  0.9661 -1.1044 -0.9052
15174SOL    HW251485   7.260   0.786   7.824  0.9905 -0.4155 -0.6042
15175SOL     OW51486   3.875   2.799   0.032 -0.1915  0.5610 -0.8989
15175SOL    HW151487   3.902   2.765   0.117 -2.3321  0.4995 -0.1965
15175SOL    HW251488   3.883   2.894   0.042 -0.9409  0.5844 -0.4185
15176SOL     OW51489   2.929   4.599   7.802 -0.0664 -0.1338  0.1525
15176SOL    HW151490   2.987   4.658   7.753 -0.8807  1.6709  1.2255
15176SOL    HW251491   2.983   4.568   7.875  0.2588 -0.4224 -0.2068
15177SOL     OW51492   8.700   2.864   4.197  0.0988  0.0807  0.4775
15177SOL    HW151493   8.727   2.780   4.159 -0.2473  0.2447 -0.1422
15177SOL    HW251494   8.739   2.929   4.139 -1.2142  0.3276 -0.1530
15178SOL     OW51495   4.251   6.022   6.008  0.2282  0.0880 -0.1884
15178SOL    HW151496   4.344   6.041   5.994 -0.1579  0.7575 -2.1761
15178SOL    HW251497   4.238   5.936   5.970 -0.0524  0.1968 -0.3412
15179SOL     OW51498   8.407   4.543   5.166  0.3958 -0.3519 -0.0301
15179SOL    HW151499   8.444   4.586   5.089 -0.3324  2.4402  1.0880
15179SOL    HW251500   8.327   4.592   5.185  1.1597 -0.1475  3.1824
15180SOL     OW51501   3.529   4.973   6.219 -0.2032 -0.6046  0.1056
15180SOL    HW151502   3.496   5.005   6.135  0.9277 -0.8906 -0.4840
15180SOL    HW251503   3.471   5.011   6.285 -1.4372 -0.8040 -0.8370
15181SOL     OW51504   7.503   1.705   4.338  0.2605 -0.1431 -0.3453
15181SOL    HW151505   7.513   1.611   4.351 -0.2366 -0.0391  0.9972
15181SOL    HW251506   7.411   1.722   4.357  0.6353  0.7900  0.8095
15182SOL     OW51507   1.056   0.394   8.158 -0.2381 -0.3009  0.2471
15182SOL    HW151508   1.141   0.439   8.166 -0.2151 -0.4467  0.9052
15182SOL    HW251509   0.991   0.464   8.168 -0.3020  0.5802 -4.3320
15183SOL     OW51510   8.750   7.453   8.129 -0.4534 -0.0100 -0.2402
15183SOL    HW151511   8.657   7.476   8.138 -0.8971 -1.7528  0.1204
15183SOL    HW251512   8.792   7.497   8.203 -1.3585 -0.8700  0.8240
15184SOL     OW51513   7.595   9.063   4.171 -0.1802 -0.6179 -0.4460
15184SOL    HW151514   7.561   9.114   4.098  0.5414 -0.9813 -1.0518
15184SOL    HW251515   7.663   9.008   4.132  1.3676  0.3336  0.7678
15185SOL     OW51516   1.846   7.074   2.916  0.2689  0.1599  0.8074
15185SOL    HW151517   1.920   7.127   2.946 -0.3646  0.2033  2.3428
15185SOL    HW251518   1.875   6.984   2.928 -0.2211  0.1714  2.2378
15186SOL     OW51519   9.247   3.150   2.839  0.4720  0.4082 -0.0525
15186SOL    HW151520   9.320   3.175   2.782 -0.1893  2.9660  0.0910
15186SOL    HW251521   9.287   3.141   2.926  0.8204  0.7566 -0.1691
15187SOL     OW51522   3.777   4.682   5.250 -0.2513  0.0659  0.2987
15187SOL    HW151523   3.832   4.759   5.264 -0.3254  0.2505 -0.3657
15187SOL    HW251524   3.688   4.714   5.264 -0.2109 -0.1927  1.2072
15188SOL     OW51525   6.627   5.654   1.359 -0.4668 -0.7229  0.4652
15188SOL    HW151526   6.685   5.718   1.318 -0.5326 -1.9104 -1.5904
15188SOL    HW251527   6.566   5.707   1.410  1.0798  0.6698  0.9385
15189SOL     OW51528   0.100   1.287   1.985 -0.8415 -0.0327  0.1913
15189SOL    HW151529   0.052   1.209   1.958  0.6659 -0.9358 -0.0003
15189SOL    HW251530   0.184   1.280   1.940 -0.4068  1.3395  0.7437
15190SOL     OW51531   7.199   3.210   6.525 -0.2311  0.2087 -0.1495
15190SOL    HW151532   7.228   3.119   6.521 -1.2722 -0.1415  0.2262
15190SOL    HW251533   7.132   3.217   6.458  0.2050  0.8441 -0.5344
15191SOL     OW51534   3.839   7.055   0.892  0.1316 -0.6569 -0.3722
15191SOL    HW151535   3.891   7.030   0.816  0.9942  2.6796 -1.0555
15191SOL    HW251536   3.778   7.120   0.858  0.3871  0.7518  1.7008
15192SOL     OW51537   1.739   4.410   2.321  0.9230  0.3624 -0.2184
15192SOL    HW151538   1.775   4.498   2.337 -0.9967  1.0496  0.7619
15192SOL    HW251539   1.712   4.380   2.408  0.1029 -0.5077 -0.7597
15193SOL     OW51540   6.516   3.845   2.633 -0.4650 -0.3992  0.5291
15193SOL    HW151541   6.575   3.895   2.577  1.4224  0.1646  2.8400
15193SOL    HW251542   6.485   3.773   2.578  1.9858 -0.4082 -0.9756
15194SOL     OW51543   3.833   5.677   8.251 -0.6584  0.5556 -0.3829
15194SOL    HW151544   3.828   5.770   8.231 -0.2985  0.3123 -1.6710
15194SOL    HW251545   3.849   5.674   8.345  1.3110  1.8411 -0.6287
15195SOL     OW51546   0.676   2.513   5.309 -0.6609 -0.1356 -0.5232
15195SOL    HW151547   0.658   2.419   5.319  0.5830 -0.2900  0.4706
15195SOL    HW251548   0.591   2.555   5.320 -1.0660 -1.0859  0.0968
15196SOL     OW51549   0.923   1.323   2.655  0.0703  0.0126  0.0873
15196SOL    HW151550   0.861   1.383   2.696  0.3496 -0.0420  0.5945
15196SOL    HW251551   0.882   1.301   2.571 -0.0425  0.8870 -0.0964
15197SOL     OW51552   7.795   9.253   1.761  0.5280 -0.0684 -0.0920
15197SOL    HW151553   7.833   9.329   1.805 -1.2071  1.4128 -0.9788
15197SOL    HW251554   7.731   9.218   1.824 -0.5265  0.8310 -0.6336
15198SOL     OW51555   6.907   3.733   3.869  0.1481 -0.4261  0.1343
15198SOL    HW151556   6.834   3.752   3.809 -0.1799 -0.4257  0.5302
15198SOL    HW251557   6.964   3.676   3.818  0.5548  0.6455 -0.6458
15199SOL     OW51558   3.678   5.316   8.399  0.6317 -0.3527  0.6312
15199SOL    HW151559   3.719   5.342   8.481  2.4006  0.9387 -0.5802
15199SOL    HW251560   3.584   5.320   8.416  0.8966  2.2381  1.9305
15200SOL     OW51561   1.177   0.322   8.449 -0.2835 -0.1518 -0.4276
15200SOL    HW151562   1.118   0.359   8.384 -0.9289  1.6827  1.0835
15200SOL    HW251563   1.177   0.228   8.432 -2.9583 -0.1129 -1.0426
15201SOL     OW51564   6.643   7.528   1.631  0.1824 -0.2189 -0.3575
15201SOL    HW151565   6.731   7.504   1.661  1.1964 -1.0339 -3.6418
15201SOL    HW251566   6.645   7.624   1.626  0.7281 -0.2089 -0.0669
15202SOL     OW51567   5.824   7.746   2.976 -0.4115 -0.1159 -0.0969
15202SOL    HW151568   5.808   7.713   2.888  0.3178 -1.6469  0.3011
15202SOL    HW251569   5.794   7.676   3.034  1.9534 -0.5098  0.7746
15203SOL     OW51570   8.176   9.250   9.146 -0.5263 -0.1753 -0.8560
15203SOL    HW151571   8.252   9.268   9.091  0.1698 -0.2808  0.0487
15203SOL    HW251572   8.146   9.336   9.176 -0.7166 -0.1391 -1.1495
15204SOL     OW51573   1.427   7.024   1.010 -0.2380 -0.9309 -0.3265
15204SOL    HW151574   1.354   6.985   1.057  0.3316 -2.6182 -0.7581
15204SOL    HW251575   1.401   7.020   0.918  0.1851 -1.0945 -0.4427
15205SOL     OW51576   3.551   4.212   6.348 -0.5329  0.5242  0.4928
15205SOL    HW151577   3.505   4.263   6.416  1.5123  1.1001  1.5189
15205SOL    HW251578   3.567   4.275   6.278 -2.4152 -0.0083 -0.4826
15206SOL     OW51579   3.782   2.032   5.642 -0.2605  0.3336  0.1546
15206SOL    HW151580   3.832   2.005   5.719  0.8253  0.3589 -0.5102
15206SOL    HW251581   3.733   1.955   5.616  1.5292 -0.5683 -0.7498
15207SOL     OW51582   4.031   1.339   8.885 -0.2688  0.0626  0.4032
15207SOL    HW151583   4.024   1.244   8.879  1.2334 -0.2160  2.0331
15207SOL    HW251584   4.090   1.353   8.959  0.5297  2.2432 -0.5688
15208SOL     OW51585   4.742   7.092   5.889 -0.3715 -0.7066 -0.4203
15208SOL    HW151586   4.837   7.082   5.895 -0.2965 -0.2421 -0.7809
15208SOL    HW251587   4.714   7.112   5.979 -0.2675 -1.9074 -0.1034
15209SOL     OW51588   2.618   3.747   3.365  0.0962 -0.0668 -0.4875
15209SOL    HW151589   2.589   3.824   3.316  1.1748  0.8931  0.3285
15209SOL    HW251590   2.678   3.703   3.305  1.5934  1.2312 -0.0282
15210SOL     OW51591   4.659   1.058   2.083  0.0612  0.2401 -0.4671
15210SOL    HW151592   4.598   1.038   2.013 -0.5890  1.9818 -0.4646
15210SOL    HW251593   4.719   1.123   2.045  1.8856 -1.3078 -0.4299
15211SOL     OW51594   6.551   5.670   2.629 -0.5656  0.5546 -0.6544
15211SOL    HW151595   6.529   5.756   2.666 -1.9620  0.2277 -0.6961
15211SOL    HW251596   6.631   5.686   2.578 -0.5943  1.7456 -0.3540
15212SOL     OW51597   0.026   8.020   7.885 -0.0740 -0.3901 -1.0514
15212SOL    HW151598  -0.000   8.005   7.795  0.9095 -0.3828 -1.3490
15212SOL    HW251599   0.121   8.029   7.882 -0.0644  0.0139 -0.0689
15213SOL     OW51600   2.248   6.844   5.558  0.4272 -0.7995  0.4053
15213SOL    HW151601   2.235   6.937   5.536 -2.9402 -1.0955  0.6583
15213SOL    HW251602   2.243   6.799   5.474 -1.6754 -0.9865  0.5669
15214SOL     OW51603   2.157   4.493   5.485 -0.1281  0.7814 -0.0717
15214SOL    HW151604   2.107   4.534   5.415  2.2085  1.1221 -1.6656
15214SOL    HW251605   2.241   4.539   5.485  1.6609 -2.2217 -0.2224
15215SOL     OW51606   6.496   5.208   3.231 -0.6356 -0.1927  0.3527
15215SOL    HW151607   6.461   5.123   3.258  0.6035 -0.8707 -0.0509
15215SOL    HW251608   6.429   5.271   3.254 -1.6578 -1.3097  0.5154
15216SOL     OW51609   0.678   1.683   5.963  0.2435  0.0043 -0.8166
15216SOL    HW151610   0.762   1.638   5.950  0.7830  1.0669 -1.0795
15216SOL    HW251611   0.666   1.683   6.058 -0.9598 -2.7909 -0.8548
15217SOL     OW51612   1.332   7.426   2.540 -0.6047 -0.3003  0.6234
15217SOL    HW151613   1.254   7.460   2.584  0.5676  2.3840  0.8061
15217SOL    HW251614   1.372   7.503   2.499  1.1421 -1.8613 -0.7813
15218SOL     OW51615   4.546   2.155   5.014 -0.2819  0.4584 -0.0929
15218SOL    HW151616   4.575   2.172   4.924  0.5946  0.0634  0.1088
15218SOL    HW251617   4.454   2.130   5.005  0.0695 -0.5626 -0.9865
15219SOL     OW51618   0.266   7.754   5.553  0.4977 -0.9688 -0.0819
15219SOL    HW151619   0.208   7.683   5.583  2.1628 -1.8766  1.1623
15219SOL    HW251620   0.282   7.806   5.632  1.2221 -0.6280 -0.4509
15220SOL     OW51621   3.955   7.548   2.028 -0.2351  0.1279 -0.3279
15220SOL    HW151622   3.909   7.514   2.105 -0.2903 -0.0520 -0.4370
15220SOL    HW251623   3.901   7.620   1.998  0.2730  0.8043  0.3432
15221SOL     OW51624   6.688   1.978   5.938 -0.5659 -0.2732  0.2482
15221SOL    HW151625   6.599   2.009   5.952 -0.1170  1.3269 -0.2234
15221SOL    HW251626   6.700   1.981   5.843 -0.0958 -0.7402  0.2895
15222SOL     OW51627   6.242   4.185   4.359 -0.2841 -0.1722  0.3041
15222SOL    HW151628   6.202   4.258   4.311 -1.0315 -1.2181 -0.7201
15222SOL    HW251629   6.336   4.194   4.341 -0.2402  1.1230  1.0546
15223SOL     OW51630   8.166   2.325   1.765  0.6255  0.4857  0.4937
15223SOL    HW151631   8.228   2.394   1.740  0.8283  0.0069 -0.3649
15223SOL    HW251632   8.178   2.316   1.860  0.8997  1.3302  0.5523
15224SOL     OW51633   1.087   8.263   1.697  0.2599  0.6731  0.1601
15224SOL    HW151634   1.107   8.349   1.659 -2.2330 -0.6133 -5.0429
15224SOL    HW251635   1.166   8.211   1.683  0.5695  1.2035 -0.0806
15225SOL     OW51636   1.584   7.030   3.010  0.2088  0.0154 -0.4128
15225SOL    HW151637   1.561   7.096   3.075 -0.9377 -1.2425  0.5256
15225SOL    HW251638   1.679   7.039   2.998  0.2117  1.1820  0.3990
15226SOL     OW51639   1.660   0.583   0.250  0.0559  0.7042  0.1494
15226SOL    HW151640   1.596   0.644   0.215 -0.5324  0.0305  0.0205
15226SOL    HW251641   1.741   0.605   0.206 -0.5740  0.1386 -1.3621
15227SOL     OW51642   8.881   9.345   3.774  0.4919 -0.3665 -0.4901
15227SOL    HW151643   8.940   9.330   3.701 -0.1598  0.8228 -1.2965
15227SOL    HW251644   8.795   9.360   3.732 -0.0264 -0.3508  0.5506
15228SOL     OW51645   8.331   6.611   0.792  0.5648  0.4121  0.4425
15228SOL    HW151646   8.293   6.558   0.862  0.0469 -2.7289 -1.9859
15228SOL    HW251647   8.425   6.594   0.796  0.6103  0.7038  0.6942
15229SOL     OW51648   4.705   0.692   4.601  0.0706  0.2080  0.3804
15229SOL    HW151649   4.736   0.702   4.511 -1.0073  0.0020 -0.0306
15229SOL    HW251650   4.631   0.752   4.608  0.3110  0.4150  1.2139
15230SOL     OW51651   2.517   3.460   4.942 -0.3614  0.7239  0.2821
15230SOL    HW151652   2.511   3.499   4.855 -1.6532 -1.4151 -0.6852
15230SOL    HW251653   2.501   3.366   4.927  1.7053 -0.0872  2.5372
15231SOL     OW51654   2.202   2.514   9.319 -0.3702  0.2144  0.2161
15231SOL    HW151655   2.201   2.421   9.297 -0.8471  0.2084  0.2481
15231SOL    HW251656   2.186   2.516   9.413  1.7446  0.2343  0.6073
15232SOL     OW51657   4.759   2.513   4.114 -0.1282 -0.1108 -0.3444
15232SOL    HW151658   4.855   2.518   4.110 -0.1283 -0.4478 -1.2083
15232SOL    HW251659   4.742   2.426   4.150 -0.0705 -1.0470 -2.3801
15233SOL     OW51660   7.496   4.392   3.928 -0.6003  0.0018  0.0338
15233SOL    HW151661   7.512   4.369   3.837  1.3042 -1.0768  0.5804
15233SOL    HW251662   7.579   4.428   3.959 -1.3511  0.8008  1.2137
15234SOL     OW51663   9.170   8.253   5.626 -0.5457 -0.4098  0.3402
15234SOL    HW151664   9.180   8.273   5.533  0.6009 -0.7775  0.3712
15234SOL    HW251665   9.107   8.318   5.658 -0.5192  0.0761 -0.5669
15235SOL     OW51666   3.890   5.561   8.012 -0.0683 -0.5326  0.3249
15235SOL    HW151667   3.980   5.545   7.982 -0.5900  0.2460 -1.8867
15235SOL    HW251668   3.900   5.591   8.102  1.8306 -1.0149  0.3333
15236SOL     OW51669   6.886   0.556   3.664  0.1987  0.0488  0.1394
15236SOL    HW151670   6.847   0.628   3.614  0.7815  0.8662  0.8295
15236SOL    HW251671   6.959   0.527   3.610  0.4501  0.5162  0.2192
15237SOL     OW51672   6.500   2.491   8.698 -0.9067 -0.1285  0.4474
15237SOL    HW151673   6.476   2.568   8.749  0.9632  0.3493  0.6714
15237SOL    HW251674   6.454   2.502   8.615 -1.4015  0.7426  0.8222
15238SOL     OW51675   1.959   4.168   5.265 -0.0495 -0.0042 -0.1490
15238SOL    HW151676   1.875   4.150   5.308  0.3569 -0.7537  0.3430
15238SOL    HW251677   1.967   4.101   5.198 -0.3761  0.7734 -0.9954
15239SOL     OW51678   3.235   6.295   7.201 -0.4526  0.2286 -0.9152
15239SOL    HW151679   3.236   6.296   7.297  0.1815 -2.4361 -0.8269
15239SOL    HW251680   3.203   6.382   7.177 -0.9905  0.8460  1.6994
15240SOL     OW51681   0.833   7.837   5.711 -0.5640 -0.0453  0.4770
15240SOL    HW151682   0.749   7.793   5.697 -0.5840 -0.0268  0.5376
15240SOL    HW251683   0.899   7.774   5.680 -0.6211  0.0985  0.0653
15241SOL     OW51684   4.706   3.678   2.496  0.0953 -0.2351  0.1596
15241SOL    HW151685   4.782   3.668   2.439 -0.6147  0.6737 -0.9949
15241SOL    HW251686   4.681   3.770   2.488 -0.8241 -0.4047  0.8966
15242SOL     OW51687   8.610   7.759   1.817 -0.5409 -0.2394  0.0826
15242SOL    HW151688   8.606   7.669   1.784 -0.1501 -0.3929  0.4541
15242SOL    HW251689   8.584   7.812   1.742  1.2903 -0.5207 -0.7906
15243SOL     OW51690   1.267   7.523   8.818 -0.5268  0.0732 -0.0218
15243SOL    HW151691   1.354   7.554   8.844 -0.5720  0.4688 -0.3310
15243SOL    HW251692   1.207   7.591   8.847 -0.8245 -0.5585  0.8815
15244SOL     OW51693   3.680   9.263   2.872 -0.6227 -0.5221  0.0591
15244SOL    HW151694   3.607   9.320   2.897 -0.3205 -0.1632  0.1331
15244SOL    HW251695   3.647   9.174   2.885 -1.1996 -0.3706 -0.3377
15245SOL     OW51696   3.229   8.015   3.701 -0.6386 -0.4605  0.0429
15245SOL    HW151697   3.299   8.016   3.635  0.2562  1.0757  0.9745
15245SOL    HW251698   3.148   8.010   3.649  0.0128  1.1590 -1.2158
15246SOL     OW51699   6.001   5.632   1.037  0.1727  0.4696 -0.2423
15246SOL    HW151700   5.921   5.613   1.086  1.1748 -0.4346  1.1581
15246SOL    HW251701   6.065   5.654   1.105  1.3338  0.3052 -1.2502
15247SOL     OW51702   4.702   2.083   7.807  0.3705  0.3321 -0.3230
15247SOL    HW151703   4.797   2.088   7.797  0.3716 -1.1974 -1.4915
15247SOL    HW251704   4.677   2.005   7.757 -1.0305 -1.6715  3.1147
15248SOL     OW51705   2.796   8.791   2.148 -0.4705 -0.1090 -0.2648
15248SOL    HW151706   2.887   8.790   2.176 -1.1587 -0.4609  2.2627
15248SOL    HW251707   2.778   8.883   2.127  0.8448 -0.2917 -2.3583
15249SOL     OW51708   5.686   1.848   1.402  0.0912 -0.2006 -0.1676
15249SOL    HW151709   5.711   1.927   1.354  1.3306  1.8370  3.4727
15249SOL    HW251710   5.609   1.815   1.355 -1.0791  3.7026 -1.3878
15250SOL     OW51711   7.394   4.838   5.938 -0.0810 -0.0706 -0.6457
15250SOL    HW151712   7.448   4.868   6.010 -0.1977  0.4718 -0.7775
15250SOL    HW251713   7.455   4.800   5.876 -0.0445 -1.1109  0.0138
15251SOL     OW51714   0.110   1.690   0.208  0.3206 -0.3924 -0.0777
15251SOL    HW151715   0.169   1.623   0.173 -0.7069  0.2212 -3.2867
15251SOL    HW251716   0.154   1.773   0.188  0.1528  0.0044  1.0991
15252SOL     OW51717   7.704   2.457   7.245  0.7155  0.1680  0.7671
15252SOL    HW151718   7.749   2.393   7.300  0.6553  0.0192  0.6423
15252SOL    HW251719   7.733   2.438   7.156 -0.3348 -0.5525  0.5644
15253SOL     OW51720   5.671   4.398   8.058 -1.0089  0.0154 -0.0548
15253SOL    HW151721   5.704   4.313   8.030 -0.6944  0.1637 -0.1355
15253SOL    HW251722   5.743   4.458   8.043 -1.5348  0.4608 -0.8195
15254SOL     OW51723   3.803   4.001   0.139 -0.0302  0.0956  0.2656
15254SOL    HW151724   3.719   3.968   0.168 -0.4780  0.6183 -0.4076
15254SOL    HW251725   3.824   3.948   0.062 -0.9151  1.5391 -1.0287
15255SOL     OW51726   3.561   2.133   8.221 -0.3996 -0.6223  0.2430
15255SOL    HW151727   3.466   2.128   8.211 -0.5104 -0.6897  1.2045
15255SOL    HW251728   3.579   2.087   8.303  0.4060 -0.1509  0.3423
15256SOL     OW51729   1.518   6.280   3.652  0.3025  0.0449  0.6001
15256SOL    HW151730   1.473   6.264   3.569  0.1870  1.9121  0.2634
15256SOL    HW251731   1.456   6.248   3.719 -0.3301  0.0564  0.0325
15257SOL     OW51732   1.092   2.263   5.795 -0.3321  0.0521  0.1649
15257SOL    HW151733   1.016   2.209   5.819 -0.1540  0.1704  1.0278
15257SOL    HW251734   1.054   2.348   5.772 -0.6478 -0.5014 -1.5437
15258SOL     OW51735   2.712   8.756   4.150  0.7865  0.4481 -0.0567
15258SOL    HW151736   2.617   8.756   4.164  0.7558 -0.2661 -0.2366
15258SOL    HW251737   2.727   8.823   4.083  0.3248  0.0911 -0.5259
15259SOL     OW51738   7.381   3.806   7.945  0.0358 -0.0824 -0.1908
15259SOL    HW151739   7.456   3.747   7.941 -0.4975 -0.7001 -1.9975
15259SOL    HW251740   7.323   3.768   8.011  0.7100 -0.3079  0.2808
15260SOL     OW51741   5.433   4.236   2.057  0.0507 -0.6078  0.2981
15260SOL    HW151742   5.485   4.204   2.131  0.8456 -1.5805 -0.6609
15260SOL    HW251743   5.347   4.194   2.069  0.0078 -0.3534  0.9409
15261SOL     OW51744   8.725   8.922   7.821 -0.3512 -0.4476  0.2135
15261SOL    HW151745   8.655   8.978   7.853 -0.2147 -1.0164  1.5835
15261SOL    HW251746   8.756   8.875   7.898  0.9302 -0.8836 -0.5232
15262SOL     OW51747   6.622   3.320   8.692  0.2795 -0.0208 -0.0379
15262SOL    HW151748   6.537   3.294   8.727  0.1710  0.5479  0.1425
15262SOL    HW251749   6.676   3.336   8.770  0.4634 -0.0961 -0.1493
15263SOL     OW51750   1.995   2.677   8.923 -0.3870  0.0310 -0.0748
15263SOL    HW151751   1.992   2.772   8.908 -2.0588 -0.1300 -0.9421
15263SOL    HW251752   1.964   2.666   9.013 -1.9731  0.2119 -0.5714
15264SOL     OW51753   8.139   2.364   2.427 -0.2490  0.2703  0.0424
15264SOL    HW151754   8.107   2.289   2.377 -0.9887 -0.0602  0.9860
15264SOL    HW251755   8.218   2.391   2.381 -1.2083  0.3460 -1.6682
15265SOL     OW51756   3.914   6.015   3.156 -0.2350  0.0725  0.1366
15265SOL    HW151757   3.899   6.101   3.195 -0.1409  1.2192 -2.1707
15265SOL    HW251758   4.006   6.017   3.130 -0.3450 -0.5407 -0.3187
15266SOL     OW51759   8.191   2.669   9.020 -0.1252 -0.3814 -0.5431
15266SOL    HW151760   8.237   2.629   8.946 -2.2003 -2.3401 -0.8911
15266SOL    HW251761   8.099   2.645   9.006 -0.5952 -0.8332  2.6528
15267SOL     OW51762   4.561   4.341   4.595 -0.6228  0.5584  0.8690
15267SOL    HW151763   4.612   4.354   4.515 -0.0044  1.1838  1.3503
15267SOL    HW251764   4.627   4.322   4.662 -1.0784  0.7370  1.3723
15268SOL     OW51765   8.529   8.739   5.231  0.1682  0.0589 -0.5153
15268SOL    HW151766   8.445   8.694   5.236 -0.0122  0.2494 -1.7671
15268SOL    HW251767   8.554   8.752   5.323 -1.2209  0.1231 -0.1289
15269SOL     OW51768   3.652   2.920   3.527 -0.6357 -0.0104  0.5585
15269SOL    HW151769   3.705   2.848   3.490  1.0682  1.1164  0.6753
15269SOL    HW251770   3.634   2.977   3.452 -1.2137 -0.1017  0.6259
15270SOL     OW51771   1.234   6.998   1.308 -0.1608 -0.3636  0.0232
15270SOL    HW151772   1.252   6.923   1.363  0.4958  0.9573  1.6935
15270SOL    HW251773   1.302   7.062   1.330 -0.9713  0.9075 -0.9688
15271SOL     OW51774   8.818   6.214   6.138  0.1723 -0.3043  0.5818
15271SOL    HW151775   8.817   6.143   6.203  1.0071 -0.1517  0.7826
15271SOL    HW251776   8.903   6.204   6.094 -0.1647 -0.0844 -0.1274
15272SOL     OW51777   8.390   1.935   5.684  0.4130  0.2144  0.7814
15272SOL    HW151778   8.352   1.858   5.726 -0.9018  0.4056 -0.0239
15272SOL    HW251779   8.410   1.907   5.595 -2.9295  1.5544 -0.5379
15273SOL     OW51780   8.662   2.062   5.596 -0.3284 -0.0024  0.0518
15273SOL    HW151781   8.717   2.030   5.668  0.4010  0.6964 -0.1802
15273SOL    HW251782   8.602   1.990   5.578 -0.1017 -0.4304  0.9317
15274SOL     OW51783   6.568   8.384   9.019 -0.1237 -0.1750  0.4862
15274SOL    HW151784   6.642   8.364   9.077  0.4121 -0.4715 -0.2780
15274SOL    HW251785   6.597   8.461   8.969 -1.2374  1.1166  1.7532
15275SOL     OW51786   6.839   4.952   4.415 -0.2620  0.1329  0.2165
15275SOL    HW151787   6.783   5.015   4.459  0.5702  0.5127  0.7525
15275SOL    HW251788   6.826   4.870   4.462 -0.3266  0.2337  0.3713
15276SOL     OW51789   6.266   6.613   4.094  0.1014 -0.2695 -0.0799
15276SOL    HW151790   6.287   6.557   4.169 -0.7720  1.3062  1.4253
15276SOL    HW251791   6.212   6.683   4.131 -1.5459 -0.1707 -2.4518
15277SOL     OW51792   5.326   6.539   1.815 -0.2446 -0.0470 -0.2623
15277SOL    HW151793   5.380   6.608   1.778  0.2970 -1.0632 -1.4555
15277SOL    HW251794   5.321   6.559   1.908 -0.7486  2.0049 -0.6846
15278SOL     OW51795   8.403   6.289   3.526  0.0913  0.3925  0.0759
15278SOL    HW151796   8.474   6.301   3.462  0.1111  0.0956  0.0429
15278SOL    HW251797   8.443   6.238   3.597  0.1374  0.9205  0.4368
15279SOL     OW51798   3.356   7.629   6.644 -0.4476  0.0778  0.8621
15279SOL    HW151799   3.274   7.675   6.623  0.6731  2.1606  0.7415
15279SOL    HW251800   3.370   7.648   6.737  1.3930  2.4414  0.2115
15280SOL     OW51801   6.373   9.002   0.051 -0.2418  0.5140  0.4672
15280SOL    HW151802   6.279   9.014   0.064 -0.5536 -0.8830 -0.2918
15280SOL    HW251803   6.413   9.028   0.134 -1.4345 -0.3372  1.3293
15281SOL     OW51804   1.834   8.009   0.058  0.0488 -0.2825  0.0967
15281SOL    HW151805   1.757   8.062   0.078  0.4060  0.3780 -0.2432
15281SOL    HW251806   1.907   8.057   0.096  0.4010 -0.4195 -0.3913
15282SOL     OW51807   6.533   8.029   7.620  0.3354  0.3290  0.3348
15282SOL    HW151808   6.578   8.009   7.702 -1.0849  1.0443  1.3396
15282SOL    HW251809   6.530   7.946   7.573  1.1084 -0.1062  1.0329
15283SOL     OW51810   3.033   7.412   5.789 -0.5988  0.6446 -0.2593
15283SOL    HW151811   3.123   7.425   5.819 -0.5066  0.1806 -0.3285
15283SOL    HW251812   3.034   7.441   5.698 -0.3551  0.0264 -0.4612
15284SOL     OW51813   6.620   0.025   7.216  0.2054 -0.1450 -0.2503
15284SOL    HW151814   6.702   0.064   7.187 -0.1133  2.1591  1.6075
15284SOL    HW251815   6.583   0.090   7.276 -3.3533 -0.7457 -1.5876
15285SOL     OW51816   2.421   3.145   7.374 -0.6983 -0.3108 -0.3157
15285SOL    HW151817   2.330   3.169   7.391 -0.7980  0.0783 -1.3233
15285SOL    HW251818   2.418   3.096   7.291 -0.1777 -1.6812  0.4297
15286SOL     OW51819   5.817   0.555   4.068  0.1258 -0.2035 -0.1679
15286SOL    HW151820   5.726   0.583   4.060  0.1988  0.2418  0.4319
15286SOL    HW251821   5.837   0.568   4.161  1.5376  2.0819 -0.7100
15287SOL     OW51822   0.468   9.347   5.926  0.1142 -0.7306 -0.1972
15287SOL    HW151823   0.479   9.252   5.930  1.2783 -0.5880  0.5713
15287SOL    HW251824   0.540   9.377   5.870  0.4906 -0.2015  0.5548
15288SOL     OW51825   0.142   0.751   5.778  0.9387 -0.3694 -0.1987
15288SOL    HW151826   0.098   0.751   5.863  0.2300 -0.2621 -0.5574
15288SOL    HW251827   0.075   0.780   5.717  1.9775  1.4359 -0.5378
15289SOL     OW51828   0.253   8.353   2.722  0.3777 -0.0628 -0.5886
15289SOL    HW151829   0.335   8.379   2.765 -0.1217 -1.0337  1.0221
15289SOL    HW251830   0.279   8.332   2.632  1.9068 -0.3905 -0.0992
15290SOL     OW51831   7.701   1.951   4.693  0.2638  0.1744 -0.0965
15290SOL    HW151832   7.687   1.892   4.767 -0.1085  0.3323 -0.0410
15290SOL    HW251833   7.616   1.992   4.678  0.6460  1.1297  0.2396
15291SOL     OW51834   7.162   8.069   5.416  0.1679 -0.2426 -0.1431
15291SOL    HW151835   7.126   7.991   5.375  1.6370 -1.0463  0.0144
15291SOL    HW251836   7.117   8.075   5.500 -0.9875 -0.0789 -0.7626
15292SOL     OW51837   6.868   7.241   7.522 -0.8924  0.1390 -0.1621
15292SOL    HW151838   6.897   7.273   7.607 -1.0719  0.6439 -0.2887
15292SOL    HW251839   6.941   7.187   7.491 -0.8120 -0.0168  0.2901
15293SOL     OW51840   5.680   5.213   5.182 -0.1757  0.0984 -1.2626
15293SOL    HW151841   5.596   5.223   5.227  0.3747  0.1371 -0.2128
15293SOL    HW251842   5.697   5.119   5.185  0.9005  0.3176  0.5939
15294SOL     OW51843   3.615   3.041   3.284 -0.0310 -0.4739  0.2327
15294SOL    HW151844   3.649   3.066   3.198  0.4459  0.9460  0.8077
15294SOL    HW251845   3.522   3.064   3.280 -0.1279 -0.9114 -0.0799
15295SOL     OW51846   8.263   0.038   8.821  0.3048 -0.3486 -0.3228
15295SOL    HW151847   8.315   0.069   8.747  1.0176  0.3641  0.4421
15295SOL    HW251848   8.256   0.115   8.879 -0.9040 -0.6711 -0.0204
15296SOL     OW51849   8.637   4.948   2.993 -0.3050  0.1420  0.2915
15296SOL    HW151850   8.724   4.986   2.993 -0.5325  0.7196 -0.9967
15296SOL    HW251851   8.579   5.020   3.015 -0.4674 -0.2586  1.2221
15297SOL     OW51852   7.257   5.843   6.859 -0.1865  0.2505 -0.0132
15297SOL    HW151853   7.198   5.914   6.884  0.4831  0.9164 -0.2999
15297SOL    HW251854   7.308   5.878   6.785  1.8908  0.3979  1.4058
15298SOL     OW51855   5.067   8.850   5.208  0.3134  0.4686  0.8296
15298SOL    HW151856   4.974   8.864   5.225  0.4754  0.8700  1.4145
15298SOL    HW251857   5.097   8.932   5.168  0.6744  0.8017  1.7608
15299SOL     OW51858   5.432   8.169   3.355  0.1432  0.3059 -0.1465
15299SOL    HW151859   5.469   8.179   3.267  2.3315 -0.7909  0.5723
15299SOL    HW251860   5.445   8.255   3.395  1.1825  0.2030 -0.2133
15300SOL     OW51861   7.195   0.318   0.127 -0.1132 -0.4109 -0.0388
15300SOL    HW151862   7.221   0.280   0.043 -0.7337  0.0852 -0.4553
15300SOL    HW251863   7.278   0.345   0.167  0.1376 -0.0479 -0.7822
15301SOL     OW51864   1.633   6.702   5.653  0.0115 -0.0607 -0.3574
15301SOL    HW151865   1.609   6.667   5.567 -0.9516 -0.3462  0.0188
15301SOL    HW251866   1.643   6.625   5.709 -2.5810  0.2027  0.5902
15302SOL     OW51867   9.227   4.001   9.280 -0.1733 -0.1051  0.2582
15302SOL    HW151868   9.243   3.911   9.252  1.6031  0.2679 -0.0789
15302SOL    HW251869   9.175   4.040   9.210 -2.5590 -1.3140  1.2381
15303SOL     OW51870   6.579   5.717   9.221  0.1896 -0.1507 -0.2267
15303SOL    HW151871   6.539   5.754   9.300 -1.8935 -0.3918 -1.0941
15303SOL    HW251872   6.628   5.641   9.252  1.2214  1.0067  1.0800
15304SOL     OW51873   4.077   6.098   6.469 -0.1047 -0.0553 -0.2566
15304SOL    HW151874   4.035   6.153   6.535  0.2495 -0.6706  0.5024
15304SOL    HW251875   4.005   6.068   6.414 -0.2906  1.2377 -0.7532
15305SOL     OW51876   1.237   5.548   7.270 -0.1287 -0.0304  0.0565
15305SOL    HW151877   1.212   5.545   7.362 -0.6444  0.6116 -0.0535
15305SOL    HW251878   1.301   5.477   7.260 -1.7569 -1.6319  0.3903
15306SOL     OW51879   0.078   8.162   5.367  0.2486  0.0384  0.1726
15306SOL    HW151880   0.107   8.094   5.428 -0.1040  0.4110  0.7552
15306SOL    HW251881   0.104   8.244   5.408  2.6845  0.2407 -1.5312
15307SOL     OW51882   8.105   4.669   9.053  0.5356 -0.0785  0.0920
15307SOL    HW151883   8.104   4.746   9.109  0.0158 -0.3014  0.3945
15307SOL    HW251884   8.164   4.608   9.098 -0.0975 -0.3632  0.5480
15308SOL     OW51885   3.993   1.829   4.306  0.0609  0.2534 -0.3112
15308SOL    HW151886   4.067   1.773   4.331 -0.0499 -0.3736 -1.3152
15308SOL    HW251887   3.940   1.835   4.385  0.2456 -0.8101 -0.0880
15309SOL     OW51888   5.701   6.591   4.957 -0.4887 -0.1787 -0.2293
15309SOL    HW151889   5.693   6.585   4.862  1.0629 -1.8121 -0.2984
15309SOL    HW251890   5.669   6.507   4.989  1.3966 -0.6591  0.4940
15310SOL     OW51891   9.275   6.998   3.670 -0.0992 -0.2696  0.6946
15310SOL    HW151892   9.262   6.997   3.765 -0.6485 -1.0220  0.6177
15310SOL    HW251893   9.204   7.052   3.637  0.6442  0.7786  0.7814
15311SOL     OW51894   0.407   7.567   4.871  0.1903 -0.0948 -0.1638
15311SOL    HW151895   0.425   7.550   4.964 -1.3415  0.1360  0.2006
15311SOL    HW251896   0.318   7.604   4.870  0.2521  0.0771 -1.7100
15312SOL     OW51897   8.584   0.786   4.574  0.8622 -0.3737 -0.2854
15312SOL    HW151898   8.555   0.698   4.554 -1.4647  0.4187 -0.6901
15312SOL    HW251899   8.579   0.792   4.669 -0.6550 -0.1955 -0.3490
15313SOL     OW51900   2.500   3.972   1.505  0.2968  0.0331  0.3717
15313SOL    HW151901   2.428   3.959   1.443  0.5162 -0.7916  0.2821
15313SOL    HW251902   2.537   4.057   1.481 -1.2516  0.9521  1.0360
15314SOL     OW51903   5.029   7.636   7.072 -0.2251  0.1178 -0.3726
15314SOL    HW151904   5.013   7.624   7.166 -0.1050 -0.1209 -0.3835
15314SOL    HW251905   4.943   7.660   7.036 -0.0617  1.2876 -0.0274
15315SOL     OW51906   1.714   3.319   9.292 -0.1787  0.0257 -0.2325
15315SOL    HW151907   1.664   3.301   9.212 -0.6461 -0.2397  0.1174
15315SOL    HW251908   1.668   3.271   9.361  0.4249 -0.0349  0.1389
15316SOL     OW51909   7.484   3.318   3.824 -0.0031 -0.0528  0.0944
15316SOL    HW151910   7.441   3.404   3.830  0.2188  0.2698 -1.9912
15316SOL    HW251911   7.534   3.323   3.742  1.4520 -1.5560  0.8538
15317SOL     OW51912   4.264   5.997   4.096 -0.3952  0.2030  0.0475
15317SOL    HW151913   4.284   5.910   4.132 -1.5181  0.2166  0.7544
15317SOL    HW251914   4.350   6.037   4.083  0.1740 -1.2018 -0.8042
15318SOL     OW51915   1.479   6.687   3.553  0.3638 -1.0294  0.0760
15318SOL    HW151916   1.482   6.591   3.548  0.6095 -0.9927 -0.6114
15318SOL    HW251917   1.556   6.710   3.605  0.2582 -1.2053  0.3143
15319SOL     OW51918   7.196   1.044   0.139 -1.0104 -0.2550 -0.0384
15319SOL    HW151919   7.159   1.041   0.050 -0.8093 -1.2208 -0.0933
15319SOL    HW251920   7.197   1.138   0.160 -0.8455  0.0132 -1.1442
15320SOL     OW51921   2.276   7.904   3.488 -0.2115 -0.2290 -0.3713
15320SOL    HW151922   2.202   7.878   3.434 -0.2525 -2.0268  0.4714
15320SOL    HW251923   2.248   7.885   3.578  1.4765 -1.5427 -0.0822
15321SOL     OW51924   0.604   5.480   3.158  0.4123 -0.3081 -0.3842
15321SOL    HW151925   0.527   5.516   3.115  0.1677  0.1083  0.3867
15321SOL    HW251926   0.574   5.396   3.193  0.7215 -0.8373 -1.3525
15322SOL     OW51927   2.181   7.129   8.098 -0.0304 -0.5912  0.4029
15322SOL    HW151928   2.223   7.070   8.037 -0.6761  0.6105 -1.2805
15322SOL    HW251929   2.115   7.076   8.142  0.3524 -1.4511 -0.0500
15323SOL     OW51930   0.732   9.115   5.568 -0.2895  0.0153  1.0353
15323SOL    HW151931   0.779   9.043   5.526  0.1654  0.0376  1.5079
15323SOL    HW251932   0.648   9.119   5.521  0.4626  0.4730 -0.3391
15324SOL     OW51933   3.778   8.377   9.356  0.1326  0.7051  0.5859
15324SOL    HW151934   3.850   8.317   9.376  0.5442  0.8516 -0.4027
15324SOL    HW251935   3.709   8.320   9.322  0.7048  0.7979 -0.8363
15325SOL     OW51936   1.847   0.153   7.829  0.1690  0.2190 -0.6220
15325SOL    HW151937   1.760   0.113   7.835 -0.1818  1.0975  0.5185
15325SOL    HW251938   1.862   0.164   7.735  0.3033 -2.5458 -1.0232
15326SOL     OW51939   2.304   3.230   6.898  0.3199 -0.3401 -0.1329
15326SOL    HW151940   2.275   3.159   6.841  2.8166 -1.0197 -0.7066
15326SOL    HW251941   2.353   3.289   6.839  0.7309  0.3142  0.8386
15327SOL     OW51942   7.025   3.390   8.923 -0.1303  0.0270 -0.1622
15327SOL    HW151943   6.934   3.411   8.902 -0.4177 -1.5555 -0.5834
15327SOL    HW251944   7.046   3.316   8.867  1.3617  0.2300  0.0939
15328SOL     OW51945   1.628   4.901   8.636  0.6276 -0.2706 -0.1474
15328SOL    HW151946   1.656   4.819   8.677  0.0343  0.8152  2.6419
15328SOL    HW251947   1.653   4.969   8.699  0.3288  1.6379 -1.9777
15329SOL     OW51948   1.136   3.556   9.051  0.7919 -0.2226  0.1109
15329SOL    HW151949   1.121   3.519   8.964  1.6670  1.7412 -0.9447
15329SOL    HW251950   1.051   3.593   9.076  0.8560  0.3429 -0.4953
15330SOL     OW51951   0.211   2.272   7.518 -0.3212 -0.3978 -0.2321
15330SOL    HW151952   0.299   2.234   7.516 -1.7424 -4.0408 -0.5664
15330SOL    HW251953   0.193   2.296   7.427 -0.3265 -1.3413 -0.4847
15331SOL     OW51954   5.472   4.680   7.225 -0.2881  0.2456  0.0963
15331SOL    HW151955   5.565   4.670   7.244 -0.1951  2.6133  1.2194
15331SOL    HW251956   5.462   4.644   7.137  1.2601 -1.8641  0.6840
15332SOL     OW51957   4.106   8.704   9.157 -0.5972  0.6207 -0.2273
15332SOL    HW151958   4.180   8.762   9.139 -0.7267  0.6583 -0.6567
15332SOL    HW251959   4.033   8.744   9.111 -0.9535  0.7354  0.4221
15333SOL     OW51960   1.473   1.427   0.962 -0.4614 -0.2308  0.0142
15333SOL    HW151961   1.555   1.392   0.997  0.2731  2.2758  0.9780
15333SOL    HW251962   1.413   1.425   1.036 -1.0786 -1.3670 -0.4959
15334SOL     OW51963   4.824   1.650   9.146 -0.1991  0.4467 -0.3742
15334SOL    HW151964   4.786   1.614   9.066  2.3300 -2.0163 -0.6131
15334SOL    HW251965   4.755   1.642   9.212 -1.0571 -1.1835 -1.4213
15335SOL     OW51966   6.370   5.321   1.163  0.1421  0.1667 -0.3402
15335SOL    HW151967   6.346   5.407   1.128  2.9457  0.6399 -1.4295
15335SOL    HW251968   6.435   5.341   1.231 -0.3399 -1.0396  0.5022
15336SOL     OW51969   9.133   1.400   8.840  0.4157  0.2845 -0.2318
15336SOL    HW151970   9.228   1.399   8.833  0.3813  0.4907 -0.7828
15336SOL    HW251971   9.114   1.474   8.898  0.6168 -0.1305  0.3693
15337SOL     OW51972   8.294   7.437   0.885 -0.2711 -0.2095 -0.0303
15337SOL    HW151973   8.289   7.377   0.959  0.5639 -1.3330 -0.8414
15337SOL    HW251974   8.205   7.438   0.848 -0.1356 -1.5370 -0.4350
15338SOL     OW51975   6.407   0.037   8.364  0.0375 -0.3213 -0.1133
15338SOL    HW151976   6.336  -0.005   8.315  0.7498 -0.5865 -0.9409
15338SOL    HW251977   6.487   0.008   8.319  0.6355  0.4141  0.4680
15339SOL     OW51978   8.720   8.606   6.523 -0.0645 -0.1167 -0.5220
15339SOL    HW151979   8.798   8.550   6.519  0.3855  0.4990 -0.4764
15339SOL    HW251980   8.657   8.562   6.465  0.6388 -0.1276 -1.3004
15340SOL     OW51981   0.795   6.281   2.349  0.1887  0.0682 -0.2517
15340SOL    HW151982   0.776   6.279   2.256 -0.2880 -1.1220 -0.1516
15340SOL    HW251983   0.873   6.336   2.357  0.8476 -0.6463 -1.4706
15341SOL     OW51984   6.342   2.994   4.936 -0.2025 -0.1990  0.1453
15341SOL    HW151985   6.391   3.074   4.917 -0.5999 -0.2887 -1.4470
15341SOL    HW251986   6.273   2.993   4.869 -0.6732 -1.4707  0.6307
15342SOL     OW51987   7.459   2.188   7.273  0.4053  0.6724 -0.3379
15342SOL    HW151988   7.539   2.226   7.309  0.2038 -0.8453  1.9549
15342SOL    HW251989   7.490   2.126   7.207  0.8938  2.3394 -1.7381
15343SOL     OW51990   6.258   5.409   5.227 -0.1511  0.1911 -0.7704
15343SOL    HW151991   6.177   5.365   5.203 -1.4762  1.8183  0.4746
15343SOL    HW251992   6.250   5.497   5.190  1.1675  0.3136 -0.8248
15344SOL     OW51993   8.980   0.651   0.352  0.0185 -0.6401  0.0508
15344SOL    HW151994   9.070   0.620   0.341  0.2105  0.1387 -0.7001
15344SOL    HW251995   8.990   0.741   0.384 -0.5033 -0.8630  0.8419
15345SOL     OW51996   3.869   1.278   0.258 -0.4162  0.1673  0.2340
15345SOL    HW151997   3.957   1.260   0.291  0.2440  1.1431 -0.9325
15345SOL    HW251998   3.839   1.193   0.223  0.7279  0.1762 -0.8406
15346SOL     OW51999   7.707   6.602   0.179 -0.0073  0.2212 -0.4757
15346SOL    HW152000   7.749   6.687   0.195 -2.4159  1.3983  0.1184
15346SOL    HW252001   7.656   6.585   0.258 -2.9412  0.3967 -2.1546
15347SOL     OW52002   7.043   1.989   3.983  0.6353 -0.4905 -0.5471
15347SOL    HW152003   7.038   2.052   3.911  0.6701  0.7600  0.5107
15347SOL    HW252004   7.067   2.042   4.060 -0.4827 -1.6086  0.6160
15348SOL     OW52005   5.701   8.364   7.818  0.0816 -0.2994  0.1844
15348SOL    HW152006   5.793   8.389   7.833 -0.0233  0.5977 -0.5855
15348SOL    HW252007   5.700   8.270   7.834  0.7141 -0.0366  2.1563
15349SOL     OW52008   7.121   7.656   4.871  0.0051  0.0478 -0.0303
15349SOL    HW152009   7.042   7.685   4.916 -0.4324  0.8296 -1.2407
15349SOL    HW252010   7.125   7.711   4.792  0.2532 -1.8178 -1.3865
15350SOL     OW52011   1.770   6.086   4.448  0.2009 -0.2624 -0.1754
15350SOL    HW152012   1.859   6.056   4.462 -0.0491 -1.1125 -0.3253
15350SOL    HW252013   1.716   6.026   4.500 -0.2980  0.0611 -0.3141
15351SOL     OW52014   6.459   6.855   2.939  0.2729 -0.3186 -0.5082
15351SOL    HW152015   6.465   6.770   2.896  0.4528 -0.9960  0.7851
15351SOL    HW252016   6.546   6.893   2.931  0.1546 -0.1907 -1.2071
15352SOL     OW52017   6.683   1.430   6.769  0.2473  0.2273  0.6755
15352SOL    HW152018   6.642   1.507   6.729  0.0640 -0.1535  0.1263
15352SOL    HW252019   6.636   1.418   6.851  0.5864  0.9780  0.9952
15353SOL     OW52020   0.286   0.939   7.172  0.1348 -0.5881  0.3859
15353SOL    HW152021   0.304   1.021   7.217 -0.2137 -0.4685  0.3165
15353SOL    HW252022   0.238   0.886   7.235 -0.2173 -0.4809  0.2113
15354SOL     OW52023   3.176   7.604   1.914  0.0859  0.3003 -0.0183
15354SOL    HW152024   3.251   7.654   1.880 -0.4988  0.1876 -1.5525
15354SOL    HW252025   3.184   7.611   2.009  0.7995  2.1348 -0.1768
15355SOL     OW52026   8.674   7.068   6.943  0.3745 -0.3464  0.5664
15355SOL    HW152027   8.769   7.069   6.949  0.3974 -0.4255  0.2543
15355SOL    HW252028   8.656   7.047   6.851  0.0620  0.3171  0.4663
15356SOL     OW52029   6.076   2.748   3.574  0.2958  0.6900  0.1478
15356SOL    HW152030   6.167   2.749   3.603  0.5199 -0.3241 -0.4918
15356SOL    HW252031   6.058   2.657   3.553 -1.2093  0.6965  1.2726
15357SOL     OW52032   0.275   6.682   2.549 -0.0366  0.0578  0.6004
15357SOL    HW152033   0.245   6.612   2.607  0.0046  0.0762  0.6444
15357SOL    HW252034   0.348   6.643   2.500  2.8676  1.2842  3.6047
15358SOL     OW52035   0.933   2.118   3.857  0.2215 -0.0758  0.1179
15358SOL    HW152036   0.984   2.193   3.888  2.0072 -1.2208  0.1060
15358SOL    HW252037   0.953   2.049   3.920 -3.5279  0.1061  1.7353
15359SOL     OW52038   3.210   4.926   7.443 -0.1202 -0.0169  0.2691
15359SOL    HW152039   3.222   5.015   7.411  1.1855 -0.5912 -0.9012
15359SOL    HW252040   3.259   4.923   7.525  0.9625 -0.0096 -0.3591
15360SOL     OW52041   5.465   8.483   1.876 -0.3337  0.0998 -0.7994
15360SOL    HW152042   5.446   8.389   1.870  0.0074  0.0563 -1.3165
15360SOL    HW252043   5.558   8.487   1.899  0.0370  0.2969 -2.2301
15361SOL     OW52044   0.296   1.953   7.352  0.1948 -0.1228  1.1140
15361SOL    HW152045   0.316   1.946   7.259  1.2327  0.1278  1.3007
15361SOL    HW252046   0.212   1.998   7.356 -1.2321 -2.5329  0.2315
15362SOL     OW52047   6.839   1.332   9.371  1.2731 -0.0859 -0.6342
15362SOL    HW152048   6.890   1.412   9.373 -0.1771  1.0029 -3.1553
15362SOL    HW252049   6.759   1.353   9.419  1.0215 -0.0963 -1.0395
15363SOL     OW52050   3.174   9.249   1.497 -0.6520 -0.1835 -0.6077
15363SOL    HW152051   3.139   9.323   1.448  0.7364  0.5477 -0.5660
15363SOL    HW252052   3.108   9.230   1.563 -0.2087  2.3978  0.7331
15364SOL     OW52053   5.225   8.676   5.875  0.9910  0.6415 -0.1483
15364SOL    HW152054   5.274   8.726   5.810  0.3564  0.5451 -0.7049
15364SOL    HW252055   5.267   8.590   5.876  1.6033  0.9373  0.2663
15365SOL     OW52056   5.260   4.254   4.114 -0.9368 -0.5584 -0.0856
15365SOL    HW152057   5.261   4.160   4.133 -1.4002 -1.0046 -1.9861
15365SOL    HW252058   5.172   4.282   4.138 -0.3586 -0.2578  1.8254
15366SOL     OW52059   2.929   1.728   1.853 -0.0486  0.1466  0.0494
15366SOL    HW152060   2.980   1.753   1.776 -1.4359  0.8660 -0.6631
15366SOL    HW252061   2.901   1.811   1.891  1.5577 -0.1434  2.0417
15367SOL     OW52062   2.264   4.326   2.172  0.0082 -0.1537  0.1230
15367SOL    HW152063   2.195   4.387   2.196  0.3511  0.4159 -0.3110
15367SOL    HW252064   2.223   4.266   2.110  0.3342  1.2693 -1.5364
15368SOL     OW52065   0.534   2.476   3.600  0.5155 -0.0712 -0.0682
15368SOL    HW152066   0.514   2.422   3.677  1.3235 -1.0437 -0.5106
15368SOL    HW252067   0.622   2.449   3.575  0.8235  1.2631 -0.4982
15369SOL     OW52068   8.919   1.336   1.113  0.2366 -0.0680 -0.1091
15369SOL    HW152069   8.830   1.365   1.128  0.1969  0.3174 -1.0231
15369SOL    HW252070   8.916   1.241   1.125  0.0063  0.0846  1.1805
15370SOL     OW52071   5.008   7.557   0.808  0.0140  0.1719 -0.0796
15370SOL    HW152072   5.090   7.565   0.759 -0.0152 -0.2582 -0.1972
15370SOL    HW252073   4.950   7.510   0.749 -0.2121  0.1758  0.1403
15371SOL     OW52074   6.070   0.630   3.465  0.2692 -0.3406 -0.6239
15371SOL    HW152075   6.079   0.635   3.370  0.4272  0.6690 -0.5595
15371SOL    HW252076   6.019   0.708   3.489  0.8580 -0.1937  0.1971
15372SOL     OW52077   0.751   6.345   4.459  0.3896  0.0433  0.4130
15372SOL    HW152078   0.676   6.405   4.465 -0.3233 -0.8213  0.4795
15372SOL    HW252079   0.772   6.342   4.366  0.0756 -0.0106  0.3408
15373SOL     OW52080   8.465   2.744   4.900 -0.1979  0.0419 -0.2570
15373SOL    HW152081   8.459   2.780   4.811 -0.3213  1.6642  0.3652
15373SOL    HW252082   8.556   2.716   4.909 -0.2625 -0.4492 -0.9879
15374SOL     OW52083   9.031   2.127   9.033  0.0736 -0.4401 -0.4549
15374SOL    HW152084   8.988   2.046   9.059  0.2313 -0.7927 -1.2714
15374SOL    HW252085   9.087   2.149   9.107 -0.8972 -0.4049  0.2888
15375SOL     OW52086   1.064   6.475   8.924 -0.4786  0.3436  0.4513
15375SOL    HW152087   1.000   6.471   8.994 -0.7830  1.1237  0.2311
15375SOL    HW252088   1.074   6.569   8.906 -1.7227  0.1331 -1.7263
15376SOL     OW52089   1.482   7.269   2.689 -0.2019  0.2373 -0.0797
15376SOL    HW152090   1.409   7.311   2.644 -0.9787  0.4842  1.3479
15376SOL    HW252091   1.468   7.289   2.781 -0.2814 -2.6787  0.6293
15377SOL     OW52092   8.134   8.964   3.850 -0.5532  0.5244 -0.0344
15377SOL    HW152093   8.072   9.036   3.835 -1.3743 -0.5085 -1.8653
15377SOL    HW252094   8.157   8.972   3.943 -2.5087  1.6753  0.4153
15378SOL     OW52095   5.234   7.064   0.232  0.8965 -0.3070  0.1450
15378SOL    HW152096   5.296   7.135   0.215 -0.7763  1.4022  0.8251
15378SOL    HW252097   5.150   7.098   0.203 -0.0483 -1.8739  0.8812
15379SOL     OW52098   8.827   0.886   5.672 -0.2041  0.1380  0.6244
15379SOL    HW152099   8.829   0.953   5.740 -1.3909 -0.1323  0.9531
15379SOL    HW252100   8.754   0.829   5.696 -1.8425  1.0201 -1.7553
15380SOL     OW52101   5.512   6.817   4.745 -0.6515 -0.3629  0.2743
15380SOL    HW152102   5.562   6.806   4.664  0.2008  2.7040  0.2693
15380SOL    HW252103   5.430   6.771   4.729  1.3299 -4.0332 -0.3904
15381SOL     OW52104   5.353   4.544   9.344 -0.1822 -0.1238 -0.2436
15381SOL    HW152105   5.335   4.620   9.289  1.5778  0.3844 -0.1775
15381SOL    HW252106   5.416   4.576   9.409  0.7383 -1.6807 -0.3220
15382SOL     OW52107   2.287   0.743   8.356  0.3099 -0.6899 -0.1810
15382SOL    HW152108   2.256   0.823   8.397 -0.1480  0.3811 -2.4689
15382SOL    HW252109   2.254   0.672   8.412 -0.8691  0.6489  0.8732
15383SOL     OW52110   7.287   4.077   9.042 -0.1356  0.8129  0.1100
15383SOL    HW152111   7.233   4.141   8.995  0.3803  1.4514  0.3596
15383SOL    HW252112   7.343   4.131   9.098 -0.6120  0.0884  1.3309
15384SOL     OW52113   4.520   3.643   9.210 -0.1907  0.0582 -0.3390
15384SOL    HW152114   4.426   3.637   9.227  0.0309 -1.0281  0.5918
15384SOL    HW252115   4.527   3.709   9.140 -1.7310 -0.7219 -1.2874
15385SOL     OW52116   5.064   0.458   0.283 -0.4318 -0.6383 -0.0089
15385SOL    HW152117   5.144   0.500   0.314 -0.4392 -0.5327 -0.1356
15385SOL    HW252118   5.063   0.473   0.189 -1.1776  0.3403  0.1329
15386SOL     OW52119   6.022   3.964   7.449 -0.4554  0.4999 -0.0758
15386SOL    HW152120   6.061   3.996   7.367  3.3009 -2.9767  0.0375
15386SOL    HW252121   6.069   4.010   7.518  1.0718 -1.0805  0.0257
15387SOL     OW52122   5.456   9.159   1.613  0.4505  0.3699  0.1741
15387SOL    HW152123   5.526   9.174   1.550 -0.1258 -0.2984 -0.6447
15387SOL    HW252124   5.490   9.195   1.696  1.2581  1.1573 -0.4760
15388SOL     OW52125   8.436   2.413   0.697 -0.3387 -0.1909 -0.6644
15388SOL    HW152126   8.389   2.335   0.666 -0.9742  0.1680 -0.6401
15388SOL    HW252127   8.463   2.457   0.616  1.3361 -1.1829 -0.6807
15389SOL     OW52128   1.212   3.096   1.288 -0.0376  0.4170 -1.0116
15389SOL    HW152129   1.186   3.076   1.198 -2.1014  1.1214 -0.6144
15389SOL    HW252130   1.142   3.151   1.322  0.8618  0.4394  0.9440
15390SOL     OW52131   1.257   6.426   8.618 -0.0680 -0.1390 -0.4706
15390SOL    HW152132   1.302   6.466   8.693 -1.1014  1.0814 -0.4653
15390SOL    HW252133   1.178   6.386   8.656 -0.9079  1.0032 -0.9517
15391SOL     OW52134   3.349   8.324   4.487  0.2826  0.0173 -0.3016
15391SOL    HW152135   3.416   8.389   4.466 -0.7272  0.8987 -0.9058
15391SOL    HW252136   3.306   8.358   4.565  0.4034 -0.4586 -0.0197
15392SOL     OW52137   7.069   8.200   3.704  0.2541  0.0475  0.0398
15392SOL    HW152138   7.137   8.182   3.770  1.2532  1.1383 -0.6340
15392SOL    HW252139   6.990   8.218   3.755  1.0856  1.2034  0.9921
15393SOL     OW52140   2.421   7.036   2.543 -0.4486  0.0190 -0.5114
15393SOL    HW152141   2.504   7.011   2.503 -0.8365 -0.2331 -1.1867
15393SOL    HW252142   2.445   7.084   2.622  0.3315 -2.2207  0.6894
15394SOL     OW52143   2.109   5.902   3.324  0.1657 -0.5079  0.2802
15394SOL    HW152144   2.097   5.916   3.418 -0.0234 -0.5209  0.2576
15394SOL    HW252145   2.027   5.933   3.285 -0.1902 -1.5126  0.2109
15395SOL     OW52146   0.935   8.063   6.952  0.2080 -0.1972  0.2267
15395SOL    HW152147   0.901   8.151   6.972 -1.4005 -0.5665 -0.6949
15395SOL    HW252148   0.936   8.060   6.856  1.1457 -0.8656  0.2543
15396SOL     OW52149   7.504   7.088   0.264 -0.2090 -0.2359  0.1834
15396SOL    HW152150   7.521   7.173   0.224 -2.5802  0.4467  0.4588
15396SOL    HW252151   7.589   7.059   0.297  1.6684 -0.3188 -4.1698
15397SOL     OW52152   3.889   8.902   2.997  0.2582 -0.0843  0.0810
15397SOL    HW152153   3.945   8.915   2.920 -1.2150 -1.1919 -1.2251
15397SOL    HW252154   3.930   8.830   3.044 -0.1786 -1.0626 -1.0063
15398SOL     OW52155   6.547   0.939   5.727 -0.3809  0.5366  0.2002
15398SOL    HW152156   6.462   0.905   5.754 -0.0325 -2.2491 -1.7262
15398SOL    HW252157   6.528   0.991   5.649 -0.3942  0.3449  0.0736
15399SOL     OW52158   9.225   3.801   1.819  0.2281 -0.0006  0.7641
15399SOL    HW152159   9.247   3.849   1.739 -2.2892 -0.3167 -0.2141
15399SOL    HW252160   9.211   3.711   1.789 -4.4821  0.4970  0.6199
15400SOL     OW52161   2.968   5.145   8.699  0.2109  0.1257  0.0486
15400SOL    HW152162   3.059   5.170   8.681 -0.1400  1.0922 -0.4911
15400SOL    HW252163   2.917   5.223   8.676 -0.8363 -0.6823 -0.4838
15401SOL     OW52164   8.192   4.571   0.748 -0.5170 -0.0223 -0.1948
15401SOL    HW152165   8.169   4.479   0.734  2.9771 -0.9521 -0.8454
15401SOL    HW252166   8.211   4.605   0.661  0.7416  0.4997  0.2576
15402SOL     OW52167   9.130   2.524   2.263  0.5495  0.1026 -0.0977
15402SOL    HW152168   9.208   2.580   2.255 -0.0081  0.8311 -0.5639
15402SOL    HW252169   9.065   2.579   2.306 -0.0898 -0.0997 -0.7882
15403SOL     OW52170   1.737   7.511   0.037 -0.3593 -0.5054  0.6805
15403SOL    HW152171   1.828   7.514   0.007 -0.5991  0.6238 -0.0171
15403SOL    HW252172   1.718   7.600   0.066 -1.7096 -0.2872 -0.6957
15404SOL     OW52173   9.287   5.617   0.743  0.5884  0.2167  0.0448
15404SOL    HW152174   9.363   5.672   0.728 -0.0734  1.1680  0.0949
15404SOL    HW252175   9.323   5.531   0.766  1.6319  0.4398 -0.6961
15405SOL     OW52176   0.898   7.287   8.286  0.0923 -0.2548  0.1199
15405SOL    HW152177   0.906   7.381   8.267  1.1548 -0.2661  0.4363
15405SOL    HW252178   0.988   7.254   8.282 -0.1689 -1.0980  0.8161
15406SOL     OW52179   8.899   8.322   9.087 -0.1046  0.1434  0.0131
15406SOL    HW152180   8.824   8.338   9.143 -0.1584 -0.5141  0.1358
15406SOL    HW252181   8.975   8.339   9.143 -0.1489  1.2889 -0.2506
15407SOL     OW52182   0.168   1.751   7.857 -0.3763  0.3822  0.2716
15407SOL    HW152183   0.205   1.726   7.941 -0.5266 -0.2899  0.1478
15407SOL    HW252184   0.189   1.844   7.847  0.1154  0.3292  0.7987
15408SOL     OW52185   0.097   5.983   6.463  0.2082  0.6582 -0.1505
15408SOL    HW152186   0.048   6.061   6.436 -0.1844  0.9153  1.2159
15408SOL    HW252187   0.156   5.966   6.390  1.4955  3.2443  0.1396
15409SOL     OW52188   4.279   7.205   2.190 -0.2396  0.2159  0.1793
15409SOL    HW152189   4.306   7.138   2.127 -1.4269 -1.1540  1.0801
15409SOL    HW252190   4.317   7.177   2.273  0.0497  1.1965  0.3899
15410SOL     OW52191   4.409   4.802   4.362  0.0468 -0.5742  0.1831
15410SOL    HW152192   4.384   4.808   4.454  1.5514 -1.6022  0.6985
15410SOL    HW252193   4.359   4.728   4.328  2.9624 -3.4202  1.5204
15411SOL     OW52194   5.650   7.381   6.197 -0.3704 -0.1071  0.4877
15411SOL    HW152195   5.673   7.455   6.141 -0.8884 -0.1151  0.2634
15411SOL    HW252196   5.661   7.304   6.141  0.5320 -0.2354  0.8310
15412SOL     OW52197   4.945   0.744   1.781 -0.1771 -0.6125  0.8016
15412SOL    HW152198   4.966   0.826   1.737  1.3301 -0.7311  1.2450
15412SOL    HW252199   4.873   0.707   1.730 -0.7535  0.8824  0.4886
15413SOL     OW52200   6.543   0.051   4.738 -0.5459 -0.0230 -0.5575
15413SOL    HW152201   6.574   0.142   4.734  1.6955 -0.7806 -2.4668
15413SOL    HW252202   6.606   0.007   4.795 -0.9585 -0.6394 -0.5664
15414SOL     OW52203   8.045   1.538   6.061  0.0209  0.3162  0.3002
15414SOL    HW152204   8.082   1.536   6.149 -0.8989  0.6471  0.7124
15414SOL    HW252205   8.013   1.628   6.051  1.2148  0.6503 -0.8600
15415SOL     OW52206   3.758   3.566   0.044 -0.4696  0.2952  0.0594
15415SOL    HW152207   3.750   3.521  -0.040 -1.7173  1.1393 -0.2987
15415SOL    HW252208   3.850   3.554   0.069 -0.0365  0.1636 -1.4979
15416SOL     OW52209   2.861   5.948   5.660 -0.0896 -0.1230  0.1195
15416SOL    HW152210   2.820   5.863   5.677  1.4991 -1.0353 -0.4049
15416SOL    HW252211   2.890   5.978   5.746 -2.2177  0.7921  0.5868
15417SOL     OW52212   2.698   4.099   0.877  0.1474 -0.0315  0.0280
15417SOL    HW152213   2.692   4.011   0.838  0.8033  0.3259 -0.9329
15417SOL    HW252214   2.790   4.107   0.903 -0.1084  0.0437  0.9395
15418SOL     OW52215   4.994   3.673   0.110 -0.2558  0.4804 -0.2108
15418SOL    HW152216   4.915   3.688   0.163  0.0690 -0.7133  0.6556
15418SOL    HW252217   5.040   3.602   0.156  0.0695 -0.5658 -2.0772
15419SOL     OW52218   1.674   4.095   3.687 -0.9791  0.2842  0.6977
15419SOL    HW152219   1.591   4.129   3.655 -0.0747  1.7699 -0.1486
15419SOL    HW252220   1.737   4.166   3.674  0.9100 -1.5276 -0.7604
15420SOL     OW52221   1.187   7.205   8.288 -0.0589 -0.1559 -0.3259
15420SOL    HW152222   1.219   7.295   8.280  3.1492 -1.2274 -1.1204
15420SOL    HW252223   1.267   7.151   8.286 -1.7810 -2.9878  0.9894
15421SOL     OW52224   4.096   4.802   4.203  0.0085  0.5173  0.3811
15421SOL    HW152225   4.067   4.829   4.290 -1.0639 -1.2000  0.6159
15421SOL    HW252226   4.016   4.803   4.150  0.3560  0.0665 -0.1656
15422SOL     OW52227   7.180   6.649   7.824  0.2103 -0.1258  0.4806
15422SOL    HW152228   7.148   6.735   7.799  1.1593  0.2541  0.5136
15422SOL    HW252229   7.131   6.588   7.770 -2.5640  0.1816  2.4664
15423SOL     OW52230   1.723   5.658   0.227 -0.7149 -0.6463 -0.4512
15423SOL    HW152231   1.664   5.703   0.167 -0.3477 -0.4264 -0.6481
15423SOL    HW252232   1.691   5.682   0.314 -0.4506  0.1020 -0.5525
15424SOL     OW52233   0.164   6.835   1.308  0.5332 -0.3033  0.4746
15424SOL    HW152234   0.196   6.876   1.389  1.7545  0.7695 -0.4994
15424SOL    HW252235   0.233   6.852   1.244 -0.3985 -1.1469 -0.7987
15425SOL     OW52236   4.726   7.467   2.262 -0.0278  0.1172  0.0869
15425SOL    HW152237   4.748   7.396   2.202 -0.5872  0.7007 -0.8388
15425SOL    HW252238   4.667   7.427   2.326  0.7315 -0.5635  0.3764
15426SOL     OW52239   6.325   1.983   5.738  0.0648  0.2083  0.1476
15426SOL    HW152240   6.231   1.974   5.723  0.4305 -2.6664 -1.0558
15426SOL    HW252241   6.365   1.951   5.657  2.0683 -2.5919  2.0622
15427SOL     OW52242   2.668   5.603   6.573 -0.2558  0.1050 -0.5713
15427SOL    HW152243   2.643   5.642   6.489  0.0955  0.7641 -0.3705
15427SOL    HW252244   2.763   5.588   6.566 -0.1982  0.3048 -0.2327
15428SOL     OW52245   9.354   2.252   8.978  0.4090 -0.6061  0.2633
15428SOL    HW152246   9.318   2.283   9.061  1.3617 -0.2260  0.5473
15428SOL    HW252247   9.280   2.254   8.917 -0.0322  0.2256  0.8110
15429SOL     OW52248   8.861   2.605   7.971 -0.2969  0.2254  0.1597
15429SOL    HW152249   8.793   2.562   8.023 -1.3440  1.3138 -0.2753
15429SOL    HW252250   8.916   2.533   7.939 -1.7013 -0.7478 -0.1340
15430SOL     OW52251   2.001   3.039   2.501  0.1234  0.1353 -0.4575
15430SOL    HW152252   2.078   2.993   2.467 -1.2202 -1.8461 -0.9923
15430SOL    HW252253   1.936   3.032   2.431 -0.5605  1.7583 -0.0133
15431SOL     OW52254   7.704   1.572   8.284 -0.3574  0.1887 -0.2753
15431SOL    HW152255   7.779   1.516   8.264  0.6862  0.6247  2.0827
15431SOL    HW252256   7.631   1.511   8.295  0.3137 -0.5398  0.2322
15432SOL     OW52257   0.959   2.961   2.019  0.6038 -0.4280 -0.0886
15432SOL    HW152258   0.874   2.932   2.051 -0.3260  0.9835 -1.1362
15432SOL    HW252259   0.947   3.054   2.000  2.2760 -0.2877 -0.6437
15433SOL     OW52260   5.728   0.668   6.317  0.1446 -0.1478  0.7344
15433SOL    HW152261   5.654   0.627   6.272  0.1209  0.3413  0.3260
15433SOL    HW252262   5.717   0.641   6.408 -1.6916  1.5154  1.0793
15434SOL     OW52263   4.295   8.329   0.826 -0.2763 -0.2068  0.1860
15434SOL    HW152264   4.323   8.374   0.747 -1.2191  0.5632  0.2600
15434SOL    HW252265   4.361   8.262   0.841 -0.2008 -0.5158 -1.3700
15435SOL     OW52266   2.714   6.809   1.075  0.3419  0.4083  0.4259
15435SOL    HW152267   2.736   6.891   1.119  0.5527 -0.4439  2.0206
15435SOL    HW252268   2.787   6.794   1.015  0.4097  1.2797  0.2864
15436SOL     OW52269   5.852   8.351   9.108 -0.3375  0.0396  0.1676
15436SOL    HW152270   5.770   8.365   9.060  0.5145  0.1467 -1.3322
15436SOL    HW252271   5.824   8.323   9.195 -2.0087 -1.8729 -0.8683
15437SOL     OW52272   8.924   0.584   0.639  0.1688 -0.3244  0.1646
15437SOL    HW152273   8.946   0.598   0.547 -0.2793 -0.2754  0.0672
15437SOL    HW252274   8.957   0.497   0.659 -0.0854 -0.4906 -0.1484
15438SOL     OW52275   7.794   8.714   8.066  0.0929 -0.1221  0.2283
15438SOL    HW152276   7.723   8.757   8.019  0.4519 -1.0717 -1.2521
15438SOL    HW252277   7.864   8.780   8.069  0.6317 -0.5031 -2.0048
15439SOL     OW52278   4.925   1.685   5.475 -0.3545 -0.5469  0.2609
15439SOL    HW152279   4.942   1.779   5.475  4.0527 -1.1534 -0.5411
15439SOL    HW252280   4.897   1.666   5.385 -2.0143 -0.0071  0.6194
15440SOL     OW52281   8.140   6.486   9.340  0.1954  0.6708  0.3741
15440SOL    HW152282   8.100   6.493   9.427 -0.2463  0.4822  0.1871
15440SOL    HW252283   8.079   6.530   9.281  0.5723  0.9405  0.1815
15441SOL     OW52284   0.319   5.990   4.550 -0.1272 -0.7319  0.2145
15441SOL    HW152285   0.332   6.084   4.542 -0.1169 -0.4318  2.7784
15441SOL    HW252286   0.347   5.954   4.466  0.4464  1.4728 -0.6080
15442SOL     OW52287   0.900   1.200   3.687 -0.1235 -0.0167  0.2062
15442SOL    HW152288   0.817   1.247   3.695  1.2966  2.7658 -0.2668
15442SOL    HW252289   0.875   1.107   3.692 -3.2909  0.6717 -0.4757
15443SOL     OW52290   4.926   6.334   6.976  0.3134  0.2012  0.3636
15443SOL    HW152291   4.922   6.293   6.890  1.7356  0.3530  0.2029
15443SOL    HW252292   4.928   6.428   6.959  2.3974  0.2228  0.4112
15444SOL     OW52293   4.827   4.085   0.862  0.1986  0.1148 -0.0867
15444SOL    HW152294   4.808   4.143   0.789 -1.4200  0.1804  0.3380
15444SOL    HW252295   4.922   4.091   0.874  0.1957  1.8853 -0.6911
15445SOL     OW52296   1.786   5.699   3.115  0.1817 -0.6951  0.0762
15445SOL    HW152297   1.855   5.762   3.091  0.5787 -1.3127 -0.4562
15445SOL    HW252298   1.764   5.656   3.032 -1.1177 -0.2492  0.1731
15446SOL     OW52299   2.888   6.789   3.220  0.2536 -0.3943 -0.2526
15446SOL    HW152300   2.831   6.726   3.265 -0.2546  0.4943  0.3789
15446SOL    HW252301   2.867   6.873   3.260  2.5301 -0.1218  0.5230
15447SOL     OW52302   8.909   9.163   5.859  0.1936 -0.0403 -0.2837
15447SOL    HW152303   8.926   9.168   5.953  0.7970 -0.4835 -0.3619
15447SOL    HW252304   8.942   9.246   5.825  0.1097  0.0588 -0.1281
15448SOL     OW52305   6.496   8.807   5.440  0.1510  0.2443 -0.1471
15448SOL    HW152306   6.555   8.735   5.465 -0.1605 -0.0828 -0.3427
15448SOL    HW252307   6.424   8.763   5.395  1.8278  0.9445 -3.9154
15449SOL     OW52308   1.957   6.200   1.216  0.0063  0.1477  0.4207
15449SOL    HW152309   1.917   6.129   1.266  1.0084  0.7073  2.1040
15449SOL    HW252310   2.051   6.185   1.225  0.2180  1.2157  0.1106
15450SOL     OW52311   8.746   7.624   5.199 -0.1101  0.8226  0.6538
15450SOL    HW152312   8.707   7.708   5.174 -2.4724 -0.8400 -1.8764
15450SOL    HW252313   8.737   7.621   5.294  0.0889  3.4095  0.8319
15451SOL     OW52314   6.118   7.742   3.539  0.1837  0.0442 -0.2426
15451SOL    HW152315   6.211   7.721   3.537 -0.2442 -2.0343 -0.5228
15451SOL    HW252316   6.074   7.657   3.537 -1.7530  1.0107 -1.2628
15452SOL     OW52317   5.223   1.838   2.606 -0.1617  1.0288  0.2598
15452SOL    HW152318   5.131   1.845   2.631  0.0021 -0.3586  1.3926
15452SOL    HW252319   5.267   1.907   2.657 -0.1998 -0.1774  2.0293
15453SOL     OW52320   9.109   6.679   2.971 -0.7241  0.2928  0.0590
15453SOL    HW152321   9.142   6.768   2.985  0.2932 -0.1105  0.2977
15453SOL    HW252322   9.184   6.622   2.989 -1.2235 -0.5920 -0.5675
15454SOL     OW52323   6.705   7.095   1.522 -0.0920  0.2010  0.1414
15454SOL    HW152324   6.734   7.093   1.431  0.7025 -0.4850  0.3933
15454SOL    HW252325   6.637   7.163   1.524 -1.8159 -1.3835 -1.4214
15455SOL     OW52326   4.084   6.055   8.992 -0.0539 -0.1037  0.1893
15455SOL    HW152327   4.176   6.072   9.013  0.0262 -2.3460  2.0157
15455SOL    HW252328   4.041   6.140   9.005  1.4365  0.5374  1.2400
15456SOL     OW52329   0.708   8.115   2.788 -0.4343 -0.0378 -0.1592
15456SOL    HW152330   0.743   8.197   2.821  2.9472 -1.0164 -0.8714
15456SOL    HW252331   0.618   8.112   2.819  0.4803  2.1291  3.2241
15457SOL     OW52332   9.309   4.150   7.995 -0.0008  0.1592  0.0177
15457SOL    HW152333   9.313   4.144   7.900 -2.2673 -0.8892 -0.0752
15457SOL    HW252334   9.397   4.179   8.021  0.5617  0.8513 -2.3882
15458SOL     OW52335   4.833   0.994   0.522 -0.2364  0.1624  0.0856
15458SOL    HW152336   4.887   0.958   0.451 -0.2870 -0.3669  0.3123
15458SOL    HW252337   4.744   0.993   0.488 -0.6265 -2.2361  0.9258
15459SOL     OW52338   4.865   4.351   0.359 -0.7852  0.2193  0.2378
15459SOL    HW152339   4.848   4.339   0.266  0.2035 -0.5958  0.1564
15459SOL    HW252340   4.811   4.284   0.402 -1.2217  0.5793  0.2648
15460SOL     OW52341   7.298   3.194   7.869  0.0144 -0.4648  0.0373
15460SOL    HW152342   7.354   3.259   7.914 -2.2655  1.9091 -0.3023
15460SOL    HW252343   7.306   3.216   7.776 -1.4077 -0.0748 -0.0160
15461SOL     OW52344   6.517   5.828   0.083 -0.1360  0.2517 -0.3901
15461SOL    HW152345   6.519   5.922   0.099 -2.0274  0.2747 -0.1092
15461SOL    HW252346   6.473   5.791   0.159  0.9631 -0.9374 -0.2898
15462SOL     OW52347   7.939   8.386   5.762  0.2009 -0.6605  0.1049
15462SOL    HW152348   7.925   8.474   5.726  1.6426 -0.9061 -1.1271
15462SOL    HW252349   7.875   8.380   5.833 -0.0617  1.3104  0.1095
15463SOL     OW52350   4.207   5.134   4.155 -0.4843 -0.5110  0.0228
15463SOL    HW152351   4.209   5.055   4.209 -0.0593  0.4957  1.5688
15463SOL    HW252352   4.270   5.193   4.197 -0.7740  0.6496 -1.0948
15464SOL     OW52353   7.209   6.936   0.449  0.0008  0.0667  0.5984
15464SOL    HW152354   7.151   6.932   0.373 -2.1455 -0.2799  2.1738
15464SOL    HW252355   7.255   6.852   0.448 -0.2296 -0.0605 -0.1332
15465SOL     OW52356   8.751   8.895   6.115 -0.2298 -0.5623 -0.9574
15465SOL    HW152357   8.804   8.863   6.188 -1.7765 -0.9688  0.0342
15465SOL    HW252358   8.787   8.982   6.095  1.5370 -1.2845 -1.1127
15466SOL     OW52359   4.187   7.419   5.602 -0.3988  0.4293 -0.0921
15466SOL    HW152360   4.247   7.429   5.676 -0.1120 -0.3219 -0.2139
15466SOL    HW252361   4.217   7.341   5.557 -1.0027  0.4819 -0.6047
15467SOL     OW52362   4.167   6.918   5.366 -0.0739 -0.4070 -0.3262
15467SOL    HW152363   4.087   6.865   5.361 -0.3417  0.0870 -2.2171
15467SOL    HW252364   4.237   6.855   5.381 -0.8745 -0.7298  2.9566
15468SOL     OW52365   7.801   3.927   2.282 -0.3085 -0.3829 -0.7143
15468SOL    HW152366   7.769   3.849   2.237  0.6564 -0.5430 -1.1443
15468SOL    HW252367   7.822   3.988   2.212  2.3282 -1.0555 -0.6488
15469SOL     OW52368   2.830   6.855   1.339  0.2282  0.4095  0.4609
15469SOL    HW152369   2.923   6.851   1.317  0.3185 -0.6496  0.9831
15469SOL    HW252370   2.804   6.944   1.317  1.8585  1.3968  2.2633
15470SOL     OW52371   1.489   7.185   3.872 -0.3143 -0.1283  0.0920
15470SOL    HW152372   1.491   7.279   3.855 -0.2304 -0.2491 -0.6112
15470SOL    HW252373   1.530   7.146   3.795 -2.4057 -0.8729 -0.7446
15471SOL     OW52374   4.610   8.083   8.029  0.5448 -0.2913  0.1151
15471SOL    HW152375   4.523   8.051   8.051 -0.1380  1.4460  0.0968
15471SOL    HW252376   4.595   8.152   7.964  2.0974 -1.2724 -1.3736
15472SOL     OW52377   6.831   4.190   2.303 -0.2244 -0.1374 -0.0806
15472SOL    HW152378   6.921   4.183   2.271 -0.3415  0.3478 -0.5226
15472SOL    HW252379   6.831   4.266   2.360 -0.4001 -0.0235 -0.2319
15473SOL     OW52380   0.795   5.036   8.450  0.0361 -0.8549 -0.0109
15473SOL    HW152381   0.884   5.004   8.459  0.2288 -0.8638 -1.6337
15473SOL    HW252382   0.771   5.015   8.359 -0.6064  1.5850 -0.4744
15474SOL     OW52383   6.377   6.146   2.082 -0.4396 -0.1582  0.2803
15474SOL    HW152384   6.391   6.077   2.146 -1.0779 -0.3299  0.2400
15474SOL    HW252385   6.319   6.107   2.016 -0.5178  0.2994  0.0734
15475SOL     OW52386   7.725   7.341   2.420  0.3876  0.0710 -0.0199
15475SOL    HW152387   7.697   7.426   2.384  1.5225 -0.0024 -1.1386
15475SOL    HW252388   7.673   7.277   2.372 -2.3820  0.1205  2.5760
15476SOL     OW52389   4.381   5.970   7.341  0.4637  0.1732  0.9361
15476SOL    HW152390   4.313   5.927   7.290 -0.2708  0.1589  1.8995
15476SOL    HW252391   4.335   6.035   7.393  1.5119  2.0367 -0.3265
15477SOL     OW52392   6.888   3.990   8.493  0.7951 -0.4619 -0.0313
15477SOL    HW152393   6.804   4.036   8.506  1.7082  0.8529  1.5794
15477SOL    HW252394   6.892   3.976   8.398 -1.8574 -1.8147 -0.0479
15478SOL     OW52395   6.743   6.576   2.532  0.2998 -0.2382 -0.1572
15478SOL    HW152396   6.685   6.515   2.577 -0.3426  1.0074  0.7614
15478SOL    HW252397   6.822   6.579   2.586  1.0701 -1.5281 -1.1278
15479SOL     OW52398   6.385   2.632   9.356  0.6431 -0.3859 -0.4065
15479SOL    HW152399   6.363   2.539   9.348  1.1451 -0.7095  1.4944
15479SOL    HW252400   6.376   2.651   9.450  2.4134  0.9949 -0.4690
15480SOL     OW52401   8.361   4.054   0.305  0.4372  0.7676 -0.3053
15480SOL    HW152402   8.308   4.134   0.309 -0.9775 -0.1065 -0.5641
15480SOL    HW252403   8.367   4.025   0.396  0.7586  1.0594 -0.2362
15481SOL     OW52404   8.475   7.146   2.780  0.5395 -0.2866 -0.2330
15481SOL    HW152405   8.553   7.164   2.832  0.6131 -0.9276 -0.1151
15481SOL    HW252406   8.448   7.058   2.807 -1.7694  0.9082  1.7387
15482SOL     OW52407   3.881   4.072   6.350  0.2130 -0.6002  0.1130
15482SOL    HW152408   3.951   4.021   6.309  0.1877  0.1779 -0.9678
15482SOL    HW252409   3.831   4.106   6.276 -0.8588 -0.5147  0.8577
15483SOL     OW52410   4.722   4.175   8.919  0.1585 -0.4557 -0.8513
15483SOL    HW152411   4.669   4.208   8.992  0.9385  1.5416 -1.1337
15483SOL    HW252412   4.802   4.143   8.961  0.4664  0.3881 -0.7646
15484SOL     OW52413   2.238   6.642   6.050 -0.8203 -0.1264 -0.4690
15484SOL    HW152414   2.188   6.632   5.969 -1.5170 -2.3656  0.1654
15484SOL    HW252415   2.175   6.676   6.113 -1.1432 -1.3215 -0.1136
15485SOL     OW52416   2.451   9.058   7.747 -0.2356  0.2318  0.1220
15485SOL    HW152417   2.459   8.967   7.774 -0.2045  0.7417  1.9104
15485SOL    HW252418   2.541   9.090   7.741 -0.0323 -0.5203 -3.2170
15486SOL     OW52419   9.027   5.963   2.259  0.6862  0.4920 -0.5277
15486SOL    HW152420   9.109   5.914   2.256 -0.4739 -1.9430  2.2867
15486SOL    HW252421   8.960   5.899   2.232 -0.7407  0.9113  1.7964
15487SOL     OW52422   7.535   2.490   4.313 -0.0915 -0.0076  0.8310
15487SOL    HW152423   7.479   2.437   4.370  0.3539 -0.9855  0.3795
15487SOL    HW252424   7.620   2.492   4.358  0.7890 -2.2864 -0.6098
15488SOL     OW52425   3.001   4.112   8.396  0.1334 -0.3646  0.2297
15488SOL    HW152426   2.938   4.103   8.324 -0.4360  0.1431  0.6604
15488SOL    HW252427   3.046   4.028   8.399 -1.4165 -1.2073  0.7555
15489SOL     OW52428   0.982   3.985   4.828  0.4793  0.0123 -0.1240
15489SOL    HW152429   0.990   4.080   4.835 -2.0510  0.2034  1.0608
15489SOL    HW252430   0.986   3.968   4.734  5.5461  0.6760 -0.3066
15490SOL     OW52431   2.045   2.225   5.046 -0.0829 -0.2132 -0.2018
15490SOL    HW152432   2.113   2.190   5.103 -0.9436  1.3531  1.9102
15490SOL    HW252433   2.077   2.312   5.020 -1.4872  0.8445  1.3890
15491SOL     OW52434   3.836   7.722   6.344 -0.2172 -0.3908  0.0158
15491SOL    HW152435   3.768   7.719   6.411 -0.3887 -0.1705 -0.1480
15491SOL    HW252436   3.909   7.674   6.383  0.7367  2.1017  1.5359
15492SOL     OW52437   7.035   1.143   2.206 -0.0951 -0.4070 -0.3702
15492SOL    HW152438   7.034   1.173   2.115 -3.5283 -0.8507 -0.6166
15492SOL    HW252439   6.958   1.184   2.246  0.8615 -0.8551  2.1513
15493SOL     OW52440   4.930   4.135   6.022 -0.2638 -0.2473  0.7907
15493SOL    HW152441   4.857   4.196   6.013 -1.1547 -1.3159  0.5672
15493SOL    HW252442   4.889   4.049   6.021  0.8426 -0.8309  2.3262
15494SOL     OW52443   7.095   8.716   5.928 -0.0256 -0.1885  0.3470
15494SOL    HW152444   7.067   8.768   5.853  0.7775  0.1110  0.2451
15494SOL    HW252445   7.040   8.746   6.000  0.4157  0.7956  0.2858
15495SOL     OW52446   3.935   2.249   1.316 -0.0310  0.0445  0.6420
15495SOL    HW152447   3.952   2.185   1.385  0.4041 -1.2282 -0.6123
15495SOL    HW252448   4.022   2.272   1.283 -0.2344  0.6732  0.5178
15496SOL     OW52449   6.290   3.838   1.590  0.3013  0.2832 -0.6443
15496SOL    HW152450   6.227   3.907   1.613 -0.0922  0.5929 -2.5090
15496SOL    HW252451   6.374   3.870   1.622 -0.6572 -1.2471  4.2465
15497SOL     OW52452   3.600   3.201   1.830 -0.2056 -0.0173 -0.3446
15497SOL    HW152453   3.505   3.199   1.832 -0.1798 -0.4177  0.8305
15497SOL    HW252454   3.627   3.179   1.919  0.9834  0.2108 -0.6312
15498SOL     OW52455   6.037   7.762   5.570  0.6515 -0.5394 -0.2660
15498SOL    HW152456   6.065   7.687   5.622  0.4204  0.1084  0.8199
15498SOL    HW252457   5.941   7.755   5.568  0.6959 -1.1123 -1.4764
15499SOL     OW52458   7.780   0.669   5.815  0.1445 -0.0403  0.3015
15499SOL    HW152459   7.715   0.599   5.821 -1.4572  1.3676  0.1709
15499SOL    HW252460   7.751   0.722   5.741  3.2439 -1.0562 -1.8551
15500SOL     OW52461   2.915   5.056   3.829 -0.3048 -0.2853  0.3229
15500SOL    HW152462   2.893   4.967   3.858 -0.9755  0.2852  1.6217
15500SOL    HW252463   3.001   5.072   3.867 -0.0166 -0.5080 -0.2259
15501SOL     OW52464   4.445   3.004   6.209 -0.0803 -0.1890  0.3209
15501SOL    HW152465   4.415   3.043   6.127 -0.9437 -1.9621 -0.2549
15501SOL    HW252466   4.365   2.977   6.253  0.4795 -1.7180  0.4608
15502SOL     OW52467   2.689   9.177   7.730 -0.3634 -0.5275 -0.0567
15502SOL    HW152468   2.717   9.147   7.817  0.9237 -0.0085 -0.2862
15502SOL    HW252469   2.756   9.239   7.703 -0.6394 -0.8498 -1.5299
15503SOL     OW52470   4.320   4.914   0.356 -0.7000 -0.5487  0.0841
15503SOL    HW152471   4.400   4.890   0.310 -0.3995 -1.5172  1.0529
15503SOL    HW252472   4.273   4.971   0.296  0.1825 -0.8909 -0.9555
15504SOL     OW52473   4.980   8.765   2.280  0.2239  0.2283 -0.4375
15504SOL    HW152474   5.006   8.845   2.236 -0.2826  0.1228 -0.9388
15504SOL    HW252475   5.008   8.694   2.221 -1.9406  0.1336 -1.4473
15505SOL     OW52476   6.536   8.320   0.012  0.1712 -0.5326  0.1986
15505SOL    HW152477   6.447   8.327  -0.022  0.6881  0.1521 -1.0558
15505SOL    HW252478   6.576   8.404  -0.008  1.1153 -0.8336  0.7555
15506SOL     OW52479   7.356   4.489   2.908 -0.0171 -0.0424 -0.1195
15506SOL    HW152480   7.436   4.473   2.957 -0.0956  0.4896  0.1818
15506SOL    HW252481   7.383   4.544   2.835  0.3992 -2.0691 -1.6028
15507SOL     OW52482   8.117   1.220   7.635  0.0939 -0.1964  0.5730
15507SOL    HW152483   8.168   1.158   7.584 -2.9519 -0.8262 -1.9618
15507SOL    HW252484   8.129   1.304   7.590  3.1642  1.0360  3.2467
15508SOL     OW52485   8.871   7.159   4.270  0.2721 -0.2338  0.5440
15508SOL    HW152486   8.906   7.198   4.190  0.8681 -0.5379  0.6497
15508SOL    HW252487   8.940   7.171   4.335 -0.5928  0.8897  1.2908
15509SOL     OW52488   1.115   2.663   6.616  0.9073  0.4570 -0.5043
15509SOL    HW152489   1.097   2.668   6.709  0.4095  0.9813 -0.6184
15509SOL    HW252490   1.082   2.746   6.581  1.7300  0.5700 -1.0425
15510SOL     OW52491   8.549   5.643   7.493 -0.0727 -0.0296 -0.0047
15510SOL    HW152492   8.530   5.552   7.514 -0.0219 -0.1023 -0.2767
15510SOL    HW252493   8.514   5.656   7.405  0.5088  0.0228 -0.2389
15511SOL     OW52494   4.855   2.791   8.550 -0.0220  0.4089  0.2360
15511SOL    HW152495   4.840   2.798   8.644  1.1347  1.8891  0.3597
15511SOL    HW252496   4.906   2.711   8.540  0.1477  0.4217  0.9269
15512SOL     OW52497   5.598   6.784   5.718  0.2356 -0.8684  0.4262
15512SOL    HW152498   5.607   6.699   5.760 -1.7362 -1.8895 -1.0511
15512SOL    HW252499   5.503   6.798   5.712  0.5082  1.1241  0.0097
15513SOL     OW52500   7.131   7.286   6.804  0.0106  0.2016 -0.5013
15513SOL    HW152501   7.093   7.198   6.800 -0.8721  0.5149  0.5478
15513SOL    HW252502   7.116   7.322   6.717 -1.6390  0.1111 -0.2914
15514SOL     OW52503   8.156   4.101   3.207  0.2281  0.4365 -0.6017
15514SOL    HW152504   8.096   4.033   3.238  1.3654 -0.2773  0.1076
15514SOL    HW252505   8.171   4.081   3.115 -1.2873  1.1512 -1.0393
15515SOL     OW52506   6.930   5.463   1.109 -0.2947  0.2972 -0.0774
15515SOL    HW152507   6.948   5.500   1.196 -1.4476 -0.8808  0.7086
15515SOL    HW252508   6.990   5.389   1.102 -0.8153 -0.1446  0.1013
15516SOL     OW52509   6.469   4.301   1.625 -0.5517  0.6691  0.3909
15516SOL    HW152510   6.395   4.268   1.575 -0.4032  0.7816  0.0938
15516SOL    HW252511   6.448   4.280   1.716  0.8041 -2.8606  0.0512
15517SOL     OW52512   8.672   2.366   9.319 -0.3819 -0.1142 -0.0717
15517SOL    HW152513   8.586   2.403   9.301  1.1997  3.2661 -1.6565
15517SOL    HW252514   8.709   2.423   9.386  1.6838  0.4473 -1.5922
15518SOL     OW52515   0.881   1.881   2.818  0.1418  0.4435  0.5213
15518SOL    HW152516   0.961   1.931   2.802  0.4244  0.1120  0.9054
15518SOL    HW252517   0.859   1.897   2.909  2.0978 -2.7341  1.7120
15519SOL     OW52518   3.070   5.603   1.789  0.2299 -0.2448  0.5067
15519SOL    HW152519   3.137   5.620   1.722 -0.6322  0.4226 -0.2077
15519SOL    HW252520   3.101   5.524   1.833  0.5162 -1.0848 -1.0883
15520SOL     OW52521   4.001   5.700   4.233  0.0834 -0.2670 -0.4187
15520SOL    HW152522   3.920   5.719   4.281 -0.5214 -2.3746 -0.4757
15520SOL    HW252523   3.988   5.742   4.148  0.8024  2.7701  0.8360
15521SOL     OW52524   3.717   7.055   7.452  0.2062  0.4645  0.0325
15521SOL    HW152525   3.737   6.963   7.435 -1.0401 -0.0281  1.0263
15521SOL    HW252526   3.626   7.066   7.424  0.5817  1.6166 -0.8161
15522SOL     OW52527   3.270   4.470   5.241  0.0465 -0.2629  0.2284
15522SOL    HW152528   3.317   4.435   5.165  1.2946  0.6211  0.5776
15522SOL    HW252529   3.184   4.493   5.206  0.2776 -0.7328 -0.7044
15523SOL     OW52530   6.209   1.178   6.171  0.6578 -0.2892  0.0556
15523SOL    HW152531   6.215   1.269   6.199 -1.6611  0.2553 -1.0122
15523SOL    HW252532   6.120   1.152   6.194  0.3572 -1.4029 -2.1689
15524SOL     OW52533   1.511   0.703   0.769 -0.1781 -0.1694  0.7584
15524SOL    HW152534   1.455   0.741   0.701 -0.8040 -0.5291  1.0635
15524SOL    HW252535   1.458   0.705   0.848  0.6449  0.4865  1.3130
15525SOL     OW52536   1.031   2.885   1.673  0.1847 -0.3635 -0.0537
15525SOL    HW152537   0.960   2.943   1.645 -0.5348 -1.2184 -0.0645
15525SOL    HW252538   1.111   2.934   1.653 -0.3756  0.2964 -0.7890
15526SOL     OW52539   2.589   5.328   0.805 -0.4943  0.8184 -0.0579
15526SOL    HW152540   2.672   5.368   0.830 -1.1973  2.6400 -0.4772
15526SOL    HW252541   2.600   5.306   0.712  0.1823 -0.8244  0.3730
15527SOL     OW52542   3.203   2.229   5.900  0.7344  0.3956  0.2051
15527SOL    HW152543   3.203   2.291   5.827 -0.0257 -2.2993 -2.2729
15527SOL    HW252544   3.295   2.203   5.910  0.6000 -0.9670 -1.5284
15528SOL     OW52545   1.689   4.641   9.181  0.0137  0.7019  0.1377
15528SOL    HW152546   1.716   4.631   9.272 -0.6073  0.9159  0.3530
15528SOL    HW252547   1.745   4.581   9.132 -1.0602 -0.9956  0.9125
15529SOL     OW52548   5.194   3.189   6.896  0.0454  0.4143 -0.0228
15529SOL    HW152549   5.263   3.254   6.913  0.0993  0.4661 -0.4408
15529SOL    HW252550   5.229   3.108   6.933  0.0731  0.5694  0.3035
15530SOL     OW52551   7.622   2.965   1.602 -0.5628 -0.1133 -0.1650
15530SOL    HW152552   7.584   3.018   1.672 -1.2370 -0.0492 -0.5688
15530SOL    HW252553   7.699   3.015   1.575 -2.4086  1.9607 -2.0993
15531SOL     OW52554   1.587   2.153   8.144 -0.3799 -0.6998 -0.1546
15531SOL    HW152555   1.538   2.143   8.062 -0.2173  0.6975 -0.4427
15531SOL    HW252556   1.519   2.160   8.211 -0.5207 -1.2541 -0.2292
15532SOL     OW52557   4.037   8.265   3.412 -0.5566  0.6765 -0.5633
15532SOL    HW152558   4.045   8.170   3.426 -0.6190  0.5302 -1.4480
15532SOL    HW252559   4.054   8.303   3.498 -1.7623 -0.1987  0.0868
15533SOL     OW52560   3.264   4.366   0.371  0.1095 -0.0066 -0.1720
15533SOL    HW152561   3.342   4.391   0.420 -1.9130  3.1163  1.8039
15533SOL    HW252562   3.206   4.324   0.435 -1.4311  1.5293 -0.4711
15534SOL     OW52563   7.656   0.326   8.309 -0.4429  0.3362  0.0299
15534SOL    HW152564   7.679   0.419   8.311  0.4126  0.1366 -0.2587
15534SOL    HW252565   7.727   0.285   8.262 -0.6950 -0.5075  0.3719
15535SOL     OW52566   4.907   3.010   4.055 -0.2938 -0.6958  0.5779
15535SOL    HW152567   4.912   2.984   4.147 -1.0236 -1.0437  0.5318
15535SOL    HW252568   4.839   3.077   4.053  0.3382 -0.0446  0.4177
15536SOL     OW52569   6.197   2.805   3.147  0.4124  0.3017  0.2013
15536SOL    HW152570   6.261   2.856   3.197  1.6231 -0.4535 -0.5113
15536SOL    HW252571   6.189   2.722   3.194 -1.5197  1.0630  1.3327
15537SOL     OW52572   9.185   1.971   3.919 -0.3745 -0.0028 -0.3954
15537SOL    HW152573   9.115   1.924   3.875  0.4026 -0.6452 -0.9916
15537SOL    HW252574   9.153   2.061   3.926 -1.1504 -0.2339 -0.8751
15538SOL     OW52575   9.286   1.259   7.628 -0.2986  0.2137 -0.3443
15538SOL    HW152576   9.295   1.211   7.710  1.3478  0.8501 -0.1128
15538SOL    HW252577   9.259   1.347   7.655 -2.2968 -0.2460 -0.6954
15539SOL     OW52578   0.203   8.343   1.118  0.0981 -0.2712 -0.2156
15539SOL    HW152579   0.175   8.252   1.124  1.0626 -0.5789 -0.1471
15539SOL    HW252580   0.159   8.387   1.190 -1.8871 -0.2478 -1.3613
15540SOL     OW52581   3.779   2.933   3.950 -0.3426 -0.0288  0.1306
15540SOL    HW152582   3.735   3.008   3.910 -1.5471  0.3712  2.0609
15540SOL    HW252583   3.763   2.943   4.044 -0.7496 -2.8269  0.4523
15541SOL     OW52584   3.370   0.119   6.360 -0.4097  0.4707  0.3832
15541SOL    HW152585   3.345   0.148   6.447 -3.0593 -3.1280  1.0675
15541SOL    HW252586   3.304   0.157   6.302 -0.4514  0.4026  0.3867
15542SOL     OW52587   0.681   1.756   1.236  0.1066  0.1088  0.0288
15542SOL    HW152588   0.699   1.692   1.167 -0.8756 -1.9216  1.5456
15542SOL    HW252589   0.759   1.752   1.292  0.1570  0.4432 -0.0175
15543SOL     OW52590   6.559   0.407   7.768 -0.2235  0.0552  0.4374
15543SOL    HW152591   6.630   0.457   7.728 -1.7696  0.6625 -1.8074
15543SOL    HW252592   6.532   0.459   7.843  1.4706 -0.0489  1.1555
15544SOL     OW52593   1.524   3.028   5.161  0.5833 -0.6283  0.3881
15544SOL    HW152594   1.461   3.007   5.230  0.1436  0.1699  0.2457
15544SOL    HW252595   1.492   3.110   5.123  1.1913 -0.7016 -0.3177
15545SOL     OW52596   3.410   2.779   4.275 -0.1666 -0.1731  0.0392
15545SOL    HW152597   3.474   2.728   4.226 -2.2678 -0.8699 -2.1919
15545SOL    HW252598   3.390   2.854   4.218 -0.1302  0.9540  1.4450
15546SOL     OW52599   7.945   3.756   8.572 -0.0072 -0.1719  0.3619
15546SOL    HW152600   7.938   3.809   8.493  0.4355 -0.5701  0.0475
15546SOL    HW252601   8.008   3.687   8.549 -1.4987 -1.5914  0.3453
15547SOL     OW52602   8.285   3.443   5.340 -0.1136  0.5962  0.3183
15547SOL    HW152603   8.198   3.404   5.327 -0.3180  0.8975  0.7417
15547SOL    HW252604   8.345   3.369   5.335 -0.1287  0.6653 -2.3538
15548SOL     OW52605   0.072   1.478   6.135 -0.2770  0.0181 -0.2575
15548SOL    HW152606   0.074   1.473   6.039 -0.4586  0.1036 -0.2670
15548SOL    HW252607   0.070   1.572   6.153 -2.8711  0.0537 -0.2463
15549SOL     OW52608   0.104   2.419   4.995  0.4741  0.1311  0.5193
15549SOL    HW152609   0.013   2.448   4.998 -0.1879 -1.8087  1.0960
15549SOL    HW252610   0.113   2.377   4.909  0.7723  0.1443  0.5428
15550SOL     OW52611   8.623   4.967   2.274 -0.5578 -0.3891  0.0305
15550SOL    HW152612   8.713   4.987   2.249 -0.8662  2.1256  0.7098
15550SOL    HW252613   8.581   4.938   2.192  0.8721 -1.8428 -0.2430
15551SOL     OW52614   2.029   4.003   2.857  0.0057  0.6870  0.1549
15551SOL    HW152615   1.948   3.951   2.858  1.4134 -1.6592  0.4890
15551SOL    HW252616   2.053   4.011   2.949  1.2049 -0.4916 -0.0241
15552SOL     OW52617   6.559   7.332   8.443 -0.1729  0.2376 -0.4265
15552SOL    HW152618   6.522   7.383   8.514 -0.6044 -0.1571 -0.3638
15552SOL    HW252619   6.654   7.344   8.452 -0.1608 -0.5709  0.8084
15553SOL     OW52620   6.141   0.174   3.370 -0.2625  0.0753 -0.1571
15553SOL    HW152621   6.060   0.149   3.414  0.7074  0.3674  1.9108
15553SOL    HW252622   6.180   0.091   3.343 -0.8495 -0.1132 -0.4591
15554SOL     OW52623   0.231   4.149   5.515  0.2826 -0.5738  0.4413
15554SOL    HW152624   0.309   4.173   5.465  0.7994  0.4776  1.7013
15554SOL    HW252625   0.166   4.216   5.493  0.3713 -0.3528  0.8409
15555SOL     OW52626   5.569   9.337   2.798  0.3328  0.3561 -0.6205
15555SOL    HW152627   5.635   9.287   2.749  0.3502  1.2155 -1.4972
15555SOL    HW252628   5.559   9.289   2.880  1.2592 -0.3913 -0.9278
15556SOL     OW52629   3.094   6.145   4.178 -0.1171  0.2137 -0.1614
15556SOL    HW152630   3.180   6.123   4.143 -0.4208 -0.7655 -0.3106
15556SOL    HW252631   3.100   6.126   4.272 -0.6986 -1.6464 -0.4499
15557SOL     OW52632   6.504   0.308   4.187  0.5364  0.2915  0.3823
15557SOL    HW152633   6.485   0.310   4.093 -0.6004  0.3395  0.6080
15557SOL    HW252634   6.555   0.228   4.199  1.2660  0.6205 -0.3657
15558SOL     OW52635   1.628   7.167   6.121 -0.5135 -0.0535 -0.4173
15558SOL    HW152636   1.716   7.153   6.085  0.1707  0.0065  1.1516
15558SOL    HW252637   1.591   7.079   6.128  0.8963 -0.5240  2.3858
15559SOL     OW52638   1.232   1.074   5.962 -0.1688 -0.0248  0.3486
15559SOL    HW152639   1.257   1.081   6.054 -0.6862 -1.5753  0.6289
15559SOL    HW252640   1.314   1.088   5.914  0.0064  1.3559  0.9995
15560SOL     OW52641   2.381   7.710   0.666  0.0608  0.1335 -0.9385
15560SOL    HW152642   2.429   7.714   0.584 -1.0465  0.4097 -1.5872
15560SOL    HW252643   2.413   7.786   0.716  2.6206 -1.4260  0.0022
15561SOL     OW52644   6.368   6.561   4.584  0.0621 -0.2066 -0.0484
15561SOL    HW152645   6.384   6.655   4.588 -1.5600  0.3422 -3.2555
15561SOL    HW252646   6.322   6.541   4.665  0.6885  1.6983  0.8290
15562SOL     OW52647   8.388   6.201   5.902  0.3922  0.0004 -0.2313
15562SOL    HW152648   8.429   6.228   5.984  1.1954 -2.3932  0.2366
15562SOL    HW252649   8.459   6.160   5.853 -0.8270 -1.7321 -0.6209
15563SOL     OW52650   7.994   5.472   7.891  0.0587 -0.0060 -0.2751
15563SOL    HW152651   8.029   5.539   7.833 -1.9874  0.2705 -1.2564
15563SOL    HW252652   8.023   5.498   7.978  1.5344  0.6367 -0.9185
15564SOL     OW52653   5.935   7.138   6.833 -0.5450 -0.6130  0.0876
15564SOL    HW152654   5.950   7.117   6.925 -1.1312  1.8352  0.8199
15564SOL    HW252655   6.009   7.193   6.808 -0.1855 -1.5633 -1.0634
15565SOL     OW52656   7.349   1.209   6.027  0.1802 -0.0877 -0.1544
15565SOL    HW152657   7.404   1.242   6.098 -0.8195 -1.9495  1.6026
15565SOL    HW252658   7.411   1.183   5.959  1.2007  1.2932  0.2164
15566SOL     OW52659   6.900   9.215   0.609  0.3454 -0.1641 -0.0048
15566SOL    HW152660   6.960   9.267   0.663  2.2009 -0.1121 -1.9830
15566SOL    HW252661   6.939   9.127   0.610  0.2226 -0.2351 -0.9547
15567SOL     OW52662   2.755   4.014   9.033 -0.2055 -0.2534 -0.0614
15567SOL    HW152663   2.674   3.963   9.044 -0.2207  0.1297  1.9747
15567SOL    HW252664   2.768   4.057   9.118  1.8034  0.1967 -0.5483
15568SOL     OW52665   3.029   9.056   8.353  0.0265  0.4348  0.3268
15568SOL    HW152666   2.979   8.974   8.350 -0.4696  0.7527 -0.6158
15568SOL    HW252667   2.965   9.121   8.382  0.3599  0.5361  0.8427
15569SOL     OW52668   6.845   8.838   5.762 -0.1293 -0.3564  0.2977
15569SOL    HW152669   6.872   8.777   5.694  0.2124  0.0514  0.0614
15569SOL    HW252670   6.772   8.794   5.806 -0.6809 -0.4171 -0.6448
15570SOL     OW52671   6.206   0.485   1.612  0.0064  0.5697 -0.3307
15570SOL    HW152672   6.287   0.469   1.564  0.8579  2.8253  0.2600
15570SOL    HW252673   6.214   0.430   1.690  0.7374  0.4067 -0.5144
15571SOL     OW52674   7.633   2.593   0.197  0.1264  0.2996  0.1592
15571SOL    HW152675   7.635   2.651   0.120 -0.8090 -1.2796 -1.1277
15571SOL    HW252676   7.725   2.573   0.214  0.3797  1.1422 -0.1655
15572SOL     OW52677   6.369   7.168   5.807 -0.0567 -0.7697 -0.3689
15572SOL    HW152678   6.341   7.163   5.716 -0.1373 -0.1466 -0.3833
15572SOL    HW252679   6.463   7.189   5.802 -0.4171  1.0077 -0.3200
15573SOL     OW52680   4.194   1.554   4.666 -0.6778 -0.6403  0.1168
15573SOL    HW152681   4.277   1.508   4.678 -1.0361 -1.0399  1.2285
15573SOL    HW252682   4.191   1.575   4.573  0.3655 -1.1993 -0.0574
15574SOL     OW52683   3.815   7.222   0.205 -0.0652  0.1938 -0.4012
15574SOL    HW152684   3.773   7.308   0.218  0.1559  0.5387 -1.8724
15574SOL    HW252685   3.804   7.178   0.290  1.1429  2.2287  0.9011
15575SOL     OW52686   1.704   6.525   2.637  0.5409  0.2522  0.3938
15575SOL    HW152687   1.630   6.553   2.582  2.0305  1.6106 -1.0361
15575SOL    HW252688   1.695   6.576   2.717  0.7353  1.5835 -0.4007
15576SOL     OW52689   2.851   7.698   9.161  0.0722 -0.1862  0.1811
15576SOL    HW152690   2.801   7.755   9.102 -0.1073 -1.8848 -1.4264
15576SOL    HW252691   2.853   7.745   9.244 -0.9560  1.6500 -0.7597
15577SOL     OW52692   2.306   4.214   3.601 -0.4936 -0.3679 -0.5236
15577SOL    HW152693   2.240   4.221   3.532 -1.3706 -0.2730  0.2996
15577SOL    HW252694   2.270   4.264   3.674  0.0806 -1.0409  0.2458
15578SOL     OW52695   7.107   5.357   5.284 -0.4065  0.0754  0.0172
15578SOL    HW152696   7.153   5.418   5.341  0.1302 -1.1970  1.0082
15578SOL    HW252697   7.107   5.274   5.333 -1.9877 -0.4683 -0.8374
15579SOL     OW52698   7.270   4.103   5.378 -0.2238  0.1461 -0.4052
15579SOL    HW152699   7.202   4.169   5.366  0.5491  1.5867  2.3731
15579SOL    HW252700   7.332   4.143   5.440  2.1977 -1.8178 -1.3922
15580SOL     OW52701   8.612   7.666   3.439 -0.1116  0.2215  0.2402
15580SOL    HW152702   8.576   7.753   3.456  1.9691  1.4032 -0.9846
15580SOL    HW252703   8.575   7.642   3.353  0.7394  0.7442 -0.2861
15581SOL     OW52704   3.672   2.238   8.995 -0.0665 -0.2171  0.4699
15581SOL    HW152705   3.766   2.258   8.992 -0.0403 -0.3368  0.4670
15581SOL    HW252706   3.634   2.296   8.929 -0.0952  0.3508  0.9788
15582SOL     OW52707   7.256   5.337   5.835  0.3845 -0.1851 -0.5182
15582SOL    HW152708   7.290   5.268   5.777  1.3450 -0.9638  0.9374
15582SOL    HW252709   7.316   5.410   5.824  0.7925 -0.4733 -0.2176
15583SOL     OW52710   1.125   4.014   8.848  0.3032 -0.2774  0.2181
15583SOL    HW152711   1.210   4.051   8.874 -0.2649 -0.2283  2.1710
15583SOL    HW252712   1.140   3.920   8.843  0.7412 -0.1710 -0.6111
15584SOL     OW52713   0.949   9.098   2.822  0.3837  0.5944 -0.0211
15584SOL    HW152714   0.934   9.112   2.916 -1.3765  0.0388 -0.1813
15584SOL    HW252715   0.878   9.146   2.780  0.1358 -0.5778 -0.9864
15585SOL     OW52716   1.857   8.822   4.802  0.4516 -0.1954  0.2163
15585SOL    HW152717   1.933   8.765   4.812  0.8007  0.0508 -0.9252
15585SOL    HW252718   1.782   8.766   4.826  0.6401 -1.5952 -2.1523
15586SOL     OW52719   6.927   7.652   0.919  0.0041  0.4441  0.5167
15586SOL    HW152720   6.844   7.631   0.876  0.1895  1.5737 -0.4522
15586SOL    HW252721   6.925   7.604   1.001 -1.5798  0.4081  0.4795
15587SOL     OW52722   4.643   0.310   2.706 -0.1233  1.1213  0.9550
15587SOL    HW152723   4.738   0.306   2.712 -0.1865  0.5295  1.7395
15587SOL    HW252724   4.612   0.260   2.781 -1.0586  1.7416  1.0021
15588SOL     OW52725   7.274   1.221   3.963  0.0926  0.3533 -0.4410
15588SOL    HW152726   7.304   1.220   3.872 -0.3191 -0.6321 -0.5867
15588SOL    HW252727   7.183   1.251   3.957  0.0542  0.2532 -0.3677
15589SOL     OW52728   5.924   4.136   0.142  0.2881  0.5018 -0.2006
15589SOL    HW152729   6.000   4.183   0.108  1.9004 -2.3184 -0.7537
15589SOL    HW252730   5.909   4.175   0.229  3.4603  0.0838  0.6570
15590SOL     OW52731   7.614   2.131   1.579 -0.6069 -0.0494  0.2072
15590SOL    HW152732   7.640   2.205   1.635 -0.5969  0.3343 -0.2920
15590SOL    HW252733   7.614   2.056   1.638  0.3641  0.1662  0.5122
15591SOL     OW52734   8.158   3.254   6.938  0.2200  0.8979 -0.3635
15591SOL    HW152735   8.190   3.199   6.867  1.6245 -1.0531  1.6354
15591SOL    HW252736   8.065   3.232   6.945  0.1145  0.9466 -1.4142
15592SOL     OW52737   4.883   3.417   5.919 -0.0061 -0.2862 -0.0337
15592SOL    HW152738   4.852   3.463   5.998  1.1707 -0.1887  0.3838
15592SOL    HW252739   4.959   3.468   5.890  0.8814 -1.5642  0.0124
15593SOL     OW52740   5.802   1.170   3.929  0.1620 -0.1776 -0.4551
15593SOL    HW152741   5.878   1.201   3.979 -0.5399  1.3477 -0.2618
15593SOL    HW252742   5.792   1.079   3.956  1.5033 -0.2172  0.0337
15594SOL     OW52743   8.002   3.913   0.016  0.4108  0.2002  0.8242
15594SOL    HW152744   8.044   3.999   0.023  0.4395  0.2645  0.0202
15594SOL    HW252745   8.073   3.850   0.031  1.0419  0.2982 -1.4153
15595SOL     OW52746   2.920   3.231   2.095 -0.4829  0.5641 -0.3700
15595SOL    HW152747   3.006   3.266   2.073 -0.0473 -0.8998 -1.1319
15595SOL    HW252748   2.893   3.181   2.018 -2.2907  1.4392 -0.3672
15596SOL     OW52749   8.308   7.121   5.095  0.3646  0.1349 -0.1520
15596SOL    HW152750   8.255   7.200   5.103 -1.1738 -0.9359  0.6630
15596SOL    HW252751   8.245   7.049   5.098  1.7128 -1.1315 -0.9937
15597SOL     OW52752   1.822   5.808   5.711 -0.0656  0.1444  0.0429
15597SOL    HW152753   1.890   5.864   5.673 -0.5072  1.3184  0.9021
15597SOL    HW252754   1.840   5.721   5.676 -0.0932  1.0204 -2.3166
15598SOL     OW52755   0.707   2.001   0.599  0.1197 -0.1485 -0.3241
15598SOL    HW152756   0.751   1.922   0.633 -1.6756 -0.7504  0.7381
15598SOL    HW252757   0.669   2.042   0.677  2.8226  3.0871 -0.4568
15599SOL     OW52758   6.951   2.484   0.684 -0.3640 -0.2197  0.1870
15599SOL    HW152759   7.032   2.507   0.639 -1.2679 -0.0779 -1.4758
15599SOL    HW252760   6.966   2.508   0.775  1.4493 -0.1965 -0.0839
15600SOL     OW52761   5.703   4.966   0.931 -0.3395 -0.1307  0.2163
15600SOL    HW152762   5.761   4.890   0.934 -0.1544  0.0349  1.5742
15600SOL    HW252763   5.729   5.013   0.852 -0.0649 -1.1615 -0.3260
15601SOL     OW52764   2.513   4.139   3.743  0.0217 -0.4079 -0.1107
15601SOL    HW152765   2.545   4.211   3.798  0.7048 -1.5522  1.0170
15601SOL    HW252766   2.440   4.178   3.694  1.8924  1.7655 -1.3999
15602SOL     OW52767   8.103   2.415   7.790 -0.2144 -0.2283  0.3663
15602SOL    HW152768   8.083   2.472   7.716 -1.7836 -1.2457 -0.0457
15602SOL    HW252769   8.137   2.335   7.750 -0.2395 -0.4519  0.7899
15603SOL     OW52770   3.103   4.156   6.634 -0.1226 -0.0538 -0.0822
15603SOL    HW152771   3.145   4.171   6.550 -0.2675  1.9637  0.1495
15603SOL    HW252772   3.172   4.121   6.690  0.8381  1.5383 -0.2084
15604SOL     OW52773   3.558   0.734   6.789  0.7913 -0.4727 -0.0023
15604SOL    HW152774   3.525   0.804   6.733 -0.2889 -0.2291  0.9114
15604SOL    HW252775   3.547   0.767   6.878  0.4084 -1.7482  0.4438
15605SOL     OW52776   0.020   3.526   8.801 -0.0152  0.4118 -0.4051
15605SOL    HW152777   0.023   3.558   8.711  0.0942 -1.0042 -0.9310
15605SOL    HW252778  -0.039   3.451   8.798  1.4664 -0.8285  0.2949
15606SOL     OW52779   0.480   0.675   1.627 -0.1817 -0.2621 -0.1090
15606SOL    HW152780   0.504   0.767   1.634 -1.3123  0.1145 -0.7387
15606SOL    HW252781   0.473   0.659   1.532  4.4936 -2.2828 -0.3652
15607SOL     OW52782   5.997   5.711   0.793  0.9413  0.1826  0.5140
15607SOL    HW152783   6.019   5.675   0.879  0.9469 -1.5957 -0.1852
15607SOL    HW252784   6.058   5.668   0.733 -0.4302 -0.2351 -0.6419
15608SOL     OW52785   1.041   2.902   6.296  0.1056 -0.4770  0.2109
15608SOL    HW152786   1.061   2.833   6.233  0.1433  1.0923 -1.5748
15608SOL    HW252787   0.951   2.927   6.276  0.3835  0.5842  0.2457
15609SOL     OW52788   4.951   2.991   0.456 -0.4956  0.0034 -0.2521
15609SOL    HW152789   4.926   3.084   0.457 -0.2052  0.0801 -0.1394
15609SOL    HW252790   4.868   2.945   0.447 -0.6647  0.2673 -0.0717
15610SOL     OW52791   5.716   4.434   0.911  0.3095 -0.0383  0.2826
15610SOL    HW152792   5.807   4.461   0.903  0.8601 -1.6487  0.8113
15610SOL    HW252793   5.667   4.516   0.920  1.4267  1.0056 -2.2306
15611SOL     OW52794   7.287   4.740   8.940  0.5160 -0.2889  0.3079
15611SOL    HW152795   7.293   4.776   8.851 -0.9307  0.1946  0.3876
15611SOL    HW252796   7.375   4.705   8.957  1.1887  0.7553 -0.8132
15612SOL     OW52797   9.365   5.507   4.840 -0.4438 -0.0428  0.1142
15612SOL    HW152798   9.432   5.499   4.909  0.3144  1.6076 -0.3962
15612SOL    HW252799   9.296   5.560   4.880 -1.6696 -2.0111  0.7515
15613SOL     OW52800   7.836   6.792   6.651  0.0092 -0.3511 -0.0158
15613SOL    HW152801   7.828   6.697   6.659 -1.0585 -0.3354 -0.7247
15613SOL    HW252802   7.906   6.815   6.712  1.4701 -1.7916 -1.0439
15614SOL     OW52803   7.525   1.323   6.298 -0.2607  0.0427  0.2273
15614SOL    HW152804   7.486   1.381   6.233  0.0195 -0.1345 -0.1013
15614SOL    HW252805   7.485   1.349   6.381 -0.2473  0.6025  0.0576
15615SOL     OW52806   5.222   4.261   7.134  0.5359 -0.0489 -0.1183
15615SOL    HW152807   5.265   4.262   7.048 -0.6065  1.9227 -0.7268
15615SOL    HW252808   5.197   4.352   7.149 -2.0744 -0.8323  0.8605
15616SOL     OW52809   7.204   2.152   6.368 -0.2521  0.0177  0.4098
15616SOL    HW152810   7.150   2.229   6.348 -0.3896 -0.4655 -1.2285
15616SOL    HW252811   7.246   2.173   6.451 -2.9505  0.4193  1.7752
15617SOL     OW52812   2.691   4.243   6.035  0.2307  0.0990 -1.0086
15617SOL    HW152813   2.765   4.184   6.048 -0.2112 -0.4099 -0.7514
15617SOL    HW252814   2.640   4.203   5.965 -0.0503  0.1948 -0.8616
15618SOL     OW52815   1.694   4.221   6.189  0.3944 -0.2425  0.1189
15618SOL    HW152816   1.660   4.132   6.183 -1.3099  0.3962 -0.1567
15618SOL    HW252817   1.619   4.274   6.216  0.7340  1.4770 -2.0450
15619SOL     OW52818   3.554   4.962   1.096 -0.2228 -0.3062  0.2599
15619SOL    HW152819   3.637   4.942   1.052 -0.7184 -0.3871 -0.6767
15619SOL    HW252820   3.512   5.027   1.040 -0.3242  0.5411  1.2942
15620SOL     OW52821   8.411   5.874   2.410  0.5542  0.3997  0.0441
15620SOL    HW152822   8.388   5.962   2.439  1.0826  0.7546 -0.5845
15620SOL    HW252823   8.340   5.819   2.441  0.7067  0.8890  1.2998
15621SOL     OW52824   3.665   5.859   6.689  0.7621  0.1910  0.2664
15621SOL    HW152825   3.583   5.823   6.723  1.3099 -0.3380  1.0675
15621SOL    HW252826   3.658   5.953   6.703 -0.4359  0.3682 -1.2971
15622SOL     OW52827   6.107   6.449   5.037  0.5689  0.0682 -0.3271
15622SOL    HW152828   6.045   6.378   5.022  0.9150  0.0358 -1.7225
15622SOL    HW252829   6.051   6.525   5.054  0.1974 -0.4547  0.8889
15623SOL     OW52830   7.195   9.016   7.969 -0.2761  0.2896  0.3362
15623SOL    HW152831   7.154   8.971   8.044  1.8597  0.1597  1.5128
15623SOL    HW252832   7.129   9.078   7.939 -2.7681 -2.4860 -0.3585
15624SOL     OW52833   4.381   7.488   2.569 -0.3876  0.1764 -0.3359
15624SOL    HW152834   4.337   7.409   2.538 -0.2930  0.0532 -0.1557
15624SOL    HW252835   4.368   7.552   2.499  0.9724 -0.4943 -1.2512
15625SOL     OW52836   2.671   4.689   1.802  0.1534  0.0205 -0.1279
15625SOL    HW152837   2.642   4.754   1.738  1.0704  0.7425  0.1679
15625SOL    HW252838   2.760   4.717   1.826  0.0876 -0.6354  0.9283
15626SOL     OW52839   6.703   6.454   4.350  0.0737 -0.2660  0.0910
15626SOL    HW152840   6.656   6.447   4.433  0.5901 -0.3100  0.3870
15626SOL    HW252841   6.661   6.390   4.293  0.1561 -0.7317  0.5424
15627SOL     OW52842   2.499   4.982   5.894  0.2054  0.0578  0.4111
15627SOL    HW152843   2.433   4.982   5.964  0.0413  0.7975  0.2638
15627SOL    HW252844   2.470   5.050   5.834 -0.0325 -1.0233 -0.7548
15628SOL     OW52845   0.034   3.312   3.718  0.1309  0.1891 -0.4078
15628SOL    HW152846   0.124   3.279   3.718  0.2598  0.4048  1.2864
15628SOL    HW252847  -0.005   3.274   3.797 -1.0523  0.6497 -0.7477
15629SOL     OW52848   1.160   6.044   6.546  0.2261 -0.2307 -0.1601
15629SOL    HW152849   1.101   5.978   6.583  0.2440  0.3755  0.9656
15629SOL    HW252850   1.234   6.048   6.607 -0.8040  2.4125  1.0569
15630SOL     OW52851   7.356   6.115   0.441  0.4064 -0.0525 -0.3661
15630SOL    HW152852   7.357   6.189   0.380  3.1006  0.9506  0.7434
15630SOL    HW252853   7.287   6.137   0.503 -1.2959 -0.3222 -2.0572
15631SOL     OW52854   1.465   1.581   2.742 -0.3673  0.0877 -0.0558
15631SOL    HW152855   1.439   1.490   2.727  0.4254 -0.5450  1.9433
15631SOL    HW252856   1.425   1.630   2.671 -2.1174 -1.6086 -0.3277
15632SOL     OW52857   2.131   2.866   3.496  0.9136  0.3257  0.7390
15632SOL    HW152858   2.049   2.898   3.533  0.9060  0.0256  0.9874
15632SOL    HW252859   2.114   2.858   3.402  0.3441 -0.6515  0.9128
15633SOL     OW52860   8.388   5.124   7.401 -0.0525  0.4177 -0.4552
15633SOL    HW152861   8.437   5.043   7.414  0.4330  0.8769  0.6794
15633SOL    HW252862   8.296   5.098   7.404  0.0984 -0.0620  0.0449
15634SOL     OW52863   7.354   2.658   1.876 -0.8594 -0.0277 -0.0359
15634SOL    HW152864   7.371   2.683   1.785 -0.4206 -0.4183 -0.0659
15634SOL    HW252865   7.416   2.710   1.927  0.6932 -1.6543 -0.1660
15635SOL     OW52866   2.724   5.872   6.139  0.7473  0.2861 -0.5879
15635SOL    HW152867   2.667   5.894   6.065  1.5970  0.7766 -1.1154
15635SOL    HW252868   2.809   5.911   6.117  0.7403  1.4068  1.1598
15636SOL     OW52869   8.224   1.836   5.935 -0.5888 -1.0583  0.1096
15636SOL    HW152870   8.268   1.920   5.943 -0.5947 -1.0552  0.1115
15636SOL    HW252871   8.171   1.829   6.015 -2.0101 -0.2505 -0.7243
15637SOL     OW52872   3.308   4.235   9.004 -0.1040  0.3116  0.2393
15637SOL    HW152873   3.396   4.224   9.041 -0.2070 -0.8841  0.1800
15637SOL    HW252874   3.279   4.146   8.985 -1.9177  0.5624  1.5619
15638SOL     OW52875   6.828   3.072   6.409 -0.2187 -0.3179  0.3056
15638SOL    HW152876   6.875   3.073   6.325  0.6372 -3.7216  0.6051
15638SOL    HW252877   6.736   3.073   6.384  0.0047  0.3170 -0.5712
15639SOL     OW52878   6.901   7.689   2.883  0.0452 -0.1438  0.3272
15639SOL    HW152879   6.924   7.629   2.953  1.2338 -0.0791  0.0031
15639SOL    HW252880   6.843   7.753   2.924 -0.7708 -1.1617  0.8052
15640SOL     OW52881   1.674   0.835   1.553  0.1612 -0.0511 -0.3653
15640SOL    HW152882   1.707   0.779   1.484 -1.9991 -2.0067  0.0949
15640SOL    HW252883   1.599   0.880   1.514 -1.9399 -2.1902  0.9386
15641SOL     OW52884   2.437   2.403   3.279  0.1462  0.0275  0.0031
15641SOL    HW152885   2.425   2.491   3.243  0.1953  0.0846  0.1249
15641SOL    HW252886   2.433   2.345   3.203 -3.5935 -0.2628  0.2484
15642SOL     OW52887   0.773   9.238   0.741  0.3785 -0.3413  0.0827
15642SOL    HW152888   0.737   9.264   0.657  0.6803 -1.5910 -0.4675
15642SOL    HW252889   0.865   9.264   0.737  0.1422  0.5647  0.4642
15643SOL     OW52890   7.320   1.474   0.339 -0.2221  0.4467  0.9749
15643SOL    HW152891   7.322   1.433   0.425  2.2021  2.6186  2.0991
15643SOL    HW252892   7.411   1.497   0.321 -0.7472  0.7527 -1.8622
15644SOL     OW52893   9.236   5.760   6.377 -0.1410  0.3543 -0.1854
15644SOL    HW152894   9.184   5.712   6.313 -1.3735  0.0944  0.9886
15644SOL    HW252895   9.300   5.808   6.324  0.2274 -1.4537 -1.4801
15645SOL     OW52896   2.410   0.473   8.253  0.3295 -0.0930 -0.7983
15645SOL    HW152897   2.366   0.389   8.267  2.0139 -0.9224 -0.1259
15645SOL    HW252898   2.341   0.532   8.223 -1.1530 -1.3731 -0.0519
15646SOL     OW52899   2.414   3.245   4.648 -0.3533 -0.3237  0.3821
15646SOL    HW152900   2.414   3.340   4.650  0.0313 -0.3315  1.7488
15646SOL    HW252901   2.328   3.222   4.613 -0.2106  0.5176 -0.5458
15647SOL     OW52902   2.618   5.701   5.687 -0.2678  0.1953 -0.3353
15647SOL    HW152903   2.662   5.620   5.715  1.2309  1.1811  0.2481
15647SOL    HW252904   2.565   5.727   5.763  0.9170  0.8923  0.2652
15648SOL     OW52905   1.570   6.549   8.358  0.3250  0.3380 -0.2160
15648SOL    HW152906   1.561   6.553   8.263  0.1354  0.2385 -0.2029
15648SOL    HW252907   1.480   6.557   8.391  0.3673  0.1441 -0.0534
15649SOL     OW52908   0.408   6.619   6.746 -0.1926  0.5332 -0.4814
15649SOL    HW152909   0.497   6.652   6.740 -0.7578  2.2742  0.1349
15649SOL    HW252910   0.353   6.692   6.718 -1.4331 -0.5824 -1.1021
15650SOL     OW52911   8.181   9.055   5.574 -0.1027 -0.0882 -0.0226
15650SOL    HW152912   8.179   9.137   5.526  0.6480 -0.1754 -0.2189
15650SOL    HW252913   8.148   8.990   5.511 -0.5690  0.0353  0.0892
15651SOL     OW52914   6.627   0.024   6.880 -0.1888 -0.3767  0.1772
15651SOL    HW152915   6.606   0.114   6.905 -0.3325  0.0673 -1.4351
15651SOL    HW252916   6.705   0.002   6.931 -0.4241  0.4824  0.9366
15652SOL     OW52917   2.456   2.958   8.486  0.5108  0.2141 -0.3116
15652SOL    HW152918   2.446   2.935   8.394  1.1148 -1.2354 -0.0458
15652SOL    HW252919   2.452   2.874   8.532  2.7197  0.6401  0.7650
15653SOL     OW52920   0.527   4.318   6.889 -0.0233 -0.0303  0.3744
15653SOL    HW152921   0.450   4.335   6.835  0.7271 -0.0095 -0.7213
15653SOL    HW252922   0.552   4.404   6.923 -0.2722  0.0163  0.4405
15654SOL     OW52923   6.009   4.964   6.963  0.1673 -0.2570  0.2850
15654SOL    HW152924   5.929   5.015   6.964 -0.3216 -0.8718 -2.4378
15654SOL    HW252925   6.079   5.029   6.970 -0.4878  0.6704 -1.3920
15655SOL     OW52926   0.547   1.563   7.436  0.1286 -0.4480  0.2503
15655SOL    HW152927   0.488   1.530   7.504 -0.4845 -0.6529 -0.3687
15655SOL    HW252928   0.490   1.583   7.362  0.9171 -1.4380 -0.6600
15656SOL     OW52929   7.872   2.905   2.248  0.0547  0.1297  0.6199
15656SOL    HW152930   7.801   2.958   2.212  0.7459 -0.0517 -1.0858
15656SOL    HW252931   7.829   2.826   2.280 -1.0446  1.7414  3.5123
15657SOL     OW52932   7.873   6.601   8.355  0.0231  0.4845 -0.3681
15657SOL    HW152933   7.945   6.541   8.335  1.0423  1.7517 -0.6657
15657SOL    HW252934   7.820   6.602   8.274  1.5341  2.0302 -1.4007
15658SOL     OW52935   2.625   4.104   0.103  0.2222 -0.2565 -0.2542
15658SOL    HW152936   2.533   4.102   0.130  0.0531  0.6607 -0.7058
15658SOL    HW252937   2.673   4.129   0.182  0.0053 -0.0137 -0.1991
15659SOL     OW52938   5.664   5.508   7.382  0.3671  0.6335 -0.5543
15659SOL    HW152939   5.727   5.447   7.420 -0.5252  0.4760  0.7495
15659SOL    HW252940   5.689   5.515   7.290  1.4892 -0.4162 -0.3482
15660SOL     OW52941   0.319   5.518   0.652  0.1596  0.0174  0.2739
15660SOL    HW152942   0.264   5.585   0.612 -0.4108  2.4206  4.4781
15660SOL    HW252943   0.393   5.507   0.591  0.3007  4.5424 -0.6852
15661SOL     OW52944   7.609   8.083   7.980  0.2251  0.2473 -0.0699
15661SOL    HW152945   7.541   8.044   8.036  0.2655 -0.1802 -0.3088
15661SOL    HW252946   7.660   8.008   7.950 -0.0906  0.4148 -1.0715
15662SOL     OW52947   6.498   6.727   9.290  0.4795  0.3627  0.2671
15662SOL    HW152948   6.443   6.689   9.221  0.8960 -0.8013  0.5528
15662SOL    HW252949   6.563   6.779   9.243  0.9364 -0.6558 -0.2565
15663SOL     OW52950   3.315   0.375   5.522 -0.1347  0.2361 -0.0939
15663SOL    HW152951   3.225   0.362   5.491  0.2154 -1.6656 -0.4573
15663SOL    HW252952   3.369   0.321   5.464  1.0223 -0.0877  1.2198
15664SOL     OW52953   9.120   7.860   1.470  0.3848  0.3244  0.8274
15664SOL    HW152954   9.144   7.776   1.511 -0.8519  0.5061  2.0022
15664SOL    HW252955   9.080   7.836   1.387  3.2163 -0.0451 -0.5404
15665SOL     OW52956   2.741   4.234   4.664  0.3049  0.3846 -0.7295
15665SOL    HW152957   2.822   4.282   4.648  0.2029  0.2832 -1.6142
15665SOL    HW252958   2.680   4.268   4.598 -1.1694  2.2359  1.4239
15666SOL     OW52959   9.081   1.718   2.047 -0.1822  0.4078 -0.1098
15666SOL    HW152960   9.139   1.730   1.972  1.9595  1.7798  1.6480
15666SOL    HW252961   8.993   1.731   2.011  0.6120 -0.5863 -2.6567
15667SOL     OW52962   0.796   6.663   4.164 -0.0051 -0.5525  0.2342
15667SOL    HW152963   0.782   6.569   4.154  0.2291 -0.4140 -1.8252
15667SOL    HW252964   0.880   6.679   4.121 -0.4792  0.7150 -0.2594
15668SOL     OW52965   4.265   9.182   1.092  0.1858  0.3589  0.4500
15668SOL    HW152966   4.226   9.116   1.149  0.8103 -0.3246  0.0957
15668SOL    HW252967   4.290   9.253   1.151  3.1373 -1.3624  1.5119
15669SOL     OW52968   0.037   4.611   5.563  0.3898  0.1893  0.8349
15669SOL    HW152969   0.089   4.656   5.629 -0.2247  1.9655  0.1871
15669SOL    HW252970   0.029   4.675   5.492 -0.0351 -1.1950 -0.4063
15670SOL     OW52971   1.428   5.544   6.636 -0.7481 -0.0310  0.0319
15670SOL    HW152972   1.451   5.530   6.728  2.1884  2.8418 -0.0751
15670SOL    HW252973   1.492   5.491   6.588  2.8424  3.9802 -0.2126
15671SOL     OW52974   2.393   6.504   5.280 -0.1121 -0.0526 -0.3950
15671SOL    HW152975   2.458   6.466   5.220 -1.1055 -1.8775 -0.3889
15671SOL    HW252976   2.310   6.464   5.253 -0.9777  1.0128  0.6231
15672SOL     OW52977   6.233   0.954   7.304 -0.3432  0.3118 -0.3408
15672SOL    HW152978   6.300   0.937   7.238  0.3731  0.5199  0.3144
15672SOL    HW252979   6.255   1.040   7.339 -0.3545 -0.0539  0.5918
15673SOL     OW52980   3.640   7.108   9.121 -0.5190 -0.8840 -0.2387
15673SOL    HW152981   3.676   7.058   9.194 -2.6061 -0.4652  1.1550
15673SOL    HW252982   3.662   7.199   9.141 -1.1135 -0.7666 -0.1251
15674SOL     OW52983   5.086   4.124   1.046 -0.1425 -0.3628  0.1059
15674SOL    HW152984   5.135   4.093   0.969 -0.2999  1.2496 -0.6761
15674SOL    HW252985   5.154   4.149   1.108  0.0352  0.8868 -0.5740
15675SOL     OW52986   4.538   0.007   1.031  0.3804  0.5979 -0.2767
15675SOL    HW152987   4.531  -0.086   1.012  2.6713  0.2224  0.4262
15675SOL    HW252988   4.454   0.043   1.004  0.9499 -0.8738 -5.0404
15676SOL     OW52989   4.151   7.014   0.981 -0.0973 -0.5290 -0.3466
15676SOL    HW152990   4.115   6.995   0.894 -0.5237  2.8196 -1.0448
15676SOL    HW252991   4.245   7.026   0.965  0.2693 -2.3985  0.1909
15677SOL     OW52992   0.069   1.957   1.932  0.3599  0.4147 -0.0206
15677SOL    HW152993   0.091   1.930   2.021 -0.3744  2.1585  0.7341
15677SOL    HW252994   0.150   1.993   1.897  0.2080  1.3990  0.6156
15678SOL     OW52995   8.963   2.543   1.541  0.4451 -0.2459 -0.0104
15678SOL    HW152996   8.887   2.513   1.591  0.3878 -0.2733 -0.1135
15678SOL    HW252997   8.972   2.480   1.471  0.0181  0.2506 -0.5242
15679SOL     OW52998   6.983   3.286   9.364 -0.3152  0.0349  0.1814
15679SOL    HW152999   6.999   3.240   9.282  1.5502  1.3357 -0.2233
15679SOL    HW253000   7.050   3.254   9.424  0.8221  1.9327 -0.0132
15680SOL     OW53001   9.283   8.997   5.008 -0.6431 -0.0704 -0.1594
15680SOL    HW153002   9.372   9.031   4.996 -0.3406 -0.5258  0.7251
15680SOL    HW253003   9.270   8.997   5.102 -0.6989 -2.2259 -0.1363
15681SOL     OW53004   4.314   9.345   1.965  0.2480 -0.8795 -0.3398
15681SOL    HW153005   4.336   9.270   1.910  0.2883 -0.0960 -1.4295
15681SOL    HW253006   4.222   9.364   1.944  1.0939  1.2815 -2.4708
15682SOL     OW53007   4.926   3.354   8.320 -0.2663 -0.1644 -0.0035
15682SOL    HW153008   4.978   3.356   8.240 -1.1371  0.5654 -0.5865
15682SOL    HW253009   4.843   3.313   8.294 -0.4941 -0.0759  0.5626
15683SOL     OW53010   6.548   1.084   2.280 -0.2836  0.3540 -0.5439
15683SOL    HW153011   6.628   1.136   2.295  0.7019 -1.1492 -0.2921
15683SOL    HW253012   6.521   1.057   2.368 -0.8885  0.5675 -0.6592
15684SOL     OW53013   2.774   2.806   7.573 -0.1478  0.2077  0.4881
15684SOL    HW153014   2.809   2.722   7.603  0.3669  0.2163 -0.0763
15684SOL    HW253015   2.768   2.859   7.653  2.1966  0.5874  0.4877
15685SOL     OW53016   6.824   0.923   6.745 -0.2931  0.1652 -0.1265
15685SOL    HW153017   6.777   0.953   6.667  2.4752  0.6663 -1.7612
15685SOL    HW253018   6.831   0.828   6.733 -4.3437 -0.6985  2.3173
15686SOL     OW53019   4.223   8.845   0.164  0.3449 -0.0332 -0.1985
15686SOL    HW153020   4.249   8.781   0.230  0.9421  1.1309  0.7493
15686SOL    HW253021   4.155   8.897   0.207 -1.8192 -1.4265 -1.7647
15687SOL     OW53022   7.032   6.734   8.065 -0.1801  0.1337  0.0064
15687SOL    HW153023   7.127   6.745   8.064  0.0176 -1.0744  1.5221
15687SOL    HW253024   7.010   6.708   7.975  1.4142 -2.7980  0.3414
15688SOL     OW53025   5.762   4.123   7.532 -0.1167  0.3490  0.3056
15688SOL    HW153026   5.760   4.140   7.438  0.6271  0.2672  0.2661
15688SOL    HW253027   5.756   4.027   7.538 -2.2341  0.4518  0.4397
15689SOL     OW53028   4.281   9.127   5.441 -0.2040  0.0352 -0.3050
15689SOL    HW153029   4.325   9.159   5.362  0.0773  0.6717  0.0939
15689SOL    HW253030   4.188   9.134   5.422 -0.1344 -0.5417 -0.8612
15690SOL     OW53031   1.688   3.170   3.171  0.3747 -0.2423 -0.2351
15690SOL    HW153032   1.755   3.142   3.108  0.4892 -0.8616  0.1494
15690SOL    HW253033   1.631   3.094   3.179  0.7511 -0.4202  0.9184
15691SOL     OW53034   8.716   4.318   1.005 -0.2969 -0.2750 -0.3933
15691SOL    HW153035   8.729   4.232   1.045  1.2427  0.0294 -0.1663
15691SOL    HW253036   8.747   4.307   0.915 -0.4006 -0.0418 -0.4567
15692SOL     OW53037   7.811   1.949   4.234 -0.8855  0.4887  0.0476
15692SOL    HW153038   7.759   2.028   4.224 -1.7801 -0.2851 -2.0284
15692SOL    HW253039   7.778   1.909   4.315 -2.7782  0.6161 -0.5963
15693SOL     OW53040   6.218   6.414   7.804  0.4115  0.1843  0.2598
15693SOL    HW153041   6.247   6.428   7.714 -2.7609  1.1773 -0.7513
15693SOL    HW253042   6.145   6.352   7.796  0.1999  0.1227  2.1849
15694SOL     OW53043   8.208   0.836   3.453  0.0546 -0.2785  0.0708
15694SOL    HW153044   8.245   0.895   3.388  1.4804 -0.9845  0.1992
15694SOL    HW253045   8.122   0.873   3.475 -0.0973  0.4053 -1.6011
15695SOL     OW53046   8.560   5.583   2.390  0.8280  0.1852  0.3249
15695SOL    HW153047   8.474   5.542   2.401  1.2648 -0.4667  1.4830
15695SOL    HW253048   8.542   5.677   2.386 -0.0724 -0.0247 -1.0175
15696SOL     OW53049   0.143   1.386   1.477  0.1677  0.4201 -0.0198
15696SOL    HW153050   0.143   1.301   1.433 -0.1667  0.2875  0.2336
15696SOL    HW253051   0.076   1.378   1.545  0.5554  0.6878  0.3957
15697SOL     OW53052   4.011   3.419   9.147  0.4791 -0.0408 -0.0470
15697SOL    HW153053   4.016   3.407   9.052  0.6696 -1.3999  0.1207
15697SOL    HW253054   3.918   3.428   9.165  0.5023  1.3208 -0.4642
15698SOL     OW53055   0.653   0.350   8.460 -0.7659  0.3376 -0.3492
15698SOL    HW153056   0.595   0.331   8.534  0.5351 -0.3730  0.5295
15698SOL    HW253057   0.669   0.265   8.420 -2.8642  0.9170 -2.5891
15699SOL     OW53058   1.351   2.277   3.405  0.2966 -0.3519 -0.2860
15699SOL    HW153059   1.416   2.336   3.369  1.4998 -0.9432  0.8364
15699SOL    HW253060   1.339   2.210   3.337 -1.4807  1.3892 -1.7930
15700SOL     OW53061   5.315   2.141   7.827 -0.0419  0.0279 -0.4407
15700SOL    HW153062   5.272   2.184   7.753 -1.5576 -2.0782 -0.8911
15700SOL    HW253063   5.407   2.138   7.803 -0.2325  1.0404 -1.3702
15701SOL     OW53064   1.359   7.505   4.514 -0.7183 -0.3242  0.0415
15701SOL    HW153065   1.270   7.475   4.496  0.0043 -1.5407 -1.7561
15701SOL    HW253066   1.380   7.467   4.600 -1.3494 -1.4400 -0.2750
15702SOL     OW53067   8.256   6.011   5.373  0.1638  0.0113 -0.0785
15702SOL    HW153068   8.266   5.931   5.424 -0.5538  0.5561  0.9651
15702SOL    HW253069   8.194   5.989   5.304  0.8035 -0.6149 -0.4676
15703SOL     OW53070   5.364   1.877   2.151  1.1039 -0.9364  0.1346
15703SOL    HW153071   5.450   1.838   2.170  2.3217  0.5848 -1.8984
15703SOL    HW253072   5.345   1.852   2.061  0.7322  0.9954 -0.3651
15704SOL     OW53073   6.954   2.939   8.535 -0.3111  0.0686  0.1355
15704SOL    HW153074   7.000   2.974   8.458 -0.4550 -0.6239 -0.2746
15704SOL    HW253075   6.893   2.875   8.499 -0.0157 -0.6420  0.8822
15705SOL     OW53076   1.422   8.747   9.178 -0.5841  0.3329 -0.3010
15705SOL    HW153077   1.432   8.660   9.139 -1.4630 -0.9316  2.0535
15705SOL    HW253078   1.512   8.772   9.202 -0.2992  0.1981 -1.1799
15706SOL     OW53079   7.218   6.669   9.095  0.1716  0.0876  0.1904
15706SOL    HW153080   7.234   6.762   9.112  0.8462  0.0664 -0.2952
15706SOL    HW253081   7.214   6.629   9.181 -0.8338  0.6772  0.4394
15707SOL     OW53082   7.095   0.906   4.000  0.1839 -0.4019 -0.3152
15707SOL    HW153083   7.143   0.899   3.918  0.0823  1.3092 -0.5495
15707SOL    HW253084   7.156   0.948   4.061 -0.3697  0.0359 -0.0578
15708SOL     OW53085   8.865   7.547   6.167 -0.5639  0.4499  0.2191
15708SOL    HW153086   8.853   7.590   6.082  0.8070 -0.5708 -0.5361
15708SOL    HW253087   8.947   7.499   6.158 -0.2896  0.4608  2.2049
15709SOL     OW53088   1.517   2.462   2.438  0.6148  0.5352 -0.2550
15709SOL    HW153089   1.495   2.453   2.345  0.6935 -0.2450 -0.2052
15709SOL    HW253090   1.507   2.374   2.474  1.5928  0.6219  0.2616
15710SOL     OW53091   8.354   4.908   9.126  0.4873  0.6404  0.1375
15710SOL    HW153092   8.316   4.910   9.214  2.4978  0.1109  1.0822
15710SOL    HW253093   8.305   4.974   9.077 -1.8438 -0.2585  1.1187
15711SOL     OW53094   6.779   1.182   3.592 -0.5892  0.1471  0.5951
15711SOL    HW153095   6.729   1.139   3.522 -1.1900  1.2729  0.3082
15711SOL    HW253096   6.812   1.110   3.645 -1.7078 -0.6768  0.2286
15712SOL     OW53097   8.473   5.490   5.248  0.2220  0.0943  0.3926
15712SOL    HW153098   8.438   5.437   5.176 -1.4157 -0.0351  1.2317
15712SOL    HW253099   8.484   5.429   5.321 -0.9522  0.7270  1.1344
15713SOL     OW53100   7.175   2.699   0.783 -0.1606  1.0112  0.0890
15713SOL    HW153101   7.251   2.643   0.766 -0.6167  0.7928 -1.3848
15713SOL    HW253102   7.132   2.707   0.698 -0.6494  2.8171  0.4597
15714SOL     OW53103   4.086   0.344   5.697 -0.0839  0.3745  0.7054
15714SOL    HW153104   4.081   0.264   5.644  0.6519  0.2944  0.7513
15714SOL    HW253105   4.010   0.338   5.756 -0.8529  0.4181 -0.2581
15715SOL     OW53106   8.392   8.878   5.685  0.1372  0.6696 -0.8188
15715SOL    HW153107   8.324   8.812   5.684  0.5513 -0.0867  2.9644
15715SOL    HW253108   8.346   8.961   5.701 -0.0755  0.2068  1.3871
15716SOL     OW53109   7.733   8.188   9.214  0.3352  0.8419  0.7773
15716SOL    HW153110   7.774   8.160   9.131 -0.1759  1.6955  0.2244
15716SOL    HW253111   7.726   8.107   9.265 -0.4536  0.0549 -0.4986
15717SOL     OW53112   7.691   4.076   7.119 -0.0259 -0.0102 -0.2132
15717SOL    HW153113   7.771   4.042   7.160 -0.1916  0.3010  0.3889
15717SOL    HW253114   7.662   4.145   7.179 -1.2992 -0.7961  0.1001
15718SOL     OW53115   0.537   9.360   2.625  0.0357 -0.2444  0.2050
15718SOL    HW153116   0.445   9.375   2.646 -0.1202 -2.1695  1.1481
15718SOL    HW253117   0.572   9.314   2.701  2.3634  2.2174  0.8061
15719SOL     OW53118   7.344   1.594   5.847  0.0619  0.2391 -0.3065
15719SOL    HW153119   7.399   1.654   5.897  0.5565 -2.5365  2.8433
15719SOL    HW253120   7.274   1.649   5.811  2.9970  3.3817 -1.7771
15720SOL     OW53121   3.583   9.012   2.194 -0.1232  0.1133  0.1865
15720SOL    HW153122   3.527   9.089   2.190 -0.6401 -0.2943 -1.1471
15720SOL    HW253123   3.671   9.046   2.180 -0.4614  0.3780 -1.5832
15721SOL     OW53124   4.177   3.031   8.145  0.3482 -0.8925 -1.1279
15721SOL    HW153125   4.211   2.960   8.199 -2.3338 -0.8246  0.8403
15721SOL    HW253126   4.137   2.987   8.070  1.3643 -1.2050 -1.5037
15722SOL     OW53127   2.422   7.439   5.866 -0.5612  0.7975  0.3362
15722SOL    HW153128   2.511   7.412   5.844 -0.4683  0.1504  1.3958
15722SOL    HW253129   2.395   7.497   5.795 -0.5693 -1.6943 -1.8539
15723SOL     OW53130   4.327   6.351   5.666 -0.3516  0.5044 -0.2151
15723SOL    HW153131   4.304   6.322   5.578 -1.4198  0.1219  0.1651
15723SOL    HW253132   4.248   6.335   5.717  0.5211 -0.0876  1.0027
15724SOL     OW53133   4.855   0.097   5.766  0.3020 -0.5338 -0.5912
15724SOL    HW153134   4.780   0.103   5.826 -0.1315 -0.2267 -1.1635
15724SOL    HW253135   4.832   0.153   5.693 -0.4482 -3.0259 -2.4155
15725SOL     OW53136   5.334   7.687   7.159  0.6099  0.1078  0.1738
15725SOL    HW153137   5.388   7.620   7.118  0.8190 -0.1050  0.7877
15725SOL    HW253138   5.390   7.726   7.226  1.4694  2.7874 -1.8884
15726SOL     OW53139   8.793   4.873   0.763  0.0906 -0.1641  0.1611
15726SOL    HW153140   8.797   4.779   0.746  0.7829 -0.1652  0.2934
15726SOL    HW253141   8.878   4.894   0.804  0.3783  0.7063 -0.8289
15727SOL     OW53142   2.606   0.143   1.640  0.4671  0.3497 -0.1282
15727SOL    HW153143   2.688   0.131   1.593  0.6389 -0.9920  0.4561
15727SOL    HW253144   2.553   0.067   1.615  0.5140 -0.3341  1.6762
15728SOL     OW53145   3.530   0.151   3.343 -0.1449 -0.6478  0.3898
15728SOL    HW153146   3.515   0.071   3.393 -1.3355  0.6375  2.1970
15728SOL    HW253147   3.443   0.182   3.320  0.3369 -1.5139 -3.2172
15729SOL     OW53148   5.906   8.761   7.821  0.5210  0.9816  0.7590
15729SOL    HW153149   5.814   8.742   7.838  0.5782  1.9452  2.3522
15729SOL    HW253150   5.904   8.834   7.759  0.2803 -0.4465 -1.0125
15730SOL     OW53151   6.983   8.780   0.236  0.2428  0.0416 -0.3590
15730SOL    HW153152   6.946   8.854   0.285  0.4186 -1.4191  2.1670
15730SOL    HW253153   6.924   8.708   0.254  1.4059 -1.0356 -0.7414
15731SOL     OW53154   6.952   1.269   3.217  0.2000 -0.0657 -0.2456
15731SOL    HW153155   6.972   1.266   3.310  1.6075  0.8851 -0.4856
15731SOL    HW253156   6.902   1.189   3.200 -0.1128 -0.2251  1.3160
15732SOL     OW53157   5.065   0.851   2.007  0.4471 -0.2483 -0.0271
15732SOL    HW153158   4.994   0.895   2.054  1.0345  2.0783 -1.1822
15732SOL    HW253159   5.021   0.795   1.944 -0.4114  1.0704 -0.6454
15733SOL     OW53160   8.386   6.071   6.575 -0.2954 -0.3216 -0.3191
15733SOL    HW153161   8.436   6.044   6.497  0.6481  0.8398 -0.1601
15733SOL    HW253162   8.453   6.099   6.638 -1.0408 -1.3578  0.9756
15734SOL     OW53163   0.512   6.485   8.821 -0.9904  0.1957  0.0390
15734SOL    HW153164   0.448   6.540   8.777 -0.7182 -0.3183 -1.0437
15734SOL    HW253165   0.588   6.543   8.833 -1.1495  0.4075  0.0364
15735SOL     OW53166   4.788   4.799   1.320 -0.1068  0.3141  0.0968
15735SOL    HW153167   4.791   4.820   1.227 -0.1801  0.9001  0.2261
15735SOL    HW253168   4.858   4.735   1.332 -0.4774 -0.2161 -0.4682
15736SOL     OW53169   3.777   2.680   3.022  0.0710 -0.6472 -0.0746
15736SOL    HW153170   3.695   2.650   3.061  0.3684 -1.2848  0.0726
15736SOL    HW253171   3.832   2.703   3.098 -0.5370  1.3840 -0.1857
15737SOL     OW53172   8.055   4.915   9.192 -0.4140  0.0071 -0.2004
15737SOL    HW153173   7.971   4.871   9.206 -1.1047  1.3494  0.1005
15737SOL    HW253174   8.040   4.973   9.118  0.4939 -0.2947 -0.6407
15738SOL     OW53175   5.842   0.136   2.504  0.4837 -0.3506  0.5087
15738SOL    HW153176   5.879   0.106   2.587 -0.1615 -0.3957  0.7861
15738SOL    HW253177   5.834   0.056   2.451 -0.0457 -0.4889  0.7827
15739SOL     OW53178   1.822   3.751   9.142  0.0955 -0.3144  0.1487
15739SOL    HW153179   1.878   3.715   9.074  0.2139  1.7621 -0.9358
15739SOL    HW253180   1.838   3.845   9.139  1.7903 -0.2040  4.5583
15740SOL     OW53181   1.421   4.035   5.781  0.2622 -0.2092  0.1053
15740SOL    HW153182   1.472   4.099   5.732  0.9070  1.1958  2.4665
15740SOL    HW253183   1.482   3.963   5.797 -0.1855 -1.0602 -1.7269
15741SOL     OW53184   4.788   6.952   7.307 -0.8754  0.4220  0.1382
15741SOL    HW153185   4.859   7.015   7.315 -1.0823  0.9993 -1.8915
15741SOL    HW253186   4.754   6.941   7.396  0.5915  1.4735  0.8604
15742SOL     OW53187   2.824   5.350   5.219  0.5469  0.1459 -0.1663
15742SOL    HW153188   2.769   5.289   5.169  0.4092  1.5969 -1.8579
15742SOL    HW253189   2.888   5.381   5.156  0.3498  2.0857  0.5434
15743SOL     OW53190   4.882   3.596   8.786 -0.2818  0.1370 -1.0450
15743SOL    HW153191   4.956   3.601   8.726  2.7289  1.1281  2.3836
15743SOL    HW253192   4.875   3.684   8.823 -2.5703 -0.2008 -0.4968
15744SOL     OW53193   1.128   8.797   3.388 -0.0648  0.4268  0.1955
15744SOL    HW153194   1.120   8.745   3.308 -1.2472 -2.2833  1.9065
15744SOL    HW253195   1.205   8.762   3.432 -0.8661  0.0837  1.3796
15745SOL     OW53196   7.577   2.104   0.250  0.1501 -0.6169  0.3028
15745SOL    HW153197   7.566   2.173   0.185 -0.3583 -0.7741  0.2142
15745SOL    HW253198   7.629   2.037   0.205  1.1832 -0.0363  0.5923
15746SOL     OW53199   2.560   6.298   0.733  0.4215 -0.6312  0.1091
15746SOL    HW153200   2.613   6.360   0.681 -0.9532 -0.2941 -0.9429
15746SOL    HW253201   2.529   6.234   0.669 -1.1244 -0.3403  0.5458
15747SOL     OW53202   4.663   8.283   2.126  0.3658 -0.4388 -0.1456
15747SOL    HW153203   4.584   8.234   2.149 -0.5551  1.2679  0.5215
15747SOL    HW253204   4.729   8.215   2.107 -0.4101 -1.9561  2.1090
15748SOL     OW53205   1.510   2.924   8.317  0.3143 -0.5450  0.3802
15748SOL    HW153206   1.536   3.014   8.333 -0.4843 -0.2575  0.0972
15748SOL    HW253207   1.580   2.871   8.355  1.3680  0.2011 -0.4620
15749SOL     OW53208   1.874   4.709   3.332 -0.0462 -0.1577  0.2981
15749SOL    HW153209   1.860   4.757   3.413 -0.9677  0.8132 -0.4129
15749SOL    HW253210   1.970   4.708   3.321  0.0235  0.8231  0.7437
15750SOL     OW53211   5.471   4.150   1.804  0.3058  0.3826  0.3499
15750SOL    HW153212   5.464   4.186   1.892 -0.9726  0.4403  0.2329
15750SOL    HW253213   5.404   4.082   1.800  1.0166 -0.3045 -0.2645
15751SOL     OW53214   7.316   5.899   3.990  0.0035 -0.1502  0.1166
15751SOL    HW153215   7.353   5.816   4.020 -0.6855 -0.2316  0.7696
15751SOL    HW253216   7.223   5.879   3.973  0.2602 -0.0081 -1.6953
15752SOL     OW53217   6.126   6.868   0.420 -0.4092  0.7360 -0.0035
15752SOL    HW153218   6.171   6.784   0.419  0.0843  0.9902 -0.7749
15752SOL    HW253219   6.033   6.846   0.425 -0.3111  0.1223 -0.6336
15753SOL     OW53220   6.567   2.843   4.738 -0.1684 -0.3247  0.5749
15753SOL    HW153221   6.550   2.928   4.778 -0.2831 -0.1145  0.0811
15753SOL    HW253222   6.532   2.850   4.650  1.4628 -0.2508 -0.1150
15754SOL     OW53223   3.762   1.987   8.729 -0.5132 -0.0364  0.1334
15754SOL    HW153224   3.775   1.971   8.823 -0.1141  1.1047  0.2833
15754SOL    HW253225   3.841   2.033   8.702 -0.9872  0.3467 -0.5958
15755SOL     OW53226   1.860   5.807   6.538  0.4163 -0.5313 -0.0035
15755SOL    HW153227   1.939   5.832   6.585 -0.0850 -0.9400  1.0907
15755SOL    HW253228   1.813   5.890   6.525 -0.0947 -0.5670  1.4651
15756SOL     OW53229   6.875   3.551   9.103  0.4700  0.0480 -0.0068
15756SOL    HW153230   6.791   3.504   9.106 -0.0728  0.9483 -0.7715
15756SOL    HW253231   6.940   3.482   9.088 -0.2111 -0.5815 -0.1376
15757SOL     OW53232   5.558   2.196   4.772 -0.1331 -0.6601 -0.3016
15757SOL    HW153233   5.546   2.102   4.763 -0.1299 -0.6261 -0.6843
15757SOL    HW253234   5.564   2.228   4.682 -2.1944 -0.0235 -0.2755
15758SOL     OW53235   9.108   7.038   5.345 -0.0377 -0.2360 -0.2389
15758SOL    HW153236   9.135   7.076   5.261  0.3979 -3.8684 -1.9645
15758SOL    HW253237   9.190   7.015   5.388 -0.2842  0.6817  0.7521
15759SOL     OW53238   3.815   5.784   3.021  0.3468 -0.6680  0.5612
15759SOL    HW153239   3.882   5.828   3.073  1.9776 -1.6668 -0.5818
15759SOL    HW253240   3.791   5.848   2.954  2.9336 -1.4748 -1.2908
15760SOL     OW53241   1.070   0.759   2.383  0.1270  0.2064  0.0294
15760SOL    HW153242   1.081   0.845   2.425  0.2977  0.1912  0.0168
15760SOL    HW253243   1.101   0.772   2.294  0.7563 -0.0310  0.2075
15761SOL     OW53244   5.053   2.925   4.402 -0.6785  0.2926 -0.2416
15761SOL    HW153245   5.118   2.870   4.445  0.4548  0.9231 -1.0779
15761SOL    HW253246   5.105   2.989   4.352 -1.9326  0.3619 -1.5305
15762SOL     OW53247   9.016   8.992   8.341 -0.3482  0.0028 -0.8996
15762SOL    HW153248   8.950   8.935   8.381 -1.2524 -0.7234 -3.2665
15762SOL    HW253249   9.085   8.932   8.312  0.0756  0.4618 -0.8489
15763SOL     OW53250   7.573   5.919   1.876  0.0934  0.2842 -0.2063
15763SOL    HW153251   7.530   5.833   1.877  0.9089 -0.3456 -3.5828
15763SOL    HW253252   7.640   5.913   1.944  0.3655 -1.9572 -0.5706
15764SOL     OW53253   7.206   6.165   3.736 -0.0065  0.2744  0.0690
15764SOL    HW153254   7.147   6.189   3.664 -0.5152  0.4397  0.5376
15764SOL    HW253255   7.148   6.149   3.810  0.5439  0.5221  0.5589
15765SOL     OW53256   6.823   6.494   1.348  0.0517 -0.4022 -0.3443
15765SOL    HW153257   6.738   6.514   1.310 -1.1349 -1.6083  1.5322
15765SOL    HW253258   6.886   6.536   1.289 -1.9013  3.4512 -0.0219
15766SOL     OW53259   7.108   2.969   4.230 -0.3216  0.0871 -0.0283
15766SOL    HW153260   7.076   2.885   4.199  0.2779  0.2054 -0.9795
15766SOL    HW253261   7.180   2.991   4.172 -1.6496  2.1497 -1.0178
15767SOL     OW53262   0.496   2.911   8.823  0.0848 -0.3554  0.0925
15767SOL    HW153263   0.542   2.938   8.902  1.1169  0.0680 -0.6243
15767SOL    HW253264   0.508   2.816   8.819  1.0135 -0.2349 -0.1460
15768SOL     OW53265   2.045   8.134   8.090 -0.2585 -0.4120  0.3828
15768SOL    HW153266   2.007   8.098   8.170  0.1589 -0.7594  0.4233
15768SOL    HW253267   1.971   8.138   8.028 -0.5105 -0.4404  0.6813
15769SOL     OW53268   4.901   3.418   1.039 -0.1380 -0.0953  0.7698
15769SOL    HW153269   4.916   3.420   0.944 -0.4286  1.3490  0.7361
15769SOL    HW253270   4.988   3.435   1.077 -0.2550  0.5791  0.7361
15770SOL     OW53271   7.935   3.688   5.410 -0.1902  0.2591  0.2447
15770SOL    HW153272   7.910   3.776   5.381 -2.6278  0.0477  1.3756
15770SOL    HW253273   7.874   3.630   5.365  0.5574 -0.7260  0.4778
15771SOL     OW53274   4.240   2.736   4.977  0.1473 -0.4298 -0.2434
15771SOL    HW153275   4.296   2.659   4.993  0.9381  0.4354  1.5075
15771SOL    HW253276   4.300   2.802   4.944 -0.4461 -0.3836 -1.2766
15772SOL     OW53277   2.663   0.645   7.893 -0.1004 -0.7408 -0.1631
15772SOL    HW153278   2.746   0.661   7.847 -0.3723 -1.4730 -0.9450
15772SOL    HW253279   2.627   0.732   7.908  0.4155 -0.4488 -0.5679
15773SOL     OW53280   0.750   6.755   4.411  0.2855  0.5099  0.0051
15773SOL    HW153281   0.685   6.825   4.409  1.9715  2.1730 -1.7302
15773SOL    HW253282   0.759   6.729   4.319  3.4035  1.7872 -0.1847
15774SOL     OW53283   2.982   2.800   6.693 -0.2714  0.3795 -0.2431
15774SOL    HW153284   2.997   2.859   6.767 -0.4490  0.5727 -0.3569
15774SOL    HW253285   3.055   2.818   6.633 -0.2789  0.4236 -0.2394
15775SOL     OW53286   7.951   4.771   7.658  0.2297  0.0650 -0.2580
15775SOL    HW153287   7.955   4.729   7.744  1.2643 -0.0177 -0.3389
15775SOL    HW253288   8.015   4.723   7.605 -0.4287  0.0860 -1.0915
15776SOL     OW53289   5.087   4.386   5.002 -0.3844  0.2035 -0.5238
15776SOL    HW153290   5.157   4.432   5.049 -1.3215  2.0882 -0.8814
15776SOL    HW253291   5.056   4.320   5.064  0.7582  0.2790  0.1643
15777SOL     OW53292   7.780   5.507   5.992  1.2269  0.5522 -0.2860
15777SOL    HW153293   7.865   5.521   5.950  1.4453  0.0616 -0.0240
15777SOL    HW253294   7.717   5.509   5.921  1.5947 -0.3132 -0.6480
15778SOL     OW53295   1.015   6.730   1.247  0.3347  0.3516 -0.1540
15778SOL    HW153296   1.069   6.723   1.168  0.1792  0.3977 -0.2652
15778SOL    HW253297   0.926   6.738   1.214  0.2019 -0.2935  0.0382
15779SOL     OW53298   4.095   0.437   6.834  0.7596 -0.4764  0.0730
15779SOL    HW153299   4.038   0.404   6.903  0.9496  0.0061  0.4625
15779SOL    HW253300   4.140   0.359   6.801 -0.5618 -0.9573 -0.6617
15780SOL     OW53301   7.863   7.040   2.346  0.3747 -0.6820  0.0328
15780SOL    HW153302   7.793   7.034   2.411  1.5374  3.3005  1.9795
15780SOL    HW253303   7.834   7.108   2.285  1.1801 -1.3066 -1.0982
15781SOL     OW53304   5.297   4.457   5.144 -0.2085  0.7481 -0.5360
15781SOL    HW153305   5.274   4.402   5.218 -1.9842  1.1024 -0.7661
15781SOL    HW253306   5.336   4.535   5.182 -2.1379  1.4347  0.1660
15782SOL     OW53307   6.802   7.085   5.436 -0.6341 -0.4017 -0.3402
15782SOL    HW153308   6.848   7.024   5.494 -1.2923 -0.3307  0.2697
15782SOL    HW253309   6.848   7.079   5.353 -0.2446 -1.1936 -0.0711
15783SOL     OW53310   0.319   5.565   6.969  0.6521 -0.0293 -0.3371
15783SOL    HW153311   0.263   5.533   6.898 -1.5298  1.4657  0.5997
15783SOL    HW253312   0.259   5.577   7.043  2.2219  1.6537  0.7389
15784SOL     OW53313   8.668   2.131   7.271 -0.7187  0.4915  0.2895
15784SOL    HW153314   8.720   2.124   7.191  0.0374  0.6056  0.7563
15784SOL    HW253315   8.643   2.041   7.292  0.4079  0.2643  0.7605
15785SOL     OW53316   9.183   4.220   5.572 -0.0782 -0.3937 -0.1228
15785SOL    HW153317   9.187   4.315   5.566 -3.1177 -0.1964 -0.7020
15785SOL    HW253318   9.207   4.200   5.662  1.4216  0.8062 -0.2266
15786SOL     OW53319   3.072   7.496   0.777 -0.2356 -0.1375 -0.2088
15786SOL    HW153320   3.063   7.416   0.829 -0.0899  0.6017  0.9809
15786SOL    HW253321   2.989   7.504   0.731 -0.4144 -0.7301 -0.0035
15787SOL     OW53322   4.731   5.431   5.793 -0.9271  0.2725  0.1622
15787SOL    HW153323   4.659   5.375   5.764 -0.5481 -0.0217 -0.2153
15787SOL    HW253324   4.794   5.429   5.721  0.5973 -1.4595  1.4530
15788SOL     OW53325   8.868   0.643   5.101  0.5472 -0.5063  0.0263
15788SOL    HW153326   8.874   0.709   5.032  0.0878  0.7549  1.1522
15788SOL    HW253327   8.936   0.579   5.079  0.7307  0.1108 -1.3143
15789SOL     OW53328   4.175   6.356   8.221  0.3109  0.3728  0.8728
15789SOL    HW153329   4.269   6.339   8.212  0.2832 -0.2046  1.6148
15789SOL    HW253330   4.164   6.446   8.190  0.6221 -0.5171 -2.1684
15790SOL     OW53331   4.101   3.593   2.892  0.2499 -0.0016 -0.1682
15790SOL    HW153332   4.104   3.636   2.807  0.4846 -0.9534 -0.6597
15790SOL    HW253333   4.016   3.619   2.929  1.1143  2.2829  0.3461
15791SOL     OW53334   3.174   1.239   3.822 -0.1686 -0.0226 -0.0212
15791SOL    HW153335   3.117   1.193   3.883  0.9743 -1.2175  0.1680
15791SOL    HW253336   3.254   1.257   3.871  0.2396  0.2265 -0.7594
15792SOL     OW53337   8.977   8.514   6.094  0.0792  0.0366 -0.1913
15792SOL    HW153338   8.943   8.441   6.146 -1.0040  0.8169  0.2468
15792SOL    HW253339   9.070   8.496   6.084  0.0189 -0.8828  0.7729
15793SOL     OW53340   4.031   5.962   6.172  0.9929  0.3014  0.1056
15793SOL    HW153341   4.112   5.990   6.131  0.0355 -0.3977 -2.4795
15793SOL    HW253342   3.979   6.043   6.180  1.1769  0.4457 -0.1447
15794SOL     OW53343   9.201   2.859   5.998 -0.6750 -0.3493 -0.1699
15794SOL    HW153344   9.241   2.922   6.057 -1.7828 -0.8289  1.1467
15794SOL    HW253345   9.115   2.840   6.037 -0.5491 -2.3471 -0.7402
15795SOL     OW53346   8.277   1.039   7.454  0.5984 -0.4395  0.1515
15795SOL    HW153347   8.212   0.974   7.429  0.5222 -0.3944  0.2298
15795SOL    HW253348   8.287   1.094   7.376  0.5199 -0.4289  0.1483
15796SOL     OW53349   6.377   1.748   3.570  0.2398 -0.5161 -0.0108
15796SOL    HW153350   6.446   1.709   3.625  0.8591 -0.1416 -0.5097
15796SOL    HW253351   6.365   1.685   3.499 -0.0475 -0.6501  0.1511
15797SOL     OW53352   7.096   4.653   4.224  0.3202  0.1095  0.2889
15797SOL    HW153353   7.117   4.682   4.136 -1.1709 -0.5389 -0.3184
15797SOL    HW253354   7.006   4.685   4.239  0.3050 -0.3673  1.3064
15798SOL     OW53355   4.541   4.043   7.320 -0.2186  0.1494  0.4331
15798SOL    HW153356   4.544   4.036   7.225 -0.9700 -1.6770  0.5103
15798SOL    HW253357   4.623   4.003   7.350 -0.9432 -1.2470  0.6077
15799SOL     OW53358   2.205   3.367   0.925  0.5971  0.3060  0.5558
15799SOL    HW153359   2.135   3.378   0.861  2.1013  1.9974 -0.9277
15799SOL    HW253360   2.267   3.308   0.883  1.0391  0.4696  0.9712
15800SOL     OW53361   3.921   8.156   2.793 -0.2168  0.1831  0.9040
15800SOL    HW153362   3.849   8.092   2.794 -1.5144  1.4604 -1.2293
15800SOL    HW253363   3.913   8.198   2.707  2.2087  1.4114  1.2076
15801SOL     OW53364   5.429   1.314   3.915  0.9674 -0.1728  0.0462
15801SOL    HW153365   5.513   1.334   3.875  0.4058  2.1079 -0.1118
15801SOL    HW253366   5.400   1.397   3.954 -1.6521 -0.6247 -0.7711
15802SOL     OW53367   2.229   6.611   8.166  0.0702 -0.3388  0.3119
15802SOL    HW153368   2.190   6.691   8.130  0.4319  0.2198  1.1304
15802SOL    HW253369   2.179   6.540   8.126  0.1749  0.2603 -0.9462
15803SOL     OW53370   0.841   3.592   7.336 -0.1712  0.1207 -0.3772
15803SOL    HW153371   0.750   3.613   7.317 -0.7885 -0.9262  1.2308
15803SOL    HW253372   0.843   3.571   7.429  1.5142 -0.8636 -0.5748
15804SOL     OW53373   1.533   7.119   3.574 -0.1113 -0.1422 -0.6988
15804SOL    HW153374   1.608   7.083   3.527  1.4790  1.4704  0.4690
15804SOL    HW253375   1.517   7.203   3.532 -0.6230 -0.0338 -0.2918
15805SOL     OW53376   2.328   7.824   1.148 -0.7078  0.1969 -0.0078
15805SOL    HW153377   2.285   7.748   1.189 -1.1186  0.1512 -0.5147
15805SOL    HW253378   2.267   7.852   1.081  0.0320  0.1725 -0.7023
15806SOL     OW53379   5.701   5.630   2.084 -0.2357 -0.8537 -0.0752
15806SOL    HW153380   5.627   5.690   2.083  0.2061 -0.3132 -0.2084
15806SOL    HW253381   5.661   5.543   2.092 -0.9149 -0.6280 -0.9589
15807SOL     OW53382   2.697   7.090   5.607  0.5359 -0.1086  0.2081
15807SOL    HW153383   2.760   7.133   5.665 -1.2354  1.5399  1.0366
15807SOL    HW253384   2.750   7.030   5.555  2.6089  0.3545  1.6272
15808SOL     OW53385   6.200   5.262   1.646 -0.3346 -0.0491  0.0962
15808SOL    HW153386   6.106   5.268   1.628 -0.2756  0.4702 -0.0524
15808SOL    HW253387   6.215   5.327   1.715 -0.1854 -0.5473  0.5435
15809SOL     OW53388   2.277   0.749   4.731 -0.4853 -0.0293 -0.4952
15809SOL    HW153389   2.211   0.700   4.779 -1.8587  2.0986 -0.0545
15809SOL    HW253390   2.261   0.840   4.755  0.6237  0.8466 -2.7919
15810SOL     OW53391   1.988   3.597   0.268  0.2061 -0.2526 -0.0573
15810SOL    HW153392   1.985   3.624   0.176 -0.8682 -1.6052 -0.4590
15810SOL    HW253393   1.901   3.616   0.302  0.7580  0.7226  0.8507
15811SOL     OW53394   1.827   4.091   6.782 -0.1651  0.0370 -0.3631
15811SOL    HW153395   1.790   4.164   6.832 -0.2053  0.4608 -0.9953
15811SOL    HW253396   1.788   4.099   6.695 -0.4515 -0.9621 -0.3361
15812SOL     OW53397   0.330   7.083   0.847 -0.1114  0.4808  0.0072
15812SOL    HW153398   0.318   7.005   0.793 -2.9771  1.6316 -1.1988
15812SOL    HW253399   0.383   7.142   0.794 -0.8291  0.6556 -0.5200
15813SOL     OW53400   7.750   4.126   5.539 -0.1432  0.1632  0.1366
15813SOL    HW153401   7.728   4.163   5.624 -0.3850  0.4129 -0.0316
15813SOL    HW253402   7.675   4.147   5.483  0.0764  0.1309 -0.1770
15814SOL     OW53403   1.639   7.885   6.340  0.0612 -0.2960 -0.3416
15814SOL    HW153404   1.709   7.858   6.281 -0.6987 -2.2710 -0.4063
15814SOL    HW253405   1.576   7.813   6.337 -0.9970  0.5084  1.2716
15815SOL     OW53406   7.753   5.430   0.336  0.4174  0.2680  0.0120
15815SOL    HW153407   7.738   5.395   0.248 -2.2000  0.3136  0.3675
15815SOL    HW253408   7.805   5.509   0.321 -0.5509  0.6551 -1.5989
15816SOL     OW53409   7.070   6.083   0.113  0.2888  0.0458  0.1315
15816SOL    HW153410   7.063   6.009   0.052 -1.6456  0.8332 -0.6687
15816SOL    HW253411   7.055   6.043   0.199 -0.2647 -0.5684 -0.2396
15817SOL     OW53412   6.894   9.173   8.158  0.0116 -0.2552 -0.5470
15817SOL    HW153413   6.836   9.227   8.103  0.0380 -1.2456 -1.5804
15817SOL    HW253414   6.863   9.189   8.248 -1.5365 -0.3690 -1.0340
15818SOL     OW53415   8.533   5.001   5.819  0.5319  0.1571  0.1806
15818SOL    HW153416   8.564   5.077   5.868  1.3341 -0.7985  1.2133
15818SOL    HW253417   8.438   5.008   5.819  0.6179  1.6274 -0.5305
15819SOL     OW53418   8.844   0.318   3.811  0.3063 -0.2017  0.2270
15819SOL    HW153419   8.766   0.326   3.866  0.5938 -0.2220  0.6410
15819SOL    HW253420   8.849   0.226   3.788  1.1152 -0.5136  1.5546
15820SOL     OW53421   0.683   3.194   5.142  0.2747  0.1256  0.1585
15820SOL    HW153422   0.616   3.241   5.094 -0.2013  0.8032  1.4476
15820SOL    HW253423   0.643   3.110   5.165  0.1711  0.1868  0.1989
15821SOL     OW53424   7.654   8.636   4.710  0.1080 -0.1154 -0.1639
15821SOL    HW153425   7.576   8.589   4.739  0.3882 -0.9545 -0.7275
15821SOL    HW253426   7.623   8.722   4.683 -0.3095  0.3109  1.5961
15822SOL     OW53427   1.380   5.477   2.469  0.1264  0.0083 -0.3005
15822SOL    HW153428   1.451   5.418   2.443 -0.0017 -0.1196 -0.3619
15822SOL    HW253429   1.424   5.555   2.503  0.3526  0.9567 -2.5865
15823SOL     OW53430   8.085   3.659   2.778  0.0108  0.1255  0.0713
15823SOL    HW153431   8.151   3.629   2.715 -1.5165 -1.3427 -0.8983
15823SOL    HW253432   8.133   3.721   2.833  1.3228  1.9682 -2.8406
15824SOL     OW53433   8.336   2.413   7.590  0.6397 -0.6114  0.1565
15824SOL    HW153434   8.313   2.433   7.499 -0.4552 -1.1229  0.2958
15824SOL    HW253435   8.298   2.486   7.641 -0.3430 -1.2339  0.3493
15825SOL     OW53436   5.432   7.759   3.186 -0.0011  0.2023  0.7619
15825SOL    HW153437   5.480   7.842   3.178 -0.6575  0.7736  2.4468
15825SOL    HW253438   5.407   7.754   3.278 -2.8770 -0.2329  0.0518
15826SOL     OW53439   3.016   1.541   5.225  0.3111 -0.4096 -0.5261
15826SOL    HW153440   2.946   1.600   5.197  1.4894  1.2713 -0.0930
15826SOL    HW253441   2.993   1.517   5.315 -0.4494 -1.0774 -0.8864
15827SOL     OW53442   4.853   1.493   1.303  0.1727  0.2631 -0.2257
15827SOL    HW153443   4.813   1.500   1.389  0.7607 -1.3158  0.2154
15827SOL    HW253444   4.929   1.551   1.307  1.6336 -1.6170  1.2344
15828SOL     OW53445   0.122   3.760   3.800 -0.3702 -0.0543  0.1928
15828SOL    HW153446   0.088   3.700   3.734 -0.3203  0.3683 -0.2267
15828SOL    HW253447   0.059   3.832   3.801 -0.0281  0.2478  0.1475
15829SOL     OW53448   2.758   8.086   5.983 -0.1198 -0.4868 -0.4789
15829SOL    HW153449   2.683   8.145   5.984 -0.8852 -1.4288 -0.4915
15829SOL    HW253450   2.819   8.123   6.048  0.6361  1.7687 -2.3433
15830SOL     OW53451   7.203   0.823   2.703  0.1790  0.4659  0.0532
15830SOL    HW153452   7.122   0.799   2.748  0.1133  1.9003  0.7453
15830SOL    HW253453   7.177   0.834   2.611  0.1726 -1.7564 -0.2740
15831SOL     OW53454   0.692   2.639   6.708  0.1026  0.5697 -0.2645
15831SOL    HW153455   0.776   2.631   6.662  0.7243  1.8544  0.5999
15831SOL    HW253456   0.679   2.553   6.748  1.2043  0.4542 -0.1042
15832SOL     OW53457   3.356   5.196   1.783 -0.0295  0.5358 -0.4061
15832SOL    HW153458   3.408   5.158   1.855  0.4036 -1.8925 -1.8593
15832SOL    HW253459   3.386   5.287   1.778  0.2880  0.6626  2.1125
15833SOL     OW53460   8.971   6.935   3.728  0.0079 -0.4625 -0.6314
15833SOL    HW153461   8.927   6.971   3.651  1.1127  0.5084 -0.8362
15833SOL    HW253462   8.974   7.007   3.791 -1.5542 -1.4439  0.6759
15834SOL     OW53463   4.090   7.635   3.028 -0.5560 -0.5722  0.0059
15834SOL    HW153464   4.015   7.581   3.051 -0.0500 -1.1582  0.3345
15834SOL    HW253465   4.065   7.724   3.051 -1.7879 -0.4986 -1.4806
15835SOL     OW53466   5.096   3.097   4.627  0.1467 -0.2310 -0.7481
15835SOL    HW153467   5.062   3.065   4.544  1.0229 -0.6724 -0.9429
15835SOL    HW253468   5.101   3.020   4.684 -0.7227  0.1166 -0.1827
15836SOL     OW53469   5.341   6.525   4.469  0.3069 -0.0263  0.2691
15836SOL    HW153470   5.414   6.486   4.421 -0.6031 -0.1539 -1.0405
15836SOL    HW253471   5.280   6.453   4.484 -0.7323  0.5712 -0.9204
15837SOL     OW53472   7.797   7.090   6.904 -0.3138 -0.0653 -0.5398
15837SOL    HW153473   7.735   7.057   6.969  0.6891 -0.6997  0.1124
15837SOL    HW253474   7.882   7.058   6.933  0.6414  2.5300 -0.2567
15838SOL     OW53475   2.202   3.235   0.062  0.1042 -0.2725  0.5088
15838SOL    HW153476   2.235   3.312   0.016 -0.4635  0.2932  1.0383
15838SOL    HW253477   2.151   3.270   0.135 -0.7405 -1.1406  0.3560
15839SOL     OW53478   0.502   2.805   2.086 -0.4073 -0.0922 -0.2744
15839SOL    HW153479   0.514   2.838   2.175  0.5424  1.1440 -0.8251
15839SOL    HW253480   0.518   2.881   2.030 -1.6633 -0.6813 -1.4923
15840SOL     OW53481   4.017   6.161   5.915  0.1129 -0.0577 -0.0901
15840SOL    HW153482   4.037   6.250   5.887  0.6683 -0.2422 -0.2907
15840SOL    HW253483   4.097   6.130   5.956 -0.1635 -0.3753  0.2192
15841SOL     OW53484   8.633   8.451   7.687 -1.0268  0.4269  0.3433
15841SOL    HW153485   8.632   8.435   7.593  0.3102  2.0215  0.0154
15841SOL    HW253486   8.591   8.537   7.698  1.8799  1.9021  0.7612
15842SOL     OW53487   3.496   7.549   3.459  0.1913 -0.0489  0.3991
15842SOL    HW153488   3.582   7.518   3.488  0.5582  0.0546 -0.5250
15842SOL    HW253489   3.454   7.471   3.422  0.0396 -0.0223  0.5176
15843SOL     OW53490   7.557   5.613   1.106  0.7565 -0.3978 -0.0519
15843SOL    HW153491   7.626   5.635   1.043 -0.8042 -0.4340 -1.8772
15843SOL    HW253492   7.553   5.517   1.103  0.5777 -0.3905 -0.0184
15844SOL     OW53493   0.479   2.602   0.423 -0.4113 -0.2819 -0.2575
15844SOL    HW153494   0.485   2.592   0.518 -0.4212  0.2095 -0.2035
15844SOL    HW253495   0.548   2.546   0.388  0.1030  0.1463  0.0742
15845SOL     OW53496   1.972   8.881   6.979 -0.1422 -0.0710 -0.0553
15845SOL    HW153497   1.955   8.926   7.062 -0.2473  0.2347 -0.2418
15845SOL    HW253498   1.915   8.925   6.916 -1.8075 -1.7895  0.1583
15846SOL     OW53499   3.949   4.208   4.877 -0.0746  0.1843  0.0644
15846SOL    HW153500   4.028   4.258   4.859  0.6042 -1.0048 -0.3654
15846SOL    HW253501   3.879   4.273   4.878  0.7225  1.0940 -0.9003
15847SOL     OW53502   4.051   9.208   6.299  0.3290  0.2467  0.2697
15847SOL    HW153503   4.082   9.128   6.256 -2.0573 -0.0835 -1.0120
15847SOL    HW253504   4.003   9.177   6.376 -2.5828  0.1151 -1.4320
15848SOL     OW53505   5.073   5.882   1.054 -0.4830  0.1573  0.0320
15848SOL    HW153506   5.054   5.823   1.127 -1.4809  0.6161  0.1607
15848SOL    HW253507   5.168   5.895   1.057 -0.4508 -0.2193  0.9403
15849SOL     OW53508   8.533   8.142   1.048 -0.0077 -0.3027 -0.2559
15849SOL    HW153509   8.521   8.237   1.050  0.0380 -0.2902 -0.4730
15849SOL    HW253510   8.447   8.107   1.025  0.0139 -0.3042 -0.3343
15850SOL     OW53511   8.751   7.171   4.630  0.2567 -0.2286  0.0339
15850SOL    HW153512   8.826   7.186   4.573 -0.9410  0.5506 -1.4014
15850SOL    HW253513   8.708   7.256   4.637 -0.9291 -0.8146  0.1684
15851SOL     OW53514   9.082   8.688   6.287 -0.2063 -0.5629 -0.2598
15851SOL    HW153515   9.038   8.652   6.210 -0.9564 -1.1587  0.4236
15851SOL    HW253516   9.011   8.705   6.350  0.4460 -0.6435  0.5168
15852SOL     OW53517   3.785   8.987   3.280  0.1624 -0.6064  0.2925
15852SOL    HW153518   3.725   8.919   3.309 -0.7440 -0.1295 -0.3877
15852SOL    HW253519   3.830   8.949   3.204 -1.3167 -0.0204 -0.9307
15853SOL     OW53520   8.124   5.761   4.387 -0.1405  0.1756  0.3390
15853SOL    HW153521   8.166   5.743   4.302 -1.0230 -0.2720 -0.0083
15853SOL    HW253522   8.126   5.677   4.433  0.7734  0.5263  0.9746
15854SOL     OW53523   8.352   9.104   7.286  0.2838  0.0136 -0.1478
15854SOL    HW153524   8.335   9.033   7.348 -0.2706  1.8527  1.9406
15854SOL    HW253525   8.270   9.114   7.238 -0.8080  1.2893  1.8427
15855SOL     OW53526   5.361   6.524   6.807 -0.2949  0.4597 -0.0513
15855SOL    HW153527   5.448   6.484   6.815 -0.0404  1.0078 -0.0773
15855SOL    HW253528   5.300   6.454   6.834  0.1717  0.1875  0.3164
15856SOL     OW53529   4.986   4.077   8.972 -0.0535 -0.4117  0.2083
15856SOL    HW153530   5.008   4.116   8.887  0.0658 -1.2274 -0.1404
15856SOL    HW253531   5.062   4.096   9.027  1.0499 -2.1557 -0.6393
15857SOL     OW53532   1.584   5.245   5.848  0.2683  0.3432 -0.2770
15857SOL    HW153533   1.574   5.263   5.941  1.8076  0.5340 -0.1191
15857SOL    HW253534   1.614   5.154   5.844 -0.7240  0.0146 -0.6624
15858SOL     OW53535   1.698   5.019   8.382 -0.1745  0.3768  0.7045
15858SOL    HW153536   1.639   4.990   8.453 -1.9046  0.8104 -0.4888
15858SOL    HW253537   1.756   4.944   8.368  0.4377  0.3930  2.7682
15859SOL     OW53538   6.531   9.111   4.415 -0.3005  0.4124 -0.3598
15859SOL    HW153539   6.435   9.108   4.419 -0.3729  2.1440 -0.0076
15859SOL    HW253540   6.551   9.137   4.326 -0.0839 -1.0728 -0.7722
15860SOL     OW53541   6.916   4.185   1.916  0.0292  0.2132 -0.5017
15860SOL    HW153542   6.964   4.257   1.957  1.7023 -1.0675 -0.1063
15860SOL    HW253543   6.831   4.186   1.960  0.7267  0.7204  0.9158
15861SOL     OW53544   8.056   0.471   5.232  0.4370 -0.1875 -0.1398
15861SOL    HW153545   8.036   0.394   5.180  2.5368 -1.0320  0.1933
15861SOL    HW253546   7.988   0.473   5.299  0.3968 -1.8116 -0.0962
15862SOL     OW53547   7.755   3.328   4.845  0.1268  0.1106 -0.5537
15862SOL    HW153548   7.789   3.260   4.787 -0.1523 -1.7199  1.3220
15862SOL    HW253549   7.769   3.294   4.933 -0.9392  2.0603  0.4367
15863SOL     OW53550   6.366   1.136   8.501 -0.6627 -0.2268  0.2111
15863SOL    HW153551   6.333   1.161   8.587 -2.0118 -0.9935 -0.0629
15863SOL    HW253552   6.441   1.194   8.487  0.4115 -0.9353  2.4454
15864SOL     OW53553   1.547   6.538   2.186 -0.4744 -0.1929  0.2054
15864SOL    HW153554   1.576   6.622   2.221 -1.1206  0.3593 -0.5461
15864SOL    HW253555   1.542   6.552   2.091 -1.6563 -0.7423  0.1759
15865SOL     OW53556   7.683   7.541   1.301 -0.1304  0.2193  0.4134
15865SOL    HW153557   7.706   7.549   1.208  1.2656  0.0445  0.7189
15865SOL    HW253558   7.608   7.599   1.312 -1.8009 -1.4689 -1.3013
15866SOL     OW53559   6.083   5.075   9.089  0.4038 -0.5492  0.6227
15866SOL    HW153560   6.073   5.111   9.177  0.2154  0.9632  0.0084
15866SOL    HW253561   6.093   4.981   9.103  0.1095 -0.3707  2.2388
15867SOL     OW53562   6.946   6.545   8.635  0.0142 -0.1199  0.0291
15867SOL    HW153563   7.009   6.493   8.686  1.0866  0.2055 -0.9246
15867SOL    HW253564   6.927   6.620   8.692  0.3499 -0.3126  0.4086
15868SOL     OW53565   2.269   5.659   4.480  0.2570 -0.4192 -0.1371
15868SOL    HW153566   2.194   5.630   4.429 -0.0580  0.0350  0.0595
15868SOL    HW253567   2.345   5.641   4.424 -0.1894  1.4801 -1.4396
15869SOL     OW53568   6.363   9.123   6.290 -0.0146  0.1454  0.5607
15869SOL    HW153569   6.422   9.172   6.232  0.6378 -1.8057 -0.5255
15869SOL    HW253570   6.360   9.035   6.252 -2.5167 -0.2137  1.4212
15870SOL     OW53571   2.901   5.028   3.323  0.4279  0.0850 -1.1187
15870SOL    HW153572   2.853   5.110   3.336  0.0657 -0.1204 -1.1406
15870SOL    HW253573   2.990   5.055   3.300  0.8932  0.4669  0.9588
15871SOL     OW53574   4.353   2.276   5.662 -0.0189 -0.2422  0.3671
15871SOL    HW153575   4.265   2.248   5.688  0.2396 -1.2254  0.2401
15871SOL    HW253576   4.410   2.238   5.729  0.2205  1.4954  1.2112
15872SOL     OW53577   7.350   5.980   4.600 -0.0442  0.1128 -0.2640
15872SOL    HW153578   7.438   6.000   4.632  0.3375 -0.4716 -0.9337
15872SOL    HW253579   7.304   5.943   4.676 -0.0434  1.3448  0.3656
15873SOL     OW53580   1.666   6.042   6.769 -0.2054  0.2328  0.1461
15873SOL    HW153581   1.735   5.977   6.781 -0.2985  0.1169  0.0542
15873SOL    HW253582   1.629   6.055   6.857  0.0094  0.3813  0.2156
15874SOL     OW53583   2.494   4.386   0.436 -0.0050  0.0696 -0.2792
15874SOL    HW153584   2.545   4.381   0.355  0.2172 -0.3879 -0.1137
15874SOL    HW253585   2.429   4.316   0.428  3.3392 -3.7119  2.2059
15875SOL     OW53586   8.899   0.333   5.270 -0.4677  0.1072  0.3777
15875SOL    HW153587   8.829   0.304   5.211  0.7062 -2.5775  0.1637
15875SOL    HW253588   8.932   0.253   5.310  1.0891  1.5060  2.1055
15876SOL     OW53589   9.231   0.376   1.392  0.3195  0.0487  0.2714
15876SOL    HW153590   9.298   0.308   1.403 -1.3615 -2.0525 -1.2935
15876SOL    HW253591   9.167   0.359   1.462 -0.0336  0.0831 -0.0365
15877SOL     OW53592   4.887   3.486   0.483 -0.1879  0.5464  0.2731
15877SOL    HW153593   4.844   3.564   0.446  0.8337  0.5788 -0.9469
15877SOL    HW253594   4.825   3.415   0.467  0.2314  0.5445 -1.6886
15878SOL     OW53595   7.440   7.379   1.060  0.3131 -0.4198  0.2737
15878SOL    HW153596   7.422   7.433   1.136 -0.0817 -0.0566 -0.0738
15878SOL    HW253597   7.386   7.301   1.072  0.1393 -0.2955  0.2861
15879SOL     OW53598   4.152   1.940   3.996 -0.1050  0.0210 -0.1394
15879SOL    HW153599   4.206   1.896   4.062 -0.8700  0.8805  1.1090
15879SOL    HW253600   4.202   2.019   3.974 -0.4379  0.3840  0.3826
15880SOL     OW53601   0.199   0.229   6.552  0.1536 -0.3376 -0.2412
15880SOL    HW153602   0.275   0.260   6.504  1.2197 -0.2347  1.4264
15880SOL    HW253603   0.188   0.294   6.622 -1.9677  0.0885 -0.8849
15881SOL     OW53604   8.907   2.332   5.811 -0.5735 -0.4411  0.1741
15881SOL    HW153605   8.894   2.238   5.809  0.0889 -0.5366 -0.5719
15881SOL    HW253606   8.995   2.344   5.846 -0.3501 -0.1528 -0.4536
15882SOL     OW53607   0.637   3.727   6.335 -0.0913 -0.4421  0.1107
15882SOL    HW153608   0.584   3.703   6.411  1.7008  2.5050  2.5678
15882SOL    HW253609   0.727   3.722   6.367  0.7759  0.0605 -2.1262
15883SOL     OW53610   5.098   4.002   8.110 -0.2264  0.2342 -0.0556
15883SOL    HW153611   5.009   4.017   8.143 -0.6469  0.2348 -1.1514
15883SOL    HW253612   5.125   4.087   8.076 -0.1586  0.0265 -0.5310
15884SOL     OW53613   9.234   8.775   2.547 -0.3483 -0.0097  0.0189
15884SOL    HW153614   9.152   8.728   2.536 -0.4888 -0.0007  0.9559
15884SOL    HW253615   9.214   8.843   2.611  0.9296 -1.4103  2.0149
15885SOL     OW53616   5.669   6.763   3.793 -0.3509  0.4724  0.0698
15885SOL    HW153617   5.606   6.704   3.751 -0.5249 -0.3218  1.3972
15885SOL    HW253618   5.749   6.752   3.742 -1.0631  0.9791 -1.2227
15886SOL     OW53619   8.412   5.453   2.926 -0.0850  0.3800 -0.1028
15886SOL    HW153620   8.468   5.506   2.982 -0.6499  0.6704  0.1898
15886SOL    HW253621   8.411   5.499   2.842 -0.3748  0.7083  0.0766
15887SOL     OW53622   4.801   3.733   4.123  0.0574 -0.2996  0.2901
15887SOL    HW153623   4.873   3.779   4.166 -0.6559 -0.7588  2.0649
15887SOL    HW253624   4.722   3.773   4.159 -0.6362 -3.3507  2.6338
15888SOL     OW53625   9.243   5.890   2.933  0.9181  0.2372  0.0737
15888SOL    HW153626   9.161   5.846   2.908  0.7715  0.2227  0.5645
15888SOL    HW253627   9.235   5.978   2.897  0.8391  0.1259 -0.1847
15889SOL     OW53628   4.006   5.893   2.657  0.1475  0.8713 -0.1760
15889SOL    HW153629   3.939   5.904   2.724  1.0617 -1.2680  1.2030
15889SOL    HW253630   4.078   5.850   2.703  0.4282 -1.6569 -2.7398
15890SOL     OW53631   0.221   0.419   2.825  0.2980  0.1686  0.0211
15890SOL    HW153632   0.200   0.415   2.732  0.4659 -1.7503  0.0285
15890SOL    HW253633   0.289   0.486   2.832  0.3022  0.3158 -1.2307
15891SOL     OW53634   4.128   8.509   1.602 -0.0548 -0.0725  0.0734
15891SOL    HW153635   4.055   8.497   1.542 -1.8988  1.4869  1.8648
15891SOL    HW253636   4.159   8.420   1.620 -1.6480 -0.7981 -0.5766
15892SOL     OW53637   7.690   5.712   6.863 -0.0676 -0.7841 -0.3537
15892SOL    HW153638   7.687   5.790   6.808 -0.8063 -1.1106 -0.7847
15892SOL    HW253639   7.735   5.646   6.810  0.0095 -0.8367 -0.2248
15893SOL     OW53640   0.065   7.995   2.722  0.3738  0.5355  0.1404
15893SOL    HW153641  -0.007   7.969   2.664  0.8728  0.5369 -0.4842
15893SOL    HW253642   0.042   8.084   2.750  0.1219  0.5273 -0.0375
15894SOL     OW53643   5.332   2.186   5.941  0.0622 -0.0319  0.4094
15894SOL    HW153644   5.384   2.266   5.937  3.4718 -2.0357 -3.1177
15894SOL    HW253645   5.314   2.164   5.849 -0.9572 -3.1382  1.2135
15895SOL     OW53646   8.887   0.026   7.772  0.2065  0.1191 -0.5901
15895SOL    HW153647   8.960  -0.035   7.765 -1.0454 -1.3239 -2.0018
15895SOL    HW253648   8.867   0.050   7.681 -2.3895 -1.2664 -0.5035
15896SOL     OW53649   5.002   2.893   4.843 -0.5462  0.2868  0.0257
15896SOL    HW153650   4.918   2.854   4.868 -0.4397  0.0158 -0.0381
15896SOL    HW253651   5.050   2.902   4.926 -1.0341  1.4017  0.2061
15897SOL     OW53652   5.065   6.252   7.676 -0.0834 -0.5946  0.0656
15897SOL    HW153653   5.108   6.329   7.639  1.7978 -1.1065  1.0313
15897SOL    HW253654   4.975   6.279   7.691  0.2316  1.0210 -0.7359
15898SOL     OW53655   5.873   2.328   1.255  0.0299  0.4896  0.7673
15898SOL    HW153656   5.873   2.330   1.350  1.4543  0.0117  0.8011
15898SOL    HW253657   5.802   2.386   1.230 -0.9836 -0.1194  2.1219
15899SOL     OW53658   8.983   0.908   2.584  0.3225  0.7344  0.8400
15899SOL    HW153659   8.957   0.986   2.534 -0.2925 -0.1973 -0.3505
15899SOL    HW253660   8.950   0.924   2.672  0.8556  2.1358  0.8063
15900SOL     OW53661   1.482   8.143   4.880 -0.1414 -0.0834  0.2059
15900SOL    HW153662   1.572   8.110   4.871 -0.2157 -0.6026  1.2255
15900SOL    HW253663   1.427   8.067   4.861 -0.3661  0.1090  0.0814
15901SOL     OW53664   1.573   1.760   8.691 -0.2716 -0.2759  0.0790
15901SOL    HW153665   1.494   1.809   8.668 -0.7116 -0.3715  1.3100
15901SOL    HW253666   1.627   1.762   8.612 -0.3434  2.0761  0.0063
15902SOL     OW53667   2.670   3.535   0.438  0.2372 -0.1936  0.2217
15902SOL    HW153668   2.631   3.449   0.423  2.8739 -1.0352 -2.6769
15902SOL    HW253669   2.598   3.597   0.425 -1.4757 -1.8317  1.3941
15903SOL     OW53670   7.494   2.654   7.580  0.2202 -0.0806 -0.1044
15903SOL    HW153671   7.516   2.564   7.603 -1.8974 -0.5104  0.4496
15903SOL    HW253672   7.562   2.680   7.517  2.0454 -1.3321  1.2384
15904SOL     OW53673   8.155   5.256   4.825 -0.2053 -0.4144 -0.6467
15904SOL    HW153674   8.108   5.243   4.743  2.1487 -0.4968 -2.0839
15904SOL    HW253675   8.132   5.180   4.879 -0.0947 -1.5153 -2.0966
15905SOL     OW53676   4.396   8.820   7.514 -0.1319 -0.0559 -0.4670
15905SOL    HW153677   4.485   8.832   7.545  0.0909 -0.5691 -0.8951
15905SOL    HW253678   4.354   8.768   7.583 -0.1675  0.3668 -0.1645
15906SOL     OW53679   4.194   8.423   4.127 -0.6457  0.3581 -0.1703
15906SOL    HW153680   4.214   8.344   4.177 -0.3989  1.6069  1.8215
15906SOL    HW253681   4.134   8.394   4.059  1.7961 -2.0851 -1.4580
15907SOL     OW53682   1.269   1.527   0.214  0.1103 -0.3288 -0.0071
15907SOL    HW153683   1.196   1.535   0.152 -0.0995  1.0996  0.3886
15907SOL    HW253684   1.344   1.503   0.159 -0.3492 -0.3645 -0.6260
15908SOL     OW53685   2.925   7.617   3.184  0.0263 -0.0741 -0.0296
15908SOL    HW153686   2.995   7.662   3.136  1.9015 -0.4950  2.1350
15908SOL    HW253687   2.858   7.685   3.197  1.3599  1.2146  0.3975
15909SOL     OW53688   4.905   3.142   5.993  0.1720 -0.3302 -0.9007
15909SOL    HW153689   4.996   3.146   5.966  0.4438 -0.0915  0.0077
15909SOL    HW253690   4.878   3.234   6.001  0.9102 -0.2557  2.1366
15910SOL     OW53691   3.221   0.798   1.505  0.1671 -0.4266  0.3348
15910SOL    HW153692   3.179   0.713   1.493 -1.4243  0.1457  1.4677
15910SOL    HW253693   3.150   0.862   1.492  1.2584  0.7276 -0.2090
15911SOL     OW53694   8.504   0.908   7.535  0.1600 -0.5586 -0.5681
15911SOL    HW153695   8.495   0.856   7.456 -0.3272 -2.0389  0.4273
15911SOL    HW253696   8.443   0.981   7.523  1.4237  0.2833 -2.3209
15912SOL     OW53697   9.064   3.945   2.506  0.0669  0.8487  0.0934
15912SOL    HW153698   9.031   3.926   2.419  0.3549  0.6541  0.0264
15912SOL    HW253699   9.001   4.007   2.543 -1.1424 -0.5320  0.4801
15913SOL     OW53700   3.156   2.056   6.158 -0.5138  0.2962  0.4041
15913SOL    HW153701   3.079   1.999   6.168 -0.8605  0.3818 -1.4491
15913SOL    HW253702   3.142   2.100   6.074 -0.1444  2.9602  1.6270
15914SOL     OW53703   0.484   2.238   1.746 -0.2423 -0.3679 -0.5236
15914SOL    HW153704   0.416   2.304   1.761  1.5919  1.3126  1.0111
15914SOL    HW253705   0.504   2.205   1.833  1.5503 -0.0938 -0.7969
15915SOL     OW53706   6.345   8.717   7.377 -0.4774 -0.0722 -0.0877
15915SOL    HW153707   6.315   8.748   7.291  0.8141  0.1847 -0.4659
15915SOL    HW253708   6.341   8.794   7.433  1.0086  0.3784 -0.5636
15916SOL     OW53709   6.357   3.978   5.473  0.2834 -0.1501  0.4287
15916SOL    HW153710   6.358   4.072   5.455  1.0208 -0.0515  0.9587
15916SOL    HW253711   6.417   3.941   5.408  0.0755 -0.2410  0.2890
15917SOL     OW53712   3.698   5.601   2.497 -0.4465  0.3009 -0.2118
15917SOL    HW153713   3.753   5.679   2.492  0.1511  0.0787  1.9274
15917SOL    HW253714   3.610   5.632   2.477  0.1228  1.0655 -1.6285
15918SOL     OW53715   2.830   1.500   2.294 -0.5597  0.4449  0.9005
15918SOL    HW153716   2.790   1.561   2.232  0.6976  0.6350  0.2457
15918SOL    HW253717   2.800   1.413   2.266 -0.2524  0.5572  0.2041
15919SOL     OW53718   0.180   0.506   1.976 -0.1449 -0.0161  0.0353
15919SOL    HW153719   0.203   0.573   2.041  0.3184 -0.9145  0.8194
15919SOL    HW253720   0.246   0.517   1.906  1.1682 -0.9090  1.0828
15920SOL     OW53721   8.795   5.354   8.335 -0.5720 -0.2127 -0.0624
15920SOL    HW153722   8.890   5.350   8.323 -0.4325  1.6245  0.2584
15920SOL    HW253723   8.760   5.301   8.263  0.6740 -0.5451 -0.4505
15921SOL     OW53724   9.064   1.469   5.305  0.0454 -0.0736 -0.1076
15921SOL    HW153725   9.086   1.418   5.227  1.3136  2.0222 -1.2234
15921SOL    HW253726   8.969   1.475   5.304 -0.0280 -1.1654 -0.7487
15922SOL     OW53727   2.565   3.925   7.359 -0.8809 -0.8348 -0.3532
15922SOL    HW153728   2.645   3.977   7.353 -0.8339 -0.8864 -0.1963
15922SOL    HW253729   2.591   3.837   7.330 -0.6873 -1.0485  0.4374
15923SOL     OW53730   2.976   5.497   5.026 -0.4117  0.1774 -0.2843
15923SOL    HW153731   2.995   5.591   5.034 -3.6235  0.9988 -0.8555
15923SOL    HW253732   3.059   5.458   4.998  1.2455  2.6757  0.7532
15924SOL     OW53733   7.388   0.929   3.880 -0.2171  0.0176 -0.5849
15924SOL    HW153734   7.368   0.961   3.968  0.8213  0.4883 -0.5136
15924SOL    HW253735   7.483   0.921   3.878 -0.2849 -0.7162 -1.4214
15925SOL     OW53736   4.798   1.978   2.431 -0.1740 -0.3128  0.1829
15925SOL    HW153737   4.808   1.916   2.359  0.1430 -1.5132  1.2318
15925SOL    HW253738   4.865   2.044   2.416 -1.3364  0.5461 -1.6607
15926SOL     OW53739   7.814   4.164   2.415 -0.3037  0.1223  0.0389
15926SOL    HW153740   7.797   4.084   2.364 -1.7207  0.4839 -0.1029
15926SOL    HW253741   7.900   4.194   2.385 -1.9249  1.5314 -3.8779
15927SOL     OW53742   2.170   3.425   7.627  0.0373 -0.1835 -0.4089
15927SOL    HW153743   2.218   3.506   7.612  3.2928 -2.2496 -2.5920
15927SOL    HW253744   2.217   3.382   7.698 -0.4818 -0.9798 -0.5282
15928SOL     OW53745   0.874   7.492   1.248  0.3492 -0.2683  0.4893
15928SOL    HW153746   0.929   7.448   1.183 -0.0825 -0.7442  0.4327
15928SOL    HW253747   0.789   7.449   1.240  0.5228 -0.9607  1.9855
15929SOL     OW53748   7.523   2.529   7.922 -0.2343 -0.3437 -0.1037
15929SOL    HW153749   7.613   2.525   7.953 -0.0267  0.5992 -0.5359
15929SOL    HW253750   7.514   2.454   7.863  0.0409 -0.8561  0.4968
15930SOL     OW53751   6.306   5.347   7.133  0.0142  0.0099  0.1842
15930SOL    HW153752   6.392   5.376   7.104 -1.7098  3.1555 -2.5138
15930SOL    HW253753   6.290   5.396   7.214  0.3278  0.2611  0.0932
15931SOL     OW53754   2.932   3.943   6.546 -0.4463  0.1163  0.0204
15931SOL    HW153755   2.995   3.874   6.562 -0.4954  0.0566 -0.0434
15931SOL    HW253756   2.982   4.024   6.555 -0.3130  0.0651 -0.2338
15932SOL     OW53757   6.993   4.539   3.380  0.5443  0.7292  0.1256
15932SOL    HW153758   7.065   4.498   3.332  0.8221 -0.9792  1.8600
15932SOL    HW253759   7.027   4.551   3.469 -0.7126  1.5727  0.5110
15933SOL     OW53760   6.798   2.753   8.387 -0.5523 -0.3513 -0.1215
15933SOL    HW153761   6.827   2.702   8.312 -2.0241 -0.5290 -0.6057
15933SOL    HW253762   6.776   2.688   8.453  1.1960 -0.1846  0.6897
15934SOL     OW53763   7.062   7.216   4.001 -0.0575 -0.4833 -0.2612
15934SOL    HW153764   7.025   7.129   3.986 -2.0453  0.6181 -2.5209
15934SOL    HW253765   7.025   7.244   4.084 -0.6241 -1.2065 -0.2570
15935SOL     OW53766   4.363   5.770   2.327 -0.5700  0.1594  0.4071
15935SOL    HW153767   4.406   5.841   2.375  2.3576 -0.1499 -1.5178
15935SOL    HW253768   4.324   5.814   2.251 -1.5972  0.0844  0.8698
15936SOL     OW53769   6.129   5.997   1.403 -0.1410  0.9054  0.3745
15936SOL    HW153770   6.173   5.978   1.320 -0.2609  2.2486 -0.0153
15936SOL    HW253771   6.159   6.085   1.427  1.3576 -0.1106  2.7192
15937SOL     OW53772   4.771   6.552   4.957  0.2500  0.1879 -0.4369
15937SOL    HW153773   4.813   6.491   4.896  0.0979 -0.5541  0.1957
15937SOL    HW253774   4.795   6.520   5.044 -0.1217  0.8265 -0.0931
15938SOL     OW53775   7.209   5.542   6.461  0.2520  0.0656  0.4680
15938SOL    HW153776   7.191   5.457   6.501  0.5568 -0.2275 -0.0134
15938SOL    HW253777   7.138   5.599   6.492  0.3874 -0.2026  1.2750
15939SOL     OW53778   3.790   1.409   8.754  0.0992  0.0397  0.2928
15939SOL    HW153779   3.870   1.397   8.804 -0.0266 -0.5825  0.3464
15939SOL    HW253780   3.746   1.324   8.758 -1.4634  0.8532  1.8469
15940SOL     OW53781   0.329   1.452   3.008  0.2014 -0.1571 -0.0442
15940SOL    HW153782   0.241   1.413   3.007 -0.0428  0.3634 -1.9253
15940SOL    HW253783   0.388   1.378   3.018 -0.3683 -0.7896 -1.1550
15941SOL     OW53784   3.244   1.761   2.809  0.3349  0.2014  0.1862
15941SOL    HW153785   3.216   1.695   2.745 -1.6980 -0.0102  1.1963
15941SOL    HW253786   3.321   1.801   2.770  0.7541 -1.7446 -1.1524
15942SOL     OW53787   3.571   5.144   7.670 -0.2093  0.2905 -0.2183
15942SOL    HW153788   3.609   5.168   7.754 -0.5061 -1.6865  0.5452
15942SOL    HW253789   3.646   5.119   7.616 -0.0793  0.7879 -0.2680
15943SOL     OW53790   8.582   1.247   8.406  0.1989  0.5489  0.2125
15943SOL    HW153791   8.655   1.305   8.383  0.5271 -0.0355 -0.2326
15943SOL    HW253792   8.571   1.259   8.500  2.1328 -0.7829  0.6581
15944SOL     OW53793   8.107   0.167   0.177  0.4082  0.1534  0.3532
15944SOL    HW153794   8.190   0.132   0.145  0.0554 -0.2747 -0.1170
15944SOL    HW253795   8.131   0.235   0.239  1.1098  0.1032  0.1366
15945SOL     OW53796   5.923   0.783   7.098 -0.0275 -0.2709 -0.1539
15945SOL    HW153797   6.010   0.763   7.133 -0.6537  0.3290  1.9174
15945SOL    HW253798   5.871   0.806   7.175 -1.3730  1.7643 -1.5522
15946SOL     OW53799   1.431   7.539   7.461 -0.2236  0.2721 -0.7274
15946SOL    HW153800   1.389   7.481   7.397 -1.8314  0.8101 -0.2202
15946SOL    HW253801   1.522   7.545   7.433 -0.2723 -1.6485 -1.3907
15947SOL     OW53802   0.054   4.748   1.974 -0.0638  0.1789  0.7241
15947SOL    HW153803   0.012   4.797   1.903  0.5016  0.3096  0.4751
15947SOL    HW253804  -0.018   4.722   2.031 -0.3028  2.0659  1.3398
15948SOL     OW53805   1.283   0.754   8.726  0.2340  0.2090 -0.1962
15948SOL    HW153806   1.218   0.783   8.789  0.3819 -0.5441  0.3141
15948SOL    HW253807   1.289   0.826   8.663 -2.1673 -0.2846 -1.1023
15949SOL     OW53808   1.396   2.790   1.377 -0.0689 -0.1866  0.2929
15949SOL    HW153809   1.316   2.841   1.386 -0.7799 -1.4010  1.2637
15949SOL    HW253810   1.429   2.812   1.290  0.3607  2.8380  1.1129
15950SOL     OW53811   8.061   8.879   7.641 -0.1768 -0.2346  0.1479
15950SOL    HW153812   8.044   8.785   7.631 -0.9587 -0.0761 -0.0550
15950SOL    HW253813   8.048   8.895   7.735 -0.7414 -0.2003  0.0686
15951SOL     OW53814   4.633   1.448   8.007 -0.7225 -0.0297  0.6457
15951SOL    HW153815   4.570   1.393   8.053 -2.5898 -0.6746 -2.3946
15951SOL    HW253816   4.585   1.528   7.987  0.3156  0.5941  0.5845
15952SOL     OW53817   6.176   8.757   9.202 -0.6769 -0.0335 -0.6421
15952SOL    HW153818   6.123   8.680   9.225 -1.5309  0.6581 -0.1951
15952SOL    HW253819   6.254   8.721   9.160 -0.3552 -1.2265  0.8625
15953SOL     OW53820   8.910   6.733   9.060  0.3579  0.4257 -0.3926
15953SOL    HW153821   8.942   6.815   9.023 -0.5360  0.6589 -0.6717
15953SOL    HW253822   8.817   6.748   9.076  0.3579 -0.2494  0.3519
15954SOL     OW53823   2.546   3.344   8.001  0.9167 -0.3166  0.4411
15954SOL    HW153824   2.456   3.348   8.034  0.3277 -0.5991 -1.0433
15954SOL    HW253825   2.590   3.283   8.060 -0.1509 -0.9805  0.5772
15955SOL     OW53826   7.200   5.601   2.534  0.0738  0.2116 -0.4446
15955SOL    HW153827   7.261   5.669   2.563  0.4075 -0.1789 -0.2231
15955SOL    HW253828   7.127   5.606   2.595 -0.3685  1.0265 -1.0177
15956SOL     OW53829   1.176   3.408   5.079 -0.2405 -0.0706  0.5123
15956SOL    HW153830   1.083   3.389   5.086 -0.1322 -0.2840  1.6723
15956SOL    HW253831   1.211   3.387   5.166  0.5894  1.5606  0.6251
15957SOL     OW53832   0.749   8.140   3.801 -0.7154  0.3098 -0.5834
15957SOL    HW153833   0.823   8.195   3.777 -1.0889  1.6778  1.1797
15957SOL    HW253834   0.676   8.201   3.810 -1.5905 -0.7361 -0.3724
15958SOL     OW53835   8.477   1.813   7.036 -0.1614  1.0461  0.1795
15958SOL    HW153836   8.463   1.720   7.018  1.4486  0.7820  0.1607
15958SOL    HW253837   8.478   1.855   6.950  2.8529  0.4785 -0.1560
15959SOL     OW53838   7.088   7.678   7.104  0.1389  0.4407  0.2133
15959SOL    HW153839   7.053   7.765   7.125 -0.9169 -0.4201  2.3735
15959SOL    HW253840   7.021   7.617   7.137  0.4236 -1.2129 -2.0627
15960SOL     OW53841   2.451   1.397   0.971  0.0642  0.3669 -0.0531
15960SOL    HW153842   2.506   1.393   0.893 -1.9802 -0.5620 -1.5451
15960SOL    HW253843   2.362   1.408   0.937 -1.2020 -2.3062  1.9708
15961SOL     OW53844   4.840   1.334   3.378  0.3234 -0.3006  0.0378
15961SOL    HW153845   4.907   1.335   3.310  0.2578  0.5593 -0.0301
15961SOL    HW253846   4.874   1.392   3.446 -1.4487  2.3498 -1.1441
15962SOL     OW53847   3.071   1.403   1.577  0.0107 -0.0504 -0.3184
15962SOL    HW153848   3.146   1.448   1.616  0.5251 -2.0004  1.1110
15962SOL    HW253849   3.110   1.341   1.516 -0.5473 -0.0196 -0.7104
15963SOL     OW53850   4.489   5.808   8.170 -0.2989 -0.4774  0.7738
15963SOL    HW153851   4.542   5.806   8.090  0.4679  2.8185  1.0602
15963SOL    HW253852   4.399   5.798   8.139  0.0011  0.4502 -0.4951
15964SOL     OW53853   6.284   3.658   1.375  0.1218 -0.7133  0.7948
15964SOL    HW153854   6.203   3.695   1.341 -0.5725 -0.2771  2.7486
15964SOL    HW253855   6.302   3.710   1.454  0.4973 -2.8872  2.2372
15965SOL     OW53856   1.154   0.688   5.397  0.0425  0.0725 -0.2496
15965SOL    HW153857   1.239   0.708   5.435 -0.5349 -0.8500  1.6457
15965SOL    HW253858   1.091   0.711   5.465 -1.0958 -0.9698 -0.9041
15966SOL     OW53859   1.629   1.267   5.990  0.5603 -0.3217 -0.3410
15966SOL    HW153860   1.690   1.340   5.991  0.3125 -0.1195  0.3676
15966SOL    HW253861   1.561   1.291   6.053  1.2589 -1.8103  1.0638
15967SOL     OW53862   1.003   6.877   3.875 -0.3414 -1.0160  0.6161
15967SOL    HW153863   1.069   6.860   3.807  0.3118  1.1906  0.6075
15967SOL    HW253864   0.926   6.907   3.827  0.3128  1.1133  0.8022
15968SOL     OW53865   4.767   8.229   3.801 -0.1216 -0.0186 -0.2718
15968SOL    HW153866   4.802   8.157   3.748  0.8636  0.7105 -0.6315
15968SOL    HW253867   4.833   8.298   3.796 -0.5781  0.5375  0.9073
15969SOL     OW53868   8.841   8.868   8.079 -0.1587 -0.0784 -0.0197
15969SOL    HW153869   8.762   8.921   8.088 -1.2535 -1.4058 -1.2273
15969SOL    HW253870   8.894   8.891   8.155 -1.3891  1.3558  0.4658
15970SOL     OW53871   4.834   1.485   4.797 -0.0322  0.2818  0.3440
15970SOL    HW153872   4.927   1.470   4.815  0.5543  2.5247 -0.4949
15970SOL    HW253873   4.793   1.485   4.884  0.7209 -0.7791  0.7166
15971SOL     OW53874   2.299   5.747   9.338  0.0827 -0.8592 -0.0418
15971SOL    HW153875   2.238   5.817   9.316 -0.8621 -1.9707 -1.1063
15971SOL    HW253876   2.251   5.692   9.400  0.4534 -1.0879  0.0428
15972SOL     OW53877   7.450   5.276   4.479 -0.2895  0.0102  0.0617
15972SOL    HW153878   7.392   5.252   4.406 -0.4622  0.4354  0.0590
15972SOL    HW253879   7.391   5.285   4.554 -0.5010  2.3080 -0.3371
15973SOL     OW53880   7.785   8.056   8.987 -0.4706  0.5298 -0.0823
15973SOL    HW153881   7.878   8.041   9.005 -0.6271 -0.2242  0.1190
15973SOL    HW253882   7.784   8.110   8.908  0.1161 -0.5574 -0.8531
15974SOL     OW53883   0.371   1.042   7.453 -0.0886  0.5314 -0.4211
15974SOL    HW153884   0.460   1.023   7.483  0.4360  3.4121  0.1469
15974SOL    HW253885   0.315   0.993   7.513  1.0677  2.4488  2.4478
15975SOL     OW53886   8.326   5.666   3.280 -0.5535 -0.1615 -0.9363
15975SOL    HW153887   8.415   5.631   3.276  0.7717  1.9292  3.7440
15975SOL    HW253888   8.278   5.602   3.333 -0.3645  1.0587  0.7709
15976SOL     OW53889   8.531   1.545   9.091 -0.2568 -0.1538 -0.1772
15976SOL    HW153890   8.549   1.568   9.182  0.4550 -1.9306  0.1549
15976SOL    HW253891   8.466   1.610   9.062  1.0845  1.7575  0.9184
15977SOL     OW53892   3.208   2.446   4.901 -0.0513 -0.1631  0.1447
15977SOL    HW153893   3.217   2.448   4.805  0.0453  2.0841  0.1550
15977SOL    HW253894   3.198   2.538   4.926  2.2596 -0.4489  2.5106
15978SOL     OW53895   2.388   0.954   3.662 -0.5405  0.5198 -0.1187
15978SOL    HW153896   2.409   0.871   3.619  1.6932  1.2747 -0.5820
15978SOL    HW253897   2.338   1.003   3.597 -2.3401 -0.5904  0.3374
15979SOL     OW53898   9.200   0.182   7.747  0.0794  0.3142  0.3184
15979SOL    HW153899   9.183   0.143   7.661  1.3880  1.3246 -0.4320
15979SOL    HW253900   9.114   0.189   7.788 -0.6300  0.3087 -1.1201
15980SOL     OW53901   8.552   0.752   6.798 -0.1604 -0.6701 -0.0330
15980SOL    HW153902   8.502   0.763   6.879 -0.1260  0.8515 -0.1918
15980SOL    HW253903   8.644   0.753   6.826 -0.1726 -1.2719  0.0279
15981SOL     OW53904   5.838   2.479   8.890  0.1772 -0.1686  0.3035
15981SOL    HW153905   5.918   2.432   8.866 -1.0978 -2.3065 -0.0261
15981SOL    HW253906   5.808   2.518   8.808  1.6630  2.0405  0.7259
15982SOL     OW53907   3.643   8.210   2.388 -0.0724 -0.0765 -0.8703
15982SOL    HW153908   3.728   8.254   2.385 -0.2237  0.2042 -1.1771
15982SOL    HW253909   3.651   8.146   2.458  1.0468 -1.3946 -2.1196
15983SOL     OW53910   0.208   7.489   2.858 -0.1758  0.3584  0.3140
15983SOL    HW153911   0.156   7.448   2.927  1.6177 -2.6589  0.0516
15983SOL    HW253912   0.291   7.512   2.901 -0.1099  1.1491 -0.2164
15984SOL     OW53913   7.631   1.061   5.949  0.3246 -0.5240 -0.4406
15984SOL    HW153914   7.723   1.085   5.939 -0.0490  0.7239 -1.1153
15984SOL    HW253915   7.587   1.105   5.876 -0.9492 -0.2658  0.4516
15985SOL     OW53916   2.647   3.827   0.314  0.4600 -0.3353 -0.4599
15985SOL    HW153917   2.688   3.912   0.329 -0.2729 -0.0344 -0.1348
15985SOL    HW253918   2.559   3.848   0.284  0.6157 -0.9738 -1.3973
15986SOL     OW53919   0.228   3.644   4.417 -0.0751  0.3234  0.2033
15986SOL    HW153920   0.249   3.698   4.493  0.4626  1.2424 -0.5699
15986SOL    HW253921   0.133   3.636   4.418 -0.0821  0.4978  0.8580
15987SOL     OW53922   1.546   7.570   8.871  0.2173 -0.2810 -0.2934
15987SOL    HW153923   1.562   7.476   8.860 -1.0469 -0.5666  0.1435
15987SOL    HW253924   1.591   7.610   8.796 -0.1177 -1.3268 -1.0823
15988SOL     OW53925   4.620   3.186   5.876 -0.0278  0.2262 -0.0236
15988SOL    HW153926   4.632   3.167   5.783 -0.3413  2.9848 -0.6975
15988SOL    HW253927   4.705   3.164   5.916 -0.0195 -1.3544 -0.8428
15989SOL     OW53928   6.587   9.310   0.797  0.2715 -0.1582 -0.3472
15989SOL    HW153929   6.628   9.293   0.712  2.2353  1.0700  0.2877
15989SOL    HW253930   6.551   9.398   0.789 -0.3530 -0.3943 -0.1903
15990SOL     OW53931   9.365   1.466   2.182 -0.3836 -0.2665 -0.1018
15990SOL    HW153932   9.395   1.390   2.133 -2.0618 -0.7188 -0.4822
15990SOL    HW253933   9.367   1.538   2.119 -0.5788 -0.4111 -0.2757
15991SOL     OW53934   3.616   0.460   6.966  0.4812 -0.1112  0.0315
15991SOL    HW153935   3.711   0.453   6.962  0.6471  1.6573  0.0736
15991SOL    HW253936   3.591   0.500   6.882 -0.3510 -1.4513 -0.3961
15992SOL     OW53937   3.059   6.574   0.596 -0.1006 -0.5723  0.2072
15992SOL    HW153938   3.125   6.509   0.572 -0.1149 -1.2558  1.8287
15992SOL    HW253939   2.999   6.577   0.522 -0.2913 -2.7027  0.1984
15993SOL     OW53940   1.573   3.532   0.751 -0.4069  0.0696 -0.6540
15993SOL    HW153941   1.485   3.567   0.743 -0.9663 -1.2694 -0.5797
15993SOL    HW253942   1.561   3.437   0.759  1.1083 -0.3373 -2.4342
15994SOL     OW53943   6.530   2.473   4.653 -0.2691  0.1133  0.6056
15994SOL    HW153944   6.600   2.537   4.665 -0.2260 -0.2181  2.3258
15994SOL    HW253945   6.449   2.524   4.659 -0.2344  0.5021 -1.4200
15995SOL     OW53946   6.863   1.891   2.461 -0.1135 -0.4136 -0.3374
15995SOL    HW153947   6.847   1.798   2.476  1.0143 -0.6611 -0.5565
15995SOL    HW253948   6.827   1.908   2.374 -0.5105 -0.5955 -0.2094
15996SOL     OW53949   6.133   7.602   7.780 -0.2544  0.0081 -0.5035
15996SOL    HW153950   6.117   7.517   7.739 -0.9497  0.8259 -2.0126
15996SOL    HW253951   6.162   7.658   7.708  1.3619  0.7596  0.6921
15997SOL     OW53952   4.440   7.354   7.039 -0.7914 -0.1389 -0.0078
15997SOL    HW153953   4.422   7.443   7.007 -1.2786 -0.6061 -1.0975
15997SOL    HW253954   4.413   7.297   6.967  0.2406 -1.1450  0.3694
15998SOL     OW53955   8.392   3.114   3.500 -0.2340 -0.1075 -0.8075
15998SOL    HW153956   8.455   3.144   3.566 -1.1014 -0.2660  0.1268
15998SOL    HW253957   8.367   3.027   3.530 -0.9278 -0.0234 -1.1345
15999SOL     OW53958   0.342   8.657   0.194  0.4542 -0.2934 -0.4911
15999SOL    HW153959   0.425   8.689   0.229  1.4022 -0.1628 -2.6837
15999SOL    HW253960   0.282   8.732   0.201  0.4652 -0.4168  1.1801
16000SOL     OW53961   5.796   8.549   5.393  0.0739  0.2320 -0.2573
16000SOL    HW153962   5.801   8.619   5.458  0.5017  0.6177 -0.6924
16000SOL    HW253963   5.814   8.469   5.442 -2.0107  0.2145  0.5473
16001SOL     OW53964   8.880   4.688   5.447 -0.2094 -0.7588  0.5540
16001SOL    HW153965   8.838   4.619   5.497 -0.0220 -1.0937  0.2508
16001SOL    HW253966   8.833   4.689   5.363  0.3705 -1.1178  0.2236
16002SOL     OW53967   2.931   8.844   7.851 -0.0122 -0.0312  0.2349
16002SOL    HW153968   3.018   8.884   7.851  0.7413 -1.5592 -0.2929
16002SOL    HW253969   2.912   8.829   7.944 -0.2067  1.2734  0.4223
16003SOL     OW53970   5.489   8.077   5.870 -0.1963  0.3564 -0.1957
16003SOL    HW153971   5.481   8.079   5.775 -0.9244 -0.9312 -0.1811
16003SOL    HW253972   5.564   8.019   5.886 -0.9528 -0.5712  0.0367
16004SOL     OW53973   5.731   0.150   1.580 -0.2637  0.0477  0.1480
16004SOL    HW153974   5.701   0.099   1.656 -0.3427  0.4357  0.3828
16004SOL    HW253975   5.662   0.214   1.566  0.7667  1.4614  1.1822
16005SOL     OW53976   0.113   7.234   6.514 -0.0123  0.2149 -0.1172
16005SOL    HW153977   0.166   7.176   6.460 -0.3307  0.1343 -0.3486
16005SOL    HW253978   0.071   7.293   6.452 -0.9920 -0.3773 -0.0406
16006SOL     OW53979   6.124   8.296   4.204  0.0799  0.0582  0.1271
16006SOL    HW153980   6.195   8.258   4.152  1.1624  2.2682 -0.1299
16006SOL    HW253981   6.049   8.300   4.143  0.5979  0.3213 -0.5050
16007SOL     OW53982   8.902   6.959   8.263 -0.2271 -0.0564 -0.1112
16007SOL    HW153983   8.893   6.877   8.312 -0.9149  1.0245  1.6906
16007SOL    HW253984   8.846   7.021   8.311  1.9166  2.0120 -0.1337
16008SOL     OW53985   3.205   1.027   0.323  0.3271  0.4682  0.0258
16008SOL    HW153986   3.284   1.079   0.330 -0.2114  1.3969 -0.6557
16008SOL    HW253987   3.228   0.955   0.265  0.6429  0.7800 -0.2355
16009SOL     OW53988   2.801   6.967   5.928 -0.2715 -0.2716  0.3531
16009SOL    HW153989   2.844   7.029   5.869 -0.1582  0.2688  0.9913
16009SOL    HW253990   2.711   6.997   5.934 -0.3986 -0.5973  0.0961
16010SOL     OW53991   0.779   3.085   9.234 -0.0027 -0.3580 -0.1403
16010SOL    HW153992   0.763   3.175   9.262  0.1962 -0.4531  0.2849
16010SOL    HW253993   0.845   3.053   9.294  1.3027 -0.2002 -1.4317
16011SOL     OW53994   6.837   3.655   2.948  0.4248  0.4691 -0.3799
16011SOL    HW153995   6.932   3.654   2.957  0.4781  1.3872 -0.7717
16011SOL    HW253996   6.820   3.710   2.872 -0.4152  0.1517 -0.4330
16012SOL     OW53997   2.658   0.655   8.770 -0.1225 -0.4605 -0.3101
16012SOL    HW153998   2.623   0.636   8.684  1.0699 -1.3804 -0.6206
16012SOL    HW253999   2.726   0.720   8.755  0.0165 -0.5424 -0.0491
16013SOL     OW54000   8.608   9.157   7.242 -0.3483  0.4437 -0.0141
16013SOL    HW154001   8.514   9.144   7.256 -0.6593  0.9800 -1.4464
16013SOL    HW254002   8.648   9.130   7.325 -1.7991  0.7538  0.8319
16014SOL     OW54003   9.364   2.308   7.063 -0.4909  0.3008 -0.1306
16014SOL    HW154004   9.326   2.350   7.140 -0.9124 -2.0472  1.0368
16014SOL    HW254005   9.452   2.344   7.057 -1.2251  2.2402  0.0101
16015SOL     OW54006   7.452   7.341   7.180  0.0267 -0.1546 -0.3306
16015SOL    HW154007   7.473   7.350   7.273  1.7080  0.2070 -0.7110
16015SOL    HW254008   7.397   7.416   7.160 -0.9075 -0.5995  0.5096
16016SOL     OW54009   0.018   9.050   6.124  0.3622 -0.0302  0.3791
16016SOL    HW154010  -0.044   8.988   6.085  2.1844 -1.1838 -0.8310
16016SOL    HW254011   0.024   9.121   6.060  0.6810 -0.1826  0.2390
16017SOL     OW54012   9.045   6.193   0.245 -0.0000  0.2999 -1.0607
16017SOL    HW154013   9.073   6.285   0.241  1.4406 -0.1239 -1.1400
16017SOL    HW254014   9.022   6.171   0.155 -1.2493  0.8241 -0.8966
16018SOL     OW54015   3.848   4.963   5.260  0.1164 -1.2577  0.3254
16018SOL    HW154016   3.753   4.972   5.249  0.6671  3.2224 -4.2515
16018SOL    HW254017   3.875   5.045   5.302  2.1660 -0.6966 -1.8972
16019SOL     OW54018   6.107   2.939   1.016 -0.0032  0.1874 -0.4277
16019SOL    HW154019   6.096   2.855   0.972  1.3805 -0.0567 -0.3761
16019SOL    HW254020   6.078   2.924   1.106  0.6527 -0.3727 -0.3017
16020SOL     OW54021   2.197   0.247   0.231  0.1834 -0.2466  0.0710
16020SOL    HW154022   2.210   0.237   0.326  0.9087  0.1425  0.0193
16020SOL    HW254023   2.147   0.329   0.224  0.3851 -0.1177  0.1077
16021SOL     OW54024   3.463   9.122   5.335  0.6602  0.1144  0.4130
16021SOL    HW154025   3.526   9.190   5.311 -0.4446  1.3718  0.9378
16021SOL    HW254026   3.469   9.117   5.430  1.1332 -0.9495  0.3387
16022SOL     OW54027   0.672   3.009   3.668  0.2232 -0.8240  0.3185
16022SOL    HW154028   0.645   3.098   3.645 -1.3791 -1.5412 -0.7952
16022SOL    HW254029   0.591   2.959   3.666  1.0771 -2.2864  1.0869
16023SOL     OW54030   2.415   3.957   7.583 -0.4592 -0.7653 -0.4384
16023SOL    HW154031   2.430   3.942   7.489  0.5357 -0.8812 -0.2778
16023SOL    HW254032   2.467   4.034   7.603  1.4334 -2.1916  0.5108
16024SOL     OW54033   1.047   4.923   6.179  0.2460 -0.3049  0.8670
16024SOL    HW154034   1.072   4.840   6.138  1.0720  1.4813 -2.5854
16024SOL    HW254035   1.123   4.946   6.233  1.2781 -0.4213 -0.4875
16025SOL     OW54036   1.450   2.186   2.469 -0.2942  0.5464  0.4138
16025SOL    HW154037   1.373   2.214   2.519  0.0597 -0.3813  1.4993
16025SOL    HW254038   1.413   2.150   2.388 -0.9586  0.8448  0.5750
16026SOL     OW54039   5.245   1.676   7.829 -0.5345 -0.0247  0.1862
16026SOL    HW154040   5.291   1.592   7.832 -0.2075  0.1689  0.9332
16026SOL    HW254041   5.215   1.690   7.919 -1.9817 -0.0893 -0.2615
16027SOL     OW54042   7.671   5.974   8.488 -0.3875 -0.2584 -0.1862
16027SOL    HW154043   7.619   6.051   8.509 -1.3600 -0.8186 -0.4742
16027SOL    HW254044   7.685   5.979   8.394  0.2045 -0.0381 -0.0882
16028SOL     OW54045   6.373   3.713   7.331 -0.1659 -0.3328 -0.9152
16028SOL    HW154046   6.282   3.742   7.336 -0.1837 -0.2411 -1.7043
16028SOL    HW254047   6.401   3.737   7.243  0.7515  0.0052 -0.5427
16029SOL     OW54048   2.802   1.949   6.170 -0.3449 -0.1950  0.1206
16029SOL    HW154049   2.810   1.857   6.195 -0.2753 -0.3655 -0.5006
16029SOL    HW254050   2.729   1.950   6.108 -0.4005  0.1840  0.1936
16030SOL     OW54051   0.496   7.391   0.455  0.0728  0.2080  0.3382
16030SOL    HW154052   0.411   7.370   0.414  0.4573  0.3319 -0.5527
16030SOL    HW254053   0.558   7.390   0.382  0.9906 -0.6847  1.0992
16031SOL     OW54054   9.046   5.539   6.119  0.7477  1.0260 -0.3321
16031SOL    HW154055   9.027   5.503   6.206 -1.1320 -2.6465 -2.0403
16031SOL    HW254056   9.138   5.518   6.103  1.4177  2.6614  1.0647
16032SOL     OW54057   5.535   8.746   8.707 -0.2492 -0.0918  0.5091
16032SOL    HW154058   5.569   8.658   8.724  0.8340  0.4060  1.0580
16032SOL    HW254059   5.539   8.755   8.612  0.9137 -0.1603  0.5377
16033SOL     OW54060   6.853   7.123   6.164 -0.0757 -0.1629  0.2491
16033SOL    HW154061   6.863   7.123   6.259 -0.4693  1.1327  0.3106
16033SOL    HW254062   6.816   7.209   6.144  0.1035 -0.3786 -1.0899
16034SOL     OW54063   1.329   6.013   8.817  0.3292 -0.0255 -0.3205
16034SOL    HW154064   1.416   6.043   8.788  0.4712  0.2677  0.3990
16034SOL    HW254065   1.310   5.938   8.760  0.4859  0.6892 -1.3463
16035SOL     OW54066   2.908   7.979   7.104 -0.1933 -0.8770  0.4733
16035SOL    HW154067   2.926   8.065   7.143 -0.5323 -0.6624  0.1580
16035SOL    HW254068   2.849   7.936   7.167 -3.5751  0.7705 -1.2954
16036SOL     OW54069   8.124   5.062   3.939  0.2023  0.2943 -0.2442
16036SOL    HW154070   8.144   5.057   4.032 -0.6746  0.6943 -0.0306
16036SOL    HW254071   8.048   5.005   3.928  0.5654 -0.0986 -0.8000
16037SOL     OW54072   6.860   8.154   5.593  1.1378  0.0308  0.4230
16037SOL    HW154073   6.884   8.179   5.504  0.3098  0.7596  0.3891
16037SOL    HW254074   6.841   8.237   5.637  0.2205 -0.4056  0.8800
16038SOL     OW54075   4.547   5.067   7.715 -0.0535  0.6243 -0.2413
16038SOL    HW154076   4.536   4.981   7.674 -0.1296  1.0564 -1.1481
16038SOL    HW254077   4.573   5.125   7.643 -0.3225  1.4339  0.2995
16039SOL     OW54078   8.106   8.924   7.926  0.3554  0.2085 -0.4852
16039SOL    HW154079   8.025   8.952   7.970  0.7088  1.2656 -0.4943
16039SOL    HW254080   8.142   8.857   7.984 -0.0477  0.4042  0.0033
16040SOL     OW54081   0.289   5.958   3.098 -0.2279 -0.2944  0.0626
16040SOL    HW154082   0.216   5.901   3.122 -0.6167  0.5899  1.1065
16040SOL    HW254083   0.322   5.991   3.182  0.0974  0.8494 -0.4891
16041SOL     OW54084   4.830   1.538   2.123 -0.2368  0.1278  0.7105
16041SOL    HW154085   4.908   1.565   2.172 -1.3087  0.6957  2.1989
16041SOL    HW254086   4.860   1.465   2.068  2.2096  2.6632 -1.6320
16042SOL     OW54087   3.088   0.020   7.903 -0.5509  0.2338 -0.1211
16042SOL    HW154088   3.028  -0.010   7.971  0.2979  0.8252  0.9312
16042SOL    HW254089   3.173   0.025   7.947  0.2670 -0.5230 -1.5560
16043SOL     OW54090   4.461   3.517   8.371 -0.0018 -0.1297 -0.1280
16043SOL    HW154091   4.509   3.542   8.450  0.8579 -2.6202  0.2415
16043SOL    HW254092   4.382   3.474   8.403 -0.6611  0.6410 -0.6879
16044SOL     OW54093   5.632   5.668   2.881  0.0662 -0.0063  0.0710
16044SOL    HW154094   5.663   5.634   2.797 -2.5603 -1.9440 -0.2237
16044SOL    HW254095   5.603   5.757   2.861 -0.8510 -0.5644 -1.2136
16045SOL     OW54096   0.002   2.003   7.621 -0.0173 -0.4492 -0.1721
16045SOL    HW154097  -0.048   2.026   7.699  2.0689 -2.0982  1.7898
16045SOL    HW254098  -0.044   1.927   7.585  0.6010 -1.5498  1.2417
16046SOL     OW54099   2.297   8.400   2.585 -0.4053 -0.2045 -0.0398
16046SOL    HW154100   2.360   8.347   2.536 -0.6189  0.2552 -0.8276
16046SOL    HW254101   2.341   8.485   2.595 -0.3398 -0.3153  0.6222
16047SOL     OW54102   2.984   1.400   2.824 -0.5210 -0.3500 -0.5921
16047SOL    HW154103   3.009   1.369   2.911 -0.0747 -1.0016 -0.9423
16047SOL    HW254104   2.991   1.495   2.830  1.3986 -0.4643 -0.4625
16048SOL     OW54105   7.379   5.422   7.582 -0.0759  0.1940 -0.0371
16048SOL    HW154106   7.321   5.498   7.584  0.6156  0.7176  1.2264
16048SOL    HW254107   7.338   5.358   7.641  1.3269  1.1568  2.1264
16049SOL     OW54108   0.627   4.108   9.024  0.4367  0.4330  0.8945
16049SOL    HW154109   0.555   4.057   8.986 -0.2547  1.2208  1.1184
16049SOL    HW254110   0.618   4.195   8.985  1.8613  0.3022  0.1928
16050SOL     OW54111   6.239   7.662   7.110  0.1215  0.2980  0.1634
16050SOL    HW154112   6.182   7.658   7.187  0.1903  0.6426  0.2357
16050SOL    HW254113   6.297   7.735   7.128 -0.1831  0.6962 -0.4341
16051SOL     OW54114   7.774   9.114   7.234 -0.2630  0.9634  0.3094
16051SOL    HW154115   7.825   9.083   7.309 -2.3142 -0.0797  1.3474
16051SOL    HW254116   7.691   9.143   7.272 -1.4411  0.2206 -1.5802
16052SOL     OW54117   8.717   7.639   7.448  0.0763 -0.3346 -0.2534
16052SOL    HW154118   8.720   7.564   7.389  3.5006 -0.5989  0.0506
16052SOL    HW254119   8.734   7.715   7.392  0.6148 -0.2661 -0.0037
16053SOL     OW54120   5.320   0.899   8.774  0.2308 -0.3085  0.1698
16053SOL    HW154121   5.368   0.906   8.856  1.6376  1.0728 -0.7256
16053SOL    HW254122   5.252   0.966   8.780  0.6445  0.1273  0.0116
16054SOL     OW54123   0.987   7.857   0.722  0.4400  0.1339 -0.5332
16054SOL    HW154124   0.898   7.862   0.757  1.1555 -0.8883  1.6699
16054SOL    HW254125   0.976   7.857   0.627 -2.0479 -1.8183 -0.3431
16055SOL     OW54126   0.883   7.581   0.490 -0.0744  0.4293  0.3289
16055SOL    HW154127   0.961   7.586   0.544  0.0956  0.6539  0.0656
16055SOL    HW254128   0.911   7.531   0.413 -0.3454  0.0085  0.5003
16056SOL     OW54129   7.947   1.112   0.489  0.4276 -0.0538 -0.3630
16056SOL    HW154130   7.873   1.171   0.506  1.7369  1.1819  1.4190
16056SOL    HW254131   7.953   1.059   0.568  1.5123 -0.0757 -0.4554
16057SOL     OW54132   8.583   7.620   5.734  0.3088 -0.1119 -0.2235
16057SOL    HW154133   8.579   7.529   5.705  0.4594 -0.7597  1.6571
16057SOL    HW254134   8.575   7.616   5.829  1.0916  1.8008 -0.0203
16058SOL     OW54135   2.088   1.074   8.344 -0.4893 -0.8378  0.0326
16058SOL    HW154136   2.128   1.150   8.301  0.3685 -1.1729  0.2273
16058SOL    HW254137   2.155   1.043   8.404 -1.1242 -1.2916  0.5158
16059SOL     OW54138   8.806   3.670   3.649 -0.0232 -0.0666 -0.6225
16059SOL    HW154139   8.805   3.692   3.556  0.1229 -0.1705 -0.6501
16059SOL    HW254140   8.890   3.626   3.662  0.6788  1.3629 -0.1054
16060SOL     OW54141   6.062   5.627   0.447  0.5871  0.0125 -0.1899
16060SOL    HW154142   6.018   5.555   0.492 -0.7643  1.2411  0.5048
16060SOL    HW254143   6.143   5.640   0.497 -0.3114  0.5498  1.1668
16061SOL     OW54144   8.539   4.476   9.226  0.3719 -0.2184 -0.3104
16061SOL    HW154145   8.493   4.509   9.304  0.4719  0.3360 -0.4842
16061SOL    HW254146   8.509   4.531   9.155  1.6360  0.4467 -0.3528
16062SOL     OW54147   1.441   6.402   1.845 -0.5425 -0.4060  0.8112
16062SOL    HW154148   1.430   6.349   1.766  1.3660  0.0247  0.2064
16062SOL    HW254149   1.370   6.373   1.903 -2.0954 -0.6282 -1.0777
16063SOL     OW54150   7.715   6.436   5.915 -0.1372 -0.2661 -0.2873
16063SOL    HW154151   7.643   6.394   5.867 -1.4065  3.6059 -2.1878
16063SOL    HW254152   7.687   6.432   6.006 -1.7199 -0.7285 -0.7470
16064SOL     OW54153   4.322   7.714   0.379 -0.1448 -0.1597  0.0954
16064SOL    HW154154   4.333   7.768   0.457 -2.4358 -0.3051  0.5707
16064SOL    HW254155   4.320   7.775   0.306  0.0500  0.1331  0.3341
16065SOL     OW54156   6.333   1.310   6.530 -0.0698  0.3745  0.5150
16065SOL    HW154157   6.282   1.245   6.578  1.3981  0.3374  2.1142
16065SOL    HW254158   6.375   1.259   6.460 -1.2772  0.2087 -0.1291
16066SOL     OW54159   6.740   8.909   2.719 -0.2609  0.1084 -0.8828
16066SOL    HW154160   6.702   8.985   2.763 -0.5869  0.5857 -1.9525
16066SOL    HW254161   6.791   8.865   2.787 -2.7013 -0.5699  0.6480
16067SOL     OW54162   4.351   0.373   0.942 -0.0236 -0.0557 -0.3789
16067SOL    HW154163   4.296   0.423   1.002  1.6156  1.1199  0.1968
16067SOL    HW254164   4.434   0.362   0.988  2.2815  3.1577 -3.2684
16068SOL     OW54165   5.200   0.629   4.164 -0.0675  0.2383  0.0108
16068SOL    HW154166   5.242   0.689   4.225 -0.0012 -1.4573  1.7024
16068SOL    HW254167   5.267   0.562   4.146 -0.7136 -0.3065 -0.4190
16069SOL     OW54168   1.504   8.472   4.438  0.5220  0.0571 -0.3181
16069SOL    HW154169   1.589   8.510   4.458  0.1742 -0.1859  1.8081
16069SOL    HW254170   1.457   8.542   4.391  0.9191  1.2132  0.9537
16070SOL     OW54171   4.956   1.242   4.108  0.0474  0.1596 -0.0569
16070SOL    HW154172   4.973   1.163   4.159 -0.4725  0.4456  0.5676
16070SOL    HW254173   4.974   1.216   4.018  0.2736 -0.5559  0.1846
16071SOL     OW54174   2.445   3.644   9.259  0.3239  0.0391 -0.1364
16071SOL    HW154175   2.458   3.708   9.329 -1.0323  0.0156  0.1523
16071SOL    HW254176   2.442   3.560   9.305  2.7680 -0.3785 -0.5674
16072SOL     OW54177   7.718   1.320   0.744 -0.4013 -0.1624  0.1961
16072SOL    HW154178   7.746   1.272   0.822 -0.3046 -1.0554 -0.3779
16072SOL    HW254179   7.661   1.389   0.778 -0.8197 -0.8885  1.0119
16073SOL     OW54180   6.433   9.116   0.902 -0.2494 -0.0172  0.9761
16073SOL    HW154181   6.480   9.186   0.856 -1.3739 -0.3067 -0.6804
16073SOL    HW254182   6.493   9.041   0.898 -0.5453 -0.2140 -0.6053
16074SOL     OW54183   8.197   0.874   4.538  0.1844  0.8880  0.4043
16074SOL    HW154184   8.151   0.823   4.604 -1.4900 -0.8354 -1.9075
16074SOL    HW254185   8.221   0.810   4.470  0.6082  2.7239 -1.2919
16075SOL     OW54186   3.064   8.819   2.291  0.4690 -0.6751 -0.4355
16075SOL    HW154187   3.063   8.809   2.387  0.8729  0.2903 -0.3171
16075SOL    HW254188   3.116   8.898   2.276  0.1458 -0.6443 -1.4470
16076SOL     OW54189   5.113   4.666   4.755  0.3180  0.3351  0.4505
16076SOL    HW154190   5.103   4.728   4.682 -1.6598  0.9790  1.2116
16076SOL    HW254191   5.073   4.585   4.724 -2.3076  1.1574  1.3790
16077SOL     OW54192   3.826   6.909   8.495 -0.8797 -0.5399 -0.2861
16077SOL    HW154193   3.738   6.873   8.505 -1.1284  0.0212 -0.3864
16077SOL    HW254194   3.885   6.838   8.521 -1.3138 -1.3610 -1.4495
16078SOL     OW54195   5.544   3.133   2.041 -0.5287  0.0675 -0.6710
16078SOL    HW154196   5.524   3.052   1.993  0.1072 -1.7620  1.9111
16078SOL    HW254197   5.639   3.133   2.051 -0.5996  0.6439  0.1436
16079SOL     OW54198   0.118   1.329   7.932 -0.6854  0.1382  0.1281
16079SOL    HW154199   0.049   1.277   7.890 -1.4886 -0.9527  2.6011
16079SOL    HW254200   0.085   1.344   8.021  1.5089  1.1349  0.8326
16080SOL     OW54201   0.548   7.408   8.554  0.5465  0.6192  0.0258
16080SOL    HW154202   0.550   7.498   8.584 -3.5158  1.0624 -0.5043
16080SOL    HW254203   0.557   7.414   8.459  0.5146  0.4047  0.0091
16081SOL     OW54204   4.022   6.574   5.107 -0.0017 -0.0778  0.2948
16081SOL    HW154205   4.017   6.557   5.013  0.0320  0.6809  0.1499
16081SOL    HW254206   4.111   6.547   5.131 -0.5111 -1.7143  0.4189
16082SOL     OW54207   5.671   5.064   8.262 -0.1746  0.1335  0.0228
16082SOL    HW154208   5.714   5.031   8.341 -0.1975  0.9672  0.3968
16082SOL    HW254209   5.606   4.997   8.241  1.4680 -1.3150 -0.7311
16083SOL     OW54210   0.006   1.912   8.797 -0.8742  0.3572  0.2383
16083SOL    HW154211   0.091   1.892   8.836 -0.7574  1.1078  0.3730
16083SOL    HW254212  -0.052   1.929   8.871 -1.7166 -2.1814  0.2803
16084SOL     OW54213   1.233   7.906   4.575 -0.3654  0.1459 -0.5690
16084SOL    HW154214   1.228   7.923   4.481 -0.7007 -0.1082 -0.5993
16084SOL    HW254215   1.169   7.835   4.590 -1.5948  1.3548  0.1266
16085SOL     OW54216   0.730   6.550   2.731 -0.2622  0.5217 -0.1961
16085SOL    HW154217   0.647   6.521   2.769  0.6455  1.2215  2.5434
16085SOL    HW254218   0.705   6.593   2.649 -2.5523  0.4869  0.4122
16086SOL     OW54219   5.488   2.172   0.843  0.2544 -0.4549  0.2253
16086SOL    HW154220   5.464   2.097   0.789 -0.5032 -0.8266  1.0455
16086SOL    HW254221   5.410   2.228   0.843 -0.1081 -0.9205  1.6677
16087SOL     OW54222   7.969   3.596   4.088 -0.3506  1.1160  0.4806
16087SOL    HW154223   7.910   3.522   4.099 -0.2220  0.7893 -0.8523
16087SOL    HW254224   8.039   3.581   4.152  0.7934 -1.0707 -1.1601
16088SOL     OW54225   1.479   8.251   9.162  0.2441  0.3316 -0.2508
16088SOL    HW154226   1.501   8.295   9.245  0.9293 -0.2573 -0.1093
16088SOL    HW254227   1.466   8.160   9.186 -4.0509  0.8098 -0.0464
16089SOL     OW54228   0.380   8.470   5.635 -0.6843 -0.1117  0.3368
16089SOL    HW154229   0.347   8.407   5.570 -1.2850 -0.8410  1.3247
16089SOL    HW254230   0.306   8.488   5.692 -1.1057  3.0449 -1.0325
16090SOL     OW54231   1.111   7.476   2.899 -0.7840 -0.1047  0.6013
16090SOL    HW154232   1.183   7.537   2.917 -0.6739  0.7904 -2.3279
16090SOL    HW254233   1.112   7.415   2.973  1.9764  0.7975  1.4359
16091SOL     OW54234   4.634   6.320   5.776 -0.2733 -0.1240 -0.6731
16091SOL    HW154235   4.542   6.308   5.750 -0.4292  0.4020 -0.3799
16091SOL    HW254236   4.671   6.377   5.709 -0.1855 -0.2568 -0.7377
16092SOL     OW54237   1.021   1.881   8.307  0.0951 -0.3618  0.1753
16092SOL    HW154238   0.982   1.965   8.283 -0.3675 -0.3962  0.8011
16092SOL    HW254239   1.036   1.887   8.401  1.4443 -0.4207 -0.0149
16093SOL     OW54240   8.502   9.094   5.448  0.1292  0.2385 -0.0111
16093SOL    HW154241   8.444   9.144   5.506 -0.5559  0.8115 -1.1540
16093SOL    HW254242   8.493   9.137   5.363  0.6125 -0.9796 -0.6999
16094SOL     OW54243   1.748   0.416   8.907  0.8758 -0.1218 -0.3067
16094SOL    HW154244   1.782   0.359   8.975 -0.2279  1.1933  1.4417
16094SOL    HW254245   1.653   0.415   8.920  0.7990  1.8389 -0.3664
16095SOL     OW54246   8.424   1.206   3.739 -0.2804  0.2022 -0.2768
16095SOL    HW154247   8.506   1.191   3.693  0.5179  3.1656 -0.0134
16095SOL    HW254248   8.387   1.119   3.752  1.9726 -1.0832 -1.9102
16096SOL     OW54249   5.463   4.797   8.799  0.1443  0.1754 -0.2287
16096SOL    HW154250   5.411   4.869   8.835  1.9731  1.5152 -0.1328
16096SOL    HW254251   5.435   4.790   8.708  1.2789  2.3481 -0.7936
16097SOL     OW54252   7.518   3.339   5.690  0.2281 -0.2373  0.2789
16097SOL    HW154253   7.598   3.311   5.645  1.3314  2.5470  0.3457
16097SOL    HW254254   7.528   3.433   5.701 -2.0598 -0.1468  2.3826
16098SOL     OW54255   5.629   3.738   3.204  0.3377  0.4027 -0.1280
16098SOL    HW154256   5.624   3.825   3.245  1.6127  0.0750  0.7849
16098SOL    HW254257   5.541   3.722   3.170 -1.2980  0.0952  3.7518
16099SOL     OW54258   1.733   1.781   4.976  0.1343  0.1390  0.2468
16099SOL    HW154259   1.755   1.856   4.922 -0.4771 -1.1435 -1.8896
16099SOL    HW254260   1.663   1.813   5.034  1.4440  1.7878  0.9872
16100SOL     OW54261   8.047   8.191   8.942 -0.3693 -0.4012 -0.5452
16100SOL    HW154262   7.965   8.227   8.910 -0.6278  0.3729  0.9599
16100SOL    HW254263   8.084   8.146   8.865 -2.0014 -0.4626 -1.3348
16101SOL     OW54264   8.767   8.699   5.080 -0.4638  0.0761  0.0081
16101SOL    HW154265   8.702   8.746   5.131  0.0754  1.2038 -0.3144
16101SOL    HW254266   8.716   8.643   5.022 -1.0942 -1.3556  1.8440
16102SOL     OW54267   2.953   4.783   4.891  0.3992  0.2233 -0.5154
16102SOL    HW154268   2.864   4.760   4.865  0.4976  0.9773 -1.5833
16102SOL    HW254269   2.998   4.699   4.901 -0.2919 -0.1453 -0.4628
16103SOL     OW54270   1.129   2.537   8.993  0.3330 -0.4590  0.2604
16103SOL    HW154271   1.157   2.453   8.957  1.3668 -0.6110  1.4025
16103SOL    HW254272   1.078   2.514   9.071  1.1161 -0.0280  0.9148
16104SOL     OW54273   1.857   2.783   0.329 -0.1994  0.5295  0.1579
16104SOL    HW154274   1.916   2.853   0.356 -1.2391  1.3594  0.3338
16104SOL    HW254275   1.841   2.798   0.236 -0.5300  0.6125  0.2264
16105SOL     OW54276   7.554   7.116   9.261  0.4371  0.3931 -0.3270
16105SOL    HW154277   7.581   7.116   9.170  1.5629  1.0312 -0.0171
16105SOL    HW254278   7.598   7.040   9.300  1.1834  0.9744 -0.0007
16106SOL     OW54279   4.699   5.165   3.562 -0.5567 -0.0856 -0.0315
16106SOL    HW154280   4.654   5.168   3.647 -0.2235 -1.2440  0.1926
16106SOL    HW254281   4.764   5.096   3.572  1.3678  1.6091 -0.3265
16107SOL     OW54282   7.890   9.242   5.355 -0.9857 -0.4557 -0.2072
16107SOL    HW154283   7.892   9.308   5.286  0.9127  1.9308  1.9222
16107SOL    HW254284   7.974   9.197   5.348 -0.7841 -0.2055  0.4830
16108SOL     OW54285   1.489   0.661   7.197  0.2591 -0.1089  0.6042
16108SOL    HW154286   1.418   0.626   7.144  0.5385  0.1009  0.0832
16108SOL    HW254287   1.448   0.686   7.280 -0.3461  0.3783  0.1626
16109SOL     OW54288   3.303   8.649   5.468  0.2276 -0.1173  0.5564
16109SOL    HW154289   3.393   8.618   5.459  0.0554 -0.2957 -0.7100
16109SOL    HW254290   3.305   8.738   5.430  0.1900  0.4915  1.9283
16110SOL     OW54291   3.945   7.519   0.006  0.2790 -0.4870 -0.0920
16110SOL    HW154292   3.940   7.481   0.094 -2.4136 -0.2616 -0.0790
16110SOL    HW254293   3.994   7.601   0.018  2.3490 -1.7423  0.6331
16111SOL     OW54294   7.104   5.720   0.224  0.4158 -0.0946 -0.2998
16111SOL    HW154295   7.175   5.772   0.260  0.6389 -2.7782  3.7854
16111SOL    HW254296   7.147   5.657   0.166  1.1887 -0.6821  0.8932
16112SOL     OW54297   7.441   2.748   3.918  0.5431 -0.6178 -0.0699
16112SOL    HW154298   7.382   2.676   3.941  0.3854 -0.1006  1.2302
16112SOL    HW254299   7.486   2.718   3.839 -2.5777 -0.3822 -2.0971
16113SOL     OW54300   5.909   6.260   4.869 -0.1818 -0.5377  0.1474
16113SOL    HW154301   5.945   6.240   4.955 -0.0173 -0.4974  0.0888
16113SOL    HW254302   5.819   6.286   4.886 -0.3220 -1.0761  0.2526
16114SOL     OW54303   1.721   4.027   5.873  0.2168 -0.2565 -0.1099
16114SOL    HW154304   1.761   4.081   5.804  0.6044  0.5470  0.7299
16114SOL    HW254305   1.700   4.088   5.943 -2.3437 -0.6650 -0.4098
16115SOL     OW54306   7.051   7.425   6.306  0.2149 -0.5175  0.1188
16115SOL    HW154307   7.043   7.375   6.387 -0.0415 -0.0433  0.3897
16115SOL    HW254308   7.051   7.516   6.334 -3.0957 -0.1557 -0.5902
16116SOL     OW54309   1.008   0.441   0.458  0.2683 -0.7024 -0.9612
16116SOL    HW154310   1.030   0.353   0.489  1.9315 -0.1805 -0.5632
16116SOL    HW254311   1.087   0.472   0.414 -0.5640  0.3041 -1.8011
16117SOL     OW54312   2.911   9.263   4.612  0.4504  0.6155 -0.3806
16117SOL    HW154313   2.911   9.167   4.618  1.3538  0.5533 -1.1672
16117SOL    HW254314   2.915   9.292   4.703 -0.1479 -0.0863 -0.1180
16118SOL     OW54315   7.627   3.050   2.115  0.3639  0.1301  0.1342
16118SOL    HW154316   7.608   3.143   2.108  1.0943  0.2378 -0.4966
16118SOL    HW254317   7.592   3.025   2.201 -1.2059  0.6482 -0.3159
16119SOL     OW54318   2.112   3.747   4.990  0.3974  0.2183  0.6002
16119SOL    HW154319   2.176   3.679   5.010 -0.9312 -1.9013 -1.7397
16119SOL    HW254320   2.162   3.815   4.945  1.2349 -0.7898 -0.0244
16120SOL     OW54321   0.743   1.017   3.903  0.3076  0.2668 -0.1909
16120SOL    HW154322   0.772   0.926   3.895  1.0070  0.4420  0.2633
16120SOL    HW254323   0.703   1.037   3.819  0.5010 -0.3435 -0.4335
16121SOL     OW54324   8.348   3.619   6.269 -0.5316 -0.1964 -0.5233
16121SOL    HW154325   8.402   3.540   6.267  0.1233  0.2560 -1.6664
16121SOL    HW254326   8.362   3.659   6.184 -2.3504  0.1721 -0.6779
16122SOL     OW54327   2.256   5.174   7.040  0.1063 -0.1356 -0.1565
16122SOL    HW154328   2.215   5.211   6.961 -0.5461 -1.2757 -0.3830
16122SOL    HW254329   2.253   5.079   7.025  0.8814 -0.3182  0.8098
16123SOL     OW54330   7.133   1.327   1.539 -0.1597 -0.2401  0.3506
16123SOL    HW154331   7.078   1.277   1.479 -1.8609 -0.4245  1.9772
16123SOL    HW254332   7.078   1.399   1.569  0.0839 -0.9594  2.7579
16124SOL     OW54333   4.209   8.065   4.615 -0.1971  0.1159  0.1791
16124SOL    HW154334   4.298   8.089   4.643  0.2429 -0.6689 -0.4759
16124SOL    HW254335   4.187   7.989   4.668 -0.6545  0.5636  0.6363
16125SOL     OW54336   7.226   3.784   6.883  0.3592  0.8788 -0.2175
16125SOL    HW154337   7.175   3.841   6.941  1.9913  1.4301  0.7427
16125SOL    HW254338   7.215   3.822   6.796 -0.6222  1.1374  0.0015
16126SOL     OW54339   3.392   0.552   0.780 -0.1658  0.1664 -0.1011
16126SOL    HW154340   3.360   0.488   0.844  2.0325  0.5942  1.5322
16126SOL    HW254341   3.387   0.507   0.696 -0.7117 -1.3463  0.7085
16127SOL     OW54342   4.389   6.970   4.054  0.2740  0.2473 -0.5437
16127SOL    HW154343   4.401   7.056   4.095 -0.1753 -0.3711  0.9630
16127SOL    HW254344   4.478   6.934   4.049  0.2097 -0.2680  1.3293
16128SOL     OW54345   0.571   1.176   8.159 -0.0702 -0.6482 -0.5836
16128SOL    HW154346   0.494   1.217   8.120 -0.8402 -0.8768  0.6553
16128SOL    HW254347   0.611   1.128   8.086  0.0328  1.0540 -1.7120
16129SOL     OW54348   7.171   4.996   7.999  0.6920 -0.4725 -0.1992
16129SOL    HW154349   7.080   4.999   7.971  1.1879 -2.0942 -2.2400
16129SOL    HW254350   7.189   5.084   8.031 -1.5777 -0.1270  0.3034
16130SOL     OW54351   7.922   8.975   8.909 -0.3444 -0.7765 -0.1526
16130SOL    HW154352   7.949   8.883   8.908  1.3159 -0.3457 -1.8698
16130SOL    HW254353   7.973   9.015   8.980 -1.0675 -1.1613  0.5951
16131SOL     OW54354   0.593   5.137   0.876  0.3102 -0.2477  0.4522
16131SOL    HW154355   0.592   5.118   0.782  0.6520  0.0847  0.3802
16131SOL    HW254356   0.505   5.168   0.895  0.3793  0.1470  0.1444
16132SOL     OW54357   3.810   8.436   3.900  0.5964  0.4829 -0.1147
16132SOL    HW154358   3.850   8.523   3.891 -0.4294  0.9153 -0.7294
16132SOL    HW254359   3.725   8.445   3.856 -0.6289 -0.1083  1.9872
16133SOL     OW54360   4.652   1.170   4.692  0.1059  0.5369 -0.3915
16133SOL    HW154361   4.631   1.155   4.600 -0.3995  0.8668 -0.3301
16133SOL    HW254362   4.590   1.236   4.720 -0.4743 -0.3637  0.4918
16134SOL     OW54363   2.021   7.116   0.162  1.3460 -0.3712  0.0351
16134SOL    HW154364   2.002   7.133   0.254  0.0766 -2.3648  0.2048
16134SOL    HW254365   2.080   7.041   0.163  0.8056 -0.8257 -0.7722
16135SOL     OW54366   8.082   1.298   1.057  0.3140 -0.7040  0.6705
16135SOL    HW154367   8.156   1.329   1.109 -0.3801 -1.9530  2.5198
16135SOL    HW254368   8.022   1.373   1.055 -0.0489 -0.8973  2.5330
16136SOL     OW54369   1.558   7.733   3.590 -0.0563 -0.2679  0.6461
16136SOL    HW154370   1.527   7.643   3.588  0.1722 -0.4692  3.0881
16136SOL    HW254371   1.653   7.726   3.601 -0.0402  0.2588  0.9009
16137SOL     OW54372   0.726   3.562   8.449  0.5260  0.5078 -0.1809
16137SOL    HW154373   0.771   3.594   8.371  0.2314 -0.4124 -0.7458
16137SOL    HW254374   0.633   3.572   8.430  0.4512  2.0348  0.8249
16138SOL     OW54375   0.807   4.754   8.639 -0.0576 -0.0688  0.2552
16138SOL    HW154376   0.861   4.796   8.707  0.3478  2.0932 -1.2983
16138SOL    HW254377   0.725   4.805   8.639  0.5970  1.0868 -1.9510
16139SOL     OW54378   5.967   5.696   0.215 -0.3298 -0.3728  0.0862
16139SOL    HW154379   6.022   5.676   0.291  1.7869 -0.6793 -1.4524
16139SOL    HW254380   5.957   5.791   0.217  2.0046 -0.0610 -0.6850
16140SOL     OW54381   2.770   9.169   7.103  0.3233  0.3789  0.1820
16140SOL    HW154382   2.829   9.128   7.166  1.3519  0.1355 -0.9049
16140SOL    HW254383   2.773   9.262   7.124  1.3741  0.4112 -0.0618
16141SOL     OW54384   7.841   3.738   2.712  0.0065  0.5279 -0.4961
16141SOL    HW154385   7.930   3.704   2.720 -0.4574 -1.3627 -2.5050
16141SOL    HW254386   7.817   3.763   2.802  2.3933  0.7434  0.1545
16142SOL     OW54387   3.146   3.674   7.880  0.0598  0.4889  0.4370
16142SOL    HW154388   3.190   3.748   7.838  0.5696 -0.5674 -0.9715
16142SOL    HW254389   3.055   3.703   7.890 -0.1249  0.7649 -1.5595
16143SOL     OW54390   3.413   6.440   6.266 -0.1398  0.3741  0.1539
16143SOL    HW154391   3.463   6.360   6.249 -0.7990  0.0113 -0.0977
16143SOL    HW254392   3.477   6.501   6.302  0.1840 -0.5614  1.1881
16144SOL     OW54393   7.622   0.654   6.677 -0.2035  0.6319  0.0807
16144SOL    HW154394   7.715   0.652   6.696  0.1405 -1.3175 -1.5078
16144SOL    HW254395   7.590   0.567   6.700 -1.2097  0.6391 -1.1588
16145SOL     OW54396   6.889   1.528   3.131 -0.6461 -0.2485 -0.0322
16145SOL    HW154397   6.891   1.534   3.035  1.7775 -0.8912 -0.0906
16145SOL    HW254398   6.885   1.434   3.149  2.4046 -0.3986  0.3767
16146SOL     OW54399   8.963   5.159   0.200  0.3840  0.2673 -0.4852
16146SOL    HW154400   8.983   5.249   0.176  1.4303 -0.0472 -0.8743
16146SOL    HW254401   9.021   5.141   0.275 -0.4288  0.1794  0.1386
16147SOL     OW54402   6.953   3.513   1.538  0.5587  0.3021  0.5067
16147SOL    HW154403   7.028   3.567   1.562 -0.3170  1.3437  0.9452
16147SOL    HW254404   6.934   3.536   1.447 -0.8724  2.0665  1.1912
16148SOL     OW54405   1.034   1.106   4.554  0.7400 -0.1425  0.2134
16148SOL    HW154406   1.023   1.019   4.592  1.4822 -0.1051  0.5399
16148SOL    HW254407   0.979   1.163   4.608  0.5253 -0.3530  0.2165
16149SOL     OW54408   6.343   2.318   5.988  0.1878  0.3379 -0.4993
16149SOL    HW154409   6.282   2.350   5.922  0.4074  0.4903 -0.6299
16149SOL    HW254410   6.313   2.360   6.070 -0.4783 -0.3598 -0.3718
16150SOL     OW54411   2.941   4.774   2.487 -0.4194 -0.2803  0.6103
16150SOL    HW154412   2.968   4.794   2.576  1.4392  1.6069 -0.2904
16150SOL    HW254413   2.849   4.802   2.483 -0.4130 -0.0345  1.8328
16151SOL     OW54414   2.376   3.558   0.507 -0.5823 -0.3450  0.3601
16151SOL    HW154415   2.326   3.477   0.493  1.2044 -1.0153 -3.6550
16151SOL    HW254416   2.315   3.628   0.482 -0.9107 -0.7671 -0.0451
16152SOL     OW54417   7.257   5.660   7.098  0.5597  0.1111  0.5264
16152SOL    HW154418   7.320   5.687   7.031 -0.5384  0.8952 -0.2283
16152SOL    HW254419   7.209   5.740   7.119  0.3272 -0.3042  1.6657
16153SOL     OW54420   0.756   0.062   4.765 -0.1257 -0.3295  0.3599
16153SOL    HW154421   0.738   0.088   4.855 -0.8039 -1.5717  0.6163
16153SOL    HW254422   0.785  -0.029   4.772 -2.0713 -1.1079 -0.8116
16154SOL     OW54423   3.722   6.713   5.984  0.8025 -0.3058  0.5508
16154SOL    HW154424   3.754   6.676   6.066  1.0744 -2.5290 -0.4872
16154SOL    HW254425   3.801   6.734   5.935  0.6727 -1.0212  0.0161
16155SOL     OW54426   3.213   6.315   3.573  0.3229 -0.2295  0.1095
16155SOL    HW154427   3.156   6.249   3.533  0.3776 -0.2934  0.1372
16155SOL    HW254428   3.191   6.313   3.666 -0.2673  0.3761 -0.0024
16156SOL     OW54429   6.890   4.237   5.003 -0.5961 -0.2320  0.2292
16156SOL    HW154430   6.802   4.239   4.965 -1.1690  2.1110  1.4822
16156SOL    HW254431   6.893   4.314   5.059  2.6191  0.2792 -0.4880
16157SOL     OW54432   4.860   2.020   1.235 -0.0568 -0.6840  0.3410
16157SOL    HW154433   4.923   2.015   1.306  0.2921 -1.0614  0.0061
16157SOL    HW254434   4.889   1.955   1.172  0.4192  0.5437 -0.7625
16158SOL     OW54435   0.728   7.155   4.478  0.2864  0.1668 -0.0174
16158SOL    HW154436   0.795   7.101   4.435  0.1318 -0.0828  0.0511
16158SOL    HW254437   0.773   7.194   4.553  0.6070  0.7520 -0.5128
16159SOL     OW54438   3.637   7.047   6.143  0.1399  0.3819  0.3991
16159SOL    HW154439   3.600   7.062   6.056  0.3792 -1.4888 -0.0534
16159SOL    HW254440   3.580   7.098   6.202 -0.5121  1.0137 -0.7521
16160SOL     OW54441   3.347   0.564   0.332 -0.0628  0.1459  0.0296
16160SOL    HW154442   3.426   0.618   0.329  0.4278 -0.5602 -0.1288
16160SOL    HW254443   3.368   0.489   0.277 -0.8004 -0.1175  0.1012
16161SOL     OW54444   8.440   1.589   6.722 -0.1975  0.0655 -0.0844
16161SOL    HW154445   8.349   1.591   6.751  0.0160 -1.0552  0.7238
16161SOL    HW254446   8.457   1.678   6.691 -1.0249  0.8032  1.4528
16162SOL     OW54447   8.061   6.977   7.000 -0.0852 -0.4236 -0.4244
16162SOL    HW154448   8.142   7.018   6.970  0.2511  0.2128  1.2459
16162SOL    HW254449   8.063   6.890   6.962  1.2351 -0.3062 -0.6733
16163SOL     OW54450   1.499   7.205   7.503 -0.1497  0.1793  0.5665
16163SOL    HW154451   1.578   7.235   7.548  1.5429 -2.4436 -0.4620
16163SOL    HW254452   1.522   7.207   7.410 -1.2805 -0.6417  0.2480
16164SOL     OW54453   4.478   7.981   2.082 -0.9079 -0.6083 -0.4211
16164SOL    HW154454   4.553   7.960   2.027 -1.8842 -2.3991 -1.1545
16164SOL    HW254455   4.410   8.007   2.021 -1.1146  0.3186  0.1818
16165SOL     OW54456   4.035   8.443   4.983  0.3847 -0.0640  0.0442
16165SOL    HW154457   4.028   8.391   5.063 -0.1013  0.5535  0.4151
16165SOL    HW254458   3.955   8.422   4.935 -0.8565  1.8536  1.1409
16166SOL     OW54459   7.917   1.973   3.495  0.0513  0.1379  0.4075
16166SOL    HW154460   7.834   2.011   3.465  0.1762 -0.6539 -1.0740
16166SOL    HW254461   7.916   1.983   3.590 -0.2526  3.1197  0.1939
16167SOL     OW54462   6.039   7.115   4.701 -0.5674 -0.0811 -0.5053
16167SOL    HW154463   6.045   7.063   4.781  0.9357  1.7431  0.6645
16167SOL    HW254464   5.985   7.190   4.726 -1.7292 -0.4530 -1.8046
16168SOL     OW54465   8.369   9.143   0.304  0.1023  0.0628  0.3959
16168SOL    HW154466   8.364   9.048   0.309  1.4797 -0.0930 -0.6221
16168SOL    HW254467   8.441   9.166   0.363  0.6902  0.3348 -0.4150
16169SOL     OW54468   2.293   5.075   7.637 -0.2844 -0.4650  0.0384
16169SOL    HW154469   2.245   4.997   7.665  0.3562 -1.2888 -1.0705
16169SOL    HW254470   2.350   5.045   7.566 -0.5961  1.1635 -0.9786
16170SOL     OW54471   4.756   4.541   4.814  0.0758  0.2709 -0.3356
16170SOL    HW154472   4.816   4.594   4.865  0.9342  0.6888 -1.7267
16170SOL    HW254473   4.735   4.467   4.871  0.2079  1.2115  0.9718
16171SOL     OW54474   5.680   8.674   2.683  0.1254 -0.2919  0.1877
16171SOL    HW154475   5.775   8.688   2.681 -0.0857  1.3551  0.0947
16171SOL    HW254476   5.667   8.599   2.741  1.4702 -0.4807  0.2651
16172SOL     OW54477   7.925   7.525   0.363  0.1850  0.0823 -0.9119
16172SOL    HW154478   7.920   7.579   0.442 -2.0402  0.0510 -0.9684
16172SOL    HW254479   8.010   7.546   0.325  1.2417  0.2305  1.3673
16173SOL     OW54480   1.744   3.248   1.639 -0.1469 -0.1234 -0.3004
16173SOL    HW154481   1.808   3.275   1.574 -0.9246  0.6246 -0.7886
16173SOL    HW254482   1.727   3.156   1.621  1.3888 -0.5593  0.3704
16174SOL     OW54483   3.189   5.885   9.059  0.3835  0.6361  0.5309
16174SOL    HW154484   3.126   5.941   9.104 -0.2289  0.7872 -0.4992
16174SOL    HW254485   3.152   5.797   9.066 -0.6385  0.8934 -1.2018
16175SOL     OW54486   4.279   0.667   2.496 -0.1637 -0.9261 -0.4667
16175SOL    HW154487   4.328   0.740   2.458 -1.2386 -0.3382 -0.7714
16175SOL    HW254488   4.314   0.590   2.452 -1.4040 -0.2653 -2.7894
16176SOL     OW54489   5.699   9.068   7.049 -0.0668  0.6467 -0.2024
16176SOL    HW154490   5.789   9.072   7.017  0.8702  0.8575  2.2669
16176SOL    HW254491   5.697   9.129   7.123 -2.3304  0.8430 -0.3519
16177SOL     OW54492   5.166   1.187   3.797 -0.1343  0.0956 -0.1106
16177SOL    HW154493   5.248   1.142   3.814  0.1350  0.6930  0.1814
16177SOL    HW254494   5.166   1.202   3.702  0.5078  0.8843  0.0094
16178SOL     OW54495   9.288   2.017   8.081  0.0290 -0.2035 -0.3296
16178SOL    HW154496   9.265   1.979   7.996  0.2435  0.3409 -0.6331
16178SOL    HW254497   9.241   2.100   8.084 -0.3181 -0.4149  0.2717
16179SOL     OW54498   9.173   8.537   9.212  0.1137  0.2808  0.4598
16179SOL    HW154499   9.100   8.594   9.236  0.2864  1.0023 -0.6284
16179SOL    HW254500   9.243   8.561   9.271 -0.0559  0.6715  0.5075
16180SOL     OW54501   2.358   8.685   6.337 -0.0715  0.2418 -0.1900
16180SOL    HW154502   2.313   8.628   6.274  0.0412 -0.8545  0.6842
16180SOL    HW254503   2.398   8.624   6.399  0.0603  1.2875  0.7733
16181SOL     OW54504   5.480   0.707   8.659  0.3875  0.7405  0.1409
16181SOL    HW154505   5.517   0.776   8.605 -1.7103  0.8204 -1.3203
16181SOL    HW254506   5.415   0.752   8.713  0.3570  0.1917  0.5740
16182SOL     OW54507   5.883   5.738   4.661 -0.4837 -0.0763  0.1934
16182SOL    HW154508   5.866   5.645   4.679  1.1052 -0.4274  0.0037
16182SOL    HW254509   5.957   5.761   4.717 -1.1923  1.2496  0.6392
16183SOL     OW54510   2.813   1.058   1.175  0.3003  0.0607  0.3998
16183SOL    HW154511   2.856   1.038   1.092  0.8619 -2.4264  1.1904
16183SOL    HW254512   2.866   1.128   1.214  0.5850  0.5840 -0.8911
16184SOL     OW54513   3.523   3.737   2.791 -0.3123  0.4336  0.7290
16184SOL    HW154514   3.475   3.688   2.724  1.2958  1.5973 -1.4181
16184SOL    HW254515   3.469   3.815   2.806 -0.9862 -0.1291  1.2786
16185SOL     OW54516   1.613   8.861   8.605  0.4959 -0.1897 -0.3324
16185SOL    HW154517   1.520   8.868   8.584  0.3553  1.5690  0.6748
16185SOL    HW254518   1.631   8.767   8.606 -1.7337 -0.6876  1.3717
16186SOL     OW54519   4.780   3.264   7.450 -0.3048 -0.0187 -1.0768
16186SOL    HW154520   4.788   3.259   7.545  0.3555 -0.7284 -1.1685
16186SOL    HW254521   4.738   3.349   7.434 -0.2558  0.1800 -0.1665
16187SOL     OW54522   0.423   4.244   3.160 -0.0595 -0.2933  0.2803
16187SOL    HW154523   0.359   4.197   3.214 -2.0019  0.7672 -1.0207
16187SOL    HW254524   0.494   4.181   3.148 -1.6813 -2.2095  0.2156
16188SOL     OW54525   3.528   4.850   8.247  0.9610  0.2697 -0.1179
16188SOL    HW154526   3.597   4.784   8.256  1.9597  1.2776 -0.0790
16188SOL    HW254527   3.574   4.933   8.257 -0.1731  0.9906 -0.7543
16189SOL     OW54528   7.075   2.956   5.495 -0.2207  0.2991  0.3900
16189SOL    HW154529   7.092   3.029   5.555  2.4204  2.0752 -2.2373
16189SOL    HW254530   7.161   2.918   5.478 -1.2132 -1.7885 -0.3375
16190SOL     OW54531   3.777   7.231   2.107  0.2043 -0.1980  0.8323
16190SOL    HW154532   3.820   7.284   2.174  0.2077 -0.1788  0.8149
16190SOL    HW254533   3.847   7.212   2.044 -0.1642  1.2104 -0.0549
16191SOL     OW54534   2.338   7.443   1.710  0.8333  0.7993  0.3848
16191SOL    HW154535   2.318   7.349   1.703  1.5791  0.6540  0.0632
16191SOL    HW254536   2.411   7.456   1.649 -1.2277  2.2097 -2.0075
16192SOL     OW54537   5.296   7.229   9.054 -0.1089  0.2628  0.1575
16192SOL    HW154538   5.367   7.277   9.096 -0.3252  1.3483 -0.6935
16192SOL    HW254539   5.234   7.210   9.125  1.7827 -2.2778  1.3131
16193SOL     OW54540   3.145   7.099   1.836 -0.6974 -0.0449  0.0608
16193SOL    HW154541   3.078   7.033   1.854  0.3538 -0.9643  0.7504
16193SOL    HW254542   3.160   7.142   1.921 -1.1677  0.9025 -0.3211
16194SOL     OW54543   8.392   6.729   8.443 -0.6523 -0.3324 -0.1178
16194SOL    HW154544   8.439   6.781   8.508 -2.0563  0.4249  0.3298
16194SOL    HW254545   8.342   6.665   8.494 -0.5770 -0.7522 -0.5563
16195SOL     OW54546   4.493   4.583   4.996  0.0523 -0.1180  0.2549
16195SOL    HW154547   4.536   4.533   5.065  0.8720 -0.4345 -0.4739
16195SOL    HW254548   4.481   4.521   4.924 -1.1514  0.1056  0.2355
16196SOL     OW54549   1.370   4.093   8.918 -0.8171 -0.4888  0.7616
16196SOL    HW154550   1.418   4.044   8.985 -1.4363 -0.2336  1.4055
16196SOL    HW254551   1.389   4.185   8.937 -1.3922 -0.3945  0.9002
16197SOL     OW54552   1.201   4.559   5.355 -0.1111 -0.0858 -0.6562
16197SOL    HW154553   1.283   4.583   5.398 -0.4422 -1.7423  0.9969
16197SOL    HW254554   1.228   4.522   5.271  0.5642  2.7197 -1.8095
16198SOL     OW54555   2.697   6.646   2.265 -0.2977 -0.6340  0.4494
16198SOL    HW154556   2.609   6.608   2.262 -0.9113  0.7984 -0.9037
16198SOL    HW254557   2.717   6.668   2.174  1.4224 -0.8148  0.7554
16199SOL     OW54558   7.737   4.669   1.828  0.0379 -0.4659 -0.3465
16199SOL    HW154559   7.790   4.714   1.763  0.6599 -0.8906 -0.1444
16199SOL    HW254560   7.764   4.577   1.822  1.4330 -0.2639  1.7177
16200SOL     OW54561   9.204   3.160   1.837 -0.2320  0.4397  0.2818
16200SOL    HW154562   9.261   3.085   1.822 -0.4578  0.2797  0.2108
16200SOL    HW254563   9.163   3.142   1.922 -1.4598 -0.2895 -0.4283
16201SOL     OW54564   7.931   7.346   2.089  0.2032 -0.2021 -0.1649
16201SOL    HW154565   8.020   7.362   2.055  0.1414  1.4798  0.3573
16201SOL    HW254566   7.895   7.434   2.103 -2.3274 -0.7658 -2.2958
16202SOL     OW54567   3.234   1.789   3.073 -0.5865  0.1808 -0.0310
16202SOL    HW154568   3.207   1.876   3.102  2.4641  1.3186 -0.1946
16202SOL    HW254569   3.230   1.793   2.978 -0.5981  0.0725 -0.0354
16203SOL     OW54570   7.358   4.724   8.394  0.5043  0.0044 -0.0745
16203SOL    HW154571   7.310   4.788   8.341  0.7522  0.5363  0.3408
16203SOL    HW254572   7.395   4.664   8.330 -0.7754 -0.4694 -0.4130
16204SOL     OW54573   3.879   3.313   6.613 -0.5909 -0.0100 -0.2962
16204SOL    HW154574   3.799   3.364   6.627 -0.9791 -0.7678  0.2668
16204SOL    HW254575   3.950   3.376   6.626 -1.0537  0.2891  0.8301
16205SOL     OW54576   6.095   0.136   0.972  0.3885  0.0475 -0.2991
16205SOL    HW154577   6.135   0.112   0.888  2.4487 -2.7149  1.3169
16205SOL    HW254578   6.042   0.060   0.997  0.8392  0.2689  1.4741
16206SOL     OW54579   6.679   5.119   3.925  0.5046  0.2264  0.6585
16206SOL    HW154580   6.659   5.081   3.839  2.5227  1.6462 -0.5236
16206SOL    HW254581   6.598   5.162   3.951 -0.2940 -0.6455 -0.2876
16207SOL     OW54582   5.790   7.592   5.788 -0.1810 -0.2061 -0.1718
16207SOL    HW154583   5.779   7.601   5.694 -1.0372 -0.4771 -0.1150
16207SOL    HW254584   5.871   7.543   5.799  0.3408  0.5175 -0.7343
16208SOL     OW54585   6.552   0.058   6.556 -0.6246  0.1409  0.6474
16208SOL    HW154586   6.466   0.056   6.513 -0.8893  1.2570  1.0683
16208SOL    HW254587   6.611   0.093   6.490 -0.9240  1.3394  0.9812
16209SOL     OW54588   3.807   2.541   4.726  0.0844 -0.0916  0.6687
16209SOL    HW154589   3.858   2.464   4.700  0.0875  0.1968 -0.2171
16209SOL    HW254590   3.723   2.531   4.681  0.1750  0.5410  0.3524
16210SOL     OW54591   1.250   9.323   1.071  0.4459  0.3271 -0.7350
16210SOL    HW154592   1.263   9.235   1.105 -1.3623  0.6443  0.9562
16210SOL    HW254593   1.322   9.336   1.010  2.7244 -1.0700  1.4685
16211SOL     OW54594   4.310   3.600   1.675 -0.2988 -0.0757  0.2842
16211SOL    HW154595   4.229   3.615   1.724  0.3657 -0.4284  1.5121
16211SOL    HW254596   4.289   3.529   1.615 -1.0079  0.1113  0.2991
16212SOL     OW54597   5.680   7.928   3.098 -0.2000  0.1887 -0.5081
16212SOL    HW154598   5.733   7.870   3.042 -1.6953 -1.7901  0.0239
16212SOL    HW254599   5.681   8.012   3.052  2.5660 -0.0145 -0.9972
16213SOL     OW54600   7.758   1.102   3.380 -0.0355  0.0942  0.3104
16213SOL    HW154601   7.703   1.056   3.316  0.7958 -1.2898  0.5629
16213SOL    HW254602   7.718   1.189   3.387 -1.2359 -0.3435 -0.6993
16214SOL     OW54603   7.674   9.156   9.069 -0.2321  0.1066 -0.2975
16214SOL    HW154604   7.702   9.065   9.077  0.9865  0.5629  1.5605
16214SOL    HW254605   7.756   9.206   9.066 -0.8399  1.2469  0.8322
16215SOL     OW54606   6.853   1.740   4.752  0.1721  0.1954 -0.1940
16215SOL    HW154607   6.777   1.778   4.709 -0.0430 -0.1418 -0.1112
16215SOL    HW254608   6.921   1.807   4.744 -0.1424  0.5114 -0.2350
16216SOL     OW54609   6.962   5.896   4.654  0.4769 -0.0319 -0.1340
16216SOL    HW154610   7.043   5.885   4.703  0.9535 -0.7733 -1.0615
16216SOL    HW254611   6.983   5.869   4.565 -0.9331 -0.8342 -0.2664
16217SOL     OW54612   0.548   6.152   7.424  0.0788  0.0468 -0.2570
16217SOL    HW154613   0.464   6.106   7.417  0.4580 -0.8152  0.5481
16217SOL    HW254614   0.550   6.184   7.514  0.2227  0.8823 -0.5458
16218SOL     OW54615   0.992   0.699   9.072  0.1075  0.0754  0.0089
16218SOL    HW154616   0.990   0.653   9.156  1.0006 -0.1430 -0.0820
16218SOL    HW254617   0.901   0.721   9.055 -0.1409 -0.2976  0.8079
16219SOL     OW54618   3.663   1.056   9.360  0.5131  0.1287  0.1875
16219SOL    HW154619   3.622   0.988   9.306  1.4546  0.2333 -0.6887
16219SOL    HW254620   3.744   1.016   9.391  0.8835  0.7105 -0.0215
16220SOL     OW54621   7.727   8.415   5.921 -0.6894 -0.0460  0.2936
16220SOL    HW154622   7.754   8.387   6.008 -1.1052  0.9452  0.7564
16220SOL    HW254623   7.638   8.380   5.911 -0.2555 -1.0504 -0.1661
16221SOL     OW54624   4.205   7.054   0.342 -0.1255 -0.4542 -0.9362
16221SOL    HW154625   4.185   7.068   0.434 -1.3563 -0.3525 -1.2002
16221SOL    HW254626   4.202   7.142   0.303 -0.3578 -0.5756 -1.2017
16222SOL     OW54627   2.688   4.489   7.573 -0.3351 -0.0574 -0.1173
16222SOL    HW154628   2.604   4.528   7.597  0.1781  2.8423 -2.4535
16222SOL    HW254629   2.670   4.443   7.490  0.1706 -0.3063 -0.0897
16223SOL     OW54630   3.745   3.228   1.009  0.3303 -0.1634  0.2233
16223SOL    HW154631   3.758   3.290   1.081 -0.1712 -2.2427  2.2360
16223SOL    HW254632   3.666   3.259   0.965 -0.4345  0.1631  1.7554
16224SOL     OW54633   7.697   4.800   8.606 -0.3757 -0.0891  0.5291
16224SOL    HW154634   7.608   4.767   8.620 -1.3790  1.1566 -2.1747
16224SOL    HW254635   7.715   4.782   8.514  1.3735  1.4996  0.4981
16225SOL     OW54636   1.788   6.831   6.065 -0.3469 -0.9814  0.2565
16225SOL    HW154637   1.855   6.861   6.004 -0.9790 -0.3213 -0.1231
16225SOL    HW254638   1.787   6.735   6.054 -0.4759 -0.8713 -0.7956
16226SOL     OW54639   7.674   5.404   7.595 -0.2727 -0.8598 -0.0727
16226SOL    HW154640   7.695   5.483   7.645 -1.5901 -0.4094 -0.1703
16226SOL    HW254641   7.583   5.384   7.620  0.7247 -3.7305  1.7539
16227SOL     OW54642   6.465   5.299   3.967 -0.0812  0.6183 -0.1699
16227SOL    HW154643   6.410   5.255   4.032  0.4651  0.0500 -0.0813
16227SOL    HW254644   6.406   5.360   3.922 -0.9564 -0.5074 -0.5792
16228SOL     OW54645   2.789   3.297   8.938 -0.5307 -0.2812  0.4089
16228SOL    HW154646   2.706   3.316   8.982 -0.3916 -0.9339  0.9728
16228SOL    HW254647   2.846   3.265   9.008 -0.1770 -0.9581 -0.1778
16229SOL     OW54648   2.572   8.670   6.820  0.1135  0.1822  0.0527
16229SOL    HW154649   2.560   8.635   6.908  1.4369  0.9439  0.5634
16229SOL    HW254650   2.617   8.753   6.833 -0.2336  0.6106 -1.3127
16230SOL     OW54651   1.273   0.477   8.668  0.3140  0.1437  0.0263
16230SOL    HW154652   1.234   0.564   8.676 -0.9393 -0.4393  0.7131
16230SOL    HW254653   1.239   0.443   8.585  0.4332  0.1365 -0.0196
16231SOL     OW54654   5.740   5.151   2.002 -0.6874 -0.1478  0.0187
16231SOL    HW154655   5.796   5.078   1.976 -0.5215 -0.0101 -0.0145
16231SOL    HW254656   5.651   5.121   1.984 -0.6110 -0.2910 -0.1215
16232SOL     OW54657   7.066   1.437   6.221  0.2482 -0.0679 -0.1478
16232SOL    HW154658   7.094   1.412   6.133 -1.4871  0.1960 -0.8138
16232SOL    HW254659   7.091   1.363   6.276  0.4741 -0.6710 -1.0421
16233SOL     OW54660   9.082   3.532   2.945 -0.1755  0.2421  0.3318
16233SOL    HW154661   9.135   3.521   2.866 -0.4404 -0.6756  0.2743
16233SOL    HW254662   8.992   3.542   2.914 -0.3183 -0.4185  0.5271
16234SOL     OW54663   9.117   5.303   9.065  0.1424 -0.3082  0.0275
16234SOL    HW154664   9.173   5.226   9.069 -1.0763 -1.2101  0.3229
16234SOL    HW254665   9.028   5.269   9.076 -0.3805  1.1959  0.8278
16235SOL     OW54666   7.995   4.974   2.931 -0.1459 -0.7431  0.1654
16235SOL    HW154667   7.965   4.891   2.968 -1.1693 -0.9203 -0.9854
16235SOL    HW254668   8.007   5.031   3.006 -0.4947 -1.6055  0.8906
16236SOL     OW54669   4.101   0.811   6.737 -0.4039 -0.0793  0.1788
16236SOL    HW154670   4.117   0.889   6.790 -0.2811  1.0188 -1.4266
16236SOL    HW254671   4.009   0.790   6.754 -0.3835  0.2707  0.7794
16237SOL     OW54672   6.505   2.728   8.916  0.0728  0.0680  0.0326
16237SOL    HW154673   6.470   2.775   8.841 -0.6893  0.1435  0.4326
16237SOL    HW254674   6.445   2.747   8.988  1.5349  1.1396  1.0393
16238SOL     OW54675   5.241   1.529   0.553  0.0224  0.1954 -0.0685
16238SOL    HW154676   5.279   1.446   0.580  1.1467  0.4277 -0.8484
16238SOL    HW254677   5.272   1.592   0.617 -0.1995  0.1463  0.0876
16239SOL     OW54678   7.181   1.314   7.221  0.0890 -0.0840  0.5735
16239SOL    HW154679   7.240   1.389   7.228 -0.4932  0.4131  0.2794
16239SOL    HW254680   7.169   1.284   7.311  1.8248 -1.0304  0.5346
16240SOL     OW54681   0.433   7.557   2.542  0.3457  0.0477 -0.3279
16240SOL    HW154682   0.449   7.469   2.576 -0.3600  0.6598  1.7291
16240SOL    HW254683   0.508   7.609   2.571  0.2915  0.3413 -0.6981
16241SOL     OW54684   7.861   5.506   5.488  0.2923 -0.1568  0.3378
16241SOL    HW154685   7.896   5.585   5.446  0.0761 -1.0893 -1.7497
16241SOL    HW254686   7.877   5.519   5.581  2.0289  1.4930 -0.1199
16242SOL     OW54687   4.463   0.219   8.922 -0.1082 -0.1927  0.0016
16242SOL    HW154688   4.480   0.201   8.829  0.3633  0.4179 -0.0310
16242SOL    HW254689   4.547   0.247   8.957 -0.5491  0.7587  0.3300
16243SOL     OW54690   1.677   8.967   3.698 -0.0434  0.2692 -0.1311
16243SOL    HW154691   1.692   8.985   3.791 -1.3308 -0.0434  0.1616
16243SOL    HW254692   1.757   8.923   3.669  0.2378  0.0511  0.9249
16244SOL     OW54693   9.343   8.400   1.975  0.0129  0.4576 -0.2600
16244SOL    HW154694   9.257   8.411   1.936 -0.3447  0.1292  0.4122
16244SOL    HW254695   9.358   8.482   2.023 -0.7512 -0.1794  1.1471
16245SOL     OW54696   0.190   7.151   4.955 -0.4384 -0.0177 -0.2575
16245SOL    HW154697   0.280   7.181   4.961 -0.4619 -0.2462  2.3621
16245SOL    HW254698   0.194   7.057   4.966 -1.0108 -0.0275 -0.0656
16246SOL     OW54699   5.793   0.074   5.958 -0.3788 -0.0464  0.4792
16246SOL    HW154700   5.843   0.129   6.018 -1.2665  0.8672  0.3979
16246SOL    HW254701   5.720   0.129   5.930  0.4587 -0.1152 -2.1138
16247SOL     OW54702   7.656   3.056   5.418 -0.3847  0.4643 -0.6341
16247SOL    HW154703   7.630   3.143   5.388 -3.3042  0.1610  0.7219
16247SOL    HW254704   7.615   2.996   5.355 -0.4605  0.0362 -0.1872
16248SOL     OW54705   4.558   0.181   2.933  0.0902 -0.0595 -0.3458
16248SOL    HW154706   4.525   0.241   2.999 -1.0876 -0.3594 -0.6444
16248SOL    HW254707   4.622   0.127   2.979  0.7380  1.0277  0.0631
16249SOL     OW54708   3.907   9.150   1.504 -0.0087  0.2287  0.4692
16249SOL    HW154709   3.843   9.106   1.561 -0.6272  0.3021 -0.1536
16249SOL    HW254710   3.926   9.085   1.436  1.8319 -0.4103  1.5336
16250SOL     OW54711   3.528   3.440   0.979  0.0154 -0.1901 -0.0724
16250SOL    HW154712   3.471   3.509   0.946 -2.1784 -2.2908 -0.9745
16250SOL    HW254713   3.511   3.438   1.073 -1.8922 -1.1177 -0.3900
16251SOL     OW54714   8.596   2.181   4.773  0.3129 -0.3443 -0.0067
16251SOL    HW154715   8.545   2.176   4.854  1.0092 -0.4415  0.4346
16251SOL    HW254716   8.533   2.163   4.704  0.1444 -2.5677  0.6629
16252SOL     OW54717   4.087   2.916   7.678  0.3399  0.6138  0.4538
16252SOL    HW154718   4.130   2.882   7.600  3.2041  1.5170  1.5170
16252SOL    HW254719   4.059   3.004   7.653  2.6197  1.5049  0.7740
16253SOL     OW54720   7.839   2.387   6.741  0.3779  0.3451  0.4170
16253SOL    HW154721   7.920   2.339   6.757  0.3540  0.2903  0.3757
16253SOL    HW254722   7.848   2.417   6.650 -0.0815 -0.5057  0.0799
16254SOL     OW54723   5.365   8.111   1.336  0.2116 -0.4724  0.2200
16254SOL    HW154724   5.422   8.091   1.410  0.7972  3.0791  0.8986
16254SOL    HW254725   5.283   8.139   1.377  1.1046  3.2798 -0.1323
16255SOL     OW54726   0.329   4.172   5.157  0.5274 -0.0487 -0.0691
16255SOL    HW154727   0.242   4.177   5.117  0.0294 -0.6068  0.8869
16255SOL    HW254728   0.350   4.078   5.156  0.5803 -0.0590  0.7616
16256SOL     OW54729   0.270   7.849   7.778 -0.1727  0.4279 -0.3591
16256SOL    HW154730   0.340   7.795   7.742  1.0039  1.6350  0.0280
16256SOL    HW254731   0.275   7.835   7.873 -2.1771 -1.4490 -0.4393
16257SOL     OW54732   2.767   8.008   3.339 -0.7543 -0.1627 -0.5719
16257SOL    HW154733   2.721   7.931   3.373 -2.2381  0.8633 -0.1656
16257SOL    HW254734   2.731   8.021   3.251 -1.3252  0.6726 -0.2339
16258SOL     OW54735   8.444   5.265   3.800  0.0474 -0.3579  0.5662
16258SOL    HW154736   8.389   5.302   3.731 -1.2794 -1.3540  1.0374
16258SOL    HW254737   8.513   5.219   3.754 -0.9560 -1.2068 -0.1215
16259SOL     OW54738   6.440   9.201   1.194  0.1788 -0.1761 -0.0009
16259SOL    HW154739   6.413   9.145   1.122  0.3676 -0.3973  0.0985
16259SOL    HW254740   6.466   9.140   1.264  1.4873  0.0057 -0.2961
16260SOL     OW54741   6.470   5.150   6.918  0.0039  0.4669  0.0913
16260SOL    HW154742   6.480   5.091   6.843 -1.6333  1.7155 -1.1854
16260SOL    HW254743   6.375   5.155   6.931  0.2394  0.8624  1.7846
16261SOL     OW54744   2.808   6.069   2.444 -0.1451  0.3068 -0.0649
16261SOL    HW154745   2.793   5.974   2.450 -0.2187  0.3060 -0.2363
16261SOL    HW254746   2.748   6.098   2.374 -0.1209  0.4791 -0.0143
16262SOL     OW54747   8.809   4.722   0.442  0.1104  0.4035  0.1515
16262SOL    HW154748   8.771   4.636   0.463  1.3113 -0.4612 -1.0683
16262SOL    HW254749   8.899   4.716   0.473  0.0863  1.4151  0.4542
16263SOL     OW54750   0.032   0.029   8.805 -0.4438  0.0098 -0.1217
16263SOL    HW154751   0.030   0.014   8.899  1.5117 -0.0750 -0.0571
16263SOL    HW254752   0.047  -0.057   8.767  0.3736  0.2522 -0.3846
16264SOL     OW54753   6.767   5.343   0.835  0.2050  0.5733  0.0903
16264SOL    HW154754   6.734   5.254   0.833  0.4215  0.5051 -1.0782
16264SOL    HW254755   6.788   5.359   0.927 -1.5706  0.0823  0.6139
16265SOL     OW54756   1.155   0.168   0.228  0.3058  0.5484 -0.2789
16265SOL    HW154757   1.091   0.172   0.299  1.4679 -0.8009  0.9322
16265SOL    HW254758   1.172   0.074   0.217  0.8780  0.7919 -1.6811
16266SOL     OW54759   5.938   5.972   3.463  0.5988  0.0816 -0.1035
16266SOL    HW154760   5.885   5.911   3.515  1.6455  0.6294  1.6834
16266SOL    HW254761   5.912   5.955   3.372  0.4588 -2.6426  0.3647
16267SOL     OW54762   4.732   3.439   3.831 -0.3057  0.0534 -0.7993
16267SOL    HW154763   4.805   3.500   3.841 -0.4680  0.5139 -2.2487
16267SOL    HW254764   4.760   3.378   3.763 -1.0242 -0.1354 -0.9347
16268SOL     OW54765   7.841   1.817   0.098 -0.4300 -0.0588  0.4996
16268SOL    HW154766   7.925   1.770   0.099 -0.1694  0.3115 -0.9845
16268SOL    HW254767   7.806   1.806   0.186  2.4629  2.0900  2.0908
16269SOL     OW54768   3.259   5.726   4.900  0.3836  0.2358  0.3953
16269SOL    HW154769   3.324   5.718   4.970 -0.5076 -0.1150  1.2183
16269SOL    HW254770   3.181   5.760   4.945 -0.7992 -1.7479 -0.0352
16270SOL     OW54771   9.141   5.439   0.511 -0.3450 -0.3645 -0.5555
16270SOL    HW154772   9.144   5.359   0.459 -0.8180 -1.2697  0.7453
16270SOL    HW254773   9.232   5.457   0.533 -0.3004 -1.1028 -0.0796
16271SOL     OW54774   8.917   4.413   1.961  0.4391 -0.0716  0.2716
16271SOL    HW154775   8.905   4.319   1.946  2.1823 -0.1534 -0.8836
16271SOL    HW254776   8.848   4.455   1.910  0.1828 -0.7061  0.0938
16272SOL     OW54777   4.285   3.550   3.305  0.8053 -0.4238 -0.4872
16272SOL    HW154778   4.210   3.494   3.290  0.9509 -0.6742 -0.2805
16272SOL    HW254779   4.248   3.632   3.340  0.6081 -0.4449 -0.6522
16273SOL     OW54780   4.286   3.982   2.781 -0.6722 -0.0342 -0.1838
16273SOL    HW154781   4.283   4.036   2.702  1.4857 -0.1124 -0.3731
16273SOL    HW254782   4.377   3.985   2.808 -0.8898 -2.0052  0.9196
16274SOL     OW54783   6.491   3.475   2.700 -0.0139 -0.3299 -0.2451
16274SOL    HW154784   6.538   3.393   2.707  0.5122 -0.2268 -2.1899
16274SOL    HW254785   6.401   3.454   2.726  0.1976 -1.4163 -0.3769
16275SOL     OW54786   8.786   9.163   7.470 -0.7042  0.4292 -0.2721
16275SOL    HW154787   8.722   9.156   7.541  0.9319  0.3097  1.2934
16275SOL    HW254788   8.806   9.256   7.464 -1.1995  0.4967 -0.9338
16276SOL     OW54789   5.527   6.077   1.030  0.4361  0.2980 -0.2290
16276SOL    HW154790   5.546   5.987   1.002 -0.0679 -0.6878  2.3001
16276SOL    HW254791   5.453   6.068   1.090  1.5517  2.1469  1.5611
16277SOL     OW54792   5.479   6.126   1.502  0.4970 -0.1347  0.2901
16277SOL    HW154793   5.433   6.185   1.562 -3.4545  0.4167 -2.8390
16277SOL    HW254794   5.462   6.038   1.538  0.7297  0.2833  1.4636
16278SOL     OW54795   6.984   5.288   2.096  0.4262 -0.0495  0.7758
16278SOL    HW154796   7.001   5.278   2.003  0.9186 -1.0516  0.9628
16278SOL    HW254797   7.051   5.236   2.139 -1.6003 -2.1565  1.6146
16279SOL     OW54798   8.212   7.421   0.424 -0.2636 -0.1099 -0.4885
16279SOL    HW154799   8.179   7.457   0.506  0.5155  1.7147 -0.9349
16279SOL    HW254800   8.202   7.492   0.361  1.6224 -0.5451 -1.3357
16280SOL     OW54801   9.238   4.552   7.303  0.6804 -0.1944 -0.7456
16280SOL    HW154802   9.270   4.466   7.277  0.7604  0.6978 -4.0539
16280SOL    HW254803   9.308   4.613   7.279 -0.8560  1.1344 -2.1588
16281SOL     OW54804   2.799   0.180   6.506 -0.0311  0.0436 -0.1711
16281SOL    HW154805   2.717   0.138   6.531  0.4593 -0.6870  0.2607
16281SOL    HW254806   2.864   0.143   6.565  0.1335  2.8519  1.5968
16282SOL     OW54807   1.764   0.526   1.683  0.0647  0.4191  0.5432
16282SOL    HW154808   1.698   0.583   1.643  0.6738  1.4643  0.9871
16282SOL    HW254809   1.835   0.585   1.707  1.2807 -0.7262 -0.1408
16283SOL     OW54810   8.665   3.530   1.359 -0.6978 -0.0621 -0.4302
16283SOL    HW154811   8.587   3.573   1.326 -0.2872  0.4961 -0.6917
16283SOL    HW254812   8.722   3.521   1.283 -0.9524 -1.4726 -0.4669
16284SOL     OW54813   8.502   8.699   7.711  0.3368 -0.1145 -0.3594
16284SOL    HW154814   8.571   8.757   7.678  1.7064 -1.0718  0.6744
16284SOL    HW254815   8.421   8.747   7.696  1.0780  0.5127 -2.8114
16285SOL     OW54816   5.773   8.035   1.618  0.3577  1.0650 -0.4382
16285SOL    HW154817   5.831   7.987   1.558 -0.1809  1.3167 -1.1584
16285SOL    HW254818   5.772   7.981   1.697  0.4153  0.3007 -0.9467
16286SOL     OW54819   7.339   3.887   0.146  0.1530 -0.1330 -0.4094
16286SOL    HW154820   7.371   3.797   0.139  0.8526  0.1830 -1.4458
16286SOL    HW254821   7.338   3.919   0.056  0.3226  1.0439 -0.0036
16287SOL     OW54822   4.153   2.572   5.845  0.1906  0.3853 -0.4320
16287SOL    HW154823   4.167   2.598   5.936  1.7319  1.3482 -0.9202
16287SOL    HW254824   4.083   2.506   5.850 -0.1882  0.8636  1.3674
16288SOL     OW54825   9.168   4.313   6.068  0.3166  0.7168  0.0450
16288SOL    HW154826   9.119   4.231   6.078  2.1018 -0.1416  5.0827
16288SOL    HW254827   9.233   4.295   6.000 -1.3013 -0.8532 -1.1666
16289SOL     OW54828   5.159   5.170   3.288 -0.1200 -0.4724 -0.2073
16289SOL    HW154829   5.223   5.225   3.243  0.5275 -1.0357  0.0268
16289SOL    HW254830   5.183   5.175   3.381 -1.1013  0.2174  0.0357
16290SOL     OW54831   4.136   5.535   9.172 -0.2523  0.4409  0.2317
16290SOL    HW154832   4.169   5.542   9.261  0.2435  0.6195  0.0405
16290SOL    HW254833   4.214   5.520   9.119 -0.7548 -2.1498  0.0845
16291SOL     OW54834   1.769   4.333   3.989  0.4322 -0.0764 -0.1384
16291SOL    HW154835   1.803   4.387   4.060  1.5780  0.1251 -0.8101
16291SOL    HW254836   1.765   4.245   4.027  3.5632 -0.4987 -0.5199
16292SOL     OW54837   4.714   1.222   4.237 -0.6334  0.4028 -0.1803
16292SOL    HW154838   4.773   1.236   4.163  1.5087 -3.0117  0.6457
16292SOL    HW254839   4.770   1.231   4.314 -2.2591  1.4247  0.9492
16293SOL     OW54840   8.025   5.621   8.991  0.3896  0.9035 -0.1000
16293SOL    HW154841   7.974   5.559   9.043 -0.0961  0.8178 -0.6680
16293SOL    HW254842   8.005   5.707   9.029  1.4505  0.6814  1.0095
16294SOL     OW54843   4.177   8.335   8.156  0.4530  0.0353  0.0394
16294SOL    HW154844   4.107   8.289   8.110  0.4126  1.3070 -1.2532
16294SOL    HW254845   4.135   8.373   8.233 -0.2982  0.7417 -0.6940
16295SOL     OW54846   8.088   8.087   3.902  0.0595 -0.3691 -0.2335
16295SOL    HW154847   8.046   8.045   3.977  0.9099  0.9325  1.0406
16295SOL    HW254848   8.137   8.160   3.940 -1.4877  1.9355 -2.3153
16296SOL     OW54849   6.096   2.067   7.076  0.0846  0.3535  0.3532
16296SOL    HW154850   6.174   2.044   7.026 -1.0757 -1.4279 -0.7611
16296SOL    HW254851   6.078   2.158   7.051  0.8003  0.2179 -0.7359
16297SOL     OW54852   6.343   4.280   4.894  0.2422  0.0266 -0.6942
16297SOL    HW154853   6.376   4.197   4.927 -0.0163  0.2599  0.1675
16297SOL    HW254854   6.291   4.316   4.966 -1.9449 -0.3366 -1.9874
16298SOL     OW54855   8.266   3.205   2.995 -0.1574  0.3424  0.0385
16298SOL    HW154856   8.217   3.282   3.023 -0.3190  0.3584 -0.2757
16298SOL    HW254857   8.285   3.157   3.075 -0.2386  0.6021  0.2132
16299SOL     OW54858   1.152   8.717   3.825 -0.5950  0.7580  0.1520
16299SOL    HW154859   1.086   8.754   3.766 -1.5760  0.4419  1.0118
16299SOL    HW254860   1.101   8.687   3.901  0.6458  1.2506  1.2055
16300SOL     OW54861   8.841   5.887   1.909  0.8379  1.1917  0.2104
16300SOL    HW154862   8.920   5.888   1.855  0.2155 -0.6575 -0.7925
16300SOL    HW254863   8.769   5.879   1.847  0.1093 -1.1346  1.2329
16301SOL     OW54864   6.456   5.960   2.821  0.0138  0.1656 -0.1591
16301SOL    HW154865   6.510   5.908   2.880  1.2856  0.0562 -1.3579
16301SOL    HW254866   6.367   5.928   2.834  0.4646 -0.7570  0.7305
16302SOL     OW54867   8.556   7.398   8.885  0.1770  0.0695 -0.0420
16302SOL    HW154868   8.557   7.425   8.793  2.1334 -0.1987 -0.1407
16302SOL    HW254869   8.592   7.473   8.932 -0.2219 -0.0320  0.4219
16303SOL     OW54870   3.302   2.914   8.821  0.2968  0.2762  0.3554
16303SOL    HW154871   3.316   2.968   8.743 -1.8187  1.6330  0.8375
16303SOL    HW254872   3.390   2.889   8.849  1.1776  0.9408 -1.6366
16304SOL     OW54873   0.465   6.629   2.334  0.1151  0.0233 -0.0469
16304SOL    HW154874   0.560   6.627   2.327  0.0611  0.3729 -1.0372
16304SOL    HW254875   0.438   6.537   2.338  0.3593 -0.1568 -1.9900
16305SOL     OW54876   5.166   4.647   7.884  0.3398 -0.2074  0.5989
16305SOL    HW154877   5.223   4.573   7.865 -0.0275  0.2095 -2.6412
16305SOL    HW254878   5.220   4.724   7.867 -0.6082  0.1892 -0.8010
16306SOL     OW54879   3.323   2.634   8.617 -0.0219 -0.7514  0.0426
16306SOL    HW154880   3.328   2.580   8.696 -0.4997  0.2230  0.7689
16306SOL    HW254881   3.309   2.723   8.650 -0.1693 -0.3135 -1.1455
16307SOL     OW54882   8.408   5.352   9.182  0.0218 -0.0331  0.1800
16307SOL    HW154883   8.426   5.387   9.095  0.2651 -0.2730  0.1332
16307SOL    HW254884   8.313   5.357   9.191 -0.2056 -1.8125 -0.8715
16308SOL     OW54885   3.949   1.202   7.812 -0.5188 -0.3556 -0.4009
16308SOL    HW154886   3.944   1.292   7.846 -2.1096 -0.8295  0.7389
16308SOL    HW254887   4.035   1.171   7.842 -0.9934 -0.0336  1.4721
16309SOL     OW54888   4.037   5.311   8.905 -0.2186 -0.0784 -0.4926
16309SOL    HW154889   3.981   5.381   8.940  2.4154  1.8470  0.2048
16309SOL    HW254890   4.042   5.330   8.812  1.3267  1.4327 -0.1593
16310SOL     OW54891   0.059   1.761   7.317  0.1053  0.3239 -0.0959
16310SOL    HW154892   0.132   1.822   7.315 -0.6605  1.2910  0.5036
16310SOL    HW254893   0.081   1.699   7.386  0.6005  0.2839 -0.2849
16311SOL     OW54894   4.677   2.730   4.599  0.1636 -0.0237 -0.1966
16311SOL    HW154895   4.645   2.815   4.630  2.2568  0.7769 -0.0514
16311SOL    HW254896   4.676   2.674   4.676 -1.5230 -0.2467 -0.3608
16312SOL     OW54897   0.399   6.536   3.659  0.1568 -0.5709  0.7701
16312SOL    HW154898   0.321   6.497   3.621 -0.3558  0.8488  0.3210
16312SOL    HW254899   0.378   6.545   3.752 -0.7602  0.9945  0.4462
16313SOL     OW54900   6.308   1.532   6.877 -0.6965 -0.4677 -0.1709
16313SOL    HW154901   6.331   1.524   6.785 -0.6300  0.9245 -0.3029
16313SOL    HW254902   6.339   1.450   6.917  0.7529 -0.4157 -1.0909
16314SOL     OW54903   7.970   6.329   8.026  0.1876 -0.3564 -0.2161
16314SOL    HW154904   8.045   6.367   7.979 -0.4952  1.1833 -0.1002
16314SOL    HW254905   7.995   6.237   8.039  1.5160 -0.1832 -1.2734
16315SOL     OW54906   4.666   6.589   3.094  0.3288  0.3774 -0.3283
16315SOL    HW154907   4.692   6.505   3.131  1.5065  0.3577 -1.1696
16315SOL    HW254908   4.609   6.566   3.020  1.4164  0.2669 -1.1523
16316SOL     OW54909   1.382   2.224   1.348  0.1714  0.2267  0.2052
16316SOL    HW154910   1.338   2.140   1.338  0.4844  0.1629 -0.7960
16316SOL    HW254911   1.312   2.289   1.344  0.1017  0.1055 -1.0505
16317SOL     OW54912   6.750   5.480   8.779  0.6530  0.0079 -0.2008
16317SOL    HW154913   6.744   5.525   8.863  2.9971 -0.7693  0.4386
16317SOL    HW254914   6.754   5.551   8.715 -3.0852  0.6460  0.0214
16318SOL     OW54915   8.730   4.232   5.279 -0.1052  0.6537  0.2557
16318SOL    HW154916   8.703   4.146   5.312 -1.8274  0.6700 -0.9704
16318SOL    HW254917   8.712   4.292   5.351 -1.0673  0.2869  0.3436
16319SOL     OW54918   7.799   0.886   7.109  0.2136 -0.0449 -0.1398
16319SOL    HW154919   7.793   0.917   7.199 -0.5344  0.8639 -0.4957
16319SOL    HW254920   7.890   0.859   7.099  0.5092  0.6321  0.6383
16320SOL     OW54921   1.228   7.627   6.550  0.0229  0.2791  0.2211
16320SOL    HW154922   1.243   7.551   6.495  0.4834  1.3974 -1.2861
16320SOL    HW254923   1.191   7.592   6.631 -0.6081 -1.4444 -0.7613
16321SOL     OW54924   3.791   6.964   1.553  0.1662 -0.3955  0.5551
16321SOL    HW154925   3.700   6.941   1.568 -0.8546  1.8476 -1.4810
16321SOL    HW254926   3.789   7.059   1.538  2.6796 -0.4246 -0.4446
16322SOL     OW54927   8.753   1.264   5.414 -0.0790 -0.1323  0.9683
16322SOL    HW154928   8.790   1.176   5.411 -0.4479 -0.2650 -0.3926
16322SOL    HW254929   8.688   1.260   5.484 -0.2335 -1.0005  0.7858
16323SOL     OW54930   0.783   3.649   7.935 -0.2468 -0.7873 -0.2958
16323SOL    HW154931   0.824   3.703   7.868 -0.8600  0.3082  0.1843
16323SOL    HW254932   0.854   3.592   7.967  0.9516  1.0670  0.5348
16324SOL     OW54933   6.327   4.484   5.811 -0.0872 -0.2752  0.6586
16324SOL    HW154934   6.303   4.413   5.870 -0.7881  0.6799  1.5595
16324SOL    HW254935   6.409   4.519   5.847  0.1674 -0.5198  0.3156
16325SOL     OW54936   7.197   8.497   3.411 -0.9731  0.1618  0.1557
16325SOL    HW154937   7.135   8.424   3.416  0.6434 -1.1562  2.5591
16325SOL    HW254938   7.274   8.461   3.367 -0.3744  0.5557  0.8591
16326SOL     OW54939   9.099   8.261   2.694 -0.2379 -0.1693  0.6229
16326SOL    HW154940   9.186   8.257   2.732  0.5173  0.1455 -1.0073
16326SOL    HW254941   9.092   8.183   2.640 -0.7822  0.0622  0.3473
16327SOL     OW54942   0.085   3.527   6.320  0.2959  0.4908 -0.5318
16327SOL    HW154943   0.069   3.486   6.235  0.4826  2.0330 -1.3439
16327SOL    HW254944   0.158   3.587   6.304 -0.5313  1.7833  0.3982
16328SOL     OW54945   5.603   3.812   9.002 -0.6421  0.4403 -0.2434
16328SOL    HW154946   5.641   3.739   9.051 -1.4396 -0.5030 -0.9879
16328SOL    HW254947   5.542   3.852   9.063 -0.3048  0.4049  0.1247
16329SOL     OW54948   4.128   4.890   9.022 -0.4434  0.0680  0.5799
16329SOL    HW154949   4.070   4.821   9.055 -1.1105  1.3447  2.2269
16329SOL    HW254950   4.070   4.966   9.012  0.3916  0.5716 -0.6169
16330SOL     OW54951   1.045   6.402   2.407  0.2436 -0.6761  0.0127
16330SOL    HW154952   1.047   6.411   2.502 -0.3693 -1.2663  0.0907
16330SOL    HW254953   1.116   6.459   2.376  0.1417 -0.1147  0.7850
16331SOL     OW54954   3.154   8.238   4.273  0.0785  0.1487 -0.2135
16331SOL    HW154955   3.247   8.241   4.295 -0.2911  1.5323  1.3647
16331SOL    HW254956   3.147   8.284   4.189  0.8127 -0.0661 -0.3993
16332SOL     OW54957   2.218   1.127   0.399 -0.5064 -0.0185  0.2421
16332SOL    HW154958   2.302   1.136   0.445 -0.1224 -0.9330 -0.2441
16332SOL    HW254959   2.235   1.061   0.331 -1.1017  1.1309 -1.0845
16333SOL     OW54960   7.389   2.451   7.220 -0.0776  0.6886  0.0622
16333SOL    HW154961   7.294   2.462   7.224 -0.2964 -0.6859 -0.7958
16333SOL    HW254962   7.402   2.357   7.224  1.1343  0.7412 -1.6464
16334SOL     OW54963   4.345   7.659   3.665  0.5989 -0.4011  0.1931
16334SOL    HW154964   4.281   7.657   3.737  0.1010  0.3863 -0.2165
16334SOL    HW254965   4.294   7.636   3.587  1.3367 -2.2563  0.2015
16335SOL     OW54966   5.377   7.103   7.688 -0.1974 -0.0923  0.2224
16335SOL    HW154967   5.352   7.060   7.606 -0.2791 -1.3568  0.8807
16335SOL    HW254968   5.472   7.114   7.681  0.5452 -3.9915  1.5576
16336SOL     OW54969   4.747   4.379   5.995 -0.3342  0.0708 -0.0936
16336SOL    HW154970   4.667   4.351   5.950 -0.5388 -0.0374  0.3377
16336SOL    HW254971   4.782   4.449   5.939  0.0894 -0.9112 -1.0925
16337SOL     OW54972   3.256   9.358   3.199  0.3941 -0.1351 -0.4922
16337SOL    HW154973   3.245   9.394   3.287 -2.4310 -2.4904  0.2966
16337SOL    HW254974   3.326   9.293   3.208  0.0033 -0.4845  0.0908
16338SOL     OW54975   5.558   5.418   1.187 -0.1880 -0.6395 -0.5063
16338SOL    HW154976   5.578   5.342   1.132 -1.5939 -0.8406 -0.7723
16338SOL    HW254977   5.463   5.428   1.181 -0.2916 -0.1971  1.2849
16339SOL     OW54978   8.857   2.290   4.859 -0.3055  0.4906 -0.0032
16339SOL    HW154979   8.786   2.290   4.796 -1.1036 -1.8440  0.7689
16339SOL    HW254980   8.818   2.321   4.940 -0.5096 -0.8078  0.4250
16340SOL     OW54981   1.523   8.492   1.397 -0.7649  0.3157 -0.0386
16340SOL    HW154982   1.566   8.577   1.399  2.1276 -1.0229 -0.0755
16340SOL    HW254983   1.499   8.479   1.305 -0.4076  0.7136 -0.1898
16341SOL     OW54984   2.397   9.215   3.456 -0.2372 -0.7728 -0.3104
16341SOL    HW154985   2.311   9.250   3.481  0.5026 -1.1631  3.3436
16341SOL    HW254986   2.403   9.132   3.503  2.6907 -0.0127  0.8659
16342SOL     OW54987   4.874   7.454   8.272  0.7507 -0.0968 -0.4343
16342SOL    HW154988   4.788   7.489   8.248  0.4532 -0.3204  0.2789
16342SOL    HW254989   4.910   7.423   8.189 -0.0315 -0.3687 -0.6905
16343SOL     OW54990   3.911   0.577   1.818 -0.5037 -0.3211  0.9817
16343SOL    HW154991   3.901   0.672   1.812 -1.6821 -0.5020 -1.1655
16343SOL    HW254992   4.005   0.562   1.817 -0.3215  0.7907  0.0927
16344SOL     OW54993   0.465   6.811   8.056 -0.1642 -0.0476 -0.8700
16344SOL    HW154994   0.472   6.772   8.142 -0.8420  0.8241 -0.3990
16344SOL    HW254995   0.421   6.895   8.071 -0.6969 -0.0778 -2.1097
16345SOL     OW54996   7.647   1.286   2.689  0.7120 -0.4397  0.1906
16345SOL    HW154997   7.729   1.268   2.644  1.0259 -1.6598  1.2123
16345SOL    HW254998   7.601   1.347   2.631  3.0669  1.7275  0.4070
16346SOL     OW54999   0.902   2.465   2.006 -0.1203 -0.4741  0.2509
16346SOL    HW155000   0.810   2.491   2.005 -0.0158 -0.0174 -1.4083
16346SOL    HW255001   0.950   2.547   1.994  0.3816 -0.9154 -0.9828
16347SOL     OW55002   8.080   0.994   6.313  0.0389  0.3489 -0.1839
16347SOL    HW155003   8.084   1.001   6.409  3.1683 -2.9137  0.1185
16347SOL    HW255004   7.989   0.970   6.295 -0.1867 -0.8667  2.1874
16348SOL     OW55005   7.607   5.843   7.194 -0.8304  0.5314 -0.0637
16348SOL    HW155006   7.607   5.748   7.180 -0.7847  0.3010  1.3186
16348SOL    HW255007   7.621   5.853   7.288  1.2964  1.9758 -0.4694
16349SOL     OW55008   9.233   4.500   8.527 -0.2390  0.0497 -0.0641
16349SOL    HW155009   9.303   4.537   8.473 -0.7669 -0.1961 -0.9473
16349SOL    HW255010   9.154   4.511   8.473 -1.1174  1.4680  1.4060
16350SOL     OW55011   0.088   1.658   7.590 -0.5425  0.2963  0.4514
16350SOL    HW155012   0.009   1.618   7.626 -0.1947 -0.2337  0.6467
16350SOL    HW255013   0.118   1.719   7.658 -1.2109  1.0793  0.0503
16351SOL     OW55014   3.058   5.912   8.568  0.4223  0.2636 -0.2482
16351SOL    HW155015   3.043   5.819   8.586 -2.3615  0.2878 -1.8783
16351SOL    HW255016   3.038   5.957   8.650 -1.1791 -0.4050 -0.2392
16352SOL     OW55017   8.113   5.972   8.568  0.9454 -0.1505 -0.4258
16352SOL    HW155018   8.107   5.914   8.645  1.0467  0.7413  0.2762
16352SOL    HW255019   8.198   6.014   8.577  1.0807 -0.2409 -1.1978
16353SOL     OW55020   4.298   6.871   3.111  0.1647 -0.1624  0.7085
16353SOL    HW155021   4.371   6.889   3.052 -1.2687 -0.1653 -1.1435
16353SOL    HW255022   4.266   6.957   3.138  0.0438 -0.1308  0.4667
16354SOL     OW55023   7.179   9.277   1.519  0.7290  0.1381  0.1670
16354SOL    HW155024   7.156   9.207   1.458  0.9493  0.2647 -0.0601
16354SOL    HW255025   7.208   9.349   1.464 -0.1295  0.6466  0.3790
16355SOL     OW55026   4.637   7.456   1.204  0.6890 -0.1375 -0.2447
16355SOL    HW155027   4.689   7.536   1.203 -1.2625  1.3244  2.4330
16355SOL    HW255028   4.624   7.437   1.297 -1.4912 -1.7989 -0.8160
16356SOL     OW55029   0.458   5.735   8.647  0.2557 -0.3422  0.0514
16356SOL    HW155030   0.473   5.641   8.656  0.1628 -0.4156 -0.5270
16356SOL    HW255031   0.448   5.749   8.553  1.8626  0.4815 -0.0437
16357SOL     OW55032   2.159   1.137   9.161  0.3759 -0.0560 -0.5535
16357SOL    HW155033   2.128   1.166   9.247  0.0205 -1.4273 -0.1874
16357SOL    HW255034   2.242   1.092   9.179  0.7959  0.4993 -1.0671
16358SOL     OW55035   5.801   9.004   3.617 -0.0572 -0.0910 -0.8893
16358SOL    HW155036   5.774   9.091   3.588  1.3539  0.2219 -1.3632
16358SOL    HW255037   5.773   8.998   3.708 -0.3518  0.7835 -0.9212
16359SOL     OW55038   5.410   8.620   7.978 -0.3169 -0.4599 -0.1588
16359SOL    HW155039   5.335   8.646   7.925 -0.1216 -1.1392 -0.7827
16359SOL    HW255040   5.485   8.624   7.918 -0.2191 -2.0119 -0.1666
16360SOL     OW55041   9.284   4.068   2.657 -0.1619 -0.3035  0.5051
16360SOL    HW155042   9.357   4.011   2.631  0.9755  2.3251 -2.5994
16360SOL    HW255043   9.212   4.042   2.600 -0.9141 -1.1531  1.7899
16361SOL     OW55044   1.947   4.098   5.686  0.1552  0.1646  0.1287
16361SOL    HW155045   1.990   4.111   5.601 -0.4999 -0.9504 -0.3948
16361SOL    HW255046   1.981   4.169   5.741 -1.0893  2.3135 -1.6931
16362SOL     OW55047   4.664   5.193   6.757  0.4472  0.2916  0.3633
16362SOL    HW155048   4.692   5.110   6.795 -1.4154 -0.6002 -0.0574
16362SOL    HW255049   4.718   5.260   6.800  2.5911 -1.1823  0.0718
16363SOL     OW55050   9.082   4.047   8.088 -0.1403  0.6181 -0.3867
16363SOL    HW155051   9.165   4.092   8.073 -1.3410  2.0305 -3.5749
16363SOL    HW255052   9.094   3.961   8.047  0.9013 -0.7725  2.5169
16364SOL     OW55053   6.045   5.390   0.146  0.7659  0.3070 -0.6137
16364SOL    HW155054   5.961   5.387   0.100 -0.0107  2.9680  0.4342
16364SOL    HW255055   6.024   5.367   0.237  1.4727 -0.4843 -0.6337
16365SOL     OW55056   4.558   1.115   2.994  0.5051 -0.2126  0.4218
16365SOL    HW155057   4.649   1.125   2.966  0.4649  0.8360  0.6320
16365SOL    HW255058   4.551   1.170   3.072 -0.5105  0.3226 -0.0362
16366SOL     OW55059   0.123   7.381   3.131  0.3684  1.1246 -0.0443
16366SOL    HW155060   0.127   7.468   3.170 -2.7946  1.7032 -0.7171
16366SOL    HW255061   0.032   7.371   3.105  0.6214 -2.4142 -0.0394
16367SOL     OW55062   0.418   6.880   5.134 -0.1351  0.0248 -0.2363
16367SOL    HW155063   0.510   6.862   5.153 -0.1161  0.4356  0.0876
16367SOL    HW255064   0.373   6.863   5.217 -0.0739  1.7220  0.1717
16368SOL     OW55065   3.054   3.429   3.161 -0.3415 -0.3670  0.1466
16368SOL    HW155066   3.071   3.340   3.130 -0.3854 -1.4119  2.8588
16368SOL    HW255067   2.959   3.436   3.164 -0.3754 -1.0706  1.9536
16369SOL     OW55068   8.391   9.222   5.168 -0.2695  0.4796 -0.5087
16369SOL    HW155069   8.319   9.202   5.108 -1.0625  0.8703  0.2962
16369SOL    HW255070   8.458   9.262   5.112  0.2696 -1.8945 -1.6774
16370SOL     OW55071   2.591   0.102   5.262 -0.6269  0.2413 -0.0162
16370SOL    HW155072   2.664   0.050   5.297 -1.4973 -1.3927 -0.5488
16370SOL    HW255073   2.513   0.059   5.297 -1.3643  1.9846  0.5696
16371SOL     OW55074   8.953   1.873   9.102 -0.3194 -0.0742  0.3216
16371SOL    HW155075   8.992   1.868   9.190 -0.6759  2.3625  0.6825
16371SOL    HW255076   8.864   1.904   9.117 -0.2336  0.8321 -0.9068
16372SOL     OW55077   0.905   3.959   6.295 -0.2769 -0.1721  0.1027
16372SOL    HW155078   0.872   3.878   6.257  0.8896 -0.1336 -1.0377
16372SOL    HW255079   0.927   3.936   6.386  0.0619 -1.1368 -0.2205
16373SOL     OW55080   0.526   4.566   5.972 -0.2966 -0.1244 -0.2651
16373SOL    HW155081   0.533   4.487   5.919  0.7412  0.3503 -0.8582
16373SOL    HW255082   0.442   4.605   5.946 -0.1808 -0.3270 -0.9726
16374SOL     OW55083   2.053   0.521   6.424 -0.7052 -0.8841  0.1042
16374SOL    HW155084   1.988   0.452   6.409 -1.9030  0.2865 -0.2127
16374SOL    HW255085   2.016   0.598   6.382  1.4454 -0.4492 -1.1197
16375SOL     OW55086   6.482   8.852   4.074  0.1331 -0.0173 -0.4190
16375SOL    HW155087   6.414   8.800   4.032  0.6775 -2.7527  1.8154
16375SOL    HW255088   6.435   8.908   4.136 -0.1958 -0.8711  0.1133
16376SOL     OW55089   9.241   2.893   0.825 -0.2812 -0.0955 -0.4546
16376SOL    HW155090   9.228   2.942   0.906 -1.3103  0.3436 -0.8671
16376SOL    HW255091   9.154   2.884   0.787  0.2996  0.8079 -2.1310
16377SOL     OW55092   4.635   2.797   1.103 -0.0760  0.3556 -0.1212
16377SOL    HW155093   4.592   2.880   1.122 -0.6046 -0.0260  0.3954
16377SOL    HW255094   4.584   2.758   1.032 -1.8436 -0.9936  1.7816
16378SOL     OW55095   2.285   3.301   1.169 -0.6682  0.0239 -0.1035
16378SOL    HW155096   2.259   3.391   1.192 -1.2608  0.1373 -1.1596
16378SOL    HW255097   2.258   3.291   1.078  0.5296 -0.8109 -0.3810
16379SOL     OW55098   0.738   4.770   8.333 -0.4302 -0.6462 -0.0519
16379SOL    HW155099   0.660   4.763   8.278 -1.8117 -0.5415  1.7702
16379SOL    HW255100   0.703   4.791   8.420  1.7282  0.7896  0.5470
16380SOL     OW55101   0.457   6.447   3.103 -0.2241 -0.5967  0.4199
16380SOL    HW155102   0.468   6.486   3.190  0.0989 -0.4144  0.2980
16380SOL    HW255103   0.484   6.356   3.113 -0.4434 -0.6475  0.5711
16381SOL     OW55104   6.266   6.242   1.377  0.0816 -0.0691 -0.0237
16381SOL    HW155105   6.189   6.298   1.366 -1.2304 -1.9301 -0.6835
16381SOL    HW255106   6.301   6.231   1.289  0.4431 -0.1493  0.1278
16382SOL     OW55107   0.261   0.970   6.095  0.1487 -0.3750  0.2939
16382SOL    HW155108   0.188   0.915   6.065  0.2221 -2.1421  2.9565
16382SOL    HW255109   0.219   1.039   6.147  0.2353  0.3909 -0.6324
16383SOL     OW55110   4.013   1.964   8.430  0.3981  0.4228 -0.8384
16383SOL    HW155111   3.990   2.012   8.510  1.3447  0.7715 -0.7637
16383SOL    HW255112   4.091   1.914   8.454  0.8693  0.7608 -1.6242
16384SOL     OW55113   8.883   0.994   7.307 -0.4066 -0.3280 -0.0757
16384SOL    HW155114   8.922   1.024   7.225  0.2979 -1.5537 -0.2056
16384SOL    HW255115   8.789   0.999   7.291 -0.2821 -0.8963 -1.1006
16385SOL     OW55116   7.363   7.100   2.511  0.0934  0.1437 -0.2431
16385SOL    HW155117   7.440   7.088   2.567 -0.1851 -0.7638 -0.0301
16385SOL    HW255118   7.373   7.188   2.474 -0.0106  1.0358  1.7125
16386SOL     OW55119   0.331   2.748   4.360 -0.4833  0.3358 -0.3071
16386SOL    HW155120   0.310   2.824   4.413  0.1867 -0.0223  0.5009
16386SOL    HW255121   0.246   2.715   4.329 -0.9078  0.4365  0.7160
16387SOL     OW55122   2.587   3.832   1.722 -0.1412  0.1587 -0.3797
16387SOL    HW155123   2.558   3.910   1.770  1.5091  0.3524  0.3711
16387SOL    HW255124   2.577   3.856   1.630 -0.6203  0.8812 -0.1476
16388SOL     OW55125   0.474   4.262   5.415 -0.0704 -0.6931 -0.0049
16388SOL    HW155126   0.420   4.281   5.338  0.3967  0.2612 -0.1091
16388SOL    HW255127   0.531   4.192   5.387  1.0670  0.5897 -1.0201
16389SOL     OW55128   3.662   7.289   3.274  0.5304 -0.0899 -0.4572
16389SOL    HW155129   3.718   7.238   3.215  0.0952  1.1253 -1.9978
16389SOL    HW255130   3.584   7.235   3.286  0.9851 -0.7221 -0.2892
16390SOL     OW55131   6.382   0.820   0.959  0.4292 -0.4516 -0.1090
16390SOL    HW155132   6.475   0.801   0.964  0.2902 -1.4038 -0.9086
16390SOL    HW255133   6.361   0.815   0.866 -0.0366  1.7529 -0.1904
16391SOL     OW55134   1.810   6.603   0.285 -0.1060 -0.7044 -0.1654
16391SOL    HW155135   1.768   6.687   0.270  0.6077 -0.0413  1.3079
16391SOL    HW255136   1.744   6.538   0.259 -1.8326  0.2865  1.4617
16392SOL     OW55137   7.705   4.310   5.750 -0.1207 -0.7132  0.1765
16392SOL    HW155138   7.734   4.361   5.675  0.3835 -0.5570  0.4745
16392SOL    HW255139   7.609   4.314   5.746 -0.0911 -0.4051 -0.2465
16393SOL     OW55140   3.095   0.158   8.717  0.6786  0.2794 -0.2608
16393SOL    HW155141   3.121   0.242   8.753 -1.2413  0.2464  1.3678
16393SOL    HW255142   3.147   0.094   8.766 -0.1409  0.3791  0.7818
16394SOL     OW55143   1.520   3.856   9.151  0.3444  0.0686 -0.3245
16394SOL    HW155144   1.551   3.766   9.163 -0.9173 -0.3460  0.0259
16394SOL    HW255145   1.425   3.848   9.150  0.0053  1.7558  3.1174
16395SOL     OW55146   5.176   4.806   0.489  0.1002 -0.1370  0.0872
16395SOL    HW155147   5.252   4.787   0.433  0.4665  0.5355  0.3355
16395SOL    HW255148   5.128   4.724   0.494  1.9871 -1.2104  1.7273
16396SOL     OW55149   4.826   5.063   6.447 -0.1378 -0.3015 -0.5750
16396SOL    HW155150   4.795   5.079   6.536 -0.2099 -0.3903 -0.5844
16396SOL    HW255151   4.883   5.137   6.428 -1.4663  0.6216 -1.0925
16397SOL     OW55152   6.742   0.432   4.204  1.1952 -0.4102  0.1901
16397SOL    HW155153   6.747   0.518   4.246  0.2165 -0.8973  1.3689
16397SOL    HW255154   6.648   0.416   4.193  1.2635 -1.9817  1.4677
16398SOL     OW55155   1.503   0.615   6.298 -0.1002 -0.4615  0.7378
16398SOL    HW155156   1.421   0.566   6.292  0.5554 -1.6551  1.1058
16398SOL    HW255157   1.542   0.609   6.211  0.7855 -2.1256  1.1961
16399SOL     OW55158   5.191   2.920   7.706 -0.6354 -0.0575  0.5803
16399SOL    HW155159   5.208   2.922   7.611  0.4331  0.9053  0.7713
16399SOL    HW255160   5.097   2.903   7.713 -1.0164  1.2865 -0.6982
16400SOL     OW55161   8.196   4.599   6.339 -0.0231 -0.1814 -0.3144
16400SOL    HW155162   8.231   4.566   6.422 -0.3351  0.3771  0.0397
16400SOL    HW255163   8.222   4.691   6.337 -0.8423  0.0565 -0.3804
16401SOL     OW55164   0.486   1.303   9.015  0.2004 -0.1454  0.4809
16401SOL    HW155165   0.498   1.358   8.937 -0.0525  1.5855  1.6100
16401SOL    HW255166   0.402   1.330   9.051 -0.3977 -1.9837  0.5754
16402SOL     OW55167   8.278   1.061   5.233  0.4804  0.2619  0.1573
16402SOL    HW155168   8.194   1.028   5.200  0.8235  0.6396 -1.1078
16402SOL    HW255169   8.264   1.069   5.328 -0.8995  0.2787 -0.0254
16403SOL     OW55170   8.798   1.796   2.721  0.5040 -0.1917 -0.3170
16403SOL    HW155171   8.756   1.716   2.690  0.5241  0.2185 -1.4709
16403SOL    HW255172   8.837   1.773   2.805 -0.3829 -1.0992 -0.1494
16404SOL     OW55173   1.221   8.090   3.437  0.8347  0.0389 -0.0039
16404SOL    HW155174   1.242   8.117   3.347  1.7735 -3.4530 -1.0105
16404SOL    HW255175   1.129   8.067   3.434  0.7470  0.3785  0.0635
16405SOL     OW55176   8.120   6.486   1.016 -0.2410  0.2818  0.2353
16405SOL    HW155177   8.128   6.581   1.022  3.4809  0.1084  0.4092
16405SOL    HW255178   8.161   6.453   1.096  0.1932 -1.4442 -0.6420
16406SOL     OW55179   5.330   7.781   0.274  0.0068 -0.3735  0.3658
16406SOL    HW155180   5.339   7.802   0.367  0.1038  0.4636  0.1749
16406SOL    HW255181   5.413   7.808   0.235 -0.2869 -0.0843 -0.0675
16407SOL     OW55182   5.841   2.823   3.411 -0.3720  0.1088 -0.2885
16407SOL    HW155183   5.842   2.776   3.328  0.5843 -1.1539  0.4194
16407SOL    HW255184   5.906   2.779   3.466 -1.5295  0.4006  1.4157
16408SOL     OW55185   1.163   3.077   2.384  0.5591 -0.5885 -0.2209
16408SOL    HW155186   1.071   3.056   2.375  0.1973  0.3720  0.9199
16408SOL    HW255187   1.206   3.030   2.313 -0.6179 -2.2401  0.1084
16409SOL     OW55188   9.157   6.530   0.860  0.1364 -0.0087  0.8252
16409SOL    HW155189   9.250   6.519   0.883  0.3765  0.7423  0.2645
16409SOL    HW255190   9.110   6.502   0.939  0.8878  1.2294  1.7526
16410SOL     OW55191   5.041   4.561   2.850 -0.4595  0.0109  0.1118
16410SOL    HW155192   5.055   4.486   2.792 -0.3127 -1.2401  1.6927
16410SOL    HW255193   5.038   4.523   2.938  1.6950  2.0846  1.1811
16411SOL     OW55194   0.884   3.066   4.863  0.1517  0.4278 -0.5834
16411SOL    HW155195   0.967   3.114   4.860  0.5730 -0.1848  0.5549
16411SOL    HW255196   0.829   3.118   4.922 -0.1347  0.6096 -1.0057
16412SOL     OW55197   7.032   3.541   9.327 -0.3935  0.4238 -0.1077
16412SOL    HW155198   6.992   3.560   9.242 -1.1760  0.8851  0.3553
16412SOL    HW255199   7.029   3.446   9.335 -0.9249  0.4215 -0.3095
16413SOL     OW55200   8.753   5.391   5.027 -0.4230  0.2085 -0.2338
16413SOL    HW155201   8.690   5.329   4.992 -0.4405 -0.1441  0.4165
16413SOL    HW255202   8.717   5.477   5.005 -1.1030  0.0103  0.0878
16414SOL     OW55203   1.757   4.548   6.133 -0.0926  0.1598  0.0185
16414SOL    HW155204   1.797   4.615   6.077 -0.8863 -0.5630 -1.4827
16414SOL    HW255205   1.822   4.478   6.135  0.1612  0.4081  0.4436
16415SOL     OW55206   4.967   1.913   8.888  0.0806 -0.2756 -0.3505
16415SOL    HW155207   4.905   1.983   8.908 -2.3584 -2.1645 -0.8095
16415SOL    HW255208   4.947   1.889   8.797  1.9266 -0.5826 -0.7082
16416SOL     OW55209   2.612   0.865   1.251 -0.0606 -0.3315  0.0300
16416SOL    HW155210   2.682   0.930   1.245 -0.9751  0.7569  0.6641
16416SOL    HW255211   2.654   0.788   1.288  0.4998  0.8449  1.9879
16417SOL     OW55212   1.537   8.976   0.451  0.5880 -0.0433  0.0051
16417SOL    HW155213   1.480   8.899   0.446 -0.6467  0.8644 -0.6361
16417SOL    HW255214   1.611   8.956   0.394 -0.5933 -0.0913 -1.5761
16418SOL     OW55215   6.367   3.208   4.536 -0.1382 -0.2190 -0.0459
16418SOL    HW155216   6.389   3.288   4.582  1.5616 -0.8988  0.4041
16418SOL    HW255217   6.369   3.232   4.443  1.0735  0.0968  0.0577
16419SOL     OW55218   7.078   5.780   1.476 -0.0510  0.0882  0.1472
16419SOL    HW155219   7.034   5.865   1.481  0.7057  0.4389  1.2589
16419SOL    HW255220   7.155   5.790   1.533  0.8487 -0.8680 -0.8584
16420SOL     OW55221   2.165   1.601   0.647  0.3279 -0.5904  0.2286
16420SOL    HW155222   2.184   1.573   0.736  3.1015  0.2180 -0.0368
16420SOL    HW255223   2.112   1.530   0.611  0.1686 -1.4899  2.1044
16421SOL     OW55224   3.529   7.853   7.325 -0.2043  0.3881  0.2887
16421SOL    HW155225   3.564   7.781   7.377  0.6981  0.1075 -0.6647
16421SOL    HW255226   3.543   7.931   7.378  1.6968  0.2539  0.0365
16422SOL     OW55227   4.440   3.845   5.647  0.1264 -0.4720  0.6458
16422SOL    HW155228   4.434   3.925   5.595 -2.7934 -1.1414 -0.2167
16422SOL    HW255229   4.427   3.874   5.737  1.5459  0.2533  0.6534
16423SOL     OW55230   4.424   2.352   0.683 -0.4354  0.0378 -0.0585
16423SOL    HW155231   4.514   2.320   0.683 -0.6104 -0.4978  1.4601
16423SOL    HW255232   4.432   2.446   0.699 -0.0547  0.4459 -2.2662
16424SOL     OW55233   8.609   7.399   5.307 -0.3064  0.1893 -0.2342
16424SOL    HW155234   8.552   7.341   5.257  0.6852 -1.6850  0.6860
16424SOL    HW255235   8.658   7.448   5.241 -1.0969 -0.1073 -1.0525
16425SOL     OW55236   5.790   5.642   1.464  0.2068 -0.4828  0.3267
16425SOL    HW155237   5.755   5.728   1.440  0.3338 -0.9503 -1.7085
16425SOL    HW255238   5.876   5.661   1.502  0.3079  0.2874 -0.2597
16426SOL     OW55239   7.587   1.492   0.341  0.1028  0.0696  0.1250
16426SOL    HW155240   7.657   1.444   0.386 -0.0294 -0.9555 -0.7143
16426SOL    HW255241   7.546   1.427   0.285 -0.0077  1.2128 -1.1643
16427SOL     OW55242   0.070   6.482   1.050 -0.1018  0.4706  0.1415
16427SOL    HW155243   0.101   6.408   1.103  0.3188 -0.7995 -1.7537
16427SOL    HW255244   0.043   6.548   1.114  1.2752 -0.5703  1.9054
16428SOL     OW55245   2.075   4.711   5.807 -0.4426  0.2127 -0.2388
16428SOL    HW155246   2.102   4.702   5.716 -2.1340  2.1242 -1.0165
16428SOL    HW255247   2.119   4.639   5.853  0.3505 -0.8738 -2.5564
16429SOL     OW55248   1.870   7.712   2.767 -0.6353 -0.1558 -0.2671
16429SOL    HW155249   1.876   7.653   2.842 -0.3885 -2.1602 -1.7784
16429SOL    HW255250   1.865   7.654   2.691  1.3502  1.7550 -2.0013
16430SOL     OW55251   0.268   4.506   0.106  0.3978 -0.1404  0.1019
16430SOL    HW155252   0.229   4.569   0.045 -1.1229 -0.4335  0.7199
16430SOL    HW255253   0.280   4.427   0.053  1.0556  0.2293 -0.3265
16431SOL     OW55254   5.555   7.606   4.739 -0.4405  0.3775  0.4441
16431SOL    HW155255   5.519   7.523   4.772  1.9217  0.2549  3.1923
16431SOL    HW255256   5.491   7.672   4.765 -1.2848 -0.3335  0.2307
16432SOL     OW55257   6.073   6.354   4.657 -0.0521 -0.4143  0.2164
16432SOL    HW155258   6.052   6.445   4.634 -0.1566 -0.3036  0.7414
16432SOL    HW255259   6.021   6.337   4.736  2.3327  0.0961  1.9985
16433SOL     OW55260   2.044   1.115   7.782 -0.1647  0.6074 -0.6596
16433SOL    HW155261   2.039   1.088   7.874 -1.0767  0.4177 -0.7520
16433SOL    HW255262   2.004   1.043   7.733 -0.5790  1.1267 -1.1058
16434SOL     OW55263   8.549   4.051   7.091 -1.0447 -0.3852 -0.4294
16434SOL    HW155264   8.644   4.050   7.096 -0.9283 -1.1661 -2.0449
16434SOL    HW255265   8.530   4.096   7.009 -2.1396  1.1371  0.6163
16435SOL     OW55266   8.934   0.092   4.910  0.3157 -0.1428  0.1979
16435SOL    HW155267   8.989   0.014   4.900 -1.6322 -1.6290  0.5751
16435SOL    HW255268   8.857   0.062   4.959 -1.4854  1.5251 -1.4215
16436SOL     OW55269   7.672   2.919   0.310  0.3414  0.3633 -0.0964
16436SOL    HW155270   7.657   2.835   0.355  1.4899 -0.4151 -1.1077
16436SOL    HW255271   7.590   2.935   0.263  0.1913 -0.3095 -0.0855
16437SOL     OW55272   1.610   5.344   1.122 -0.6253  0.0840  0.0393
16437SOL    HW155273   1.531   5.361   1.071 -2.4660 -4.3898  0.8796
16437SOL    HW255274   1.586   5.367   1.212  0.8298  3.0415 -0.1862
16438SOL     OW55275   8.685   3.091   2.432  0.1507  0.6030  0.4960
16438SOL    HW155276   8.592   3.110   2.446  0.3079  0.8848  1.1733
16438SOL    HW255277   8.705   3.131   2.347 -0.7072 -0.7484 -0.3884
16439SOL     OW55278   2.004   7.396   4.284 -0.2951 -0.2241  0.8195
16439SOL    HW155279   1.925   7.385   4.232  0.1142 -0.8588  0.3183
16439SOL    HW255280   1.972   7.426   4.369 -0.9600  0.9119  0.1965
16440SOL     OW55281   3.474   5.717   9.287  0.0644  0.3681  0.2266
16440SOL    HW155282   3.492   5.626   9.263  1.7160  0.9322 -0.8408
16440SOL    HW255283   3.544   5.767   9.246 -1.6251  2.3075 -0.4926
16441SOL     OW55284   7.836   8.586   4.102  0.0966 -0.3698  0.3088
16441SOL    HW155285   7.749   8.559   4.074 -1.1947  1.6372  2.0346
16441SOL    HW255286   7.875   8.625   4.023 -1.2308  0.1943 -0.1011
16442SOL     OW55287   6.959   7.679   4.310  0.8082  0.1633 -0.5043
16442SOL    HW155288   6.993   7.616   4.247  0.4265 -0.4076 -0.1508
16442SOL    HW255289   6.974   7.764   4.269  1.6321 -0.1347 -0.8362
16443SOL     OW55290   1.664   1.657   9.056  0.1914  0.6687 -0.2601
16443SOL    HW155291   1.591   1.658   9.117 -0.3769  0.4674 -0.9174
16443SOL    HW255292   1.632   1.606   8.981  2.1053 -2.2783  0.7613
16444SOL     OW55293   4.789   0.307   6.901  0.0231  0.0367 -0.1498
16444SOL    HW155294   4.830   0.367   6.839 -0.8221  0.3155 -0.4530
16444SOL    HW255295   4.723   0.360   6.946 -0.6861 -0.6374 -0.3672
16445SOL     OW55296   2.930   7.191   3.337  0.0452  0.0759 -0.3790
16445SOL    HW155297   2.945   7.189   3.242  1.9631  0.3421 -0.1137
16445SOL    HW255298   2.884   7.273   3.352  0.9461  0.6967 -0.9336
16446SOL     OW55299   5.702   4.532   3.482  0.1534  0.2037  0.3475
16446SOL    HW155300   5.703   4.626   3.463  1.0079  0.1858  0.2704
16446SOL    HW255301   5.646   4.495   3.414  0.6500  0.5352 -0.2585
16447SOL     OW55302   8.212   2.534   3.622  0.1096  0.3116 -0.4772
16447SOL    HW155303   8.306   2.523   3.604  0.2088 -0.6298  0.5214
16447SOL    HW255304   8.209   2.592   3.699 -0.0371 -0.8551  0.4361
16448SOL     OW55305   3.524   5.108   3.500 -0.3714  0.0558 -0.0269
16448SOL    HW155306   3.459   5.055   3.454  1.1017 -1.0908 -0.8651
16448SOL    HW255307   3.565   5.161   3.431  1.6686 -1.4735 -0.0680
16449SOL     OW55308   5.140   0.010   0.974  0.2941  0.2199  0.3717
16449SOL    HW155309   5.159  -0.083   0.986  0.2980  0.0947 -0.4901
16449SOL    HW255310   5.215   0.055   1.012 -0.4159 -0.0602  2.1673
16450SOL     OW55311   7.049   1.530   9.073 -0.0991  0.0534 -0.3895
16450SOL    HW155312   7.050   1.625   9.062 -0.6263  0.1259  0.1130
16450SOL    HW255313   7.021   1.517   9.164  0.8177 -0.5647 -0.1814
16451SOL     OW55314   0.076   0.598   8.546  0.1410 -0.0799 -0.5917
16451SOL    HW155315   0.079   0.689   8.516 -1.6154  0.9575  2.0588
16451SOL    HW255316   0.147   0.555   8.498  2.9706  3.3286  0.0950
16452SOL     OW55317   5.518   5.097   0.514  0.5018 -0.2938  0.3747
16452SOL    HW155318   5.542   5.179   0.472  2.2734 -0.8596  0.1945
16452SOL    HW255319   5.533   5.112   0.607 -0.3162 -0.0616  0.4793
16453SOL     OW55320   6.899   6.973   4.657  0.0388 -1.0442  0.0063
16453SOL    HW155321   6.891   6.877   4.658 -2.4127 -1.0003 -2.4205
16453SOL    HW255322   6.905   6.995   4.564 -3.9454  1.3044  0.0831
16454SOL     OW55323   7.594   8.336   0.181  0.1197 -0.5531 -0.0827
16454SOL    HW155324   7.578   8.390   0.258 -0.9353 -0.5426 -0.2962
16454SOL    HW255325   7.562   8.249   0.205 -1.2001 -0.3090 -0.8393
16455SOL     OW55326   0.842   7.663   3.495  0.2638  0.9084  0.4258
16455SOL    HW155327   0.756   7.705   3.503  0.2540  0.8039  0.9275
16455SOL    HW255328   0.898   7.730   3.456  0.0607  1.1315  0.5124
16456SOL     OW55329   1.182   4.805   6.878 -0.1926  0.4698 -0.8400
16456SOL    HW155330   1.164   4.742   6.808 -1.1052  1.1225 -1.2145
16456SOL    HW255331   1.267   4.842   6.855  0.1743 -0.3305 -0.8239
16457SOL     OW55332   2.247   3.280   2.394  0.1975  0.2346 -0.3673
16457SOL    HW155333   2.320   3.309   2.339  0.3774 -1.0776 -0.8520
16457SOL    HW255334   2.175   3.266   2.333 -0.4144  1.3080  0.0839
16458SOL     OW55335   2.027   0.118   7.348 -0.1944 -0.1496 -0.3851
16458SOL    HW155336   1.944   0.073   7.329 -1.4494  2.4656 -1.6489
16458SOL    HW255337   2.006   0.174   7.423  0.7756 -0.2492 -0.0342
16459SOL     OW55338   3.240   8.700   2.107  0.0362 -0.1437  0.2584
16459SOL    HW155339   3.184   8.747   2.169 -0.9262  2.1140 -2.1561
16459SOL    HW255340   3.329   8.728   2.130 -0.1225 -0.7109  1.6590
16460SOL     OW55341   1.887   6.690   6.459  0.6812 -0.9635 -0.7981
16460SOL    HW155342   1.845   6.640   6.388  3.5492 -1.5241 -2.2502
16460SOL    HW255343   1.874   6.636   6.537 -1.7967 -0.7572 -0.9979
16461SOL     OW55344   6.869   6.134   4.820  0.1014  0.0998  0.2586
16461SOL    HW155345   6.893   6.063   4.761 -0.6073  0.8297 -0.9641
16461SOL    HW255346   6.927   6.124   4.895 -0.9934 -2.6742  0.8602
16462SOL     OW55347   5.857   7.007   0.468  0.5330 -0.1918  0.6358
16462SOL    HW155348   5.941   7.015   0.514  0.2298  1.9391  0.9081
16462SOL    HW255349   5.797   6.974   0.535  0.3627  1.7846  1.5349
16463SOL     OW55350   8.541   4.723   2.901 -0.4799  0.4942  0.2202
16463SOL    HW155351   8.577   4.675   2.976  1.0060 -1.3895 -1.5801
16463SOL    HW255352   8.571   4.813   2.914  0.0166  0.1384  1.7252
16464SOL     OW55353   2.441   7.247   6.846 -0.0688  0.1608  0.3181
16464SOL    HW155354   2.353   7.250   6.883 -0.9151 -1.5191 -1.4054
16464SOL    HW255355   2.476   7.163   6.873  1.2109  0.9723  1.3102
16465SOL     OW55356   7.133   7.382   4.879  0.6115  0.2497  0.0811
16465SOL    HW155357   7.122   7.476   4.889 -2.6079 -0.0640  0.4776
16465SOL    HW255358   7.176   7.372   4.794  2.1690  2.0421  0.5812
16466SOL     OW55359   1.549   3.511   7.606 -0.1281 -0.2239  0.3092
16466SOL    HW155360   1.467   3.507   7.557 -0.7941  0.2106  1.3407
16466SOL    HW255361   1.524   3.487   7.696  0.9456 -0.4462  0.5634
16467SOL     OW55362   4.545   4.536   5.783  0.2682  0.4187 -0.0396
16467SOL    HW155363   4.467   4.508   5.831  0.8715 -0.4392  0.4567
16467SOL    HW255364   4.560   4.626   5.813 -0.5545  0.6181 -0.1853
16468SOL     OW55365   9.103   5.667   2.835 -0.4497  0.3158 -0.2567
16468SOL    HW155366   9.077   5.603   2.768  0.8126 -0.3342 -0.1738
16468SOL    HW255367   9.185   5.703   2.802 -0.2197  0.5626  0.5675
16469SOL     OW55368   0.450   1.927   3.740 -0.1840  0.0638  0.4825
16469SOL    HW155369   0.389   1.853   3.747 -1.2772  0.9579  0.6850
16469SOL    HW255370   0.421   1.988   3.807  0.3291  0.9501 -0.0830
16470SOL     OW55371   8.448   5.156   6.496  0.3471  0.1262  0.0554
16470SOL    HW155372   8.357   5.148   6.523 -0.0080  2.9957 -0.0504
16470SOL    HW255373   8.445   5.186   6.406  1.2108  3.6561  1.0549
16471SOL     OW55374   3.377   0.324   2.521 -0.7482  0.4929  0.0406
16471SOL    HW155375   3.314   0.385   2.484  0.0865  1.7945  0.7093
16471SOL    HW255376   3.450   0.324   2.459 -0.7587  0.1333  0.0235
16472SOL     OW55377   9.044   0.723   5.594 -0.2687 -0.0980  0.5314
16472SOL    HW155378   9.061   0.699   5.685  1.0668 -2.6217 -0.3003
16472SOL    HW255379   8.971   0.784   5.599  1.0459  1.4329  3.4214
16473SOL     OW55380   2.099   3.929   9.049  0.0648 -0.0897  0.1027
16473SOL    HW155381   2.080   3.839   9.021  2.3537 -0.7699  0.5162
16473SOL    HW255382   2.099   3.980   8.969  1.6419 -1.0693 -0.5725
16474SOL     OW55383   0.272   2.713   2.291  0.5371 -0.5124  0.1468
16474SOL    HW155384   0.337   2.691   2.223  0.1367 -0.6952 -0.1804
16474SOL    HW255385   0.324   2.754   2.360  0.7936  0.8843 -0.8165
16475SOL     OW55386   0.664   3.032   3.959  0.1079 -0.4246  0.2268
16475SOL    HW155387   0.652   2.946   3.999  0.6967 -0.9055 -0.6171
16475SOL    HW255388   0.644   3.019   3.867 -0.5957  0.5332  0.2265
16476SOL     OW55389   2.739   2.812   6.968 -0.5729  0.2515  0.2220
16476SOL    HW155390   2.721   2.905   6.980 -0.6206  0.2307  0.3125
16476SOL    HW255391   2.705   2.792   6.881 -1.3764  0.1208  0.5554
16477SOL     OW55392   6.357   8.944   3.361 -0.5582  0.0057 -0.3700
16477SOL    HW155393   6.293   8.957   3.291  0.6211  2.1406 -1.1626
16477SOL    HW255394   6.305   8.946   3.442 -1.5768  1.2655 -1.0156
16478SOL     OW55395   8.544   8.224   5.581  0.1021 -0.2339  0.5234
16478SOL    HW155396   8.614   8.204   5.519 -0.0868 -0.6522  0.4383
16478SOL    HW255397   8.504   8.139   5.600 -1.2583  0.1550 -0.4679
16479SOL     OW55398   0.919   2.655   4.047  0.0121 -0.0372 -0.0308
16479SOL    HW155399   0.940   2.562   4.056 -0.4454 -0.0280  1.2421
16479SOL    HW255400   0.886   2.662   3.957 -1.4666 -1.4177  0.3590
16480SOL     OW55401   1.894   3.823   5.330  0.1246  0.2584 -0.2051
16480SOL    HW155402   1.907   3.863   5.244 -1.4569 -0.0552 -0.6235
16480SOL    HW255403   1.982   3.802   5.360  0.7394  0.7562 -1.5647
16481SOL     OW55404   5.201   8.036   5.718  0.1463 -0.7540 -0.0118
16481SOL    HW155405   5.208   7.954   5.669  2.8570 -1.8795  1.9882
16481SOL    HW255406   5.189   8.009   5.809 -1.0463  1.1713  0.4679
16482SOL     OW55407   3.726   5.467   2.729 -0.3057  0.0966  0.0141
16482SOL    HW155408   3.731   5.523   2.652 -1.4667 -0.5708 -0.5744
16482SOL    HW255409   3.796   5.499   2.786  0.6260  0.5598 -1.3319
16483SOL     OW55410   4.883   6.906   0.888 -0.4097  0.5965 -0.4069
16483SOL    HW155411   4.865   6.918   0.982  1.1516  0.9344 -0.1220
16483SOL    HW255412   4.804   6.865   0.854 -0.9427  0.2920  1.0983
16484SOL     OW55413   7.241   9.277   8.741 -0.2631 -0.4339 -0.1232
16484SOL    HW155414   7.256   9.191   8.780  1.3124  0.4902  1.4188
16484SOL    HW255415   7.293   9.276   8.660  2.8181  0.2515  1.6949
16485SOL     OW55416   3.125   1.391   8.676 -0.4000 -0.0181  0.0678
16485SOL    HW155417   3.047   1.337   8.691  0.0018 -0.2616  1.4033
16485SOL    HW255418   3.092   1.481   8.677 -0.6224 -0.1011  0.9921
16486SOL     OW55419   7.563   7.533   5.939 -0.3662 -0.1676 -0.4772
16486SOL    HW155420   7.577   7.504   6.029 -1.6836 -1.4190 -0.6259
16486SOL    HW255421   7.645   7.512   5.894 -0.2569 -1.0228  0.0901
16487SOL     OW55422   8.007   8.602   2.085  0.4542 -0.6599 -0.0374
16487SOL    HW155423   8.088   8.624   2.131  1.0045  0.4555 -1.4504
16487SOL    HW255424   8.029   8.525   2.033  0.4532 -0.6619 -0.0346
16488SOL     OW55425   4.954   1.811   3.598 -0.0407  0.2527  0.0861
16488SOL    HW155426   4.873   1.822   3.648 -0.4967  0.9657 -0.7691
16488SOL    HW255427   5.024   1.822   3.662 -0.6090  1.0489  0.5859
16489SOL     OW55428   2.166   4.875   5.490  0.0157  0.1587  0.1365
16489SOL    HW155429   2.163   4.829   5.406  0.4125  1.2187 -0.4734
16489SOL    HW255430   2.089   4.932   5.489 -0.4938 -0.4868  0.9074
16490SOL     OW55431   4.742   3.369   8.661 -0.3427  0.2186 -0.1410
16490SOL    HW155432   4.743   3.274   8.665  0.7907  0.2630  2.5647
16490SOL    HW255433   4.778   3.390   8.575 -0.3697 -1.7689 -0.6769
16491SOL     OW55434   0.893   2.802   4.875  0.2276  0.1782  0.4207
16491SOL    HW155435   0.803   2.772   4.882 -0.0468  0.9228  0.2311
16491SOL    HW255436   0.886   2.897   4.867  1.0175  0.2258  0.1576
16492SOL     OW55437   3.335   6.032   1.134  0.2200 -0.3965 -0.4916
16492SOL    HW155438   3.262   6.048   1.194  1.7684  0.8798  1.1413
16492SOL    HW255439   3.354   5.939   1.144 -0.8578 -0.6492 -0.5987
16493SOL     OW55440   7.848   6.853   0.227  0.1480 -0.3072  0.4105
16493SOL    HW155441   7.943   6.848   0.212  0.4312  0.7883  1.6411
16493SOL    HW255442   7.839   6.914   0.300 -1.6527  1.7287 -1.3729
16494SOL     OW55443   8.748   6.663   3.832  0.5916  0.0566 -0.0193
16494SOL    HW155444   8.797   6.605   3.773 -0.4467  0.3126 -1.1700
16494SOL    HW255445   8.761   6.750   3.796 -0.3819  0.1689 -0.1076
16495SOL     OW55446   5.481   3.747   7.202  0.3355  0.2665  0.5537
16495SOL    HW155447   5.477   3.681   7.272 -0.3037  0.7058  0.9369
16495SOL    HW255448   5.430   3.820   7.235 -0.9283  0.0626 -0.8431
16496SOL     OW55449   7.792   5.522   2.049 -0.4387 -0.3688  0.2181
16496SOL    HW155450   7.729   5.450   2.049  0.5933 -1.3408 -1.3025
16496SOL    HW255451   7.848   5.504   1.974 -0.7846  2.6102 -0.8964
16497SOL     OW55452   4.694   6.924   2.744  0.4730 -0.3288  0.2386
16497SOL    HW155453   4.711   6.913   2.650  0.4877 -0.8058  0.2930
16497SOL    HW255454   4.716   7.015   2.762 -0.5212  0.0600 -0.4343
16498SOL     OW55455   1.570   3.646   1.704  0.1659  0.0800  0.1097
16498SOL    HW155456   1.553   3.562   1.662 -2.1484  0.2520  0.5667
16498SOL    HW255457   1.580   3.708   1.632 -0.6410 -0.1741 -0.2359
16499SOL     OW55458   5.098   8.579   8.886 -0.0089  0.5358 -0.8063
16499SOL    HW155459   5.079   8.567   8.980 -1.7669  0.4527 -1.1391
16499SOL    HW255460   5.025   8.536   8.841  1.1991 -0.0950 -2.2517
16500SOL     OW55461   9.127   7.967   3.432 -0.1858 -0.3771  0.1629
16500SOL    HW155462   9.169   7.999   3.352  1.9528 -2.2648  0.4287
16500SOL    HW255463   9.147   8.034   3.497  0.9677 -0.3991 -0.1405
16501SOL     OW55464   0.126   8.539   4.377 -0.0350 -0.3419  0.0441
16501SOL    HW155465   0.035   8.514   4.394 -0.0883 -0.5855 -0.5618
16501SOL    HW255466   0.148   8.602   4.446 -0.3641 -0.9837  0.7462
16502SOL     OW55467   6.124   5.885   5.319 -0.1154  0.2632 -0.4753
16502SOL    HW155468   6.062   5.956   5.339  0.3293  1.0869 -1.8332
16502SOL    HW255469   6.210   5.924   5.332  0.1577  0.3859 -2.3328
16503SOL     OW55470   4.678   2.720   8.867 -0.3938 -0.1396  0.4051
16503SOL    HW155471   4.654   2.706   8.776 -1.0218 -0.2371  0.5810
16503SOL    HW255472   4.769   2.752   8.864  0.3476 -2.1632 -0.1264
16504SOL     OW55473   3.130   8.149   7.596  0.0513 -0.1537 -0.5178
16504SOL    HW155474   3.142   8.109   7.682 -0.9445  0.0241 -0.2848
16504SOL    HW255475   3.074   8.088   7.548  1.6225 -0.8797 -1.5109
16505SOL     OW55476   7.448   3.003   2.593 -0.0226 -0.2832  0.6045
16505SOL    HW155477   7.387   3.053   2.539  0.9980 -0.9764 -1.2728
16505SOL    HW255478   7.434   3.036   2.682  0.5204  3.3040 -0.4726
16506SOL     OW55479   3.987   7.911   7.078  0.0067  0.1527 -0.0838
16506SOL    HW155480   4.056   7.933   7.141  1.9788  0.2886 -2.1535
16506SOL    HW255481   3.926   7.984   7.081  1.0143  0.9942  0.4371
16507SOL     OW55482   6.272   2.673   5.990  0.0158  0.5976  0.1733
16507SOL    HW155483   6.366   2.653   5.991 -0.0322  0.0973 -1.7182
16507SOL    HW255484   6.242   2.647   6.077  1.9868  2.8052  1.6578
16508SOL     OW55485   5.159   5.899   4.961 -0.2344 -0.2926 -0.7319
16508SOL    HW155486   5.208   5.965   5.010 -1.2966  0.4484 -0.6244
16508SOL    HW255487   5.225   5.850   4.913  0.8078 -0.8016  1.1418
16509SOL     OW55488   5.789   5.322   8.575 -0.1558  0.3701 -0.4842
16509SOL    HW155489   5.773   5.229   8.560 -0.7533  0.4011 -0.0649
16509SOL    HW255490   5.880   5.326   8.607 -0.2874 -0.1136 -0.0464
16510SOL     OW55491   7.410   9.253   3.959  0.3256 -0.8016  0.3833
16510SOL    HW155492   7.333   9.227   4.010  0.4203 -3.6583 -0.7443
16510SOL    HW255493   7.381   9.252   3.868  1.4349 -0.9717  0.0074
16511SOL     OW55494   7.574   2.722   4.176  0.3471 -0.0850 -0.2381
16511SOL    HW155495   7.550   2.636   4.211 -0.9011 -0.4277 -1.8122
16511SOL    HW255496   7.536   2.723   4.088  1.2370  1.6847 -0.6347
16512SOL     OW55497   5.616   2.666   4.120  0.3327  0.1291 -0.3359
16512SOL    HW155498   5.580   2.688   4.033 -1.7019 -0.4750  0.2932
16512SOL    HW255499   5.553   2.703   4.182  1.8148  0.6484  0.9193
16513SOL     OW55500   7.402   2.989   8.526 -0.3403 -0.3972 -0.3458
16513SOL    HW155501   7.381   2.990   8.433  0.6462 -1.2025 -0.5871
16513SOL    HW255502   7.474   2.927   8.535 -1.4906 -1.6144  1.1812
16514SOL     OW55503   5.929   6.069   5.324  0.0098  0.5831 -0.3322
16514SOL    HW155504   5.943   6.112   5.409 -2.4383  1.7763 -0.4386
16514SOL    HW255505   5.846   6.022   5.335  0.4391 -0.5285 -1.6054
16515SOL     OW55506   6.066   7.160   9.099  0.4469  0.0526 -0.0972
16515SOL    HW155507   5.997   7.226   9.097 -1.9395 -2.2869 -1.0874
16515SOL    HW255508   6.023   7.081   9.131  2.5840 -1.6385 -1.1132
16516SOL     OW55509   2.092   4.185   1.989 -0.0759  0.3327  0.6040
16516SOL    HW155510   2.094   4.146   1.901 -0.9175  1.0540  0.2593
16516SOL    HW255511   2.000   4.182   2.014  0.2598 -0.6399  1.8286
16517SOL     OW55512   0.722   5.208   0.003 -0.1663  0.0906 -0.0174
16517SOL    HW155513   0.736   5.243  -0.085  0.4074 -0.9472 -0.3629
16517SOL    HW255514   0.718   5.285   0.059  1.0430  0.7228 -0.7463
16518SOL     OW55515   8.856   7.647   6.902 -0.0360  0.2067 -0.0420
16518SOL    HW155516   8.894   7.710   6.840  0.6993  1.8805  1.9844
16518SOL    HW255517   8.786   7.696   6.945 -0.8442 -1.0742  0.1400
16519SOL     OW55518   5.570   7.545   1.181 -0.8947 -0.6116  0.1505
16519SOL    HW155519   5.601   7.508   1.264  0.9331  0.2675 -0.0978
16519SOL    HW255520   5.640   7.526   1.119 -1.0789  0.9999 -0.5807
16520SOL     OW55521   5.403   0.665   0.751 -0.9894  0.6494 -0.1998
16520SOL    HW155522   5.380   0.719   0.676 -3.2053 -0.4381 -0.3965
16520SOL    HW255523   5.379   0.719   0.827  0.0473  1.2388 -0.2647
16521SOL     OW55524   3.168   5.474   8.837  0.4672  0.2171  0.1517
16521SOL    HW155525   3.102   5.457   8.904  1.2921  1.2335  1.2756
16521SOL    HW255526   3.243   5.507   8.886  1.4210  0.1208 -1.2049
16522SOL     OW55527   4.292   4.712   2.229 -0.8330 -0.1282 -0.0936
16522SOL    HW155528   4.285   4.701   2.135  0.4068 -0.7300 -0.1232
16522SOL    HW255529   4.384   4.734   2.245 -0.7460 -1.2245  1.0820
16523SOL     OW55530   8.189   8.754   3.085  0.0685 -0.0842 -0.6094
16523SOL    HW155531   8.190   8.661   3.108  1.7903  0.1353  0.4026
16523SOL    HW255532   8.148   8.757   2.999 -0.3115 -1.7343 -0.5228
16524SOL     OW55533   5.982   2.749   6.128 -0.3064  0.0018 -0.0470
16524SOL    HW155534   6.033   2.759   6.047  0.2601 -0.8836  0.1918
16524SOL    HW255535   5.941   2.835   6.141 -1.0642 -0.0540 -1.7090
16525SOL     OW55536   5.105   3.522   6.565  0.0927  0.3094 -0.6067
16525SOL    HW155537   5.015   3.552   6.577 -0.0999 -0.7013  0.6695
16525SOL    HW255538   5.153   3.560   6.639  0.4739 -0.0998 -0.6441
16526SOL     OW55539   5.392   0.632   0.097  0.1610  0.3412  0.7671
16526SOL    HW155540   5.397   0.547   0.140 -1.9685 -0.0664  0.3048
16526SOL    HW255541   5.467   0.633   0.038 -0.2199 -1.5662  0.1853
16527SOL     OW55542   8.085   6.818   0.134  0.6021  0.5628 -0.2618
16527SOL    HW155543   8.067   6.844   0.044  0.3045  0.2531 -0.2923
16527SOL    HW255544   8.179   6.798   0.135  0.5023  0.0646 -0.6291
16528SOL     OW55545   3.656   1.128   4.612  0.1267  0.1626 -0.3004
16528SOL    HW155546   3.719   1.200   4.614 -0.1578  0.3926  1.0497
16528SOL    HW255547   3.576   1.164   4.648 -0.3977 -0.4895 -0.7866
16529SOL     OW55548   0.585   6.824   4.105 -0.2596 -0.8206  0.3340
16529SOL    HW155549   0.584   6.856   4.015 -1.0306  0.9061  0.8940
16529SOL    HW255550   0.677   6.803   4.123  0.6278  2.3756  0.2456
16530SOL     OW55551   3.746   2.528   1.321  0.0458 -0.7348  1.0228
16530SOL    HW155552   3.802   2.453   1.336  1.4273  0.4748  2.2540
16530SOL    HW255553   3.701   2.542   1.404 -0.9346 -0.7545  0.5149
16531SOL     OW55554   6.918   9.034   5.930 -0.0950  0.4022  0.5671
16531SOL    HW155555   6.871   9.024   6.012 -0.5925  1.1337  0.3878
16531SOL    HW255556   6.900   8.953   5.882  1.0604 -0.4919  1.5762
16532SOL     OW55557   7.292   3.718   1.588  0.0068  0.0074  0.2002
16532SOL    HW155558   7.201   3.748   1.593 -0.3633 -1.1978  1.3259
16532SOL    HW255559   7.341   3.785   1.636 -0.3874  0.2782  0.2396
16533SOL     OW55560   4.962   3.926   3.605 -0.1877 -0.4592  0.0431
16533SOL    HW155561   4.918   3.843   3.627  0.0530 -0.8336 -0.8642
16533SOL    HW255562   5.038   3.900   3.554 -0.5257  0.3688 -0.9125
16534SOL     OW55563   6.263   1.357   0.758  0.4455  0.1778  0.1811
16534SOL    HW155564   6.189   1.351   0.697  0.8707 -0.8063 -0.2620
16534SOL    HW255565   6.259   1.446   0.792 -0.4300  0.4120 -0.4956
16535SOL     OW55566   7.436   9.289   8.496 -0.2589  0.0421 -0.4475
16535SOL    HW155567   7.407   9.369   8.451 -0.1286 -0.2911 -1.1385
16535SOL    HW255568   7.420   9.219   8.432 -2.6177 -0.8559  0.9895
16536SOL     OW55569   0.049   4.578   7.881 -0.1172  0.5179 -0.4260
16536SOL    HW155570   0.071   4.559   7.972 -0.3287 -4.5756 -1.1412
16536SOL    HW255571   0.130   4.612   7.844  0.4115  1.2191  1.2533
16537SOL     OW55572   0.266   1.319   4.584  0.2746  0.2830  0.3369
16537SOL    HW155573   0.236   1.288   4.498  0.2616  0.8898  0.1151
16537SOL    HW255574   0.319   1.396   4.564 -1.2091  1.5347  0.9852
16538SOL     OW55575   5.949   1.356   8.724  0.9738 -0.1925  0.4519
16538SOL    HW155576   5.945   1.386   8.634  0.9708  0.0022  0.5166
16538SOL    HW255577   5.859   1.329   8.744  1.2210 -1.3882  0.0081
16539SOL     OW55578   0.277   1.666   6.462  0.4199 -0.2359 -0.0360
16539SOL    HW155579   0.222   1.698   6.390  0.6793  0.4836  0.0776
16539SOL    HW255580   0.352   1.725   6.462  1.8380 -1.9459 -0.9882
16540SOL     OW55581   6.318   6.464   1.806 -0.4992 -0.6408 -0.4091
16540SOL    HW155582   6.264   6.387   1.787  0.0152 -1.0912 -0.0577
16540SOL    HW255583   6.332   6.461   1.901 -1.2633  0.4123 -0.2396
16541SOL     OW55584   2.463   8.830   7.510 -0.0501  0.2267 -0.0281
16541SOL    HW155585   2.376   8.864   7.531  0.9951  2.7117  0.5694
16541SOL    HW255586   2.506   8.819   7.595  0.0426 -1.6857 -0.2626
16542SOL     OW55587   8.530   1.727   7.550 -0.1071  0.3883  0.2065
16542SOL    HW155588   8.494   1.768   7.628 -1.0495  1.2781 -0.6546
16542SOL    HW255589   8.485   1.643   7.543 -3.4804  2.1473 -1.7580
16543SOL     OW55590   0.602   1.581   3.389 -0.2658 -0.2400 -0.0468
16543SOL    HW155591   0.544   1.589   3.314 -0.8154 -1.2615  0.2452
16543SOL    HW255592   0.544   1.565   3.463  0.3150 -0.0986  0.4489
16544SOL     OW55593   9.349   1.343   8.184 -0.0127 -0.1195  0.4555
16544SOL    HW155594   9.365   1.366   8.275  1.4003 -1.3241  0.5499
16544SOL    HW255595   9.254   1.345   8.175 -0.2002 -0.3784  2.0728
16545SOL     OW55596   8.084   0.935   4.181  0.4951  0.1959  0.0471
16545SOL    HW155597   8.125   0.882   4.113  0.2485 -0.0962  0.1265
16545SOL    HW255598   8.023   0.876   4.225 -0.8160  0.8952 -0.7561
16546SOL     OW55599   6.028   0.166   1.685 -0.5118 -0.1171  0.0611
16546SOL    HW155600   6.034   0.160   1.590 -0.0463 -0.7336  0.1171
16546SOL    HW255601   5.936   0.182   1.703 -0.6437 -0.2496 -0.4906
16547SOL     OW55602   9.187   6.576   6.586  0.0843  0.0262 -0.0314
16547SOL    HW155603   9.245   6.651   6.600  1.2236 -0.8171 -0.1047
16547SOL    HW255604   9.163   6.547   6.674  0.5116 -0.1710  0.0238
16548SOL     OW55605   8.494   2.003   5.920  0.0800 -0.5425  0.3059
16548SOL    HW155606   8.445   2.082   5.943 -0.5261 -0.9680  0.5090
16548SOL    HW255607   8.466   1.983   5.831  0.1990 -0.5546  0.2711
16549SOL     OW55608   8.808   3.956   3.123 -0.4295 -0.0293  0.3718
16549SOL    HW155609   8.883   3.898   3.136 -0.9697 -1.2802 -1.5850
16549SOL    HW255610   8.846   4.042   3.105  0.6747 -0.8899 -1.8193
16550SOL     OW55611   3.352   4.866   8.021 -0.1288  0.1535  0.4941
16550SOL    HW155612   3.287   4.935   8.018  0.0956  0.3632 -2.5852
16550SOL    HW255613   3.399   4.880   8.103 -0.7298  3.0390  0.4248
16551SOL     OW55614   5.855   7.123   3.129 -0.3543 -0.0037 -0.1916
16551SOL    HW155615   5.824   7.039   3.162 -0.5101  0.2536  0.3255
16551SOL    HW255616   5.862   7.111   3.035  1.1353 -1.0949  0.0227
16552SOL     OW55617   2.145   4.536   7.118  0.2922  0.3938  0.0707
16552SOL    HW155618   2.100   4.542   7.203 -0.3003  0.3569 -0.2376
16552SOL    HW255619   2.229   4.578   7.133  0.6038 -0.5163  0.9617
16553SOL     OW55620   5.152   6.427   3.452  0.6099  0.2689  0.2052
16553SOL    HW155621   5.075   6.391   3.497  0.9960  1.6768  2.1178
16553SOL    HW255622   5.119   6.453   3.366 -0.5027 -1.1951  0.1441
16554SOL     OW55623   6.158   3.635   3.513 -0.0485  0.0222 -0.5456
16554SOL    HW155624   6.113   3.582   3.579  0.2034 -1.5915 -1.5894
16554SOL    HW255625   6.251   3.628   3.536 -0.0121 -0.0513 -0.7087
16555SOL     OW55626   1.492   1.683   2.466 -0.1481 -0.3194  0.5156
16555SOL    HW155627   1.551   1.608   2.457  0.4269  0.1494  0.3347
16555SOL    HW255628   1.479   1.714   2.377 -1.4034 -0.9697  0.4574
16556SOL     OW55629   1.015   1.539   9.006  0.0922  0.2009  0.4302
16556SOL    HW155630   0.983   1.514   8.919 -0.4982  1.9245  0.1220
16556SOL    HW255631   0.941   1.522   9.064  1.0094 -2.5812  0.9822
16557SOL     OW55632   3.657   0.681   8.671 -0.2592  0.4039  0.3928
16557SOL    HW155633   3.605   0.649   8.598 -0.8227  1.5725  0.2686
16557SOL    HW255634   3.721   0.739   8.631  0.7663 -0.5267  0.6171
16558SOL     OW55635   7.350   8.466   6.929  0.4702  0.2640 -0.1720
16558SOL    HW155636   7.340   8.489   7.021 -2.2321 -1.8930  0.1964
16558SOL    HW255637   7.418   8.398   6.930  0.0128 -0.1946  0.3255
16559SOL     OW55638   2.873   5.776   1.652 -0.1666 -0.3925 -0.1498
16559SOL    HW155639   2.903   5.714   1.719 -0.2670 -1.1286 -0.7698
16559SOL    HW255640   2.842   5.721   1.581 -1.9169  0.3603 -0.0219
16560SOL     OW55641   4.333   3.895   0.366  0.4396 -0.5586  0.2798
16560SOL    HW155642   4.322   3.838   0.289  0.1320 -0.8719  0.5526
16560SOL    HW255643   4.428   3.905   0.376  0.4804 -0.4765 -0.1700
16561SOL     OW55644   3.262   3.721   8.746 -0.1824  0.9393  0.3477
16561SOL    HW155645   3.347   3.695   8.710 -1.9570 -2.2854 -1.9912
16561SOL    HW255646   3.273   3.712   8.841  0.7739 -5.0831  0.0755
16562SOL     OW55647   5.996   4.989   1.952  0.3850 -0.2056  0.2100
16562SOL    HW155648   6.022   4.934   2.026 -0.0487  1.5886  1.7735
16562SOL    HW255649   6.064   4.973   1.887  1.5509 -0.8430  1.5119
16563SOL     OW55650   1.871   5.183   4.743  0.9019 -0.1284 -0.4754
16563SOL    HW155651   1.891   5.201   4.835 -0.9561 -0.1358 -0.0269
16563SOL    HW255652   1.874   5.088   4.735 -0.6034 -0.2450  0.0345
16564SOL     OW55653   9.328   6.839   5.142 -0.0823 -0.1837 -0.6172
16564SOL    HW155654   9.272   6.871   5.071 -0.4596 -1.0077 -0.7074
16564SOL    HW255655   9.278   6.767   5.180  1.1826 -1.3413 -1.0835
16565SOL     OW55656   3.435   1.910   2.688  0.4862 -0.4734 -0.0991
16565SOL    HW155657   3.350   1.953   2.681 -0.3716 -2.0860 -0.0771
16565SOL    HW255658   3.498   1.978   2.665 -0.6197  1.3806  1.9130
16566SOL     OW55659   6.892   9.029   4.134  0.0362 -0.1043 -0.0538
16566SOL    HW155660   6.877   8.969   4.207  1.1276 -1.4221 -0.8716
16566SOL    HW255661   6.808   9.030   4.087 -0.2147 -0.4140  0.3775
16567SOL     OW55662   3.293   8.617   0.232  0.0320 -0.9284 -0.1932
16567SOL    HW155663   3.289   8.613   0.328  1.2725 -0.0666 -0.0890
16567SOL    HW255664   3.351   8.545   0.208  0.9238 -0.2250 -0.1805
16568SOL     OW55665   7.894   1.685   2.847  0.0880  0.0423 -0.0163
16568SOL    HW155666   7.901   1.599   2.888  1.8754  0.8849  1.6264
16568SOL    HW255667   7.963   1.685   2.780  1.3108  0.7776  1.2065
16569SOL     OW55668   9.176   1.578   1.448  0.4423 -0.0128 -0.1043
16569SOL    HW155669   9.143   1.528   1.373 -0.0767 -0.2642  0.2890
16569SOL    HW255670   9.199   1.511   1.513  0.3401  0.2331  0.1839
16570SOL     OW55671   4.817   4.416   1.526 -0.3300 -0.0999  0.7202
16570SOL    HW155672   4.855   4.495   1.564  2.1076 -1.5510  1.5655
16570SOL    HW255673   4.888   4.379   1.474 -1.0550 -2.2051  1.1331
16571SOL     OW55674   3.537   7.655   5.616  0.2521  0.2203 -0.1737
16571SOL    HW155675   3.511   7.599   5.543  1.7819 -1.9762  0.8556
16571SOL    HW255676   3.467   7.645   5.681 -1.2114  2.3327 -1.2911
16572SOL     OW55677   2.890   7.004   8.847  0.1631 -0.6122 -0.5752
16572SOL    HW155678   2.879   7.094   8.877 -1.6237 -1.3458  1.1323
16572SOL    HW255679   2.890   6.951   8.927  1.1508 -2.1696 -1.5354
16573SOL     OW55680   8.393   3.983   9.179  0.1509 -0.2691 -0.5841
16573SOL    HW155681   8.441   3.912   9.137  2.5083  0.4477  0.6835
16573SOL    HW255682   8.301   3.964   9.162  0.7079 -3.3724 -0.6819
16574SOL     OW55683   2.980   3.559   6.408 -0.2795 -0.2997  0.1919
16574SOL    HW155684   2.989   3.511   6.490 -0.0982 -0.1297  0.2740
16574SOL    HW255685   3.033   3.511   6.346 -0.7917 -0.6939  0.0553
16575SOL     OW55686   8.611   8.169   6.373  0.2196  0.2865  0.5899
16575SOL    HW155687   8.648   8.144   6.288  0.6849 -0.9474  1.1244
16575SOL    HW255688   8.538   8.108   6.385  0.5839 -0.0071  1.3660
16576SOL     OW55689   8.079   2.058   8.323 -0.3245 -0.2572  0.6610
16576SOL    HW155690   8.106   1.980   8.275 -1.6682 -0.0914 -0.4490
16576SOL    HW255691   8.065   2.028   8.413  2.6014 -0.4999  1.1184
16577SOL     OW55692   5.261   6.846   9.090 -0.2986  0.2354  0.1869
16577SOL    HW155693   5.197   6.793   9.138 -1.7778  0.6856 -1.2010
16577SOL    HW255694   5.330   6.784   9.064 -1.6691 -0.9227 -0.8545
16578SOL     OW55695   5.180   1.781   8.991 -0.3816  0.4203  0.3811
16578SOL    HW155696   5.241   1.834   8.939 -0.6220  0.9991  0.6950
16578SOL    HW255697   5.093   1.812   8.966 -0.5390 -0.0225  0.3576
16579SOL     OW55698   1.094   5.018   8.415  0.2900  0.0022 -0.1262
16579SOL    HW155699   1.103   5.112   8.398 -1.7481  0.4538  1.0007
16579SOL    HW255700   1.154   5.000   8.487  0.4847  0.5083 -0.1625
16580SOL     OW55701   5.527   7.204   2.758  0.0826 -0.0309  0.6490
16580SOL    HW155702   5.544   7.134   2.822  0.1707 -0.7279 -0.1183
16580SOL    HW255703   5.437   7.189   2.730 -0.3874  1.0338  1.5140
16581SOL     OW55704   3.582   7.761   9.079 -0.4172 -0.4361 -0.5384
16581SOL    HW155705   3.563   7.691   9.016 -0.4836  0.2631 -1.3139
16581SOL    HW255706   3.600   7.715   9.161  0.6583 -1.4323 -1.3012
16582SOL     OW55707   1.078   9.314   0.666  0.1989 -0.7256 -0.0309
16582SOL    HW155708   1.158   9.359   0.640  0.9048 -1.2982  1.0539
16582SOL    HW255709   1.033   9.375   0.724  0.4551 -0.8593  0.3139
16583SOL     OW55710   4.477   0.680   4.775  0.3755  0.5178  0.2483
16583SOL    HW155711   4.484   0.650   4.866 -1.6698  0.6065  0.4858
16583SOL    HW255712   4.476   0.599   4.724  1.9670  0.4814  0.2409
16584SOL     OW55713   3.725   8.411   0.386  0.3150 -0.3871  0.3480
16584SOL    HW155714   3.728   8.404   0.481  1.2629 -0.3858  0.3262
16584SOL    HW255715   3.756   8.499   0.367  1.0397 -0.7062  0.0003
16585SOL     OW55716   0.759   0.923   6.312  0.3321  0.2302 -0.0564
16585SOL    HW155717   0.832   0.983   6.324  0.7864 -0.3933  0.3562
16585SOL    HW255718   0.696   0.972   6.259  1.0027  0.8051 -0.3337
16586SOL     OW55719   6.514   7.390   3.756 -0.2129 -0.2517  0.0711
16586SOL    HW155720   6.581   7.372   3.823 -0.1301 -0.2254 -0.0040
16586SOL    HW255721   6.512   7.311   3.703  0.0795 -0.0801 -0.1978
16587SOL     OW55722   8.266   7.055   8.631  0.1374  0.5335 -0.6653
16587SOL    HW155723   8.185   7.106   8.625  0.2892  0.9597  0.5244
16587SOL    HW255724   8.249   6.992   8.701  1.1662  1.3008  0.3128
16588SOL     OW55725   6.302   8.192   8.489  0.0054 -0.6189 -0.7973
16588SOL    HW155726   6.222   8.203   8.540 -0.1825 -2.1299 -0.7022
16588SOL    HW255727   6.322   8.279   8.456 -0.6202  0.1389  0.7291
16589SOL     OW55728   4.503   8.068   2.352  0.1440  0.4272 -0.0440
16589SOL    HW155729   4.444   8.144   2.352 -1.8136 -1.0238 -0.4094
16589SOL    HW255730   4.504   8.039   2.261  0.7599 -0.0570  0.1145
16590SOL     OW55731   1.775   8.123   8.849  0.5797  0.4314 -0.3812
16590SOL    HW155732   1.856   8.123   8.900  0.6829  0.2210 -0.5438
16590SOL    HW255733   1.730   8.043   8.875  1.4439 -0.5986 -1.8836
16591SOL     OW55734   1.970   6.881   5.852 -0.5099  0.7359 -0.1542
16591SOL    HW155735   1.958   6.930   5.771  3.0668  2.2440  0.0443
16591SOL    HW255736   2.027   6.809   5.828 -0.1276  0.6923  0.8458
16592SOL     OW55737   6.702   5.775   8.254  0.2992  0.0973  0.0119
16592SOL    HW155738   6.651   5.697   8.234 -1.4527  1.2171 -0.1300
16592SOL    HW255739   6.672   5.802   8.341  1.7421 -0.0173  0.5731
16593SOL     OW55740   6.774   1.778   4.361  0.2239  0.5262  0.0698
16593SOL    HW155741   6.725   1.840   4.306  0.5005  0.9222  0.2665
16593SOL    HW255742   6.826   1.727   4.299 -0.9225 -0.3617 -0.2141
16594SOL     OW55743   8.761   2.121   6.787 -0.8355  0.1424 -0.4123
16594SOL    HW155744   8.712   2.189   6.741  0.7878  0.2976 -2.0152
16594SOL    HW255745   8.845   2.115   6.740  0.3290 -0.7551  1.6254
16595SOL     OW55746   7.256   5.215   7.730 -0.4123 -0.0695 -0.2971
16595SOL    HW155747   7.227   5.124   7.715 -1.3738 -0.3157  2.4306
16595SOL    HW255748   7.176   5.260   7.757  0.6326  0.7165  1.6810
16596SOL     OW55749   8.495   8.473   1.810 -0.0928 -0.1226  0.1608
16596SOL    HW155750   8.548   8.447   1.735 -0.3206  3.9735 -1.6813
16596SOL    HW255751   8.406   8.449   1.786  0.0896 -0.8119  0.1518
16597SOL     OW55752   2.328   4.687   3.818 -0.0721 -0.2885 -0.3443
16597SOL    HW155753   2.366   4.690   3.906  2.5531 -1.2378 -1.3593
16597SOL    HW255754   2.238   4.656   3.833  0.8707 -2.3340  1.8825
16598SOL     OW55755   8.226   3.301   6.523  0.2476 -0.3441  0.4374
16598SOL    HW155756   8.192   3.244   6.593 -0.6330 -0.9063 -0.4174
16598SOL    HW255757   8.275   3.369   6.569  1.0546 -1.6059  1.5137
16599SOL     OW55758   1.547   2.656   8.742 -0.0249 -0.0879 -0.5440
16599SOL    HW155759   1.629   2.637   8.696  0.8335 -0.5992  1.1268
16599SOL    HW255760   1.497   2.575   8.735 -0.3658  0.1946 -1.4907
16600SOL     OW55761   3.114   0.590   0.468  0.4329  0.1816  0.2633
16600SOL    HW155762   3.124   0.527   0.539 -0.4653  0.6990  0.8758
16600SOL    HW255763   3.201   0.597   0.430  1.4981  1.4927  2.6968
16601SOL     OW55764   4.607   2.883   2.670  0.0494  0.1670  0.5127
16601SOL    HW155765   4.642   2.841   2.592  1.0179  0.4411  0.7865
16601SOL    HW255766   4.675   2.869   2.737 -0.5331  0.3883  1.1613
16602SOL     OW55767   6.483   7.950   3.932  0.0361 -0.3793 -0.0588
16602SOL    HW155768   6.450   7.862   3.918  1.0251 -1.3721  3.0970
16602SOL    HW255769   6.578   7.941   3.932  0.1382  0.4854  1.2605
16603SOL     OW55770   3.594   1.352   5.786 -0.4173 -0.0053 -0.8956
16603SOL    HW155771   3.556   1.340   5.873  0.9340 -1.7337 -0.4991
16603SOL    HW255772   3.551   1.431   5.753 -0.2954  1.2586  1.6818
16604SOL     OW55773   2.146   4.967   1.136  0.4220 -0.3306 -0.3412
16604SOL    HW155774   2.187   4.960   1.223 -1.3019  1.1340  0.6597
16604SOL    HW255775   2.052   4.966   1.154  0.0264 -0.0993 -2.2239
16605SOL     OW55776   2.919   5.612   2.518 -0.1443 -0.2481  0.6125
16605SOL    HW155777   2.923   5.516   2.514 -0.3046 -0.2220 -0.2100
16605SOL    HW255778   2.869   5.630   2.597  0.8180 -0.8214  1.3875
16606SOL     OW55779   4.045   4.621   0.286 -0.1102  0.5203  0.3006
16606SOL    HW155780   4.057   4.674   0.207  1.1819 -0.3886 -0.1510
16606SOL    HW255781   4.132   4.618   0.326 -0.0503 -1.5667  0.1005
16607SOL     OW55782   7.031   0.622   0.785 -0.1695 -0.1009  0.2080
16607SOL    HW155783   6.947   0.598   0.745 -0.6258 -0.5787  1.4029
16607SOL    HW255784   7.009   0.691   0.847  0.4486  0.2850  0.0069
16608SOL     OW55785   8.014   1.171   3.339  0.6749  0.6340  0.0017
16608SOL    HW155786   8.047   1.137   3.423 -0.1359 -1.5095 -0.4755
16608SOL    HW255787   7.922   1.144   3.337  0.7631  0.3467 -1.7055
16609SOL     OW55788   1.866   8.828   1.087  0.0650  0.1052 -0.0938
16609SOL    HW155789   1.914   8.778   1.153 -0.8028  0.4711  0.8371
16609SOL    HW255790   1.840   8.762   1.022 -0.1139 -0.4742  0.5464
16610SOL     OW55791   8.413   6.169   3.109 -0.1580  0.0711 -0.0360
16610SOL    HW155792   8.385   6.123   3.189  1.5659 -0.2799  0.4029
16610SOL    HW255793   8.464   6.244   3.141 -1.6767  1.5077 -0.7805
16611SOL     OW55794   4.262   8.993   3.978  0.0141 -0.4808 -0.4788
16611SOL    HW155795   4.276   9.066   3.917 -1.7029 -0.8090 -1.3312
16611SOL    HW255796   4.181   9.015   4.024  0.2927 -1.1365  0.3593
16612SOL     OW55797   4.547   5.457   2.692 -0.0459  0.1289 -0.2988
16612SOL    HW155798   4.636   5.424   2.710 -0.2824  0.4017  1.5357
16612SOL    HW255799   4.506   5.461   2.778 -2.0686 -0.5921 -1.1854
16613SOL     OW55800   7.645   7.475   6.209 -0.3912 -0.0123  0.1108
16613SOL    HW155801   7.709   7.443   6.273 -0.6706  0.0611  0.4305
16613SOL    HW255802   7.563   7.431   6.233  0.2951 -3.2400 -2.6551
16614SOL     OW55803   6.654   1.737   6.027 -0.2791 -0.1768  0.5681
16614SOL    HW155804   6.690   1.817   5.989 -0.8240  0.1532  0.7499
16614SOL    HW255805   6.727   1.701   6.079 -0.3965  0.8548  1.5001
16615SOL     OW55806   3.442   0.835   0.785 -0.3303 -0.1244 -0.1127
16615SOL    HW155807   3.474   0.869   0.868 -2.8173  0.1335  0.8388
16615SOL    HW255808   3.422   0.743   0.803  0.5120 -0.4750 -0.8832
16616SOL     OW55809   5.679   5.984   2.591 -0.0391  0.2878  0.1952
16616SOL    HW155810   5.774   5.989   2.599  0.0935 -0.2434 -0.8134
16616SOL    HW255811   5.650   6.075   2.592  0.6873  0.5867 -1.4182
16617SOL     OW55812   6.195   7.116   2.737 -0.0996  0.4143  0.4288
16617SOL    HW155813   6.172   7.081   2.651 -0.1826  1.4603 -0.0004
16617SOL    HW255814   6.179   7.210   2.729 -2.3106  0.2698  2.3055
16618SOL     OW55815   2.198   5.799   5.267 -0.4407 -0.3613  0.7859
16618SOL    HW155816   2.208   5.736   5.339  0.1514 -0.5532  0.5370
16618SOL    HW255817   2.155   5.750   5.197 -2.0946  0.1283  1.4010
16619SOL     OW55818   9.133   4.079   7.185 -0.5676 -0.1828  1.3065
16619SOL    HW155819   9.129   4.047   7.095 -1.0828  2.6197  0.2315
16619SOL    HW255820   9.053   4.045   7.226 -1.1295 -0.1946  0.2321
16620SOL     OW55821   3.182   8.311   6.837  0.2628  0.0226 -0.1247
16620SOL    HW155822   3.111   8.247   6.832  0.6119 -0.2760 -1.7652
16620SOL    HW255823   3.136   8.396   6.842 -0.2182 -0.2173 -0.3653
16621SOL     OW55824   8.914   0.729   7.339  0.2454 -0.9192 -0.7577
16621SOL    HW155825   8.900   0.821   7.314 -0.1597 -0.9572 -0.6798
16621SOL    HW255826   8.994   0.731   7.391  0.5704 -0.6978 -1.2501
16622SOL     OW55827   8.218   8.236   9.144 -0.2034 -0.7187 -1.0954
16622SOL    HW155828   8.176   8.193   9.218  1.4293 -2.0325 -0.8750
16622SOL    HW255829   8.161   8.216   9.069 -1.0100 -0.7460 -0.4868
16623SOL     OW55830   8.778   7.661   2.624 -0.0769  0.2283  0.4269
16623SOL    HW155831   8.736   7.596   2.679 -2.6230  1.5019  0.1483
16623SOL    HW255832   8.839   7.706   2.682 -0.1379 -0.7435  1.2691
16624SOL     OW55833   9.200   5.547   7.563  0.5727 -0.2891  0.5417
16624SOL    HW155834   9.269   5.597   7.520  0.5650 -0.7432 -0.0153
16624SOL    HW255835   9.124   5.604   7.563  0.4600 -0.4353 -0.4209
16625SOL     OW55836   4.524   0.649   2.092 -0.0028 -0.2336  0.0910
16625SOL    HW155837   4.598   0.615   2.142 -0.2154  0.7872  1.1346
16625SOL    HW255838   4.513   0.586   2.020  0.4716 -1.5927  1.1678
16626SOL     OW55839   5.046   7.431   4.008  0.0622 -0.1282  0.0898
16626SOL    HW155840   4.996   7.411   4.087  0.6585 -1.1808  0.2165
16626SOL    HW255841   5.043   7.527   4.001 -1.2924 -0.1219  0.5228
16627SOL     OW55842   8.476   3.855   6.421 -0.0318  0.1187 -0.1443
16627SOL    HW155843   8.541   3.829   6.356  2.1224 -0.2519  1.9713
16627SOL    HW255844   8.444   3.772   6.457 -1.1568  0.3153 -0.6682
16628SOL     OW55845   1.077   6.541   0.936 -0.1088 -0.0177  0.2549
16628SOL    HW155846   1.142   6.531   1.006 -0.2999 -0.4811  0.3710
16628SOL    HW255847   1.038   6.627   0.951  2.2257  1.4419 -1.2901
16629SOL     OW55848   4.259   6.856   8.158 -0.1171  0.1149  0.3605
16629SOL    HW155849   4.271   6.781   8.100 -0.5371  0.3698 -0.0553
16629SOL    HW255850   4.196   6.912   8.113  1.4495  1.5611 -0.1485
16630SOL     OW55851   7.990   1.523   5.378 -0.1320 -0.1590  0.2807
16630SOL    HW155852   8.004   1.461   5.450 -1.7749 -0.1078  0.6915
16630SOL    HW255853   7.912   1.572   5.404  0.5482  1.4105 -0.5199
16631SOL     OW55854   5.979   9.058   7.074  0.1435 -0.1422 -0.3325
16631SOL    HW155855   6.038   9.131   7.094 -1.0037  0.4646  1.0846
16631SOL    HW255856   5.996   8.994   7.143  0.0545 -0.5227 -0.6634
16632SOL     OW55857   3.505   3.925   1.106  0.1693  0.1285 -0.1436
16632SOL    HW155858   3.493   3.830   1.098 -0.0069  0.1524 -0.1691
16632SOL    HW255859   3.418   3.961   1.091  0.3946  0.3436 -1.0132
16633SOL     OW55860   7.043   7.213   6.484 -0.4215 -0.1712  0.0818
16633SOL    HW155861   6.960   7.168   6.467 -0.2227  0.2143 -2.2473
16633SOL    HW255862   7.098   7.191   6.409  1.6842 -0.5591  1.6676
16634SOL     OW55863   6.632   2.917   2.637  0.1477 -0.7660 -0.0631
16634SOL    HW155864   6.720   2.886   2.613  1.6580  2.2522  0.9895
16634SOL    HW255865   6.628   2.905   2.732  0.3468  1.0281  0.2106
16635SOL     OW55866   7.675   8.175   5.586  0.2703 -0.0175  0.3459
16635SOL    HW155867   7.659   8.127   5.505 -0.8683 -0.6393  0.9104
16635SOL    HW255868   7.637   8.262   5.570 -1.4394 -0.6443  0.7340
16636SOL     OW55869   5.186   6.908   1.990  0.2239  0.3596  0.3338
16636SOL    HW155870   5.257   6.924   1.928  0.0181  2.2576  0.5356
16636SOL    HW255871   5.218   6.943   2.073 -0.0929 -0.8147  0.9816
16637SOL     OW55872   7.408   1.340   1.361 -0.2771 -0.1609 -0.5652
16637SOL    HW155873   7.325   1.295   1.380 -1.2380  1.0121 -1.7838
16637SOL    HW255874   7.404   1.420   1.413 -1.1016  1.1149 -2.4878
16638SOL     OW55875   0.059   3.152   3.032 -0.8538 -0.2218 -0.8865
16638SOL    HW155876   0.131   3.138   2.971 -1.5747  0.5173 -1.9528
16638SOL    HW255877   0.099   3.150   3.119  0.1701 -1.4694 -1.3640
16639SOL     OW55878   4.754   4.636   6.192 -0.6597 -0.1174  0.2775
16639SOL    HW155879   4.747   4.603   6.282  2.4260 -1.0128  0.3204
16639SOL    HW255880   4.715   4.567   6.138 -1.4371 -0.1403  0.8664
16640SOL     OW55881   6.330   4.223   5.357  0.1732  0.5669 -0.0624
16640SOL    HW155882   6.388   4.246   5.284 -0.1849  2.0268  0.0797
16640SOL    HW255883   6.347   4.291   5.423  0.1378 -0.4494  1.0283
16641SOL     OW55884   4.271   9.087   7.890  0.5603  0.1701 -0.1535
16641SOL    HW155885   4.177   9.073   7.875  0.9046 -1.3340 -1.1062
16641SOL    HW255886   4.277   9.179   7.916 -1.1818  0.2818 -0.0022
16642SOL     OW55887   7.562   0.878   6.919 -0.2606 -0.3165 -0.4245
16642SOL    HW155888   7.601   0.909   6.837 -0.7472 -2.6213 -1.6097
16642SOL    HW255889   7.633   0.884   6.983  0.7480 -0.4030 -1.5013
16643SOL     OW55890   0.718   1.502   2.756  0.7947 -0.3230 -0.3630
16643SOL    HW155891   0.624   1.490   2.746  0.9555 -1.0677 -1.0818
16643SOL    HW255892   0.744   1.554   2.680  1.1865 -1.4293 -1.0136
16644SOL     OW55893   5.507   4.248   1.083  0.7087 -0.4000 -0.2868
16644SOL    HW155894   5.514   4.237   0.988  1.4465  0.2788 -0.3244
16644SOL    HW255895   5.597   4.264   1.111  0.6441 -1.6270  0.6711
16645SOL     OW55896   6.420   1.868   7.191 -0.0417  0.4529 -0.1351
16645SOL    HW155897   6.359   1.861   7.117  0.1876  1.8243 -0.4848
16645SOL    HW255898   6.489   1.805   7.170 -1.0466 -0.7463  0.0089
16646SOL     OW55899   0.750   7.874   1.269 -0.1742  0.1587  0.1022
16646SOL    HW155900   0.795   7.838   1.346 -0.6246  2.9353  1.8104
16646SOL    HW255901   0.728   7.798   1.216 -1.8217 -2.2299  3.7826
16647SOL     OW55902   1.539   5.222   6.940 -0.3977  0.6442 -0.0862
16647SOL    HW155903   1.598   5.297   6.930  0.7367 -0.1714  0.2624
16647SOL    HW255904   1.508   5.204   6.851 -0.8314  1.6322 -0.1459
16648SOL     OW55905   2.516   2.083   1.292  0.0678  0.1959 -0.3553
16648SOL    HW155906   2.456   2.015   1.321 -0.8491  1.2502  0.2884
16648SOL    HW255907   2.557   2.047   1.213 -0.3556 -1.1069 -0.0083
16649SOL     OW55908   6.083   7.390   0.888 -0.4864 -0.4521  0.0079
16649SOL    HW155909   6.102   7.477   0.853 -1.2145 -0.0887  0.4840
16649SOL    HW255910   6.048   7.341   0.813  0.7716 -0.6347 -0.4837
16650SOL     OW55911   4.062   1.170   4.608  1.0366  0.7518  0.0457
16650SOL    HW155912   4.022   1.093   4.649 -0.6027  1.2233 -0.6137
16650SOL    HW255913   4.066   1.235   4.678 -0.3192  1.0301 -0.0993
16651SOL     OW55914   7.063   3.110   7.078  0.3250 -0.0270  0.3831
16651SOL    HW155915   7.113   3.116   7.160  1.1070 -0.3411 -0.0558
16651SOL    HW255916   7.109   3.043   7.028  2.0056  2.5124 -1.7673
16652SOL     OW55917   1.812   9.074   4.677 -0.1109  0.3179  0.1784
16652SOL    HW155918   1.820   8.994   4.729 -1.7228  0.3183  0.4684
16652SOL    HW255919   1.722   9.072   4.644 -0.2409  2.0946  0.3486
16653SOL     OW55920   6.134   2.748   8.040 -0.3954  0.3185  0.3091
16653SOL    HW155921   6.188   2.670   8.030  0.1991  0.8636 -0.9956
16653SOL    HW255922   6.158   2.783   8.126  0.9111  0.2263  0.0090
16654SOL     OW55923   6.784   5.833   1.679  0.2808  0.2938 -0.4997
16654SOL    HW155924   6.720   5.895   1.643 -0.6089 -1.0478 -1.3689
16654SOL    HW255925   6.802   5.774   1.606  0.5651 -0.8667  0.4798
16655SOL     OW55926   0.008   7.209   5.160  0.0846  0.6491  0.2643
16655SOL    HW155927  -0.077   7.184   5.125  0.3554 -1.3692  0.8975
16655SOL    HW255928   0.070   7.192   5.089  0.0825  1.1875  0.1297
16656SOL     OW55929   2.919   3.152   1.371 -0.0834  0.9081  0.0169
16656SOL    HW155930   2.922   3.058   1.356 -1.3294  1.0395 -1.3192
16656SOL    HW255931   2.845   3.164   1.430 -1.4574  1.2046 -1.6877
16657SOL     OW55932   3.289   3.885   4.584 -0.1964 -0.5383  0.2816
16657SOL    HW155933   3.323   3.970   4.556  2.1313 -1.1251  1.1132
16657SOL    HW255934   3.232   3.905   4.659  0.0568  0.3070  0.2608
16658SOL     OW55935   4.631   4.581   2.356 -0.2069 -0.2606  0.1747
16658SOL    HW155936   4.685   4.553   2.430  0.7672  0.0458 -0.3890
16658SOL    HW255937   4.687   4.643   2.308 -2.6622  3.9445  2.1165
16659SOL     OW55938   3.840   0.788   8.021 -0.2470  0.0631  0.3527
16659SOL    HW155939   3.870   0.871   8.060 -0.1142  0.6316 -0.9063
16659SOL    HW255940   3.744   0.798   8.017 -0.2761 -0.0696  0.6840
16660SOL     OW55941   4.905   3.932   6.736  0.1127  0.1216  0.0636
16660SOL    HW155942   4.981   3.968   6.691  1.5310  1.3830  3.1652
16660SOL    HW255943   4.831   3.951   6.678  2.0104 -0.3641 -2.6469
16661SOL     OW55944   6.654   6.202   3.242 -0.5953 -0.0236  0.4640
16661SOL    HW155945   6.606   6.129   3.202  0.1916 -0.7390  0.8042
16661SOL    HW255946   6.616   6.210   3.330  1.1519 -1.8680  1.4678
16662SOL     OW55947   5.217   4.656   4.184  0.2263  0.5514 -0.0096
16662SOL    HW155948   5.143   4.614   4.140 -0.0317  0.1340  0.8009
16662SOL    HW255949   5.294   4.609   4.153  0.1136  0.6537 -0.4640
16663SOL     OW55950   8.596   1.646   5.893  0.0650  0.5541  0.4275
16663SOL    HW155951   8.576   1.585   5.964  1.1506  0.4719  0.6674
16663SOL    HW255952   8.586   1.733   5.931  1.2004  0.5114  0.8563
16664SOL     OW55953   3.860   7.307   3.726 -0.0806 -0.1578 -0.2402
16664SOL    HW155954   3.946   7.279   3.693 -0.1915 -2.4520  1.1865
16664SOL    HW255955   3.880   7.350   3.810 -0.2789 -0.2328 -0.1542
16665SOL     OW55956   6.843   1.022   3.193  0.4035 -0.0160  0.2078
16665SOL    HW155957   6.883   0.936   3.208 -0.7726 -0.7554 -0.7023
16665SOL    HW255958   6.783   1.035   3.266  1.6901  0.7510  1.1660
16666SOL     OW55959   1.098   3.869   3.841  0.3017  0.3349 -0.1690
16666SOL    HW155960   1.019   3.815   3.848  0.6515 -0.1235  0.3460
16666SOL    HW255961   1.151   3.826   3.774  0.0617  0.7145 -0.6062
16667SOL     OW55962   6.235   1.645   0.885  0.5149 -0.6789 -0.1201
16667SOL    HW155963   6.310   1.705   0.883  0.3316 -0.3960  0.7534
16667SOL    HW255964   6.241   1.603   0.971  0.3138 -1.5050 -0.4976
16668SOL     OW55965   7.488   4.004   6.670 -0.0119  0.0315 -0.3878
16668SOL    HW155966   7.583   4.006   6.659 -0.1443  0.6960 -1.6425
16668SOL    HW255967   7.466   3.911   6.671  0.5292 -0.1206 -1.3889
16669SOL     OW55968   3.725   0.417   5.565  0.8600 -0.3722  0.3972
16669SOL    HW155969   3.714   0.342   5.623  1.8162 -1.0451 -0.2663
16669SOL    HW255970   3.675   0.395   5.486  1.4541 -0.4851  0.0475
16670SOL     OW55971   1.253   5.734   9.210 -0.4487 -0.0370 -0.1446
16670SOL    HW155972   1.198   5.776   9.143 -0.6054 -0.2280 -0.1374
16670SOL    HW255973   1.295   5.662   9.164  1.8188  1.6228 -0.8310
16671SOL     OW55974   0.710   2.330   3.802 -0.3866 -0.2081 -0.3127
16671SOL    HW155975   0.701   2.270   3.727  0.4906 -0.4450 -0.2420
16671SOL    HW255976   0.789   2.300   3.847 -1.8247 -1.2011  1.7387
16672SOL     OW55977   5.974   1.054   7.264  0.4647 -0.2347  0.5321
16672SOL    HW155978   5.991   1.144   7.290  1.9731  0.5883 -2.7759
16672SOL    HW255979   6.057   1.008   7.281 -0.4154 -1.2184  2.5913
16673SOL     OW55980   1.986   4.577   2.617 -0.3083 -0.1520 -0.1011
16673SOL    HW155981   2.006   4.653   2.670  1.7354  0.3281 -1.4332
16673SOL    HW255982   2.068   4.558   2.571 -1.4537 -1.6761 -1.6343
16674SOL     OW55983   1.264   3.520   3.922 -0.2466  0.1367 -0.0519
16674SOL    HW155984   1.265   3.531   3.827  0.1238  0.5914  0.0007
16674SOL    HW255985   1.263   3.609   3.956 -0.4825 -0.0267  0.3718
16675SOL     OW55986   0.144   9.078   3.856  0.6227 -0.0639  0.7282
16675SOL    HW155987   0.140   9.173   3.867 -0.9103 -0.2473  2.0320
16675SOL    HW255988   0.060   9.046   3.889  1.6208 -1.9993  1.5328
16676SOL     OW55989   8.818   2.492   1.839  0.2294  0.0365  0.4523
16676SOL    HW155990   8.883   2.517   1.905 -0.7835 -1.8169  2.2638
16676SOL    HW255991   8.820   2.397   1.838 -0.1067 -0.0175 -1.9517
16677SOL     OW55992   9.209   4.536   5.087 -0.3173 -0.2661  0.5050
16677SOL    HW155993   9.166   4.604   5.035  0.7928  0.9919  1.1522
16677SOL    HW255994   9.161   4.537   5.170 -1.6767 -1.8231 -0.2145
16678SOL     OW55995   7.049   7.548   0.005 -0.1279 -0.2357 -0.1606
16678SOL    HW155996   7.056   7.453   0.020 -0.7948 -0.3886 -0.7357
16678SOL    HW255997   6.955   7.565   0.005 -0.1295  0.0471 -2.1810
16679SOL     OW55998   9.248   9.246   2.142  0.0571 -0.1617  0.5492
16679SOL    HW155999   9.325   9.289   2.179 -0.0922  1.0460 -0.4792
16679SOL    HW256000   9.179   9.261   2.207  0.1265  0.7713  0.4201
16680SOL     OW56001   1.699   6.955   7.364 -0.3433 -0.4620  0.5726
16680SOL    HW156002   1.728   6.876   7.410 -0.3376 -1.6482 -1.3763
16680SOL    HW256003   1.779   7.006   7.353 -0.1517 -0.6867  0.9045
16681SOL     OW56004   7.764   0.840   7.377 -0.4299 -0.2779 -0.6108
16681SOL    HW156005   7.742   0.766   7.321  0.9473 -1.8732  0.8780
16681SOL    HW256006   7.754   0.808   7.466  1.5774  0.8221  0.0917
16682SOL     OW56007   7.567   7.021   1.996 -0.0788  0.2619  0.5579
16682SOL    HW156008   7.490   7.074   2.019 -0.6742 -0.0911 -0.5227
16682SOL    HW256009   7.533   6.957   1.933  0.5972 -1.4418  1.8400
16683SOL     OW56010   9.286   6.022   6.091 -0.2022  0.1522 -0.2098
16683SOL    HW156011   9.361   6.019   6.031 -0.4715 -0.4873 -0.5331
16683SOL    HW256012   9.310   6.086   6.157  0.4046  0.3488 -0.6119
16684SOL     OW56013   0.275   0.036   7.199  0.2797 -0.0200 -0.0147
16684SOL    HW156014   0.300  -0.004   7.282 -0.1353  1.7361  1.0240
16684SOL    HW256015   0.189   0.074   7.216 -0.3946 -0.7145 -1.6658
16685SOL     OW56016   7.838   6.400   0.945 -0.6894  0.1556 -0.1332
16685SOL    HW156017   7.922   6.443   0.932  0.4380 -1.9229 -0.1681
16685SOL    HW256018   7.808   6.379   0.857 -0.5915 -0.2466 -0.0747
16686SOL     OW56019   9.080   1.508   2.722 -0.2854  1.0830  0.0461
16686SOL    HW156020   9.024   1.430   2.725  1.3436 -0.1978 -0.9711
16686SOL    HW256021   9.072   1.546   2.809 -0.2435 -0.8874  0.9737
16687SOL     OW56022   5.072   6.736   4.891 -0.5530 -0.1148  0.1339
16687SOL    HW156023   5.136   6.805   4.905 -0.6286  0.0234 -0.1889
16687SOL    HW256024   5.069   6.688   4.974 -0.7712  0.4961  0.4892
16688SOL     OW56025   4.543   3.927   2.037  0.5631 -0.1400  0.6029
16688SOL    HW156026   4.486   3.992   2.078  0.5951  1.0598 -1.1654
16688SOL    HW256027   4.628   3.970   2.029  0.2643  0.1544 -1.7486
16689SOL     OW56028   8.132   9.124   4.417 -0.2838  0.2402  0.1511
16689SOL    HW156029   8.068   9.097   4.483 -0.5533  2.4196  0.8429
16689SOL    HW256030   8.157   9.213   4.441 -1.0312  1.5084 -3.1166
16690SOL     OW56031   9.166   5.067   2.795  0.5303 -0.6087 -0.3413
16690SOL    HW156032   9.213   5.057   2.877  0.3174  1.6757  0.1385
16690SOL    HW256033   9.118   5.150   2.805 -1.0612 -1.2614 -2.0202
16691SOL     OW56034   6.528   0.880   2.795  0.1404 -0.4059 -0.2289
16691SOL    HW156035   6.618   0.909   2.809  0.5484 -1.2580 -1.0336
16691SOL    HW256036   6.506   0.830   2.874  0.3432 -0.1319  0.0012
16692SOL     OW56037   8.313   2.847   3.626  0.0528  0.6474 -0.0994
16692SOL    HW156038   8.346   2.768   3.669  0.3565  0.9410  0.2032
16692SOL    HW256039   8.265   2.893   3.695 -2.7844 -0.7605 -0.9742
16693SOL     OW56040   6.559   7.458   6.342 -0.8441 -0.4473 -0.1321
16693SOL    HW156041   6.513   7.517   6.282 -1.0550 -0.6134 -0.1355
16693SOL    HW256042   6.490   7.401   6.376 -0.7465 -0.2719  0.3622
16694SOL     OW56043   8.355   6.572   1.990  0.7263  0.0313 -0.0916
16694SOL    HW156044   8.380   6.640   1.929 -1.7996 -0.6460 -2.0560
16694SOL    HW256045   8.306   6.618   2.058  0.5865  0.3930 -0.4339
16695SOL     OW56046   5.204   4.825   4.955 -0.0696  0.8826 -0.2022
16695SOL    HW156047   5.141   4.775   4.904 -0.5398  0.9681  0.2906
16695SOL    HW256048   5.285   4.774   4.951 -0.2343  0.6587 -0.6457
16696SOL     OW56049   7.432   9.333   0.870  0.0616  0.1304 -0.7945
16696SOL    HW156050   7.440   9.372   0.782 -1.9779  2.3106 -0.1335
16696SOL    HW256051   7.454   9.241   0.857 -0.3960  0.3149 -3.6512
16697SOL     OW56052   7.651   3.300   3.198 -0.8427  0.5536 -0.6274
16697SOL    HW156053   7.649   3.394   3.216 -1.8725  0.3291  0.5810
16697SOL    HW256054   7.722   3.267   3.253  0.7511  0.8328 -2.4038
16698SOL     OW56055   6.641   2.034   5.646 -0.4591  0.3957  0.5209
16698SOL    HW156056   6.648   2.095   5.573 -0.1945  0.6851  0.7841
16698SOL    HW256057   6.717   1.977   5.637 -0.3087  0.5664  0.6887
16699SOL     OW56058   4.909   3.591   4.365 -0.4107 -0.0436  0.0611
16699SOL    HW156059   4.968   3.654   4.324 -0.9591 -0.3382 -1.2259
16699SOL    HW256060   4.903   3.519   4.303 -2.6983  0.3123 -0.2480
16700SOL     OW56061   9.034   3.198   5.023 -0.1554  0.4995 -0.0188
16700SOL    HW156062   9.122   3.208   5.060  0.4094  1.9934 -1.6207
16700SOL    HW256063   8.996   3.285   5.027 -1.1299  0.1061 -0.4023
16701SOL     OW56064   3.625   2.124   4.454 -0.1113  0.2015  0.3887
16701SOL    HW156065   3.716   2.123   4.482  0.1125 -0.2025 -0.3370
16701SOL    HW256066   3.628   2.116   4.359 -0.9140 -0.1687  0.3797
16702SOL     OW56067   6.585   1.704   0.215 -0.7955 -0.0030  0.5652
16702SOL    HW156068   6.595   1.613   0.186 -1.0504 -0.0452  0.6085
16702SOL    HW256069   6.499   1.731   0.181 -0.1974  0.6117 -0.4923
16703SOL     OW56070   2.443   3.054   1.963  0.0673  0.0780 -0.4920
16703SOL    HW156071   2.434   2.999   2.041 -0.6903 -0.8175 -1.1863
16703SOL    HW256072   2.432   2.994   1.890 -0.0193  1.0339 -1.2911
16704SOL     OW56073   7.645   5.565   8.039 -0.3868 -0.3393  0.1399
16704SOL    HW156074   7.714   5.512   8.079 -0.3382 -1.1678 -1.0031
16704SOL    HW256075   7.664   5.654   8.067  0.9408 -0.6053  0.1270
16705SOL     OW56076   8.503   0.169   0.420 -0.7718 -0.0795 -0.5924
16705SOL    HW156077   8.574   0.233   0.420 -1.7035  0.9915 -0.6390
16705SOL    HW256078   8.486   0.151   0.328 -0.3423 -0.6072 -0.5753
16706SOL     OW56079   6.478   7.023   6.185  0.6164  0.1704  0.3813
16706SOL    HW156080   6.508   6.954   6.244 -0.7767  1.1022  2.2996
16706SOL    HW256081   6.392   6.993   6.154  1.4386 -0.4306 -1.4731
16707SOL     OW56082   6.192   6.781   5.091  0.4177  0.3539  0.0508
16707SOL    HW156083   6.258   6.718   5.061  0.3993 -0.3611  1.4171
16707SOL    HW256084   6.109   6.736   5.081  0.4816 -0.2794  1.9642
16708SOL     OW56085   8.168   3.611   1.517  0.1714 -0.3139  0.1815
16708SOL    HW156086   8.171   3.519   1.491  0.5454 -0.7092  1.5869
16708SOL    HW256087   8.251   3.626   1.562  0.0822  0.7054  0.0266
16709SOL     OW56088   8.822   0.745   4.820 -0.2171  0.0101  0.2993
16709SOL    HW156089   8.832   0.830   4.778 -0.3158 -0.6529 -1.1135
16709SOL    HW256090   8.740   0.752   4.870 -0.8056  0.3953 -0.7030
16710SOL     OW56091   4.693   1.914   5.053 -0.1375  0.0003 -0.0731
16710SOL    HW156092   4.628   1.977   5.023  1.3025  2.1537  1.1116
16710SOL    HW256093   4.643   1.833   5.065 -2.0779  0.8958 -1.5385
16711SOL     OW56094   6.289   9.330   3.275  0.0908 -0.0002 -0.1871
16711SOL    HW156095   6.381   9.356   3.276  0.3615 -0.9156  0.1897
16711SOL    HW256096   6.282   9.267   3.347 -0.7648 -0.1568 -0.3982
16712SOL     OW56097   5.398   2.792   2.150 -0.0884 -0.0519 -0.0150
16712SOL    HW156098   5.363   2.718   2.201 -1.2919 -0.7387 -1.7179
16712SOL    HW256099   5.373   2.869   2.200 -1.4375 -0.6839  0.3368
16713SOL     OW56100   5.078   7.717   6.034  0.3312 -0.1251  0.7998
16713SOL    HW156101   5.147   7.653   6.018  0.6457  0.2694  0.5863
16713SOL    HW256102   5.018   7.672   6.095 -0.6315 -1.4538 -1.0320
16714SOL     OW56103   1.451   5.875   8.212  0.2820 -0.2754  0.1780
16714SOL    HW156104   1.400   5.872   8.131  0.6561  3.0307 -0.3185
16714SOL    HW256105   1.541   5.890   8.182  0.6946 -0.6989  1.1779
16715SOL     OW56106   5.222   0.878   8.401 -0.4498  0.5407  0.6125
16715SOL    HW156107   5.217   0.967   8.437  0.8668  0.2308  1.6458
16715SOL    HW256108   5.195   0.821   8.472  1.6555 -0.0456  1.0063
16716SOL     OW56109   5.514   5.839   7.859  0.3280 -0.3325 -0.0502
16716SOL    HW156110   5.538   5.747   7.867  0.5775 -0.1980  0.9042
16716SOL    HW256111   5.559   5.882   7.933 -0.8884  0.3271  0.3296
16717SOL     OW56112   5.079   9.073   2.585 -0.1748  0.1468  0.2055
16717SOL    HW156113   5.133   9.091   2.508 -0.9795 -2.3860 -1.0808
16717SOL    HW256114   5.135   9.021   2.642 -0.1005  0.6228  0.5668
16718SOL     OW56115   3.945   9.211   7.017 -0.2170 -0.4406  0.1574
16718SOL    HW156116   3.962   9.154   7.091 -0.0229 -1.5115 -0.6878
16718SOL    HW256117   3.942   9.152   6.941  0.2054  0.6885 -0.7688
16719SOL     OW56118   3.566   0.830   4.675  0.0455  0.6169  0.3367
16719SOL    HW156119   3.638   0.821   4.614  1.0392  1.2213  1.3760
16719SOL    HW256120   3.518   0.907   4.644 -1.3614 -0.9148 -1.5002
16720SOL     OW56121   5.274   5.631   1.856  0.1298  0.0144  0.1117
16720SOL    HW156122   5.349   5.679   1.892  0.4867 -0.3988 -0.0699
16720SOL    HW256123   5.300   5.539   1.861 -0.1325 -0.0962 -0.4810
16721SOL     OW56124   0.965   8.377   3.740  0.4015  1.2399  0.4162
16721SOL    HW156125   0.961   8.418   3.827 -1.7324  1.9298  0.0310
16721SOL    HW256126   0.896   8.420   3.689  0.3495 -0.4689 -1.0509
16722SOL     OW56127   3.360   4.825   6.538 -0.1965 -0.2245 -0.3846
16722SOL    HW156128   3.399   4.849   6.623 -0.8769  0.5073 -0.2637
16722SOL    HW256129   3.375   4.901   6.483 -0.1711 -0.5172 -0.7804
16723SOL     OW56130   1.002   4.387   8.608  0.3633  0.3734  0.2336
16723SOL    HW156131   1.069   4.330   8.571  0.4032  0.5021  0.1049
16723SOL    HW256132   1.034   4.476   8.589  0.0767  0.4340  0.0242
16724SOL     OW56133   7.032   6.143   3.355  0.0286 -0.2113 -0.5623
16724SOL    HW156134   7.014   6.165   3.263  0.8984  0.7350 -0.5214
16724SOL    HW256135   6.971   6.072   3.375 -0.6671  0.0488 -1.6655
16725SOL     OW56136   5.667   7.761   2.301  0.3868  0.5068 -0.3746
16725SOL    HW156137   5.727   7.692   2.330 -0.2743 -0.0677 -0.3728
16725SOL    HW256138   5.720   7.815   2.242  1.9255  1.9666  2.1592
16726SOL     OW56139   2.515   7.525   1.028  0.6633 -0.8602 -0.1692
16726SOL    HW156140   2.483   7.466   1.096 -0.6105  2.7896  2.7975
16726SOL    HW256141   2.459   7.508   0.953  0.2041 -3.1697  0.6236
16727SOL     OW56142   8.164   8.487   9.051  0.0873 -0.2703 -0.3415
16727SOL    HW156143   8.145   8.434   8.974 -0.9579 -1.3023  0.5863
16727SOL    HW256144   8.204   8.426   9.114 -0.4325  0.1970  0.4664
16728SOL     OW56145   2.382   1.353   3.768  0.3061  0.0364  0.0418
16728SOL    HW156146   2.402   1.426   3.828 -0.1196  2.1449 -2.2171
16728SOL    HW256147   2.367   1.278   3.826 -3.2793  2.5800  2.8598
16729SOL     OW56148   3.998   5.249   0.147 -0.2931  0.5411  0.4278
16729SOL    HW156149   3.904   5.235   0.151 -0.0653 -1.0240  1.1208
16729SOL    HW256150   4.016   5.263   0.054 -1.1784  0.5808  0.2536
16730SOL     OW56151   4.758   3.156   1.422  0.6399  0.3310  0.0887
16730SOL    HW156152   4.740   3.069   1.455 -1.2150 -0.5398 -2.8274
16730SOL    HW256153   4.726   3.215   1.490  1.0374 -1.1998  1.6798
16731SOL     OW56154   8.865   3.368   5.414 -0.2322  0.0973 -0.0969
16731SOL    HW156155   8.892   3.284   5.451 -1.6950 -0.0711  0.6923
16731SOL    HW256156   8.947   3.414   5.395  0.5848 -1.0103  0.6223
16732SOL     OW56157   1.346   1.303   8.330 -0.1997  0.3190 -0.4071
16732SOL    HW156158   1.341   1.358   8.408  0.6483  0.6654 -0.5883
16732SOL    HW256159   1.332   1.364   8.257  1.3605  0.4434 -0.6445
16733SOL     OW56160   1.122   7.458   1.560 -0.1848 -0.4399  0.0416
16733SOL    HW156161   1.132   7.431   1.469  1.1890  0.4020 -0.0854
16733SOL    HW256162   1.178   7.398   1.610  0.8962  0.5488  0.0460
16734SOL     OW56163   6.786   1.680   5.041 -0.3345 -0.1792 -0.2116
16734SOL    HW156164   6.786   1.724   4.956 -2.4208  0.7296  0.1921
16734SOL    HW256165   6.875   1.646   5.050  1.0344  2.7298 -1.2204
16735SOL     OW56166   7.726   2.623   9.103 -0.2128  0.2641 -0.0159
16735SOL    HW156167   7.789   2.607   9.033 -0.8222 -0.4821 -0.4061
16735SOL    HW256168   7.679   2.701   9.074  0.7841  1.0744  0.4753
16736SOL     OW56169   4.137   3.081   0.381  0.1783 -0.2023  0.3347
16736SOL    HW156170   4.188   3.093   0.300  0.5642 -1.7181  0.3144
16736SOL    HW256171   4.141   3.166   0.425 -0.6599  0.8855 -1.5739
16737SOL     OW56172   0.490   4.512   3.536  1.0804  0.6332 -0.1497
16737SOL    HW156173   0.497   4.419   3.513 -1.2343  0.9724 -2.8953
16737SOL    HW256174   0.444   4.513   3.620  3.2332 -0.6596  1.1313
16738SOL     OW56175   0.173   4.072   3.901 -0.1074  0.4188  0.2404
16738SOL    HW156176   0.078   4.068   3.893 -0.2063 -0.9628  1.6183
16738SOL    HW256177   0.193   4.017   3.977  1.6816  1.8112  0.8403
16739SOL     OW56178   3.198   0.653   2.617 -0.0492  0.1413 -0.2653
16739SOL    HW156179   3.190   0.558   2.622 -0.5582  0.1191 -1.3999
16739SOL    HW256180   3.108   0.685   2.617  0.0759  0.8052  2.5694
16740SOL     OW56181   5.912   2.223   9.200  0.2371  0.1788  0.0168
16740SOL    HW156182   5.844   2.278   9.240 -1.2729 -1.5073 -0.1395
16740SOL    HW256183   5.919   2.256   9.110  0.0878  0.7629  0.2112
16741SOL     OW56184   7.659   5.571   6.434 -0.1058 -0.0454  0.4581
16741SOL    HW156185   7.682   5.480   6.418 -0.6894 -0.1868  0.4181
16741SOL    HW256186   7.660   5.612   6.347  1.3759  0.2897  0.5970
16742SOL     OW56187   5.772   7.599   5.514 -0.4892 -0.7659  0.6256
16742SOL    HW156188   5.678   7.583   5.526 -0.9030  1.3146  0.5074
16742SOL    HW256189   5.790   7.567   5.425 -1.3437 -0.1967  0.2348
16743SOL     OW56190   6.203   7.960   7.351  0.0775 -0.2264 -0.5816
16743SOL    HW156191   6.188   8.024   7.422 -0.4572 -1.0246  0.0394
16743SOL    HW256192   6.121   7.912   7.344  1.1564 -2.3855  0.5488
16744SOL     OW56193   6.139   5.344   4.355 -0.3079  0.1468  0.3342
16744SOL    HW156194   6.161   5.433   4.327 -1.4229  0.7832  1.3653
16744SOL    HW256195   6.148   5.347   4.451  0.2272 -1.0329  0.3348
16745SOL     OW56196   7.432   1.927   1.803 -0.4026 -0.2187 -0.0255
16745SOL    HW156197   7.360   1.985   1.827  0.1559  0.7694 -0.6626
16745SOL    HW256198   7.438   1.865   1.876 -0.9915  0.5466  0.6986
16746SOL     OW56199   5.005   8.974   3.086 -0.1768 -0.0530  0.1222
16746SOL    HW156200   4.963   8.889   3.074 -1.1164  0.3774  0.2604
16746SOL    HW256201   4.938   9.037   3.061  0.5706  0.6474 -0.1534
16747SOL     OW56202   6.109   7.057   3.328  0.1357  0.4335 -0.2684
16747SOL    HW156203   6.086   7.059   3.235 -0.9910 -1.6827 -0.1055
16747SOL    HW256204   6.136   6.967   3.344 -1.9240  0.0932  1.9063
16748SOL     OW56205   6.207   5.547   0.688  0.1526  0.1936  0.6188
16748SOL    HW156206   6.280   5.607   0.704  0.6432 -0.6219  1.5509
16748SOL    HW256207   6.236   5.464   0.724  0.1221 -1.0732 -2.0275
16749SOL     OW56208   3.711   9.133   8.740  0.1982 -0.2079  0.1471
16749SOL    HW156209   3.761   9.151   8.820 -0.4349 -1.6140  0.8954
16749SOL    HW256210   3.621   9.123   8.771  0.0471 -1.4364 -0.6375
16750SOL     OW56211   8.421   6.030   8.282  0.2126  0.2017 -0.5908
16750SOL    HW156212   8.445   5.945   8.246 -0.7016 -0.5295  0.4474
16750SOL    HW256213   8.418   6.088   8.206  1.6594 -0.4829 -1.2029
16751SOL     OW56214   6.281   6.278   8.505  0.2485 -0.3599 -0.2338
16751SOL    HW156215   6.270   6.193   8.463  1.5240 -1.9219  2.3466
16751SOL    HW256216   6.340   6.326   8.447  1.1755 -2.0438 -0.7600
16752SOL     OW56217   2.996   0.476   5.163 -0.2297 -0.1068 -0.4063
16752SOL    HW156218   3.032   0.503   5.079  0.3058  1.5534  0.3019
16752SOL    HW256219   2.933   0.408   5.142 -0.2283  0.3909 -2.1610
16753SOL     OW56220   0.640   2.950   7.891 -0.2253 -0.1837  0.4305
16753SOL    HW156221   0.575   2.915   7.830  0.3202 -2.4256  1.0453
16753SOL    HW256222   0.710   2.984   7.836 -1.4503  1.4124 -0.2189
16754SOL     OW56223   6.629   6.151   2.820  0.5465 -0.1159  0.4347
16754SOL    HW156224   6.551   6.096   2.817  1.2608 -1.1993  0.9990
16754SOL    HW256225   6.700   6.094   2.790  1.1692  0.7784  0.1465
16755SOL     OW56226   6.734   3.703   7.248 -0.3949  0.1505 -0.5379
16755SOL    HW156227   6.669   3.761   7.209  0.7839  1.8197 -0.1468
16755SOL    HW256228   6.798   3.688   7.179 -0.3452 -0.1116 -0.4353
16756SOL     OW56229   8.572   7.410   6.689  0.4893 -0.1365  0.5439
16756SOL    HW156230   8.577   7.424   6.594  0.9429  1.2824  0.7531
16756SOL    HW256231   8.656   7.369   6.711 -1.5355 -5.5921 -0.3426
16757SOL     OW56232   1.124   1.840   1.170  0.0917  0.2475  0.1906
16757SOL    HW156233   1.215   1.824   1.193  0.7472  0.9323 -1.7331
16757SOL    HW256234   1.091   1.755   1.141  0.9574  0.4762 -1.6338
16758SOL     OW56235   0.834   2.150   5.811 -0.6500 -0.2542 -0.0020
16758SOL    HW156236   0.767   2.090   5.779  2.1128 -3.1566 -0.9390
16758SOL    HW256237   0.825   2.228   5.757 -1.3888 -1.7850 -2.2396
16759SOL     OW56238   8.528   6.443   8.069 -0.7624 -0.0664  0.2464
16759SOL    HW156239   8.544   6.531   8.104 -0.1140  0.6511 -1.7342
16759SOL    HW256240   8.608   6.394   8.088 -0.5324  0.2250  0.0364
16760SOL     OW56241   5.636   6.896   8.327 -0.2831 -0.2194 -0.1301
16760SOL    HW156242   5.547   6.931   8.325  0.1967  1.0331 -1.1741
16760SOL    HW256243   5.684   6.958   8.382  0.2905  0.0297 -0.8976
16761SOL     OW56244   3.693   2.359   7.602  0.3113 -0.2825  0.4842
16761SOL    HW156245   3.772   2.408   7.624  0.7861 -1.1764  0.8240
16761SOL    HW256246   3.693   2.286   7.664 -1.6438  0.5868  1.5970
16762SOL     OW56247   3.835   1.904   3.020  0.8079  0.1252  0.1175
16762SOL    HW156248   3.744   1.932   3.026  0.5974  0.0032 -1.9158
16762SOL    HW256249   3.886   1.984   3.029  0.4615  0.3328  0.2594
16763SOL     OW56250   8.982   4.123   4.415  0.4755  0.0100  0.2676
16763SOL    HW156251   9.009   4.039   4.451  0.7068  0.6320  1.5932
16763SOL    HW256252   8.956   4.175   4.491 -3.0286 -0.0014 -0.7445
16764SOL     OW56253   0.134   5.591   3.553  0.0221 -0.1332 -0.1346
16764SOL    HW156254   0.208   5.543   3.517 -0.2807  0.2755 -1.3411
16764SOL    HW256255   0.065   5.525   3.562  0.3972 -0.4353  0.6366
16765SOL     OW56256   2.051   8.876   6.104 -0.0399  0.0306  0.2365
16765SOL    HW156257   2.142   8.894   6.129 -0.1880  1.6463 -0.3137
16765SOL    HW256258   1.999   8.903   6.179 -0.0570 -1.7542  0.9285
16766SOL     OW56259   8.196   2.996   5.632 -0.0174  0.4539  0.5529
16766SOL    HW156260   8.188   2.974   5.725  2.1616  0.7968  0.8639
16766SOL    HW256261   8.286   3.026   5.622  1.1683 -3.3478 -2.4030
16767SOL     OW56262   8.116   7.973   7.494 -0.0870  0.1050 -0.3193
16767SOL    HW156263   8.064   8.016   7.562  1.0896  0.5562  0.3297
16767SOL    HW256264   8.171   7.911   7.542 -0.0871 -0.4278 -0.9992
16768SOL     OW56265   5.155   3.244   8.132  0.0703 -0.0188  0.2078
16768SOL    HW156266   5.171   3.310   8.200  0.1041 -0.3134  0.4896
16768SOL    HW256267   5.135   3.164   8.181 -1.6083  0.1570 -0.1250
16769SOL     OW56268   6.067   1.233   8.341 -0.0201 -0.3164  0.1614
16769SOL    HW156269   6.045   1.143   8.366  1.5034 -0.7153  0.1892
16769SOL    HW256270   6.160   1.230   8.319 -0.3632  0.8718 -1.7027
16770SOL     OW56271   0.194   6.539   0.814 -0.0509 -0.5018  0.1459
16770SOL    HW156272   0.162   6.524   0.903  1.2916  1.9589  1.1173
16770SOL    HW256273   0.283   6.504   0.815 -0.1831 -0.8585 -0.3790
16771SOL     OW56274   7.265   0.646   1.584 -0.0295  0.2101  0.1208
16771SOL    HW156275   7.203   0.695   1.639  0.0222 -0.9989  1.3095
16771SOL    HW256276   7.240   0.554   1.596  0.6202 -0.1446 -1.1185
16772SOL     OW56277   5.140   3.878   7.143 -0.0993  0.1937  0.1415
16772SOL    HW156278   5.183   3.828   7.212  0.3949 -0.6159 -0.7344
16772SOL    HW256279   5.079   3.816   7.103 -2.6788  1.4899  1.8102
16773SOL     OW56280   4.298   6.662   5.410 -0.6534  0.3732 -0.1941
16773SOL    HW156281   4.239   6.590   5.390 -0.2593  0.0481 -0.1982
16773SOL    HW256282   4.385   6.629   5.387 -0.2207  0.1471  1.5634
16774SOL     OW56283   0.458   5.086   1.961  0.0842 -0.4762 -0.0916
16774SOL    HW156284   0.413   5.005   1.938  0.1330 -0.1571 -1.4212
16774SOL    HW256285   0.540   5.058   2.000  0.6608 -1.1049 -1.6880
16775SOL     OW56286   6.799   7.962   5.202 -0.7568 -0.2885 -0.1686
16775SOL    HW156287   6.747   7.882   5.200 -0.1697 -0.6682 -1.1590
16775SOL    HW256288   6.735   8.033   5.212 -1.3462 -0.8272 -0.0676
16776SOL     OW56289   7.389   1.610   2.775  0.1648 -0.6002 -0.3656
16776SOL    HW156290   7.420   1.531   2.819  0.6292 -0.6377 -0.7560
16776SOL    HW256291   7.455   1.629   2.708  0.6158  0.7188  0.4099
16777SOL     OW56292   7.959   5.397   6.439 -0.0453  0.2098 -0.5082
16777SOL    HW156293   8.019   5.445   6.382  0.4712 -0.4858 -0.5731
16777SOL    HW256294   8.000   5.400   6.525 -0.0767  0.0082 -0.4848
16778SOL     OW56295   7.343   8.936   3.851  0.2344 -0.0450  0.1130
16778SOL    HW156296   7.411   8.999   3.824  1.6000 -1.0869  0.9653
16778SOL    HW256297   7.292   8.920   3.772  0.5872  1.2338 -0.4042
16779SOL     OW56298   5.318   0.830   0.940  0.4615  0.2148 -0.1951
16779SOL    HW156299   5.238   0.870   0.906 -0.2431  1.0265  2.2017
16779SOL    HW256300   5.340   0.883   1.017  3.5743  0.2787 -0.9873
16780SOL     OW56301   0.900   7.621   8.178  0.4091 -0.6113 -0.3496
16780SOL    HW156302   0.916   7.563   8.103  0.2892 -1.6034  0.3740
16780SOL    HW256303   0.983   7.625   8.224  0.7830  0.8686 -1.1036
16781SOL     OW56304   0.496   6.502   8.476  0.0442 -0.1330  0.1427
16781SOL    HW156305   0.557   6.445   8.523  0.6168 -0.5243 -1.0467
16781SOL    HW256306   0.413   6.455   8.480  0.3376 -0.6921 -0.1602
16782SOL     OW56307   8.021   5.815   8.786 -0.0654 -0.5252 -0.3250
16782SOL    HW156308   7.934   5.810   8.748  0.1509 -1.3603 -0.7335
16782SOL    HW256309   8.029   5.735   8.839  0.5355 -0.5775 -0.4862
16783SOL     OW56310   4.825   6.890   8.538  0.4321  0.1352 -0.1409
16783SOL    HW156311   4.812   6.863   8.629  1.6245  0.3002  0.1001
16783SOL    HW256312   4.753   6.950   8.520  0.1969  0.1175  0.6949
16784SOL     OW56313   7.498   5.939   5.602 -0.0418  0.6952  0.1876
16784SOL    HW156314   7.561   5.969   5.536  0.1954  0.0087  0.0911
16784SOL    HW256315   7.452   6.018   5.629 -0.8892  0.8633 -1.5807
16785SOL     OW56316   0.060   1.223   9.289 -0.4516 -0.0147  0.2960
16785SOL    HW156317   0.012   1.296   9.328  0.4710  1.0231 -0.4192
16785SOL    HW256318   0.011   1.145   9.314 -1.0707  0.7844  1.6864
16786SOL     OW56319   7.049   2.238   4.273  0.1589 -0.4234  0.6183
16786SOL    HW156320   7.095   2.154   4.267  1.0407  0.0686  0.2902
16786SOL    HW256321   6.974   2.220   4.330  0.9778 -1.1593  1.5102
16787SOL     OW56322   8.126   1.474   5.149 -0.7641  0.0764 -0.3780
16787SOL    HW156323   8.212   1.436   5.163 -0.2451  1.3300  0.0251
16787SOL    HW256324   8.077   1.453   5.229 -1.1158 -1.3152 -0.9359
16788SOL     OW56325   4.372   2.066   4.661  0.0384  0.0094  0.2128
16788SOL    HW156326   4.410   1.980   4.641 -2.9438 -1.0090 -1.8016
16788SOL    HW256327   4.349   2.061   4.754  1.0332 -0.8609  0.4326
16789SOL     OW56328   1.606   7.766   0.281 -0.2226  0.2429 -0.4576
16789SOL    HW156329   1.571   7.812   0.357  0.8275  1.3401 -0.5984
16789SOL    HW256330   1.541   7.699   0.260 -1.5001  1.2606  0.1579
16790SOL     OW56331   3.784   8.175   8.550 -0.2393  0.2444  0.2037
16790SOL    HW156332   3.790   8.265   8.581 -0.0884  0.3258 -0.0602
16790SOL    HW256333   3.762   8.124   8.629  1.3939  0.2764  0.7121
16791SOL     OW56334   3.848   0.032   0.248  0.1663 -0.5577 -0.0585
16791SOL    HW156335   3.761   0.027   0.287  0.0726 -0.6217 -0.2724
16791SOL    HW256336   3.857  -0.050   0.199  0.9381 -1.2239  1.1730
16792SOL     OW56337   7.705   8.399   1.265  0.2124 -0.0958 -0.2439
16792SOL    HW156338   7.701   8.389   1.360 -2.2728  1.1097 -0.1528
16792SOL    HW256339   7.784   8.450   1.249  0.0239  0.7429  1.3077
16793SOL     OW56340   7.297   8.279   3.593  0.0644 -0.1918 -0.0827
16793SOL    HW156341   7.353   8.216   3.638  0.7217  0.6819  0.3492
16793SOL    HW256342   7.208   8.256   3.621  0.0733 -2.1144 -1.4053
16794SOL     OW56343   0.324   6.165   1.773 -0.3408 -0.0823 -0.6076
16794SOL    HW156344   0.289   6.103   1.708  0.3400  0.1513 -1.2116
16794SOL    HW256345   0.266   6.241   1.767  0.0227  0.1528 -1.3376
16795SOL     OW56346   2.861   4.575   7.223 -0.2993  0.1724 -0.3730
16795SOL    HW156347   2.922   4.615   7.285 -1.1571  1.6229 -0.4280
16795SOL    HW256348   2.808   4.648   7.191 -0.2029 -0.6109 -2.4666
16796SOL     OW56349   9.245   7.708   7.109 -0.6812  0.0921  0.3716
16796SOL    HW156350   9.315   7.655   7.148 -0.8064 -0.7988 -0.5700
16796SOL    HW256351   9.215   7.656   7.034 -1.2644  1.2067 -0.1808
16797SOL     OW56352   8.860   7.688   4.802 -0.1956  0.2856 -0.0305
16797SOL    HW156353   8.872   7.661   4.710  0.3618 -1.3302  0.4884
16797SOL    HW256354   8.767   7.676   4.819 -0.3870  1.0228 -0.4999
16798SOL     OW56355   3.045   0.348   0.608 -0.5452  0.5460  0.1448
16798SOL    HW156356   3.043   0.310   0.695 -1.1688 -1.9032 -0.8535
16798SOL    HW256357   3.008   0.281   0.551  0.3069  1.8440 -2.1027
16799SOL     OW56358   5.045   0.715   2.773  0.0858 -0.8291  0.4371
16799SOL    HW156359   5.019   0.681   2.687  0.3552  2.6460 -1.1777
16799SOL    HW256360   5.139   0.729   2.766  0.1605 -0.7830  1.4245
16800SOL     OW56361   7.181   1.487   3.500  0.3517 -0.6939 -0.7969
16800SOL    HW156362   7.144   1.543   3.569  0.7333 -1.7273  0.2702
16800SOL    HW256363   7.175   1.541   3.421  0.8659  0.9403  0.2158
16801SOL     OW56364   2.775   4.957   6.291 -0.0739  0.4164 -0.4392
16801SOL    HW156365   2.759   4.933   6.200  1.0055  0.7447 -0.7268
16801SOL    HW256366   2.720   5.035   6.305  0.3114  0.8057 -1.0356
16802SOL     OW56367   5.671   7.480   6.436  0.0569 -0.1792 -0.4804
16802SOL    HW156368   5.689   7.423   6.361  2.6466  1.3935 -1.1931
16802SOL    HW256369   5.695   7.427   6.512 -2.0138 -1.5778 -0.7237
16803SOL     OW56370   1.828   5.540   3.360  0.0645  0.2864  0.6341
16803SOL    HW156371   1.816   5.456   3.315  2.5068  0.6428 -0.8768
16803SOL    HW256372   1.818   5.606   3.292 -1.6632  1.2702  1.7727
16804SOL     OW56373   6.596   1.454   0.091 -0.3598  0.1765  0.2958
16804SOL    HW156374   6.528   1.389   0.107 -2.4405  2.5063  1.6745
16804SOL    HW256375   6.562   1.508   0.019  0.8428  0.4190 -0.1310
16805SOL     OW56376   6.784   4.545   1.285 -0.0633 -0.6413  0.5558
16805SOL    HW156377   6.839   4.619   1.311 -0.2508 -1.4435  3.4807
16805SOL    HW256378   6.694   4.574   1.301 -0.1940 -1.1815  0.8280
16806SOL     OW56379   5.273   0.598   6.818  0.3778  0.6814 -0.0632
16806SOL    HW156380   5.314   0.597   6.732  0.2676 -1.6986 -0.1569
16806SOL    HW256381   5.346   0.588   6.879  0.3655  1.4010  0.0770
16807SOL     OW56382   7.155   1.901   2.307 -0.4949  0.1760  0.3995
16807SOL    HW156383   7.198   1.929   2.388 -1.5116  0.4118  0.8670
16807SOL    HW256384   7.082   1.962   2.296  0.5146  1.1209 -1.5128
16808SOL     OW56385   8.705   3.401   2.314 -0.0236  0.0873  0.0677
16808SOL    HW156386   8.715   3.386   2.220 -0.2229 -0.3017  0.1075
16808SOL    HW256387   8.613   3.424   2.325 -0.4824 -1.7068  0.3955
16809SOL     OW56388   7.959   4.934   1.143  0.2210  0.0864 -0.1597
16809SOL    HW156389   8.014   4.857   1.128  1.8995  0.6409  2.4774
16809SOL    HW256390   8.021   5.004   1.162 -1.3078  0.8268  2.6170
16810SOL     OW56391   9.106   5.879   5.264  0.2177  0.0232  0.0043
16810SOL    HW156392   9.033   5.880   5.203  0.7746 -1.1275 -0.7216
16810SOL    HW256393   9.181   5.911   5.212  0.3100  0.9226  0.6556
16811SOL     OW56394   2.829   5.830   1.050 -0.8581  0.1770 -0.2360
16811SOL    HW156395   2.754   5.781   1.083 -0.0187 -0.2645  1.1438
16811SOL    HW256396   2.806   5.922   1.062 -0.2169  0.0582  2.6888
16812SOL     OW56397   3.357   6.689   5.592 -0.0969 -0.7327  0.3004
16812SOL    HW156398   3.262   6.683   5.582 -0.1747  0.4284  0.2705
16812SOL    HW256399   3.386   6.597   5.596 -1.0522 -1.1523 -1.2756
16813SOL     OW56400   2.544   6.129   1.905 -0.2649  0.0498 -0.5508
16813SOL    HW156401   2.494   6.211   1.903 -4.1758 -2.0661  0.2846
16813SOL    HW256402   2.524   6.087   1.821 -0.9738 -1.3832  0.2954
16814SOL     OW56403   7.092   8.479   0.397 -0.0244 -0.2906 -0.1372
16814SOL    HW156404   7.096   8.424   0.319  2.0879 -0.2394 -0.1013
16814SOL    HW256405   7.174   8.462   0.443  0.3406  2.2654  0.2909
16815SOL     OW56406   6.540   8.548   8.614 -0.9127 -0.4112 -0.1622
16815SOL    HW156407   6.529   8.518   8.704 -2.3490 -0.6686 -0.4099
16815SOL    HW256408   6.485   8.490   8.562  0.3740 -0.6627 -1.3112
16816SOL     OW56409   8.279   8.953   4.636  0.2991 -0.3845 -0.7350
16816SOL    HW156410   8.185   8.935   4.632 -0.1847  1.0358  2.0108
16816SOL    HW256411   8.318   8.870   4.661 -0.4696 -0.5061  0.0996
16817SOL     OW56412   6.238   2.182   4.287 -0.3120 -0.6342 -0.3722
16817SOL    HW156413   6.158   2.179   4.234 -0.4768  1.3696 -0.3216
16817SOL    HW256414   6.250   2.275   4.307  2.9800 -0.6452 -1.7801
16818SOL     OW56415   6.515   2.203   4.489  0.2793 -0.2448 -0.6413
16818SOL    HW156416   6.498   2.232   4.400  1.3824  1.6265 -0.2961
16818SOL    HW256417   6.532   2.283   4.538 -0.2121 -1.2261  1.2518
16819SOL     OW56418   6.329   9.368   6.421  0.7609 -0.3314 -0.3022
16819SOL    HW156419   6.328   9.445   6.365  3.1954 -0.8557 -1.2144
16819SOL    HW256420   6.331   9.294   6.360  1.2311 -1.0035  0.4980
16820SOL     OW56421   8.883   7.365   0.346 -0.1023 -0.1009 -0.2325
16820SOL    HW156422   8.917   7.444   0.304 -0.5659  0.2654  0.0621
16820SOL    HW256423   8.956   7.332   0.397 -0.1234  0.5989  0.2805
16821SOL     OW56424   3.000   3.072   7.140  0.3121 -0.1828 -0.6100
16821SOL    HW156425   2.943   3.002   7.172 -0.4051  0.7636  0.2472
16821SOL    HW256426   2.945   3.150   7.139  1.2784  0.5228 -0.8750
16822SOL     OW56427   5.363   5.244   5.028  0.4790 -0.1660 -0.3692
16822SOL    HW156428   5.408   5.180   4.973 -1.3175 -1.5145 -0.3804
16822SOL    HW256429   5.270   5.225   5.015 -0.0664  1.2901  1.0375
16823SOL     OW56430   3.974   8.790   5.040  0.6432  0.0427  0.4211
16823SOL    HW156431   3.908   8.773   5.108 -0.1408 -0.3902 -0.4206
16823SOL    HW256432   3.928   8.773   4.958  1.3500  1.2794 -0.2609
16824SOL     OW56433   5.035   0.474   2.163  0.0724 -0.3746  0.3110
16824SOL    HW156434   4.962   0.418   2.140 -0.7128  0.7872 -0.1392
16824SOL    HW256435   5.079   0.493   2.080 -0.1845  0.3428  0.3260
16825SOL     OW56436   8.389   9.247   6.152 -0.3125  0.0597  0.0635
16825SOL    HW156437   8.394   9.320   6.213  2.0575 -0.8986  1.1353
16825SOL    HW256438   8.344   9.177   6.201 -0.4946  0.0377 -0.1322
16826SOL     OW56439   6.656   8.085   2.777 -0.1892 -0.9874  0.2801
16826SOL    HW156440   6.704   8.140   2.839 -0.8343 -1.5275  1.3030
16826SOL    HW256441   6.668   7.996   2.810 -1.0848 -1.2192  0.0061
16827SOL     OW56442   0.049   8.312   3.668 -0.1885  0.5302 -0.0657
16827SOL    HW156443   0.085   8.397   3.643  0.0018  0.9097  1.3899
16827SOL    HW256444   0.103   8.284   3.742 -2.0760  0.5467  1.4002
16828SOL     OW56445   2.244   5.540   4.740  0.0301  0.4015  0.2142
16828SOL    HW156446   2.175   5.476   4.722  1.3431 -0.8882 -0.4713
16828SOL    HW256447   2.244   5.597   4.663  0.6525 -0.4907 -0.4713
16829SOL     OW56448   5.906   0.661   9.098 -0.9858 -0.0460  0.2259
16829SOL    HW156449   5.936   0.706   9.177  0.4322  1.5719 -1.1338
16829SOL    HW256450   5.823   0.620   9.124 -1.0619  1.2299  2.2780
16830SOL     OW56451   1.494   2.187   9.319  0.2867  0.5928 -0.2818
16830SOL    HW156452   1.570   2.233   9.356 -0.9767  2.3671  0.2684
16830SOL    HW256453   1.437   2.257   9.288 -1.9410 -0.5844  0.9342
16831SOL     OW56454   3.905   0.149   2.485  0.1102  0.0118 -0.5085
16831SOL    HW156455   3.983   0.099   2.460  1.5425  1.2566  1.2564
16831SOL    HW256456   3.910   0.229   2.432  1.3882  1.1704  1.2593
16832SOL     OW56457   2.710   2.762   5.724  0.4336 -0.0386 -0.4264
16832SOL    HW156458   2.753   2.679   5.748 -0.8021 -0.6079 -0.1183
16832SOL    HW256459   2.617   2.742   5.725  0.1870  0.6924 -2.9124
16833SOL     OW56460   5.148   4.116   4.465  0.2649 -0.1249  0.0234
16833SOL    HW156461   5.069   4.081   4.424 -0.6964  0.4653  1.2980
16833SOL    HW256462   5.139   4.094   4.558  2.8134 -2.2385 -0.1166
16834SOL     OW56463   6.391   2.409   7.569 -0.3773  0.6062  0.4826
16834SOL    HW156464   6.331   2.339   7.596 -2.1731  1.8994  0.0653
16834SOL    HW256465   6.403   2.394   7.475  0.9037 -0.3124  0.7767
16835SOL     OW56466   6.436   3.245   1.866 -0.5283 -0.3016 -0.5066
16835SOL    HW156467   6.464   3.162   1.904 -1.5347 -0.0364  0.9139
16835SOL    HW256468   6.454   3.310   1.934 -0.5727  0.5143 -1.2516
16836SOL     OW56469   3.400   6.337   2.255  0.2962  0.4271 -0.0369
16836SOL    HW156470   3.398   6.269   2.322 -2.0588 -0.1811 -0.6396
16836SOL    HW256471   3.405   6.290   2.172 -1.2524  0.9401 -0.4600
16837SOL     OW56472   2.587   2.344   1.104  0.2073 -0.0314 -0.3399
16837SOL    HW156473   2.625   2.292   1.033  0.2432  1.8455 -1.7664
16837SOL    HW256474   2.503   2.303   1.122  0.9111 -1.5163 -0.3066
16838SOL     OW56475   3.528   8.037   8.393 -0.0081 -0.1168  0.0029
16838SOL    HW156476   3.610   8.076   8.425  1.0616 -2.2962  0.0968
16838SOL    HW256477   3.537   7.944   8.413 -2.6002 -0.3918  0.1357
16839SOL     OW56478   8.847   7.098   6.483 -0.6733  0.3474  0.1245
16839SOL    HW156479   8.899   7.162   6.434 -1.8781  1.3234  0.0645
16839SOL    HW256480   8.907   7.063   6.548  1.0583 -1.1581 -2.1338
16840SOL     OW56481   1.007   4.404   4.296 -0.2892  0.4916 -0.2225
16840SOL    HW156482   1.004   4.500   4.291  0.1580  0.5366  0.2352
16840SOL    HW256483   0.932   4.381   4.351 -0.1777  0.6093 -0.0177
16841SOL     OW56484   9.134   8.106   8.220 -0.5372  0.4934 -0.4042
16841SOL    HW156485   9.215   8.154   8.206 -2.0024  2.7128 -1.9619
16841SOL    HW256486   9.117   8.114   8.314  0.8384  0.2605 -0.1165
16842SOL     OW56487   6.776   0.985   2.893 -0.2059 -0.2207  0.0934
16842SOL    HW156488   6.869   0.999   2.875 -0.3583  1.4048  0.4257
16842SOL    HW256489   6.767   0.999   2.988 -0.6321 -1.4172  0.2527
16843SOL     OW56490   6.947   3.378   6.682  0.2688 -0.2851  0.3589
16843SOL    HW156491   7.017   3.325   6.643  1.4568  0.0234  1.9835
16843SOL    HW256492   6.869   3.324   6.672  0.9669 -1.2196 -0.3158
16844SOL     OW56493   4.364   1.968   3.676 -0.2133 -0.0083 -0.2011
16844SOL    HW156494   4.351   2.063   3.679 -1.4883 -0.1021 -1.5368
16844SOL    HW256495   4.417   1.954   3.597  0.0951 -0.4002  0.0751
16845SOL     OW56496   2.594   8.648   3.849  0.3726 -0.2171 -0.1002
16845SOL    HW156497   2.597   8.600   3.767  2.1947  0.3332 -0.4054
16845SOL    HW256498   2.616   8.583   3.916  0.6214 -0.2920 -0.2536
16846SOL     OW56499   7.723   8.967   0.207 -0.0038  0.1303 -0.1214
16846SOL    HW156500   7.733   9.009   0.122 -0.6037  1.4820  0.4510
16846SOL    HW256501   7.806   8.982   0.252  0.3262 -0.6156 -0.4768
16847SOL     OW56502   4.582   1.430   1.853 -0.0769 -0.2065 -0.1059
16847SOL    HW156503   4.639   1.485   1.798 -0.5202 -0.6824 -1.0663
16847SOL    HW256504   4.639   1.361   1.885 -0.4834 -1.8957 -2.7634
16848SOL     OW56505   4.440   4.618   2.541  0.4768  0.1246 -0.2208
16848SOL    HW156506   4.513   4.610   2.480  0.2190 -0.3070 -0.4738
16848SOL    HW256507   4.362   4.616   2.485  0.2878  2.5254 -0.1845
16849SOL     OW56508   1.080   5.893   8.091  0.6107 -0.1028 -0.1183
16849SOL    HW156509   1.146   5.825   8.078  0.8176 -0.0853  0.8172
16849SOL    HW256510   1.129   5.971   8.117  0.3375  0.3019 -0.7822
16850SOL     OW56511   4.298   3.385   6.507  0.3934 -0.7054  0.3576
16850SOL    HW156512   4.367   3.326   6.537  0.1941 -1.7642 -1.1182
16850SOL    HW256513   4.342   3.447   6.449  0.3191 -0.5572  0.4594
16851SOL     OW56514   6.210   8.152   2.576 -0.1605  0.2280  0.2356
16851SOL    HW156515   6.283   8.170   2.636 -1.6456 -2.2356  3.0640
16851SOL    HW256516   6.135   8.196   2.616 -1.2270 -1.5894  0.3399
16852SOL     OW56517   3.953   0.593   0.289  0.4110  0.3660 -0.5445
16852SOL    HW156518   3.914   0.640   0.215 -1.7135  0.1344  0.3614
16852SOL    HW256519   4.008   0.659   0.332 -0.4953  1.2914 -0.7663
16853SOL     OW56520   3.225   5.426   3.497 -0.0453 -0.3317  0.0445
16853SOL    HW156521   3.319   5.446   3.490 -0.0301  1.0204  2.5902
16853SOL    HW256522   3.183   5.512   3.493 -1.2294 -0.9389 -1.1893
16854SOL     OW56523   5.530   4.025   8.159  0.3688 -0.4561  0.3089
16854SOL    HW156524   5.472   4.056   8.089 -0.3888  1.2725  1.6353
16854SOL    HW256525   5.473   3.976   8.218  0.9863 -1.8278 -0.1880
16855SOL     OW56526   9.149   3.024   2.418  0.1002 -0.3134  0.2183
16855SOL    HW156527   9.126   3.093   2.481  2.2171  0.7935 -0.1237
16855SOL    HW256528   9.067   3.005   2.373 -0.9192  0.7109  1.5518
16856SOL     OW56529   5.202   6.483   4.865  0.5076 -0.3181  0.2285
16856SOL    HW156530   5.121   6.467   4.914 -1.7137  2.4357 -2.1604
16856SOL    HW256531   5.260   6.525   4.929 -1.2785  0.7641  1.2256
16857SOL     OW56532   4.099   1.038   1.811  0.1604 -0.4133  0.2046
16857SOL    HW156533   4.049   0.957   1.799 -0.6181 -0.2277  1.8726
16857SOL    HW256534   4.032   1.107   1.819  0.5897 -0.1703  2.5410
16858SOL     OW56535   2.151   0.683   7.589  0.3292  0.3496 -0.0907
16858SOL    HW156536   2.089   0.752   7.613  0.6354  0.0811  1.6178
16858SOL    HW256537   2.237   0.723   7.602  0.5041 -0.1044  0.1702
16859SOL     OW56538   3.861   0.070   6.528 -0.2280  0.4227 -0.6938
16859SOL    HW156539   3.910  -0.007   6.554 -0.9599 -0.3957 -1.6622
16859SOL    HW256540   3.876   0.077   6.434  0.6158  2.0478 -0.4738
16860SOL     OW56541   7.776   8.286   0.463 -0.0587 -0.3070  0.3185
16860SOL    HW156542   7.700   8.302   0.408 -1.8032 -0.8022  2.4565
16860SOL    HW256543   7.740   8.256   0.546  2.5056 -1.0249  1.2735
16861SOL     OW56544   0.754   3.181   4.490 -0.3482 -0.1864  0.4392
16861SOL    HW156545   0.794   3.267   4.498  0.6789 -0.6262  0.2397
16861SOL    HW256546   0.827   3.122   4.471 -1.0864 -1.0376  0.1379
16862SOL     OW56547   7.993   7.835   1.553 -0.5191  0.3677  0.2365
16862SOL    HW156548   7.935   7.760   1.539 -0.7496  0.8491 -1.6773
16862SOL    HW256549   8.074   7.796   1.585 -0.7881 -0.6721 -0.2868
16863SOL     OW56550   0.809   0.709   3.401 -0.1212  0.4281  0.4698
16863SOL    HW156551   0.770   0.779   3.454  0.8021  0.1403  1.5646
16863SOL    HW256552   0.867   0.663   3.461 -0.2128 -0.8856 -0.4015
16864SOL     OW56553   4.843   7.925   1.705  0.0861 -0.2619  0.0977
16864SOL    HW156554   4.933   7.925   1.738 -0.0123 -1.7985  0.4200
16864SOL    HW256555   4.832   7.840   1.664 -1.0483  0.1322 -0.4791
16865SOL     OW56556   3.078   5.596   9.107 -0.0442  1.1820 -0.2489
16865SOL    HW156557   2.997   5.645   9.103 -0.2375  1.1140  1.7440
16865SOL    HW256558   3.055   5.508   9.076 -0.6029  1.3290 -0.2582
16866SOL     OW56559   8.142   3.981   8.205  0.0512 -0.3555 -0.2116
16866SOL    HW156560   8.055   4.021   8.191 -0.0894 -0.2390  0.9328
16866SOL    HW256561   8.142   3.957   8.297  1.0217 -0.9107 -0.3541
16867SOL     OW56562   2.309   5.774   3.027 -0.4588 -0.0355 -0.1214
16867SOL    HW156563   2.349   5.704   2.975  0.2593  0.3769 -0.1369
16867SOL    HW256564   2.376   5.842   3.030 -1.0832  0.5753  0.0486
16868SOL     OW56565   7.026   6.196   7.742 -0.6643  0.1394  0.0270
16868SOL    HW156566   7.079   6.148   7.806 -0.3406  1.7842  1.0729
16868SOL    HW256567   6.943   6.213   7.787  0.2588  2.9989  0.8767
16869SOL     OW56568   2.543   1.056   1.039 -0.1909 -0.5396  0.0183
16869SOL    HW156569   2.615   1.055   1.102 -0.0232 -0.9102 -0.1774
16869SOL    HW256570   2.564   1.129   0.981 -0.2573 -0.3040  0.2874
16870SOL     OW56571   2.418   3.426   0.212 -0.2972 -0.3871 -0.0579
16870SOL    HW156572   2.399   3.519   0.197  0.5118  0.1038  1.6460
16870SOL    HW256573   2.401   3.414   0.306  1.5556 -1.4547  0.1771
16871SOL     OW56574   1.983   7.112   4.301  0.0922  0.5377  0.2468
16871SOL    HW156575   1.932   7.193   4.291 -0.8421 -0.0714 -0.0186
16871SOL    HW256576   1.989   7.077   4.212 -0.3230 -0.1712  0.4951
16872SOL     OW56577   2.274   8.191   3.507  0.1454  0.0081 -0.3432
16872SOL    HW156578   2.281   8.096   3.516 -0.5433 -0.0182  0.0088
16872SOL    HW256579   2.204   8.215   3.568  1.5394  0.9697  0.9526
16873SOL     OW56580   7.565   3.277   5.247  0.7594 -0.4154 -0.3371
16873SOL    HW156581   7.485   3.271   5.195  0.0465 -0.3887  0.7279
16873SOL    HW256582   7.552   3.354   5.302  2.0020  0.2468 -0.9240
16874SOL     OW56583   5.191   4.893   0.764  0.2238  0.6056 -0.1536
16874SOL    HW156584   5.191   4.850   0.678 -0.1030 -0.3830  0.3247
16874SOL    HW256585   5.131   4.840   0.816 -0.2472  1.7093  0.4379
16875SOL     OW56586   9.242   8.068   7.236  0.5863 -0.1722  0.6046
16875SOL    HW156587   9.296   8.122   7.292  0.1825  1.0552 -0.1416
16875SOL    HW256588   9.303   8.031   7.172  0.3502  3.6812 -2.2119
16876SOL     OW56589   5.306   8.287   7.518 -0.0968 -0.0167  0.3222
16876SOL    HW156590   5.282   8.255   7.605  2.0307  1.4438  1.5297
16876SOL    HW256591   5.309   8.208   7.464 -1.4994 -0.9553  1.5453
16877SOL     OW56592   7.347   5.087   6.637 -0.1010 -0.1602 -0.3109
16877SOL    HW156593   7.252   5.093   6.634 -0.5271 -3.9115  0.5911
16877SOL    HW256594   7.378   5.168   6.596 -3.6257  1.3571 -0.2745
16878SOL     OW56595   2.881   9.042   6.651  0.8734  0.4382 -0.3204
16878SOL    HW156596   2.849   8.973   6.594  1.2042  1.2515 -1.5456
16878SOL    HW256597   2.881   9.004   6.739  0.3914 -0.8641 -0.8687
16879SOL     OW56598   4.153   6.174   8.478  0.4916 -0.1722 -0.0333
16879SOL    HW156599   4.071   6.130   8.502  0.7817 -0.9767 -0.4928
16879SOL    HW256600   4.128   6.237   8.410 -0.1723  1.4279  1.5994
16880SOL     OW56601   4.386   0.089   4.124  0.1630  0.0975 -0.6440
16880SOL    HW156602   4.348   0.001   4.128  0.9906 -0.2446 -0.0206
16880SOL    HW256603   4.481   0.075   4.131  0.2454  1.1144  0.8880
16881SOL     OW56604   4.704   5.980   4.817  0.1461 -0.2016  0.4276
16881SOL    HW156605   4.694   5.959   4.910  0.8129  2.1111  1.0834
16881SOL    HW256606   4.791   5.947   4.794 -0.5348 -1.9440  0.2382
16882SOL     OW56607   5.617   6.956   7.478  0.6248 -0.2546  0.9374
16882SOL    HW156608   5.625   6.929   7.387  1.6874 -0.0828  0.9637
16882SOL    HW256609   5.539   7.010   7.481  2.3782  2.6268 -0.6164
16883SOL     OW56610   3.245   0.494   1.311  0.0384 -0.4564 -0.3388
16883SOL    HW156611   3.312   0.426   1.301  0.1242 -0.0210 -3.6339
16883SOL    HW256612   3.188   0.484   1.235 -3.6525 -0.6488  2.1575
16884SOL     OW56613   0.039   1.717   0.587 -0.1166  0.2555 -0.3299
16884SOL    HW156614   0.085   1.713   0.670 -0.6534  0.4912 -0.0189
16884SOL    HW256615   0.018   1.810   0.575 -0.8042  0.1090 -0.3023
16885SOL     OW56616   5.560   7.209   8.021  0.1892 -0.0012  0.0791
16885SOL    HW156617   5.651   7.234   8.037  0.2330 -1.4101  2.4767
16885SOL    HW256618   5.560   7.113   8.027 -1.3817 -0.0594 -0.4129
16886SOL     OW56619   7.216   7.691   1.135  0.2708 -0.2901  0.1545
16886SOL    HW156620   7.185   7.683   1.226  1.4131 -0.8255  0.5150
16886SOL    HW256621   7.184   7.611   1.093 -1.1226  0.4247 -0.2031
16887SOL     OW56622   8.763   3.812   5.455 -0.1783 -0.2767 -0.3176
16887SOL    HW156623   8.680   3.851   5.427 -0.8581 -1.8489 -0.5752
16887SOL    HW256624   8.800   3.774   5.375  0.8555  0.4782 -0.2247
16888SOL     OW56625   5.583   7.263   0.771 -0.3135  0.6830  0.2379
16888SOL    HW156626   5.522   7.334   0.790 -0.6384  0.6549 -0.6356
16888SOL    HW256627   5.643   7.300   0.706  0.2262  0.5142  0.6305
16889SOL     OW56628   5.951   6.732   1.434  0.2949  0.3920  0.4804
16889SOL    HW156629   6.022   6.780   1.477 -1.0264  0.3616  2.8768
16889SOL    HW256630   5.894   6.800   1.399  0.3361  0.4831  0.5876
16890SOL     OW56631   3.878   7.097   6.683 -0.2038 -0.3681  0.4621
16890SOL    HW156632   3.939   7.156   6.638  0.0215 -0.2662  0.8996
16890SOL    HW256633   3.903   7.010   6.654 -1.5328 -0.1922 -1.4311
16891SOL     OW56634   9.078   3.885   4.495  0.0213 -0.1681  0.6136
16891SOL    HW156635   9.090   3.869   4.589  0.7863 -0.2955  0.5044
16891SOL    HW256636   9.007   3.826   4.470  1.7243 -2.3151  0.5475
16892SOL     OW56637   5.374   7.439   6.186  0.4909  0.2550  0.5401
16892SOL    HW156638   5.449   7.416   6.241 -0.1421 -2.0689  0.5707
16892SOL    HW256639   5.298   7.408   6.236 -0.1666 -1.1466 -1.2081
16893SOL     OW56640   0.950   6.060   2.358  0.5017 -0.5518 -0.2403
16893SOL    HW156641   0.892   6.133   2.379 -0.2270 -1.2284  0.1668
16893SOL    HW256642   0.982   6.031   2.443 -0.0248 -1.3455 -0.3023
16894SOL     OW56643   4.122   6.041   4.324 -0.0016  0.2330  0.1907
16894SOL    HW156644   4.174   6.060   4.246  0.0094 -2.0621 -0.4158
16894SOL    HW256645   4.185   6.044   4.396  0.8936 -1.7851 -0.4493
16895SOL     OW56646   4.015   9.015   2.765 -0.5071  0.4706  0.1663
16895SOL    HW156647   3.984   9.103   2.748  0.2055  0.3213 -2.3364
16895SOL    HW256648   4.012   8.971   2.679  1.0969 -1.2773  0.9225
16896SOL     OW56649   8.146   2.687   3.859  0.1572 -0.1462  1.0759
16896SOL    HW156650   8.105   2.630   3.925  0.1900 -1.1910  0.2255
16896SOL    HW256651   8.138   2.775   3.895 -1.9978 -0.4084  1.3723
16897SOL     OW56652   6.406   7.801   5.438  0.0418 -0.2034 -0.3492
16897SOL    HW156653   6.481   7.744   5.447 -0.6486 -0.9605  0.7491
16897SOL    HW256654   6.438   7.888   5.461  1.0292 -0.1560 -1.7719
16898SOL     OW56655   4.492   0.198   5.815 -0.0593  0.4761 -0.1529
16898SOL    HW156656   4.442   0.127   5.774 -0.6621  1.1064 -0.5329
16898SOL    HW256657   4.444   0.215   5.897  1.4296 -1.1293  1.1392
16899SOL     OW56658   0.596   3.352   3.424 -0.0083  0.8092  0.5779
16899SOL    HW156659   0.583   3.276   3.481 -1.5398  0.0161 -0.7636
16899SOL    HW256660   0.682   3.386   3.449 -0.1092 -0.2122  2.5240
16900SOL     OW56661   9.228   0.339   7.064  0.1307  0.1713 -0.3289
16900SOL    HW156662   9.266   0.413   7.017 -0.6089 -0.8655 -2.6550
16900SOL    HW256663   9.237   0.363   7.157  1.9948  2.1056 -0.9352
16901SOL     OW56664   4.736   0.806   4.997  0.4461  0.5235 -0.6019
16901SOL    HW156665   4.729   0.856   5.079  0.2967 -0.3543 -0.0621
16901SOL    HW256666   4.765   0.870   4.933  0.9602  1.1521  0.2284
16902SOL     OW56667   6.008   3.802   3.694  0.1164  0.2064  0.7012
16902SOL    HW156668   6.089   3.824   3.742 -0.0602 -0.3774  1.2845
16902SOL    HW256669   5.947   3.774   3.763  0.4807 -2.6018 -0.0022
16903SOL     OW56670   7.254   7.656   5.518 -0.3781 -0.4604 -0.1647
16903SOL    HW156671   7.245   7.694   5.606 -1.0729 -0.3950 -0.2588
16903SOL    HW256672   7.349   7.649   5.505 -0.2632 -0.2601  0.4996
16904SOL     OW56673   0.077   0.026   2.253 -0.5728 -0.0155 -0.2273
16904SOL    HW156674   0.111   0.002   2.339  1.1915  2.7937 -0.0264
16904SOL    HW256675   0.148   0.074   2.211 -3.0328  3.0774 -1.2375
16905SOL     OW56676   4.967   8.245   3.345  0.6887  0.4867  0.4678
16905SOL    HW156677   5.031   8.292   3.291  0.4792 -1.1638 -1.3328
16905SOL    HW256678   5.018   8.210   3.418  0.8995  3.1127  1.7322
16906SOL     OW56679   5.575   8.716   3.312  0.6525  0.2238 -0.1578
16906SOL    HW156680   5.639   8.696   3.380  0.7156  0.6536 -0.0890
16906SOL    HW256681   5.626   8.726   3.232  0.6058 -0.0177 -0.2197
16907SOL     OW56682   0.231   6.220   0.391  0.2913 -0.0952  0.0841
16907SOL    HW156683   0.283   6.208   0.311 -0.9846 -1.5127 -0.5940
16907SOL    HW256684   0.150   6.260   0.360 -0.8345 -2.0222  0.3860
16908SOL     OW56685   8.032   1.722   1.957  0.1761  0.3151  0.1503
16908SOL    HW156686   7.982   1.750   1.881  2.2269  2.1252 -0.6465
16908SOL    HW256687   7.993   1.769   2.030  0.1292  1.0367 -0.3236
16909SOL     OW56688   5.916   0.705   8.393 -0.3013  0.0226  0.3251
16909SOL    HW156689   5.999   0.661   8.374 -0.4875 -0.0120 -0.4315
16909SOL    HW256690   5.911   0.706   8.489  0.0585 -0.9243  0.3635
16910SOL     OW56691   1.563   7.141   0.503  0.0844  0.0676  0.5208
16910SOL    HW156692   1.615   7.221   0.491  0.3376 -0.0433  0.8547
16910SOL    HW256693   1.476   7.173   0.528  0.5149  0.2285  1.8911
16911SOL     OW56694   7.472   5.760   3.669 -0.4926 -0.3674 -0.1487
16911SOL    HW156695   7.513   5.761   3.756 -0.9721  1.5226  0.0964
16911SOL    HW256696   7.534   5.712   3.614  0.6479 -0.1009  0.8589
16912SOL     OW56697   1.568   1.570   7.823 -0.0100 -0.3672 -0.0091
16912SOL    HW156698   1.604   1.498   7.770  2.5375 -0.5166  1.7081
16912SOL    HW256699   1.585   1.543   7.913  1.1761  2.4085  0.7029
16913SOL     OW56700   5.562   3.673   5.052  0.2170 -0.0381 -0.0522
16913SOL    HW156701   5.627   3.614   5.090  1.5871  1.1975 -0.3344
16913SOL    HW256702   5.583   3.759   5.090  0.0896  0.7733 -1.7146
16914SOL     OW56703   5.606   1.156   2.732  0.6749 -0.0404 -0.3194
16914SOL    HW156704   5.533   1.107   2.771  1.4945 -1.2551 -0.2792
16914SOL    HW256705   5.645   1.203   2.806  0.6269 -0.2740 -0.1442
16915SOL     OW56706   4.269   8.101   9.057 -0.1923 -0.0456  0.1153
16915SOL    HW156707   4.207   8.151   9.110  0.8701  0.2361  1.1291
16915SOL    HW256708   4.230   8.013   9.051 -0.1906 -0.1661  1.6227
16916SOL     OW56709   3.413   3.956   5.651  0.0571  0.0205 -0.2656
16916SOL    HW156710   3.388   4.046   5.626  2.8643  0.4547 -1.9096
16916SOL    HW256711   3.469   3.967   5.728 -0.8772 -0.5193  0.5197
16917SOL     OW56712   1.249   8.698   4.742 -0.3451 -0.2801 -0.1274
16917SOL    HW156713   1.312   8.629   4.723  0.4277  0.2485  0.4270
16917SOL    HW256714   1.242   8.698   4.838 -1.6857 -0.7512 -0.2014
16918SOL     OW56715   1.679   8.384   8.808  0.5806 -0.0498 -0.1270
16918SOL    HW156716   1.588   8.387   8.839  0.3293  0.5624 -0.8633
16918SOL    HW256717   1.714   8.302   8.843 -0.2772 -0.3228  0.1194
16919SOL     OW56718   9.204   5.233   1.306  0.1273 -0.4322 -0.0105
16919SOL    HW156719   9.204   5.138   1.318  1.9473 -0.5492 -0.6061
16919SOL    HW256720   9.267   5.248   1.235 -1.4538  1.1016 -1.1914
16920SOL     OW56721   2.065   7.609   8.316  0.0286 -0.6885  0.7050
16920SOL    HW156722   2.069   7.563   8.232  1.0180 -0.0224  0.3702
16920SOL    HW256723   2.154   7.641   8.330 -0.8542  2.3266  0.2083
16921SOL     OW56724   1.732   4.733   2.832  0.3830  0.5101 -0.0509
16921SOL    HW156725   1.685   4.802   2.879  0.5194  0.4155  0.2244
16921SOL    HW256726   1.742   4.768   2.744 -1.9609 -0.2797 -0.7121
16922SOL     OW56727   7.289   4.806   3.986  0.0823  0.0109  0.1963
16922SOL    HW156728   7.272   4.900   3.978  1.7598  0.2221 -1.3109
16922SOL    HW256729   7.384   4.798   3.988  0.0058 -1.7482 -0.9393
16923SOL     OW56730   0.965   4.822   3.421 -0.2246 -0.0633 -0.0972
16923SOL    HW156731   0.874   4.838   3.393 -0.3845 -1.0050 -0.1558
16923SOL    HW256732   1.013   4.813   3.339  0.3204  2.3352 -0.1129
16924SOL     OW56733   8.321   2.927   7.844  0.7497 -0.3882 -0.1461
16924SOL    HW156734   8.396   2.925   7.785  1.3043  0.4609  0.5099
16924SOL    HW256735   8.355   2.961   7.926 -0.4475  0.4896  0.0182
16925SOL     OW56736   3.618   5.475   6.397 -0.4674 -0.3118 -1.3094
16925SOL    HW156737   3.644   5.390   6.362 -0.6634 -1.0459  0.2340
16925SOL    HW256738   3.692   5.502   6.451  0.2338  1.2491 -2.9562
16926SOL     OW56739   0.244   3.134   2.037  0.0694  0.3463  0.0550
16926SOL    HW156740   0.237   3.220   1.994  1.7814  1.0473  1.0733
16926SOL    HW256741   0.338   3.121   2.049 -0.1419 -1.8014 -0.2669
16927SOL     OW56742   3.510   7.025   5.319  0.2367 -0.2767  0.5688
16927SOL    HW156743   3.432   6.971   5.306  0.4166 -0.8104  1.5415
16927SOL    HW256744   3.582   6.961   5.328  0.8671  0.2206 -0.7497
16928SOL     OW56745   6.231   1.451   6.216  0.0235  0.0434 -0.0939
16928SOL    HW156746   6.206   1.463   6.308  1.6387  2.3279  0.1340
16928SOL    HW256747   6.184   1.520   6.169 -0.3861 -0.7816 -0.9242
16929SOL     OW56748   0.712   2.509   1.416  0.0426 -0.1296 -0.3037
16929SOL    HW156749   0.756   2.587   1.448  0.1009  0.1105 -0.9547
16929SOL    HW256750   0.778   2.440   1.423 -0.8889 -0.8462  3.1158
16930SOL     OW56751   1.300   7.996   7.402  0.1517  0.3092  1.0763
16930SOL    HW156752   1.337   8.062   7.344  1.3712  0.4459  1.9704
16930SOL    HW256753   1.205   8.005   7.391  0.3420  0.4844 -0.6902
16931SOL     OW56754   0.288   4.770   3.550 -0.0945  0.0631 -0.2133
16931SOL    HW156755   0.248   4.693   3.591 -0.8178 -0.4048 -1.7280
16931SOL    HW256756   0.346   4.734   3.482  1.2148  0.8080  0.4717
16932SOL     OW56757   6.260   5.681   2.545 -0.6888 -0.3280 -0.2972
16932SOL    HW156758   6.190   5.742   2.521  1.3780  1.9127 -1.1083
16932SOL    HW256759   6.333   5.706   2.489  1.6661 -0.6077  2.4129
16933SOL     OW56760   5.251   6.166   6.008  0.2895 -0.1400  0.6238
16933SOL    HW156761   5.254   6.072   5.989 -1.2695 -0.0836 -0.0283
16933SOL    HW256762   5.265   6.208   5.923  0.1648  0.2051  0.7730
16934SOL     OW56763   6.018   6.847   3.937  0.0042 -0.3078 -0.0530
16934SOL    HW156764   5.949   6.897   3.980 -0.4768 -0.3419 -0.7679
16934SOL    HW256765   6.090   6.846   4.001  0.2162  1.6951 -0.1917
16935SOL     OW56766   2.321   7.062   0.067  0.0294  0.2822  0.8664
16935SOL    HW156767   2.304   7.098   0.154  2.4211 -1.2647  2.0756
16935SOL    HW256768   2.415   7.072   0.054 -0.0430 -0.8549 -0.9230
16936SOL     OW56769   3.157   6.414   4.577 -0.2350 -0.4577 -0.2960
16936SOL    HW156770   3.200   6.450   4.499  1.0327  0.7181  0.8962
16936SOL    HW256771   3.067   6.447   4.572  0.5516  1.8961  0.0943
16937SOL     OW56772   9.136   0.776   0.579  0.1106 -0.0828 -0.0675
16937SOL    HW156773   9.195   0.701   0.573 -0.5903 -0.6204 -0.4784
16937SOL    HW256774   9.091   0.765   0.662 -0.1461 -0.2428 -0.2254
16938SOL     OW56775   8.388   4.372   0.569  0.1844 -0.5578  0.3915
16938SOL    HW156776   8.338   4.350   0.490  1.6802 -2.1430 -0.1796
16938SOL    HW256777   8.412   4.464   0.557 -1.1018 -0.2681 -0.1273
16939SOL     OW56778   5.878   3.774   6.273  0.0768  0.5639  0.0069
16939SOL    HW156779   5.841   3.803   6.357 -1.1967  0.4289 -0.4834
16939SOL    HW256780   5.809   3.792   6.209  0.3688 -0.8801 -0.7524
16940SOL     OW56781   8.790   4.563   5.683 -0.2582 -0.2604 -0.0326
16940SOL    HW156782   8.697   4.539   5.674 -0.2863 -0.3259  0.4354
16940SOL    HW256783   8.819   4.517   5.761  0.1992 -0.3186 -0.2351
16941SOL     OW56784   3.989   6.217   9.325  0.5704  0.5329  0.8461
16941SOL    HW156785   4.035   6.133   9.336 -0.1968  0.1527  1.2493
16941SOL    HW256786   3.952   6.212   9.236 -0.3645 -0.0211  1.2511
16942SOL     OW56787   0.295   3.240   0.631  0.0817 -0.0417  0.3098
16942SOL    HW156788   0.221   3.183   0.653 -0.3918  0.3176 -0.3272
16942SOL    HW256789   0.256   3.327   0.621  0.7191  0.3083  0.7691
16943SOL     OW56790   0.734   5.333   2.149 -0.2968 -0.3277  0.1369
16943SOL    HW156791   0.779   5.296   2.073 -0.5112  0.8773 -0.5972
16943SOL    HW256792   0.710   5.257   2.202  2.7714 -1.0603  0.6788
16944SOL     OW56793   6.252   6.743   7.937 -0.2085  0.1343 -0.0112
16944SOL    HW156794   6.222   6.661   7.899  0.3567 -0.2355  0.3186
16944SOL    HW256795   6.209   6.811   7.886 -0.1589 -0.3656 -0.7278
16945SOL     OW56796   1.613   7.327   5.065  0.1757  0.2188 -0.7753
16945SOL    HW156797   1.545   7.275   5.021 -0.8913 -0.4578  1.5006
16945SOL    HW256798   1.565   7.377   5.131  1.6996  1.1062 -0.2980
16946SOL     OW56799   5.720   9.167   7.314 -0.1393  0.0847  0.4491
16946SOL    HW156800   5.650   9.135   7.370 -0.7507  0.1399 -0.2702
16946SOL    HW256801   5.771   9.225   7.370 -1.6984  1.4560  0.5607
16947SOL     OW56802   4.023   5.231   3.732 -0.0732 -0.5686 -0.3595
16947SOL    HW156803   4.067   5.150   3.706  0.0763 -0.4118 -0.5984
16947SOL    HW256804   3.956   5.203   3.794  0.1550 -0.8437 -0.2362
16948SOL     OW56805   2.222   8.273   1.093 -0.6968 -0.0288  0.0687
16948SOL    HW156806   2.183   8.194   1.056  1.9864 -0.2498 -2.7477
16948SOL    HW256807   2.283   8.242   1.159 -0.5892 -0.2283 -0.1226
16949SOL     OW56808   4.537   1.708   0.638 -0.5887 -0.0143  0.0093
16949SOL    HW156809   4.466   1.678   0.581 -0.6601  0.8120 -0.3487
16949SOL    HW256810   4.609   1.647   0.621 -0.6430  0.1648 -0.8884
16950SOL     OW56811   4.771   6.308   8.565 -0.1467  0.4536 -0.1178
16950SOL    HW156812   4.830   6.257   8.510 -1.3315 -0.0425 -0.9499
16950SOL    HW256813   4.815   6.393   8.574  1.5841 -0.4872  0.8399
16951SOL     OW56814   2.090   0.390   0.628  0.6111  0.0884 -0.3524
16951SOL    HW156815   1.995   0.381   0.618  0.8265 -0.0938 -3.0385
16951SOL    HW256816   2.102   0.413   0.720 -2.0171  0.0301  0.0979
16952SOL     OW56817   9.021   3.877   4.770  0.3630  0.5801  0.1115
16952SOL    HW156818   9.086   3.947   4.779  1.7829 -0.5434 -0.8618
16952SOL    HW256819   8.942   3.911   4.812  1.2563  2.4268  0.3744
16953SOL     OW56820   6.565   6.219   6.120 -0.3428  0.2062 -0.0136
16953SOL    HW156821   6.652   6.252   6.142 -0.1338 -0.7629  0.7144
16953SOL    HW256822   6.522   6.206   6.205 -0.5714 -0.9178 -0.2736
16954SOL     OW56823   4.267   7.679   2.771  0.6035  0.1534  0.1221
16954SOL    HW156824   4.187   7.675   2.719  1.2064 -0.6459 -0.7592
16954SOL    HW256825   4.322   7.609   2.737  1.5749  0.5131  0.9048
16955SOL     OW56826   6.437   7.066   7.474 -0.1589  0.0097 -0.0952
16955SOL    HW156827   6.404   7.053   7.385  0.9044 -1.4830 -0.3055
16955SOL    HW256828   6.452   7.160   7.480 -0.1687  0.1225 -1.5310
16956SOL     OW56829   2.366   5.468   8.416  0.3522 -0.0396  0.0875
16956SOL    HW156830   2.367   5.378   8.385 -0.5033 -0.3586  0.9411
16956SOL    HW256831   2.364   5.522   8.337 -0.2615 -0.7914 -0.4151
16957SOL     OW56832   4.735   2.664   1.409 -0.2543 -0.1482  0.5875
16957SOL    HW156833   4.795   2.733   1.437 -0.0056  0.2560 -0.8415
16957SOL    HW256834   4.765   2.641   1.321 -0.6983 -1.6698  0.8001
16958SOL     OW56835   5.801   8.937   1.137 -0.7381  0.3017  0.0769
16958SOL    HW156836   5.763   9.024   1.124 -1.5359 -0.0436  0.0552
16958SOL    HW256837   5.727   8.881   1.159 -0.3971 -0.6204 -1.0200
16959SOL     OW56838   0.530   8.019   6.742  0.6372 -0.1690 -0.1453
16959SOL    HW156839   0.469   7.956   6.779 -1.3614  2.0792  0.6357
16959SOL    HW256840   0.481   8.061   6.672  1.2897  1.6220  0.4293
16960SOL     OW56841   6.389   6.246   1.084 -0.4450  0.0049 -0.0081
16960SOL    HW156842   6.468   6.191   1.091 -0.2464  0.0306 -1.5982
16960SOL    HW256843   6.409   6.307   1.013 -1.9502 -0.0711 -0.5253
16961SOL     OW56844   8.481   1.362   7.137 -0.0489 -0.1661  0.2531
16961SOL    HW156845   8.554   1.325   7.088 -0.3993 -0.4947 -0.0308
16961SOL    HW256846   8.519   1.391   7.220  0.3249 -0.7175  0.2775
16962SOL     OW56847   3.775   5.360   7.421 -0.1988 -0.0993  0.0158
16962SOL    HW156848   3.741   5.271   7.418  1.3030 -0.6862 -0.9799
16962SOL    HW256849   3.742   5.401   7.340  0.1037 -0.1449 -0.1320
16963SOL     OW56850   6.487   6.896   2.642  0.7310  0.2904 -0.1436
16963SOL    HW156851   6.450   6.873   2.727  0.3557  2.7951  0.4433
16963SOL    HW256852   6.443   6.837   2.580 -0.9249  0.1573  1.0813
16964SOL     OW56853   0.064   1.260   6.589  0.0578 -0.0671  0.3715
16964SOL    HW156854   0.097   1.202   6.658  1.5217  0.5731  0.2421
16964SOL    HW256855   0.130   1.255   6.520  0.0470  1.4810  0.2144
16965SOL     OW56856   5.630   6.608   0.152  0.0472  0.2634  0.0085
16965SOL    HW156857   5.678   6.619   0.235  0.8733 -1.6581 -0.1643
16965SOL    HW256858   5.624   6.697   0.116 -1.8740  1.4808  2.8980
16966SOL     OW56859   3.453   4.998   2.242  0.2930 -0.5029 -0.9643
16966SOL    HW156860   3.492   5.085   2.230 -1.0256  0.3070  0.3976
16966SOL    HW256861   3.362   5.009   2.215 -0.4422 -0.8811  1.2007
16967SOL     OW56862   6.247   9.127   3.957  0.6770  0.6642 -0.6204
16967SOL    HW156863   6.321   9.151   3.901  1.2953 -0.5768 -0.3443
16967SOL    HW256864   6.204   9.055   3.911  0.5213  0.3885 -0.0520
16968SOL     OW56865   9.326   0.404   2.887  0.6496 -0.1703  0.5903
16968SOL    HW156866   9.300   0.484   2.842 -1.7870 -0.5846  1.0708
16968SOL    HW256867   9.421   0.399   2.877  0.5066  1.0171 -2.3407
16969SOL     OW56868   0.093   5.791   2.185  0.1381 -0.4907  0.4882
16969SOL    HW156869   0.139   5.805   2.102  1.7289  1.1199  1.5740
16969SOL    HW256870   0.089   5.696   2.193  1.7549 -0.6963 -0.5159
16970SOL     OW56871   7.701   9.341   5.983  0.6725  0.7898  0.2990
16970SOL    HW156872   7.787   9.301   5.971  0.2478 -0.1196  0.2146
16970SOL    HW256873   7.651   9.313   5.907 -0.5626 -1.0469  1.6852
16971SOL     OW56874   1.512   7.293   8.776 -0.4271 -0.2765 -0.4602
16971SOL    HW156875   1.445   7.304   8.709 -1.3114  1.0748  0.5797
16971SOL    HW256876   1.590   7.263   8.729 -1.2406 -0.1197 -1.9503
16972SOL     OW56877   2.377   3.808   6.386  0.1189 -0.4572  0.3023
16972SOL    HW156878   2.365   3.903   6.391  0.0223 -0.5189  1.4825
16972SOL    HW256879   2.362   3.777   6.475 -0.1485 -1.6240 -0.1304
16973SOL     OW56880   3.631   0.038   6.044 -0.1679  0.2918  0.9290
16973SOL    HW156881   3.568   0.098   6.005  0.3989 -0.6206 -1.5747
16973SOL    HW256882   3.673   0.089   6.113 -0.1435  2.5938 -0.6844
16974SOL     OW56883   3.019   8.104   3.899  0.1672 -0.2840 -0.1369
16974SOL    HW156884   3.070   8.055   3.834  1.3052 -0.8682  1.1303
16974SOL    HW256885   2.937   8.056   3.907  0.8341 -1.4076  0.2982
16975SOL     OW56886   0.907   7.469   5.505 -0.0682  0.4870  0.2735
16975SOL    HW156887   0.958   7.526   5.561  0.3101 -0.2900  0.7415
16975SOL    HW256888   0.962   7.455   5.428 -0.2397  0.8956  0.0752
16976SOL     OW56889   5.979   5.986   0.795 -0.6152 -0.4717 -0.3012
16976SOL    HW156890   5.986   5.890   0.797 -0.0526 -0.4624 -1.2007
16976SOL    HW256891   5.992   6.012   0.886 -1.0861 -1.2645  0.0070
16977SOL     OW56892   7.236   2.650   7.496  0.0187 -0.4392  0.5763
16977SOL    HW156893   7.331   2.641   7.504 -0.0183 -0.5520  0.9088
16977SOL    HW256894   7.223   2.742   7.474  0.1807 -0.3069  1.0105
16978SOL     OW56895   5.984   5.110   8.574 -0.7368 -0.7324  0.2370
16978SOL    HW156896   6.032   5.159   8.508 -0.6157 -0.1576  0.7512
16978SOL    HW256897   6.015   5.020   8.564 -1.4494 -0.8362 -1.1519
16979SOL     OW56898   9.309   1.241   5.506 -0.0796 -0.3651  0.4496
16979SOL    HW156899   9.328   1.165   5.561 -1.3456 -1.5859 -0.7076
16979SOL    HW256900   9.317   1.208   5.416 -2.1267  0.4290 -0.0809
16980SOL     OW56901   0.121   2.301   6.389  0.2650 -0.4505  0.6055
16980SOL    HW156902   0.114   2.247   6.469 -0.4983 -0.5543  0.4811
16980SOL    HW256903   0.215   2.308   6.373  0.3932 -1.5064  0.7957
16981SOL     OW56904   4.152   1.071   4.962 -0.2509 -0.0683 -0.7634
16981SOL    HW156905   4.185   1.001   5.018  0.9429  0.5761 -0.6292
16981SOL    HW256906   4.089   1.028   4.905 -1.4886 -0.7471  1.0410
16982SOL     OW56907   6.048   3.747   1.273  0.1558 -0.5173  0.3056
16982SOL    HW156908   5.997   3.669   1.253  0.1970 -0.6594  0.7259
16982SOL    HW256909   5.982   3.814   1.295  0.1378 -0.5967  0.4949
16983SOL     OW56910   1.996   2.691   2.622 -0.1210 -0.3431  0.1521
16983SOL    HW156911   1.954   2.723   2.702 -2.7979 -1.9981 -0.4671
16983SOL    HW256912   1.928   2.639   2.578  1.6411 -0.5537 -2.5800
16984SOL     OW56913   1.853   8.650   7.271  0.4571  0.1779  0.2666
16984SOL    HW156914   1.841   8.613   7.184  1.2627 -1.4990  0.7960
16984SOL    HW256915   1.887   8.738   7.256 -2.3518  1.1464 -1.0807
16985SOL     OW56916   3.840   0.144   0.789 -0.2976 -0.0147  0.2330
16985SOL    HW156917   3.844   0.078   0.720  0.1219 -2.0100  2.0245
16985SOL    HW256918   3.754   0.185   0.779 -0.8606 -1.3303 -0.5686
16986SOL     OW56919   7.494   6.020   8.203  0.4499 -0.4062  0.2761
16986SOL    HW156920   7.426   6.045   8.141 -1.2754  0.4117  2.3902
16986SOL    HW256921   7.447   5.984   8.278  2.3060  0.4805  1.9638
16987SOL     OW56922   1.336   4.468   1.660 -0.1125  0.2946  0.3105
16987SOL    HW156923   1.295   4.552   1.680  0.5863  1.1618 -1.6449
16987SOL    HW256924   1.271   4.421   1.609 -1.2036 -1.1785  2.8606
16988SOL     OW56925   4.817   5.017   2.904 -0.4147  0.4476 -0.0070
16988SOL    HW156926   4.812   5.096   2.851  0.9392  0.3623 -0.3044
16988SOL    HW256927   4.883   5.037   2.971  0.8202 -0.8111 -0.8006
16989SOL     OW56928   1.070   8.585   4.459  0.4814 -0.2596  0.4630
16989SOL    HW156929   1.165   8.590   4.449  0.3436  0.3148 -0.6536
16989SOL    HW256930   1.038   8.558   4.373 -0.5828  2.3952 -0.0671
16990SOL     OW56931   4.112   6.243   1.369 -0.6041  0.3322 -0.3116
16990SOL    HW156932   4.089   6.252   1.277 -2.2651 -0.1117  0.0206
16990SOL    HW256933   4.042   6.288   1.416  1.0154  1.9302  0.7257
16991SOL     OW56934   7.488   6.067   3.741 -0.2886  0.9852  0.1456
16991SOL    HW156935   7.397   6.096   3.743 -0.2344  1.1600  2.0481
16991SOL    HW256936   7.483   5.973   3.723 -0.8774  0.9281  0.5675
16992SOL     OW56937   6.149   8.730   4.599  0.3258  0.1804 -0.0289
16992SOL    HW156938   6.138   8.754   4.508  0.9385 -0.8838 -0.4015
16992SOL    HW256939   6.237   8.694   4.604  0.9607  1.7536  1.3403
16993SOL     OW56940   4.106   8.138   7.380 -0.6279 -0.4919 -0.2891
16993SOL    HW156941   4.192   8.135   7.422  0.4323 -2.2702 -2.3946
16993SOL    HW256942   4.116   8.198   7.307 -0.9974 -1.0980 -0.8530
16994SOL     OW56943   5.303   8.733   0.433 -1.0098 -0.3639  0.2771
16994SOL    HW156944   5.335   8.645   0.416 -0.0873 -0.0104  0.1338
16994SOL    HW256945   5.354   8.764   0.508  1.6344  1.5202 -2.0878
16995SOL     OW56946   0.757   5.772   7.758  0.6101 -0.0436  0.9678
16995SOL    HW156947   0.817   5.703   7.787  1.0185 -0.0588  0.1056
16995SOL    HW256948   0.673   5.749   7.799  0.4205 -1.7725 -0.2860
16996SOL     OW56949   7.741   5.863   9.103  0.2629 -0.1536  0.2811
16996SOL    HW156950   7.830   5.895   9.106 -0.3269  1.7383 -0.9190
16996SOL    HW256951   7.701   5.909   9.030 -1.0705 -2.6663 -0.6981
16997SOL     OW56952   8.722   3.391   4.413 -0.3634 -1.0001 -0.2037
16997SOL    HW156953   8.668   3.464   4.383  0.6259 -0.9991 -2.2133
16997SOL    HW256954   8.757   3.353   4.332  2.8070 -0.8265  0.9478
16998SOL     OW56955   3.003   2.089   6.526  0.1618  0.6361 -0.1285
16998SOL    HW156956   3.078   2.035   6.500  1.5130  1.6666  1.4256
16998SOL    HW256957   2.966   2.119   6.443 -0.3926 -2.2704 -1.0373
16999SOL     OW56958   4.669   7.369   0.040 -0.2506 -0.6737  0.2778
16999SOL    HW156959   4.689   7.313  -0.035 -0.4300  0.5073 -0.6976
16999SOL    HW256960   4.623   7.444   0.002 -1.1029 -0.4412  1.6867
17000SOL     OW56961   5.097   4.899   4.135 -0.2592  0.6693 -0.5372
17000SOL    HW156962   5.165   4.832   4.134  0.5739  1.4541  0.5894
17000SOL    HW256963   5.015   4.850   4.132  0.2862 -0.5062  1.4017
17001SOL     OW56964   0.696   7.306   5.636 -0.1904 -0.1644  0.5797
17001SOL    HW156965   0.771   7.362   5.613  0.2394 -0.5145  1.0996
17001SOL    HW256966   0.720   7.268   5.720 -1.1725  0.0779  0.9748
17002SOL     OW56967   5.372   4.344   3.069 -0.1253 -0.1190  0.2471
17002SOL    HW156968   5.415   4.325   2.986  2.5331  1.8134  1.0509
17002SOL    HW256969   5.323   4.425   3.053  0.9212  0.6215  0.6699
17003SOL     OW56970   3.083   5.559   1.451 -0.3008  0.1120  0.6784
17003SOL    HW156971   3.085   5.481   1.394  0.4749  0.0734  0.7551
17003SOL    HW256972   3.058   5.630   1.392 -0.2804 -0.0636  0.4535
17004SOL     OW56973   1.220   3.355   8.587  0.0624 -0.3682  0.0756
17004SOL    HW156974   1.152   3.382   8.525  0.7967 -2.1823 -1.6223
17004SOL    HW256975   1.302   3.387   8.548  0.6017 -2.0670 -0.2694
17005SOL     OW56976   8.362   3.249   8.738  0.5387 -0.1383  0.2028
17005SOL    HW156977   8.441   3.294   8.708  0.3696 -1.7443 -3.1961
17005SOL    HW256978   8.291   3.292   8.690  0.0810 -2.1381 -1.0524
17006SOL     OW56979   0.092   7.873   0.650  0.7022 -0.6209 -0.0500
17006SOL    HW156980   0.080   7.926   0.571  3.4369 -2.0741 -1.6004
17006SOL    HW256981   0.171   7.822   0.632  0.5336 -2.1663  3.0414
17007SOL     OW56982   0.615   2.838   7.416  0.0872 -0.0687  0.6947
17007SOL    HW156983   0.571   2.769   7.367 -0.3326  1.4356 -1.1551
17007SOL    HW256984   0.708   2.818   7.408 -0.0277 -0.3997  0.1554
17008SOL     OW56985   2.287   7.680   0.112 -0.0680 -0.2880 -0.1706
17008SOL    HW156986   2.267   7.643   0.026 -0.4311  1.1147 -0.7317
17008SOL    HW256987   2.247   7.767   0.110 -0.2967 -0.3183  1.5239
17009SOL     OW56988   0.833   0.394   5.700  0.5837  0.6541 -0.0780
17009SOL    HW156989   0.810   0.444   5.622  0.7227 -1.7018 -1.7319
17009SOL    HW256990   0.755   0.343   5.720  1.1851 -0.2675  0.0375
17010SOL     OW56991   0.623   6.700   3.620  0.1910  0.0985  0.0539
17010SOL    HW156992   0.555   6.633   3.609  0.9338 -1.0057  1.7692
17010SOL    HW256993   0.704   6.651   3.633  1.0908  1.3732 -0.4644
17011SOL     OW56994   6.779   1.860   1.453 -0.2902  0.1083 -0.0199
17011SOL    HW156995   6.697   1.901   1.480 -0.1194 -0.0540  0.7720
17011SOL    HW256996   6.840   1.879   1.524  0.8715  1.7095 -1.3447
17012SOL     OW56997   8.646   0.472   7.027 -0.2056  0.0742  0.5742
17012SOL    HW156998   8.608   0.418   7.096 -0.7677  0.4711  0.5771
17012SOL    HW256999   8.592   0.455   6.951 -0.6239  0.9182  0.6731
17013SOL     OW57000   1.743   8.101   8.579 -0.1100 -0.0720 -0.5433
17013SOL    HW157001   1.799   8.170   8.543  0.4523 -0.2115  0.0266
17013SOL    HW257002   1.763   8.101   8.673 -1.3493  0.1217 -0.2601
17014SOL     OW57003   3.879   0.600   4.733 -0.7558 -0.3881  0.5378
17014SOL    HW157004   3.871   0.617   4.827 -0.0437 -0.2022  0.5724
17014SOL    HW257005   3.962   0.641   4.709 -0.2336 -1.6428  0.1119
17015SOL     OW57006   7.834   0.395   0.762  0.1376 -0.6583  0.4329
17015SOL    HW157007   7.754   0.432   0.800 -0.4702 -1.2064 -0.2741
17015SOL    HW257008   7.905   0.426   0.819 -0.3878  1.1518  0.1649
17016SOL     OW57009   5.016   3.892   5.168 -0.2500  0.6201  0.3614
17016SOL    HW157010   4.960   3.814   5.162  0.9462 -0.1558 -1.8197
17016SOL    HW257011   4.960   3.964   5.140 -0.0169 -0.2921 -2.7732
17017SOL     OW57012   6.198   3.489   2.760 -0.6627 -0.4046 -0.3075
17017SOL    HW157013   6.162   3.499   2.672 -0.0198 -0.3865 -0.5773
17017SOL    HW257014   6.175   3.570   2.805  0.5126  0.3558 -1.0157
17018SOL     OW57015   1.521   3.640   4.883  0.1826  0.3504  0.3924
17018SOL    HW157016   1.438   3.593   4.872  0.8906 -1.1012  1.1340
17018SOL    HW257017   1.515   3.678   4.970  0.3648  0.1336  0.4972
17019SOL     OW57018   6.112   9.046   8.489 -0.0348 -0.0097  0.0789
17019SOL    HW157019   6.204   9.026   8.473  0.1316 -0.0906  1.0533
17019SOL    HW257020   6.066   8.966   8.463  0.3920 -0.7899  1.5807
17020SOL     OW57021   0.687   1.213   4.077  0.0172 -0.4580 -0.0329
17020SOL    HW157022   0.752   1.203   4.146  0.0257  3.0274  0.6343
17020SOL    HW257023   0.706   1.142   4.015  3.7972 -0.2093  0.6200
17021SOL     OW57024   0.483   9.116   2.855 -0.7148 -0.4136 -0.6653
17021SOL    HW157025   0.434   9.196   2.872  0.0792 -0.1192  0.3610
17021SOL    HW257026   0.420   9.057   2.813 -2.2660 -0.3968  1.4828
17022SOL     OW57027   8.169   8.941   2.085  0.9653 -0.5205 -0.1402
17022SOL    HW157028   8.245   8.978   2.040  1.4009 -0.6908  0.4473
17022SOL    HW257029   8.101   9.009   2.078  1.1745 -0.3569 -0.6411
17023SOL     OW57030   0.244   7.126   8.999 -0.1953  0.0052  0.1301
17023SOL    HW157031   0.213   7.123   9.090 -3.2796  1.6398 -0.7154
17023SOL    HW257032   0.337   7.146   9.006 -0.6206  1.5816  2.9304
17024SOL     OW57033   8.046   8.616   7.622 -0.0086  0.4003  0.2170
17024SOL    HW157034   7.969   8.579   7.579  0.1010  0.5886 -0.1376
17024SOL    HW257035   8.095   8.540   7.655  0.7203  0.1602 -1.3521
17025SOL     OW57036   2.752   8.489   7.643 -0.0016 -0.1422 -0.2459
17025SOL    HW157037   2.721   8.465   7.731 -1.0261  2.0618  0.0592
17025SOL    HW257038   2.778   8.406   7.604 -1.9822 -1.5410  1.1990
17026SOL     OW57039   3.115   1.095   7.540 -0.0559 -0.5329  0.9010
17026SOL    HW157040   3.100   1.062   7.629 -1.7702  0.5886  1.0902
17026SOL    HW257041   3.046   1.054   7.487 -0.9490  1.0679  0.7458
17027SOL     OW57042   7.061   7.699   5.831  0.0050  0.0576  0.0905
17027SOL    HW157043   7.042   7.608   5.855 -1.7990  0.3290 -0.1594
17027SOL    HW257044   7.036   7.750   5.908  0.7695  0.3674  0.1377
17028SOL     OW57045   3.528   2.577   9.169  0.0385  0.3120  0.1723
17028SOL    HW157046   3.619   2.554   9.151 -0.0030  0.8257 -0.7419
17028SOL    HW257047   3.482   2.493   9.172  1.0634 -0.2707  4.0260
17029SOL     OW57048   7.953   2.446   5.704 -0.3000  0.1182 -0.6976
17029SOL    HW157049   7.910   2.441   5.619 -2.1168 -1.5210  0.2519
17029SOL    HW257050   7.954   2.539   5.725  1.4874  0.7244 -3.0899
17030SOL     OW57051   2.219   8.816   4.888  0.3967 -0.3537 -0.0729
17030SOL    HW157052   2.282   8.839   4.956 -0.3579 -0.4118  0.6706
17030SOL    HW257053   2.159   8.755   4.931 -0.9872  0.7594 -0.3333
17031SOL     OW57054   8.024   6.118   5.510  0.2056 -0.1966 -0.4630
17031SOL    HW157055   8.108   6.079   5.485  0.8243  2.4928 -3.1624
17031SOL    HW257056   7.964   6.092   5.440 -0.6312 -0.2070  0.2426
17032SOL     OW57057   2.635   2.148   5.163 -0.6507 -0.1984  0.2524
17032SOL    HW157058   2.667   2.150   5.073  1.4614  1.2361  0.9706
17032SOL    HW257059   2.556   2.093   5.159 -0.7099 -0.0440 -2.4670
17033SOL     OW57060   9.212   2.002   4.688 -0.1512 -0.2881 -0.2384
17033SOL    HW157061   9.202   1.947   4.765  0.3300 -1.7276 -1.1640
17033SOL    HW257062   9.172   2.085   4.712  0.0204 -0.6987  1.5579
17034SOL     OW57063   4.211   6.334   7.662 -0.0805 -0.1517  0.1299
17034SOL    HW157064   4.258   6.317   7.743 -0.3444 -1.9296 -0.0517
17034SOL    HW257065   4.234   6.261   7.605  0.7723  1.4706 -1.7437
17035SOL     OW57066   1.364   7.580   0.134  0.9833  0.6946  0.2968
17035SOL    HW157067   1.369   7.495   0.091  0.1790  0.2108  1.1274
17035SOL    HW257068   1.312   7.634   0.075 -0.5055 -0.0977  0.8222
17036SOL     OW57069   6.961   3.670   6.723 -0.2809  0.1809 -0.2772
17036SOL    HW157070   7.000   3.707   6.644 -0.1585  1.1042  0.2037
17036SOL    HW257071   6.973   3.576   6.714  0.4182  0.3330 -0.9977
17037SOL     OW57072   3.206   2.809   6.513  0.4840  0.3655 -0.0129
17037SOL    HW157073   3.231   2.897   6.482  1.4799 -0.1748 -0.8150
17037SOL    HW257074   3.256   2.749   6.458 -0.1279 -0.7188  0.5726
17038SOL     OW57075   5.497   8.917   0.213  0.1582  0.0587 -0.2581
17038SOL    HW157076   5.469   8.880   0.130 -1.4411  0.0556  0.2562
17038SOL    HW257077   5.537   8.844   0.260 -0.3957 -0.3211 -0.3755
17039SOL     OW57078   7.054   7.114   0.686 -0.1131 -0.1046  0.2855
17039SOL    HW157079   7.078   7.033   0.641  1.2148 -0.0555  0.8593
17039SOL    HW257080   6.958   7.115   0.686 -0.1525 -1.8002  0.5082
17040SOL     OW57081   2.915   6.542   0.368  0.1853 -0.1154 -0.4829
17040SOL    HW157082   2.893   6.458   0.328  0.5701  0.0867 -1.1492
17040SOL    HW257083   2.974   6.583   0.305  0.9852  0.1271  0.4021
17041SOL     OW57084   2.215   3.876   1.977  0.4041 -0.1065 -0.2319
17041SOL    HW157085   2.238   3.960   1.939 -0.4526  0.6160  0.7913
17041SOL    HW257086   2.134   3.851   1.933  1.2906 -1.0308 -1.4245
17042SOL     OW57087   2.409   2.484   0.873  0.0397 -0.7979  0.1047
17042SOL    HW157088   2.497   2.448   0.869  0.5693  0.2419  1.4729
17042SOL    HW257089   2.396   2.506   0.966 -0.7499  1.1870 -0.4197
17043SOL     OW57090   7.365   6.627   7.389  0.3938 -0.1277  0.7439
17043SOL    HW157091   7.347   6.716   7.420 -1.5730  0.6338 -2.2050
17043SOL    HW257092   7.448   6.634   7.342  0.7778 -0.1303  1.4067
17044SOL     OW57093   6.412   0.043   5.214  0.0863 -0.5859  0.4358
17044SOL    HW157094   6.504   0.064   5.228  0.4119 -0.3808 -1.6221
17044SOL    HW257095   6.371   0.127   5.197 -0.3855 -0.7319  0.8463
17045SOL     OW57096   7.686   1.054   1.229  0.2658 -0.8338 -0.3386
17045SOL    HW157097   7.654   0.965   1.245  2.2441 -1.9294 -1.9348
17045SOL    HW257098   7.776   1.042   1.198  0.4447  1.7011 -1.0492
17046SOL     OW57099   7.961   3.307   2.316  0.0129  0.4364  0.2961
17046SOL    HW157100   7.982   3.256   2.238 -0.5291  1.2294 -0.3811
17046SOL    HW257101   7.879   3.269   2.348  0.1435  0.2275  0.3870
17047SOL     OW57102   7.696   1.787   2.444 -0.1126  0.3604  0.5203
17047SOL    HW157103   7.670   1.754   2.530 -0.4082 -0.4232  0.1385
17047SOL    HW257104   7.656   1.726   2.382  0.0013  0.9878 -0.1792
17048SOL     OW57105   3.196   4.471   4.435  0.2094  0.0525 -0.0399
17048SOL    HW157106   3.283   4.464   4.474  0.2469 -0.0482 -0.1415
17048SOL    HW257107   3.206   4.532   4.363  0.6209 -1.3776 -1.2437
17049SOL     OW57108   6.497   2.736   4.250  0.6181  0.3388 -0.0977
17049SOL    HW157109   6.431   2.673   4.221  0.4706 -0.2145  1.3733
17049SOL    HW257110   6.503   2.798   4.177 -0.0124 -0.7559 -1.1325
17050SOL     OW57111   6.295   8.476   0.712  0.0590  0.1971  0.4133
17050SOL    HW157112   6.352   8.515   0.779 -0.5625 -0.1081  1.1417
17050SOL    HW257113   6.208   8.476   0.753 -0.8617  2.2926 -1.3309
17051SOL     OW57114   1.039   2.045   4.667  0.5264  0.4054 -0.2334
17051SOL    HW157115   1.031   2.012   4.577  0.5379  2.0207 -0.8639
17051SOL    HW257116   0.949   2.053   4.698  0.5462 -1.1611  0.3239
17052SOL     OW57117   6.664   8.425   2.407  0.5770  0.2951  0.3806
17052SOL    HW157118   6.634   8.339   2.380  1.4534  0.4134 -1.0729
17052SOL    HW257119   6.723   8.453   2.337  0.7336  1.8439  1.0905
17053SOL     OW57120   1.122   3.008   6.537  0.5987  0.2664 -0.2875
17053SOL    HW157121   1.083   2.995   6.450  1.7960  1.4546 -1.0414
17053SOL    HW257122   1.050   2.994   6.598 -0.0839 -1.5090 -1.3948
17054SOL     OW57123   6.458   2.473   7.311  0.0816  0.1885  0.2713
17054SOL    HW157124   6.532   2.419   7.340 -0.9098 -0.2505  2.1770
17054SOL    HW257125   6.497   2.555   7.281  1.4235 -0.5762 -0.1329
17055SOL     OW57126   6.928   5.099   4.135 -0.1444  0.1113  0.3949
17055SOL    HW157127   6.833   5.089   4.128 -0.1654  0.9006 -0.8452
17055SOL    HW257128   6.946   5.089   4.228 -1.8289  2.8123  1.1422
17056SOL     OW57129   3.992   2.130   8.674  0.0689  0.2451  0.1781
17056SOL    HW157130   3.989   2.207   8.730  0.6368 -0.2416  0.9022
17056SOL    HW257131   4.039   2.065   8.726 -2.1356 -1.2637  0.4307
17057SOL     OW57132   0.286   6.882   6.649 -0.8632  0.1754  0.1575
17057SOL    HW157133   0.256   6.969   6.673  0.2322  0.2577  1.3054
17057SOL    HW257134   0.321   6.892   6.560 -2.5541  0.4361 -0.5167
17058SOL     OW57135   5.360   0.953   5.028 -0.2548  0.2941 -0.5179
17058SOL    HW157136   5.421   0.916   4.964  0.9512  1.5727 -0.1515
17058SOL    HW257137   5.276   0.956   4.982  0.5450  0.9860 -1.9906
17059SOL     OW57138   3.569   6.589   0.557  0.3828 -0.8610  0.7164
17059SOL    HW157139   3.639   6.525   0.544  0.1037 -0.9606 -0.4748
17059SOL    HW257140   3.612   6.664   0.598  1.2929 -0.7678 -0.3528
17060SOL     OW57141   3.915   5.834   6.839 -0.1222  0.6010  0.6224
17060SOL    HW157142   3.948   5.821   6.750 -1.1730  0.4854  0.2367
17060SOL    HW257143   3.826   5.866   6.827 -0.8139 -0.8390  1.6389
17061SOL     OW57144   0.960   7.652   7.314 -0.2997 -0.0828  0.4067
17061SOL    HW157145   1.048   7.665   7.349 -0.3568  1.6013  0.0273
17061SOL    HW257146   0.905   7.711   7.365 -1.0033 -0.2807 -0.1087
17062SOL     OW57147   8.491   2.373   7.870  0.1135  0.0186 -0.0984
17062SOL    HW157148   8.506   2.464   7.896  1.2774  0.2216 -1.3588
17062SOL    HW257149   8.437   2.380   7.791 -1.6058 -0.4955  0.9925
17063SOL     OW57150   4.849   9.186   3.049 -0.0856  0.1263 -0.5001
17063SOL    HW157151   4.762   9.159   3.079 -0.5536  1.6313 -0.3823
17063SOL    HW257152   4.837   9.204   2.956  0.2614 -0.2486 -0.6204
17064SOL     OW57153   7.548   3.598   1.981  0.2029 -0.0156 -0.3404
17064SOL    HW157154   7.541   3.692   1.967  0.0816  0.3116  1.5491
17064SOL    HW257155   7.642   3.583   1.994  0.3158 -0.3064 -1.3974
17065SOL     OW57156   6.232   1.197   9.176  0.0722 -0.0613  0.3066
17065SOL    HW157157   6.145   1.237   9.167  0.2338  0.6005  1.4617
17065SOL    HW257158   6.279   1.223   9.097 -0.7939 -0.4536 -0.3465
17066SOL     OW57159   5.391   5.922   3.688  0.3135 -0.2190  0.3166
17066SOL    HW157160   5.455   5.858   3.721 -0.4604 -2.6999 -2.4833
17066SOL    HW257161   5.426   5.948   3.603 -0.8453  0.8913  0.1635
17067SOL     OW57162   0.983   8.615   4.702  0.5351 -0.1330 -0.1060
17067SOL    HW157163   0.997   8.597   4.609 -0.4978  0.9798 -0.5102
17067SOL    HW257164   1.059   8.667   4.728  0.7840 -0.3731 -0.3519
17068SOL     OW57165   7.739   0.088   8.035 -0.5387  0.0807  0.2006
17068SOL    HW157166   7.799   0.136   8.092  0.4752 -1.1576  0.2270
17068SOL    HW257167   7.757  -0.005   8.054 -1.8969 -0.3218 -0.3805
17069SOL     OW57168   7.378   4.277   0.106  0.4502 -0.0354  0.0150
17069SOL    HW157169   7.448   4.273   0.171  0.5809 -1.0010 -0.1756
17069SOL    HW257170   7.308   4.222   0.142 -0.2080  0.8780  0.1814
17070SOL     OW57171   3.226   3.497   1.792  0.4148 -0.1303 -0.2166
17070SOL    HW157172   3.313   3.533   1.775 -0.0708  1.2538  0.1032
17070SOL    HW257173   3.173   3.528   1.719  0.1441 -0.8365 -0.3279
17071SOL     OW57174   1.071   7.823   7.077 -0.2404  0.1942 -0.6599
17071SOL    HW157175   1.103   7.837   6.987  1.6379  0.4626  0.0054
17071SOL    HW257176   1.143   7.779   7.121 -1.9284 -1.8862  0.2148
17072SOL     OW57177   9.245   1.809   1.775 -0.0227 -0.0198  0.1260
17072SOL    HW157178   9.311   1.822   1.707  1.6720 -1.0184  1.4570
17072SOL    HW257179   9.269   1.873   1.843  0.0643 -0.8930  0.9382
17073SOL     OW57180   1.548   6.846   6.824 -0.3118  0.2298 -0.3149
17073SOL    HW157181   1.502   6.763   6.836 -0.0321  0.2357  0.8769
17073SOL    HW257182   1.535   6.893   6.906  0.5358  0.8692 -0.5296
17074SOL     OW57183   3.447   5.024   9.007 -0.5920  0.1400 -0.7829
17074SOL    HW157184   3.435   5.023   9.102 -0.2250  0.6314 -0.7246
17074SOL    HW257185   3.367   4.985   8.972  0.2088 -2.1370 -0.1871
17075SOL     OW57186   0.469   6.818   3.113 -0.1442 -0.0287 -0.3199
17075SOL    HW157187   0.537   6.796   3.177 -0.4768  0.9938  0.4216
17075SOL    HW257188   0.500   6.900   3.074 -0.2330 -0.3421 -1.0620
17076SOL     OW57189   7.385   7.256   8.468 -0.2530 -1.3154  0.6676
17076SOL    HW157190   7.301   7.212   8.454  0.2008 -2.0648  0.2348
17076SOL    HW257191   7.362   7.346   8.492 -1.1948 -1.6894  1.2133
17077SOL     OW57192   5.755   4.924   5.187 -0.1163 -0.3290 -0.5280
17077SOL    HW157193   5.700   4.874   5.127 -0.9082 -0.6707  0.4665
17077SOL    HW257194   5.793   4.859   5.246 -2.8176  0.2745  2.1479
17078SOL     OW57195   7.509   8.585   7.948  0.1906 -0.2439 -0.3085
17078SOL    HW157196   7.418   8.555   7.947  0.6897 -1.8088 -0.1185
17078SOL    HW257197   7.558   8.514   7.989  1.4960  0.6287 -0.2992
17079SOL     OW57198   1.250   2.019   0.549 -0.1599  0.1105  0.3341
17079SOL    HW157199   1.270   1.928   0.525  0.4475  0.3379 -0.0526
17079SOL    HW257200   1.260   2.022   0.644  1.4145  0.1360  0.1993
17080SOL     OW57201   0.313   2.259   8.073  0.0939  0.7500  0.4217
17080SOL    HW157202   0.385   2.267   8.136  0.4641  1.6850 -0.1056
17080SOL    HW257203   0.348   2.296   7.992 -0.0964 -1.1848 -0.5828
17081SOL     OW57204   3.018   9.145   6.428  0.2045 -0.0030  0.2950
17081SOL    HW157205   2.935   9.161   6.471  0.7478  2.7606  0.4984
17081SOL    HW257206   3.082   9.142   6.499  0.5428  0.0345 -0.0057
17082SOL     OW57207   0.595   2.085   7.956  0.1689 -0.3995  0.1368
17082SOL    HW157208   0.656   2.153   7.987  0.0819  0.1305 -0.8231
17082SOL    HW257209   0.652   2.016   7.922  0.3166 -1.5858  2.5527
17083SOL     OW57210   1.752   2.818   3.086 -0.4185 -0.2977 -0.0024
17083SOL    HW157211   1.793   2.904   3.078 -0.0795 -0.4983 -0.4621
17083SOL    HW257212   1.661   2.833   3.062 -0.7042  0.2148  1.3285
17084SOL     OW57213   2.871   0.572   2.290 -0.3327  0.1439 -0.0528
17084SOL    HW157214   2.884   0.510   2.218 -0.5289 -1.2545  1.0613
17084SOL    HW257215   2.882   0.658   2.250 -0.1067 -0.5977 -1.6763
17085SOL     OW57216   4.037   4.059   0.269  0.1685  0.3572  0.3526
17085SOL    HW157217   4.061   4.143   0.229 -1.8776  1.9265  2.1416
17085SOL    HW257218   3.970   4.023   0.210  0.1544  0.6126  0.2085
17086SOL     OW57219   7.768   7.093   4.799  0.5056 -0.6112  0.6944
17086SOL    HW157220   7.756   7.171   4.745 -1.8338 -0.6987  0.9763
17086SOL    HW257221   7.772   7.126   4.889  1.5978 -0.6749  0.6756
17087SOL     OW57222   8.435   3.020   1.235 -0.4588 -0.5536  0.8073
17087SOL    HW157223   8.370   2.994   1.169 -1.3848 -0.0858  1.5142
17087SOL    HW257224   8.502   3.068   1.186 -0.5266 -1.2209  0.0361
17088SOL     OW57225   5.417   8.571   3.972 -0.4439  0.1719  0.3075
17088SOL    HW157226   5.438   8.478   3.982 -1.3067 -0.0687 -0.0137
17088SOL    HW257227   5.496   8.609   3.933  0.8449  0.0704  2.6625
17089SOL     OW57228   5.001   4.740   6.124 -0.3562  0.1835  0.0564
17089SOL    HW157229   5.030   4.653   6.097 -1.5113  0.0095 -0.6841
17089SOL    HW257230   4.915   4.726   6.163 -0.1182  0.8754  0.8726
17090SOL     OW57231   1.023   1.544   0.036 -0.0256 -0.9535 -0.3228
17090SOL    HW157232   0.929   1.560   0.044 -0.1176 -0.9497 -1.3391
17090SOL    HW257233   1.033   1.450   0.051 -0.2228 -0.9984 -0.4645
17091SOL     OW57234   8.136   4.807   2.449 -0.2445 -0.2443  0.0576
17091SOL    HW157235   8.060   4.841   2.496 -0.2214 -0.6453  0.3858
17091SOL    HW257236   8.141   4.715   2.474  0.9939  0.0224  0.9009
17092SOL     OW57237   2.189   1.410   1.873  0.9490  0.0059  0.5284
17092SOL    HW157238   2.243   1.331   1.871  0.8955 -0.0351  0.7023
17092SOL    HW257239   2.180   1.436   1.781 -1.1654 -1.6355  0.1806
17093SOL     OW57240   1.119   7.144   1.072 -0.3025  0.5416 -0.4242
17093SOL    HW157241   1.030   7.118   1.045 -0.5294  0.6977  0.1637
17093SOL    HW257242   1.126   7.115   1.163  0.3672  0.2500 -0.5650
17094SOL     OW57243   7.316   5.066   5.625 -0.0339 -0.6787  0.0244
17094SOL    HW157244   7.298   4.981   5.664 -0.1726 -0.0830  1.3115
17094SOL    HW257245   7.376   5.109   5.686 -0.4724  0.3927 -0.2669
17095SOL     OW57246   4.303   1.192   1.257 -0.0281 -0.0171  0.8121
17095SOL    HW157247   4.229   1.222   1.204  1.2708  1.6942 -0.1901
17095SOL    HW257248   4.341   1.120   1.207  1.3413  1.7451 -0.9044
17096SOL     OW57249   4.858   3.984   7.223 -0.2461  0.2674 -0.0498
17096SOL    HW157250   4.824   3.929   7.153  1.6658 -0.8381 -0.1705
17096SOL    HW257251   4.859   3.928   7.300  0.1508  0.6561  0.2338
17097SOL     OW57252   0.320   5.051   6.138  0.0404  0.2965 -0.4727
17097SOL    HW157253   0.335   5.142   6.112 -0.5861  0.3417 -0.6993
17097SOL    HW257254   0.242   5.025   6.089 -2.0218  0.7977  2.2928
17098SOL     OW57255   7.543   6.772   4.249  0.1277 -0.4716  0.0995
17098SOL    HW157256   7.612   6.798   4.188  0.4486 -0.7234  0.3546
17098SOL    HW257257   7.560   6.679   4.266  0.3721 -0.2669  1.0066
17099SOL     OW57258   6.122   8.065   1.831 -0.4309  0.1133 -0.0219
17099SOL    HW157259   6.060   8.135   1.808 -0.1375  0.5792  0.5708
17099SOL    HW257260   6.205   8.092   1.790  0.2354  1.2169  1.9086
17100SOL     OW57261   4.697   8.245   7.249 -0.4909  0.3053  0.2487
17100SOL    HW157262   4.780   8.264   7.206 -0.1666  0.2324  0.8270
17100SOL    HW257263   4.639   8.316   7.221 -0.3829  0.0901 -0.5431
17101SOL     OW57264   1.273   0.998   1.505 -0.0819 -0.1264  0.1820
17101SOL    HW157265   1.332   0.938   1.460 -0.2587 -0.0194 -0.1956
17101SOL    HW257266   1.324   1.078   1.515 -0.0276 -0.1644  0.2131
17102SOL     OW57267   6.734   2.517   4.419 -0.7305 -0.5025  0.2867
17102SOL    HW157268   6.723   2.539   4.512 -0.6458 -1.8424  0.6340
17102SOL    HW257269   6.772   2.596   4.380 -0.3328 -0.0763  1.4851
17103SOL     OW57270   1.653   6.607   0.897  0.2427  0.2995  0.0083
17103SOL    HW157271   1.634   6.523   0.939  0.3902  0.0672 -0.3800
17103SOL    HW257272   1.650   6.588   0.803  0.0574  0.7786 -0.0860
17104SOL     OW57273   0.217   9.215   4.302  0.5788 -0.1804  0.5707
17104SOL    HW157274   0.273   9.210   4.379  2.5268  1.9144 -0.5746
17104SOL    HW257275   0.251   9.148   4.243  0.2071 -0.6084  0.8320
17105SOL     OW57276   1.796   6.164   0.285  0.3127  0.0889  0.5340
17105SOL    HW157277   1.868   6.190   0.228 -0.5132 -0.3776 -0.7829
17105SOL    HW257278   1.720   6.212   0.250  0.0209  0.7580  2.0380
17106SOL     OW57279   7.623   4.864   6.113 -0.1241 -0.1836  0.0967
17106SOL    HW157280   7.662   4.813   6.184 -0.1014  1.3137  1.2006
17106SOL    HW257281   7.687   4.933   6.095 -0.6003  0.0719 -0.6894
17107SOL     OW57282   1.740   3.792   2.263  0.3920  0.5744 -0.5012
17107SOL    HW157283   1.695   3.760   2.185 -1.6020 -0.0751  0.8340
17107SOL    HW257284   1.833   3.780   2.245  0.4376  4.3581 -4.5005
17108SOL     OW57285   6.225   8.639   4.141  0.1822  0.3802 -0.6742
17108SOL    HW157286   6.236   8.545   4.124 -3.5064 -0.2642 -0.4973
17108SOL    HW257287   6.228   8.679   4.055 -0.0491 -0.2005 -0.9625
17109SOL     OW57288   3.415   0.279   4.199 -0.1854 -0.0241  0.1119
17109SOL    HW157289   3.374   0.351   4.246 -1.8285  0.0659 -1.3158
17109SOL    HW257290   3.370   0.200   4.231 -0.5999 -0.0607 -0.5228
17110SOL     OW57291   7.771   7.472   5.212 -0.0046  0.6908  0.4386
17110SOL    HW157292   7.737   7.560   5.227 -0.2369  0.3467  2.1046
17110SOL    HW257293   7.769   7.430   5.298  4.8335  0.6778  0.8063
17111SOL     OW57294   2.044   5.022   5.182  0.1827  0.2562  0.5079
17111SOL    HW157295   1.972   4.975   5.224 -0.3462  0.2325 -0.3844
17111SOL    HW257296   2.002   5.098   5.141 -0.2812 -1.9994 -3.8765
17112SOL     OW57297   1.272   8.399   7.706  0.2439  0.1448  0.2118
17112SOL    HW157298   1.184   8.388   7.670  0.4650 -1.0536 -0.0027
17112SOL    HW257299   1.327   8.417   7.630  0.3154  0.0865  0.2498
17113SOL     OW57300   6.387   2.418   1.864 -0.2956 -0.0581 -0.3290
17113SOL    HW157301   6.416   2.509   1.852  0.5748 -0.5990 -3.0999
17113SOL    HW257302   6.295   2.418   1.835 -1.1744  0.3618  2.1830
17114SOL     OW57303   0.605   7.688   5.645 -0.0738 -0.1846 -0.1069
17114SOL    HW157304   0.585   7.753   5.578  0.6994 -0.0169 -0.1849
17114SOL    HW257305   0.539   7.620   5.632 -0.2106  0.0588 -0.7447
17115SOL     OW57306   4.390   8.796   9.098 -0.5300  0.2775  0.0737
17115SOL    HW157307   4.486   8.794   9.092 -0.5007  1.6992 -0.2991
17115SOL    HW257308   4.371   8.865   9.160 -1.3298  0.6846 -0.5978
17116SOL     OW57309   1.384   1.546   9.114 -0.0244 -0.4131 -0.0760
17116SOL    HW157310   1.292   1.533   9.095  0.1882 -1.2137 -0.6044
17116SOL    HW257311   1.429   1.474   9.069  0.9361  0.4497 -0.5473
17117SOL     OW57312   6.584   3.292   1.134 -0.2383 -0.6092 -0.2098
17117SOL    HW157313   6.536   3.234   1.076 -0.3342 -1.3509  0.5834
17117SOL    HW257314   6.517   3.335   1.186 -0.1519  0.0240 -0.6170
17118SOL     OW57315   4.059   3.434   3.288  0.4669 -0.5082 -0.5509
17118SOL    HW157316   4.025   3.347   3.310 -0.1093  0.0442  0.8634
17118SOL    HW257317   4.024   3.452   3.201  0.2328 -1.5160 -0.6765
17119SOL     OW57318   6.595   4.956   8.562 -0.2377  0.0225  0.6539
17119SOL    HW157319   6.647   5.036   8.565 -0.3217  0.0982  0.1129
17119SOL    HW257320   6.642   4.894   8.618  0.2329  0.2043  0.4569
17120SOL     OW57321   6.993   3.541   0.600  0.0751 -0.2634  0.2798
17120SOL    HW157322   6.969   3.564   0.511 -0.0720 -1.2724  0.0471
17120SOL    HW257323   7.004   3.446   0.598 -1.4045 -0.4988  1.6890
17121SOL     OW57324   8.389   0.234   4.897 -0.0172 -0.1666 -0.2328
17121SOL    HW157325   8.390   0.279   4.812  1.0037  0.4151  0.0782
17121SOL    HW257326   8.420   0.299   4.960  0.1431 -0.8785  0.4481
17122SOL     OW57327   1.930   4.415   8.218  0.3616 -0.3873  0.1920
17122SOL    HW157328   1.843   4.376   8.204 -0.3365  0.7359  1.1552
17122SOL    HW257329   1.959   4.441   8.131 -0.0751 -1.1556 -0.1976
17123SOL     OW57330   2.015   4.403   6.135  0.4596 -0.0988  0.0408
17123SOL    HW157331   2.029   4.308   6.128  2.3094  0.1997 -0.8626
17123SOL    HW257332   2.022   4.422   6.228  1.9065 -0.6162  0.0568
17124SOL     OW57333   1.865   1.225   1.736 -0.4086  0.6055  0.1817
17124SOL    HW157334   1.930   1.224   1.806  0.0659  0.7327 -0.2516
17124SOL    HW257335   1.786   1.189   1.776 -0.2807  1.1275  0.9121
17125SOL     OW57336   3.076   5.819   6.528 -0.4677  0.1021 -0.1928
17125SOL    HW157337   3.001   5.864   6.489 -0.3419  0.5384  0.0752
17125SOL    HW257338   3.149   5.839   6.470 -0.5397 -0.2830 -0.4261
17126SOL     OW57339   7.376   3.312   0.280 -0.0621  0.0921 -0.0111
17126SOL    HW157340   7.386   3.326   0.374 -0.5444  0.8672 -0.0737
17126SOL    HW257341   7.463   3.330   0.243 -0.5332  2.6688 -0.0462
17127SOL     OW57342   0.558   4.589   6.943  0.6354 -0.4603  0.6786
17127SOL    HW157343   0.650   4.595   6.967  1.2901 -3.7605 -0.4464
17127SOL    HW257344   0.559   4.575   6.848 -0.8263 -2.2008  0.8592
17128SOL     OW57345   4.003   1.608   0.660  0.0622 -0.5360 -0.4705
17128SOL    HW157346   3.926   1.591   0.606  0.4744 -0.8053 -0.9883
17128SOL    HW257347   4.028   1.522   0.694 -0.2811 -0.3443  0.2710
17129SOL     OW57348   7.220   7.849   3.957  0.1425 -0.5413 -0.2786
17129SOL    HW157349   7.183   7.786   3.896  0.8891 -1.3040  0.0408
17129SOL    HW257350   7.313   7.856   3.932 -0.0193  0.8076 -0.6206
17130SOL     OW57351   2.251   6.944   1.035 -0.0784 -0.5471 -0.6966
17130SOL    HW157352   2.240   6.911   1.124 -1.2063  0.0660 -0.5947
17130SOL    HW257353   2.330   6.901   1.004 -0.8735 -2.4798 -0.1927
17131SOL     OW57354   6.641   7.448   0.480  0.4810  0.2909  0.2826
17131SOL    HW157355   6.639   7.423   0.387  1.4610 -0.1002  0.3468
17131SOL    HW257356   6.735   7.456   0.500  0.2576  1.3120  0.9980
17132SOL     OW57357   6.197   2.650   2.187 -0.1254  0.3435 -0.1850
17132SOL    HW157358   6.245   2.573   2.217  1.2655  0.9946 -0.6487
17132SOL    HW257359   6.219   2.656   2.094 -0.7791  0.9119 -0.3097
17133SOL     OW57360   5.699   5.702   6.310  0.0305 -0.1268  0.2234
17133SOL    HW157361   5.617   5.705   6.359  0.9503  0.5190  1.7865
17133SOL    HW257362   5.709   5.610   6.286 -1.9567  0.0174 -1.5025
17134SOL     OW57363   8.108   6.450   8.819 -0.1046  0.0353  0.2004
17134SOL    HW157364   8.069   6.473   8.735 -0.9217  0.2184  0.6206
17134SOL    HW257365   8.050   6.489   8.884  0.2641 -0.4968  0.8649
17135SOL     OW57366   1.682   3.866   4.401 -0.3007  0.3063  0.1298
17135SOL    HW157367   1.609   3.902   4.451  0.1157  0.7440  0.4374
17135SOL    HW257368   1.679   3.912   4.317 -0.6346  0.0168 -0.0140
17136SOL     OW57369   4.508   2.728   1.649  0.6008 -0.2796 -0.3618
17136SOL    HW157370   4.464   2.647   1.675  0.2783  0.5051  1.7745
17136SOL    HW257371   4.486   2.738   1.556 -0.5818 -1.8584 -0.3092
17137SOL     OW57372   0.846   9.161   8.605 -0.7496 -0.1846  0.9211
17137SOL    HW157373   0.891   9.157   8.521  1.7464  2.1832  1.9874
17137SOL    HW257374   0.760   9.198   8.585 -0.1415  0.4834 -0.5671
17138SOL     OW57375   0.175   0.930   0.887  0.0664  0.6264 -0.4546
17138SOL    HW157376   0.177   0.872   0.963  0.1163 -1.2268 -1.7704
17138SOL    HW257377   0.086   0.965   0.886 -0.3797 -0.4594 -0.3105
17139SOL     OW57378   6.507   0.886   8.339  0.6372  0.1793  0.2955
17139SOL    HW157379   6.546   0.874   8.253  1.2541 -2.4935  0.8347
17139SOL    HW257380   6.552   0.962   8.376  1.3798  0.4994 -1.1765
17140SOL     OW57381   4.476   7.148   3.130  0.0603 -0.2337  0.1467
17140SOL    HW157382   4.388   7.130   3.163  0.0782  0.5867  0.6580
17140SOL    HW257383   4.516   7.203   3.197  0.4502  0.6413 -0.7723
17141SOL     OW57384   1.773   6.108   0.738 -0.1864  0.0952 -0.6750
17141SOL    HW157385   1.770   6.084   0.831  1.2457 -1.4410 -0.9751
17141SOL    HW257386   1.858   6.151   0.728 -0.1205 -0.1994 -1.3784
17142SOL     OW57387   9.340   5.566   3.856 -0.5517 -0.1119 -0.0001
17142SOL    HW157388   9.395   5.489   3.839 -1.2987 -0.8047  0.6922
17142SOL    HW257389   9.290   5.577   3.775  0.5670  0.5266 -0.6423
17143SOL     OW57390   7.852   2.912   6.730 -0.0648 -0.4746  0.2307
17143SOL    HW157391   7.819   2.975   6.666 -1.9290  0.5105  2.0296
17143SOL    HW257392   7.914   2.858   6.681  0.6396  1.9205 -1.7075
17144SOL     OW57393   3.378   3.650   6.761 -0.6537  0.2996  0.3352
17144SOL    HW157394   3.419   3.650   6.847 -3.9456 -0.9899  2.0848
17144SOL    HW257395   3.382   3.559   6.732  0.3842  0.7139 -0.9200
17145SOL     OW57396   2.723   4.753   5.493 -0.4269 -0.2361 -0.2438
17145SOL    HW157397   2.681   4.669   5.511 -2.3921  1.0555  1.6593
17145SOL    HW257398   2.788   4.763   5.562 -1.2391  0.4089  0.4624
17146SOL     OW57399   8.908   4.148   0.003  0.1169  0.4617 -0.4417
17146SOL    HW157400   8.845   4.212   0.037  1.1173  0.1747  2.1947
17146SOL    HW257401   8.994   4.185   0.025  0.7680 -0.7549 -0.8548
17147SOL     OW57402   5.668   4.842   2.692 -0.1357  0.4355 -0.1424
17147SOL    HW157403   5.726   4.885   2.755  1.0788  0.7100 -1.3811
17147SOL    HW257404   5.721   4.770   2.656 -0.0760  1.3859 -2.1355
17148SOL     OW57405   3.924   1.570   5.630  0.1800  0.6751  0.5796
17148SOL    HW157406   3.929   1.481   5.595  0.2197  0.7621  0.3629
17148SOL    HW257407   3.885   1.559   5.717 -0.5703  0.5210  0.2377
17149SOL     OW57408   9.349   2.539   0.522 -0.1711 -0.0721 -0.6951
17149SOL    HW157409   9.273   2.544   0.465  0.4494  0.3974 -1.5139
17149SOL    HW257410   9.319   2.493   0.600 -1.4079  0.5388 -0.7961
17150SOL     OW57411   4.491   1.668   8.021  0.7172  0.1766 -0.4583
17150SOL    HW157412   4.419   1.608   8.040  0.8464  0.2625  0.3383
17150SOL    HW257413   4.505   1.715   8.103 -1.3092  3.4008 -1.7569
17151SOL     OW57414   4.545   7.592   5.710 -0.5028  0.0290 -0.3339
17151SOL    HW157415   4.605   7.616   5.640  0.8998 -2.0284  0.0595
17151SOL    HW257416   4.599   7.595   5.790 -1.5987  0.6165  0.4027
17152SOL     OW57417   2.924   4.234   5.223 -0.2154 -0.2852  0.1695
17152SOL    HW157418   2.951   4.157   5.272  2.9118  1.4280  1.4352
17152SOL    HW257419   2.904   4.300   5.290 -2.3882  0.1807 -0.8659
17153SOL     OW57420   6.549   5.619   3.609  0.5087  0.5534 -0.1190
17153SOL    HW157421   6.613   5.617   3.538  1.6622 -2.1775  0.8661
17153SOL    HW257422   6.578   5.690   3.666  1.4002  0.7582 -0.8148
17154SOL     OW57423   0.439   5.209   0.263  0.3937 -0.6648  0.0338
17154SOL    HW157424   0.435   5.113   0.265  0.9948 -0.7602 -1.6962
17154SOL    HW257425   0.362   5.235   0.212  1.2843 -0.3730 -1.2082
17155SOL     OW57426   7.945   8.084   7.248 -0.0174 -0.0008  0.4144
17155SOL    HW157427   8.020   8.143   7.257  0.5025 -0.2539 -1.8409
17155SOL    HW257428   7.976   8.013   7.193 -1.6373 -0.6500  0.2746
17156SOL     OW57429   5.100   7.564   1.142 -0.0927  0.1475 -0.3327
17156SOL    HW157430   5.062   7.632   1.086 -0.2542  0.2968 -0.0423
17156SOL    HW257431   5.040   7.490   1.134 -0.1683  0.2036 -0.2759
17157SOL     OW57432   5.562   2.783   0.472  0.5416 -0.6054  0.1538
17157SOL    HW157433   5.469   2.806   0.472  0.4413 -0.4148 -3.4321
17157SOL    HW257434   5.607   2.865   0.453  1.5809 -0.5527  2.5734
17158SOL     OW57435   7.159   4.086   5.099 -0.0227 -0.0784  0.0539
17158SOL    HW157436   7.195   4.140   5.169 -0.0746 -0.3103  0.2592
17158SOL    HW257437   7.106   4.147   5.047 -0.4502 -0.0178  0.5442
17159SOL     OW57438   5.565   2.100   2.854 -0.0716  0.6719  0.0195
17159SOL    HW157439   5.641   2.087   2.911 -1.3949 -1.6912  1.4117
17159SOL    HW257440   5.563   2.022   2.798 -1.1855  0.9474 -0.3576
17160SOL     OW57441   5.598   4.050   7.043  0.2023 -0.1710  0.3559
17160SOL    HW157442   5.505   4.060   7.063  0.4659  0.2795  1.3680
17160SOL    HW257443   5.628   4.139   7.024  0.1135 -0.4832 -1.5041
17161SOL     OW57444   8.593   5.860   8.836 -0.4397  0.2642  0.2589
17161SOL    HW157445   8.643   5.827   8.761  1.5195  2.6466  0.3964
17161SOL    HW257446   8.505   5.875   8.800  0.3143  0.8858 -1.4457
17162SOL     OW57447   6.883   2.694   5.481  0.2380  0.0555 -0.3701
17162SOL    HW157448   6.952   2.694   5.415  0.5153  1.6676 -0.1255
17162SOL    HW257449   6.813   2.641   5.442  0.9135 -0.1146 -1.3862
17163SOL     OW57450   0.024   5.794   3.681  0.0650 -0.0489  0.1766
17163SOL    HW157451   0.085   5.802   3.755 -0.9852 -1.8032  1.3074
17163SOL    HW257452   0.048   5.712   3.639 -1.1873 -0.5395  0.3679
17164SOL     OW57453   9.026   3.669   2.601 -0.2152  0.0103  0.6921
17164SOL    HW157454   9.044   3.759   2.573 -0.3097 -0.0923  0.3006
17164SOL    HW257455   9.054   3.615   2.527 -0.1933 -0.2819  0.9131
17165SOL     OW57456   8.042   1.508   4.880  0.2377 -0.2157 -0.4428
17165SOL    HW157457   8.075   1.490   4.968 -0.6568 -0.3111 -0.1150
17165SOL    HW257458   8.086   1.443   4.824 -1.0478 -1.8543  0.3372
17166SOL     OW57459   5.989   2.237   8.164 -0.1357  0.4081  0.1670
17166SOL    HW157460   6.002   2.174   8.234 -2.2792  0.8719  1.0697
17166SOL    HW257461   5.969   2.319   8.209  0.7266  1.2804 -0.9875
17167SOL     OW57462   1.723   2.595   1.775 -0.4911  0.1066  0.3968
17167SOL    HW157463   1.662   2.634   1.712  0.4609  0.3453 -0.4015
17167SOL    HW257464   1.810   2.621   1.744  0.0696 -0.9310  1.0301
17168SOL     OW57465   9.079   0.655   2.540 -0.3306  0.0102 -0.3150
17168SOL    HW157466   9.065   0.749   2.545  0.4273  0.0728  1.6074
17168SOL    HW257467   9.070   0.634   2.447  0.4988  2.1367 -0.9290
17169SOL     OW57468   0.646   4.842   6.611  0.1313 -0.1001  0.1555
17169SOL    HW157469   0.729   4.877   6.579  1.1510 -1.2555  1.4692
17169SOL    HW257470   0.619   4.904   6.679 -0.8224  1.0217 -1.1728
17170SOL     OW57471   5.361   2.939   6.580  0.1205  0.3507  0.3756
17170SOL    HW157472   5.334   2.987   6.502  2.3470  1.1855  0.0283
17170SOL    HW257473   5.299   2.966   6.648 -1.4060  0.1768 -0.8838
17171SOL     OW57474   3.037   5.220   4.623  0.1583 -0.2004 -0.2052
17171SOL    HW157475   3.101   5.282   4.590  0.5220  0.2200  1.2418
17171SOL    HW257476   3.067   5.135   4.590  0.4876  0.2021 -0.9588
17172SOL     OW57477   2.871   9.366   4.871 -0.0416 -0.5128  0.2245
17172SOL    HW157478   2.914   9.326   4.947  0.7070  0.4509  0.3366
17172SOL    HW257479   2.817   9.436   4.909  0.8246  0.3905 -0.1450
17173SOL     OW57480   0.609   6.298   3.802  0.0481  0.2559  0.3586
17173SOL    HW157481   0.516   6.313   3.820 -0.1509 -1.5314  1.0260
17173SOL    HW257482   0.654   6.370   3.846 -0.8987 -0.1260  2.0251
17174SOL     OW57483   3.616   1.526   1.961 -0.4467  0.3348  0.5504
17174SOL    HW157484   3.632   1.539   2.054 -0.2004 -2.1689  0.9416
17174SOL    HW257485   3.697   1.554   1.918  1.3670 -2.7669  1.5954
17175SOL     OW57486   6.816   1.361   0.866 -0.2460 -0.1462 -0.0437
17175SOL    HW157487   6.908   1.337   0.854 -0.0276  0.4297  0.4536
17175SOL    HW257488   6.792   1.319   0.948 -0.2476  0.2126  0.1407
17176SOL     OW57489   3.089   8.265   9.224 -0.0792  0.9150  0.2705
17176SOL    HW157490   3.056   8.304   9.143  0.4388 -0.0091 -0.4001
17176SOL    HW257491   3.033   8.300   9.292 -0.8389  1.3231 -0.5524
17177SOL     OW57492   2.510   5.204   8.830  0.4309  0.7189 -0.0319
17177SOL    HW157493   2.479   5.292   8.848 -0.2752  0.5617 -0.4531
17177SOL    HW257494   2.434   5.158   8.794  1.0067  0.1801 -0.5938
17178SOL     OW57495   1.965   5.618   1.880  0.0860  0.0776  0.3840
17178SOL    HW157496   1.878   5.655   1.894  0.2430  0.5144  0.2181
17178SOL    HW257497   1.956   5.566   1.799 -0.3574 -0.9821  1.0904
17179SOL     OW57498   1.946   5.375   3.801 -0.9469  0.0556  0.6903
17179SOL    HW157499   1.863   5.417   3.825 -1.3394  0.7120 -1.5234
17179SOL    HW257500   1.920   5.300   3.747 -0.1183 -0.4419  0.9677
17180SOL     OW57501   1.455   7.462   2.103  0.6869 -1.0230 -0.0666
17180SOL    HW157502   1.498   7.443   2.019  1.1944 -0.8971  0.1594
17180SOL    HW257503   1.510   7.530   2.143 -0.4936  0.1673 -0.3891
17181SOL     OW57504   5.641   7.188   4.773 -0.2855  0.2620  0.4088
17181SOL    HW157505   5.572   7.252   4.757 -0.9082 -0.6191 -0.5896
17181SOL    HW257506   5.624   7.118   4.710  1.1305 -0.2911  0.5940
17182SOL     OW57507   7.770   2.674   3.889  0.0257  0.1549  0.4598
17182SOL    HW157508   7.747   2.758   3.929 -3.6137 -0.8145  0.7084
17182SOL    HW257509   7.831   2.697   3.818 -0.0348  2.8343  1.1669
17183SOL     OW57510   7.639   2.882   2.819 -0.2118 -0.1495 -0.1915
17183SOL    HW157511   7.581   2.956   2.835  1.6340  2.2398 -3.4032
17183SOL    HW257512   7.581   2.807   2.811 -2.6458  1.6990 -1.1088
17184SOL     OW57513   2.952   8.030   7.404 -0.1970  0.6036  0.6059
17184SOL    HW157514   3.017   7.983   7.352 -2.1970  0.5995 -2.1280
17184SOL    HW257515   2.879   7.969   7.413 -0.6814  1.3153  1.7743
17185SOL     OW57516   5.930   1.528   2.416 -0.4210  0.2251 -0.0819
17185SOL    HW157517   5.841   1.521   2.450 -0.3828 -0.3963 -0.0854
17185SOL    HW257518   5.950   1.621   2.416 -0.8571  0.3166  0.4666
17186SOL     OW57519   2.108   3.399   1.529 -0.8384 -0.3083 -0.2306
17186SOL    HW157520   2.045   3.334   1.498 -0.3689  0.2097 -2.4665
17186SOL    HW257521   2.158   3.422   1.451  0.0238  1.6170  0.8312
17187SOL     OW57522   1.505   0.620   8.336 -0.1098 -0.6345  0.6731
17187SOL    HW157523   1.503   0.675   8.414  0.1749 -0.5495  0.6228
17187SOL    HW257524   1.558   0.669   8.274  0.5559 -1.1901  0.7966
17188SOL     OW57525   8.067   0.494   8.545  0.4424 -0.1658  0.1479
17188SOL    HW157526   8.113   0.423   8.500  0.9381 -0.4003  1.0020
17188SOL    HW257527   8.092   0.573   8.497 -0.2114 -0.5661 -0.8884
17189SOL     OW57528   6.411   3.893   9.199  0.0942  0.8250 -0.0906
17189SOL    HW157529   6.336   3.913   9.142 -0.1322  1.7045  0.4868
17189SOL    HW257530   6.390   3.938   9.281  1.4052  1.3623 -0.0310
17190SOL     OW57531   0.288   0.362   7.714  0.0844 -0.2280  0.1335
17190SOL    HW157532   0.369   0.314   7.699  1.1551  1.6528 -0.4927
17190SOL    HW257533   0.276   0.362   7.809  0.7003 -0.6907  0.2152
17191SOL     OW57534   8.478   2.716   2.778 -0.5742 -0.0635  0.0625
17191SOL    HW157535   8.493   2.786   2.715  0.3224  0.2926  0.6429
17191SOL    HW257536   8.488   2.758   2.864 -1.6779 -0.5547  0.4518
17192SOL     OW57537   4.267   5.230   5.873  1.1297  0.1255 -0.1919
17192SOL    HW157538   4.278   5.225   5.778 -0.7498  3.5830 -0.7430
17192SOL    HW257539   4.237   5.143   5.898  0.2246 -0.4682 -3.0146
17193SOL     OW57540   3.268   3.060   1.156 -0.5518  0.4127 -0.3143
17193SOL    HW157541   3.214   2.999   1.206 -0.0827  1.0808  1.0506
17193SOL    HW257542   3.303   3.007   1.084 -2.3420 -0.2279 -0.7626
17194SOL     OW57543   0.962   9.035   1.869 -0.2448 -0.5926  0.2017
17194SOL    HW157544   0.940   9.127   1.854  0.2883 -0.4786  0.0854
17194SOL    HW257545   0.931   8.990   1.791  0.4923 -0.3398 -0.2469
17195SOL     OW57546   8.006   7.342   7.072 -0.0319  0.4509  0.0540
17195SOL    HW157547   8.067   7.330   6.999  0.0534 -2.8727  0.5173
17195SOL    HW257548   7.919   7.342   7.032  0.0963  1.0073 -0.2316
17196SOL     OW57549   1.438   8.084   6.470 -0.7842  0.7726  0.6141
17196SOL    HW157550   1.454   7.992   6.492  0.4235  1.0306  0.8913
17196SOL    HW257551   1.345   8.098   6.492 -0.6124  0.0031  1.9629
17197SOL     OW57552   7.542   5.387   0.693 -0.1422 -0.6043 -0.1871
17197SOL    HW157553   7.554   5.367   0.786  1.1464  1.5935  0.2025
17197SOL    HW257554   7.613   5.340   0.649 -0.5727 -1.4113 -0.0250
17198SOL     OW57555   5.019   1.264   2.188 -0.3301  0.6312  0.2826
17198SOL    HW157556   4.961   1.254   2.113 -1.5396 -0.8294  1.3419
17198SOL    HW257557   5.105   1.282   2.151 -0.2315 -2.9722 -1.6334
17199SOL     OW57558   6.273   7.303   8.975  0.2790 -0.1457  0.3130
17199SOL    HW157559   6.236   7.235   9.031 -0.9508  1.6207  1.8068
17199SOL    HW257560   6.360   7.319   9.012 -0.3271  0.6447  1.5097
17200SOL     OW57561   2.143   6.265   4.555 -0.1598 -0.5464  0.3044
17200SOL    HW157562   2.143   6.358   4.534 -2.2386 -0.6245 -0.2161
17200SOL    HW257563   2.160   6.221   4.472 -0.7715 -0.6679  0.2411
17201SOL     OW57564   2.244   3.549   1.309  0.0874 -0.0066  0.2912
17201SOL    HW157565   2.263   3.584   1.222 -0.1529 -2.0092 -0.6074
17201SOL    HW257566   2.315   3.582   1.364  1.0073  0.1525 -0.9581
17202SOL     OW57567   8.057   6.888   9.229  0.2330 -0.2817  0.0632
17202SOL    HW157568   8.062   6.973   9.272 -0.0844 -0.2871  0.1093
17202SOL    HW257569   7.980   6.893   9.172 -0.6536 -1.0414  1.1594
17203SOL     OW57570   8.397   0.644   9.063 -0.2128 -0.8241  0.0755
17203SOL    HW157571   8.444   0.691   8.995 -1.1498 -1.9209 -1.4174
17203SOL    HW257572   8.399   0.701   9.139 -0.4961  1.1871 -1.3555
17204SOL     OW57573   8.727   1.366   4.712 -0.0192 -0.2389 -0.7503
17204SOL    HW157574   8.742   1.342   4.621  0.7763 -2.2796 -0.1582
17204SOL    HW257575   8.812   1.401   4.741 -0.1773  0.1128 -0.7159
17205SOL     OW57576   8.062   4.666   2.185 -0.0191 -0.3468 -0.2129
17205SOL    HW157577   8.155   4.651   2.167 -0.1940 -0.6312 -0.9318
17205SOL    HW257578   8.057   4.758   2.209  0.2664  0.0270 -1.5183
17206SOL     OW57579   2.567   2.577   0.247  0.0271 -0.0292  0.2345
17206SOL    HW157580   2.503   2.648   0.240 -0.3873 -0.4593 -0.3859
17206SOL    HW257581   2.651   2.621   0.236 -0.2215  0.3853 -0.0756
17207SOL     OW57582   0.447   1.618   4.286 -0.3914 -0.0796  0.2138
17207SOL    HW157583   0.372   1.621   4.227 -1.0042  0.7859  1.0227
17207SOL    HW257584   0.520   1.594   4.229 -0.6782  2.1078 -1.2332
17208SOL     OW57585   3.895   8.555   7.047 -0.6736  0.2350  0.1737
17208SOL    HW157586   3.811   8.595   7.066 -0.3504  0.4922  1.0927
17208SOL    HW257587   3.895   8.472   7.095 -0.8976 -0.3812 -0.8437
17209SOL     OW57588   8.836   6.798   2.805  0.6290  0.2703 -0.4202
17209SOL    HW157589   8.828   6.804   2.900  2.5836  1.0296 -0.2454
17209SOL    HW257590   8.766   6.854   2.772  1.2595  1.7807  0.6621
17210SOL     OW57591   3.526   2.721   3.215 -0.1497  0.3116 -0.1888
17210SOL    HW157592   3.484   2.709   3.130 -0.5742 -0.2702  0.0949
17210SOL    HW257593   3.493   2.805   3.247  0.0889  0.5803 -0.6364
17211SOL     OW57594   7.920   6.128   6.858 -0.6069  0.1640  0.2343
17211SOL    HW157595   7.918   6.112   6.764 -0.5441  0.6058  0.1548
17211SOL    HW257596   7.867   6.058   6.896 -3.9519  2.0760 -0.4457
17212SOL     OW57597   7.951   4.664   6.176 -0.3255  0.0200 -0.0473
17212SOL    HW157598   8.020   4.638   6.238  0.5318 -1.1910 -1.4526
17212SOL    HW257599   7.869   4.645   6.222  0.2752 -2.5453  0.1242
17213SOL     OW57600   8.409   8.534   7.343  0.0421  0.1248  0.2209
17213SOL    HW157601   8.416   8.628   7.359  1.5180  0.3346 -1.3856
17213SOL    HW257602   8.319   8.521   7.315 -0.3585  0.9366  1.0893
17214SOL     OW57603   7.075   1.059   1.666  0.0699 -0.1865  0.1787
17214SOL    HW157604   7.132   1.034   1.739  2.1517 -1.0318 -1.6122
17214SOL    HW257605   7.133   1.106   1.606 -2.0095  2.2112 -0.1174
17215SOL     OW57606   7.346   7.583   7.576  0.2336 -0.7530  0.3548
17215SOL    HW157607   7.336   7.673   7.606  0.9384 -0.3279 -0.6541
17215SOL    HW257608   7.257   7.547   7.579 -0.1646  0.1855  0.0871
17216SOL     OW57609   2.604   4.172   7.549  0.0921 -0.4667 -0.4331
17216SOL    HW157610   2.648   4.223   7.481  0.4575  0.5964  0.5549
17216SOL    HW257611   2.672   4.114   7.584  0.9141  1.3868  1.3002
17217SOL     OW57612   6.491   0.582   4.779 -0.1231 -0.1316 -0.0221
17217SOL    HW157613   6.566   0.637   4.801  0.7828 -1.5013  0.4310
17217SOL    HW257614   6.452   0.558   4.863 -1.7911  1.4547 -0.2729
17218SOL     OW57615   5.363   7.181   4.371 -0.0575 -0.2988  0.2694
17218SOL    HW157616   5.288   7.137   4.332 -1.0565 -0.0484  1.8301
17218SOL    HW257617   5.382   7.254   4.311 -2.8140  1.2961  1.1508
17219SOL     OW57618   7.578   5.314   4.953  0.4824  0.4946  0.4088
17219SOL    HW157619   7.612   5.263   4.879 -0.3908 -0.7479  0.8330
17219SOL    HW257620   7.629   5.395   4.951  3.5364 -1.2523  1.0550
17220SOL     OW57621   9.048   7.529   5.741  0.1972  0.2172 -0.1286
17220SOL    HW157622   9.070   7.598   5.802  0.9729  0.9084 -1.1525
17220SOL    HW257623   9.102   7.547   5.663 -0.9121 -0.4821 -1.1005
17221SOL     OW57624   5.734   6.960   4.950 -0.1257 -0.3945 -0.2546
17221SOL    HW157625   5.688   6.926   4.873 -1.7987  1.0593  0.0429
17221SOL    HW257626   5.770   7.044   4.922 -1.7644  0.7243  0.8190
17222SOL     OW57627   5.956   9.252   3.723 -0.8584 -0.0015  0.6175
17222SOL    HW157628   5.865   9.255   3.693 -0.4698 -0.2323 -0.6145
17222SOL    HW257629   5.978   9.344   3.740 -0.9874  0.1782 -0.1407
17223SOL     OW57630   4.342   1.207   4.055 -0.5735  0.4208 -0.3259
17223SOL    HW157631   4.364   1.116   4.032 -0.9918  0.0836  0.5653
17223SOL    HW257632   4.325   1.249   3.971  1.8385  0.2802 -0.9651
17224SOL     OW57633   8.696   6.140   5.296  0.4805  0.2673 -0.6541
17224SOL    HW157634   8.625   6.182   5.343  1.2071  1.9576 -0.9984
17224SOL    HW257635   8.657   6.061   5.259 -0.3317 -0.7173  2.0159
17225SOL     OW57636   3.733   2.725   6.567  0.4343 -0.0100  0.0359
17225SOL    HW157637   3.715   2.814   6.539  0.9448 -0.4198 -1.7513
17225SOL    HW257638   3.817   2.730   6.612  0.6959  0.3421 -0.4887
17226SOL     OW57639   7.650   4.748   0.098 -0.5823  0.3963 -0.2470
17226SOL    HW157640   7.715   4.679   0.112 -0.1293  1.0417  1.0592
17226SOL    HW257641   7.569   4.702   0.076 -0.4643 -0.6090  1.2611
17227SOL     OW57642   6.749   5.445   7.749 -0.0216 -0.5283  0.9103
17227SOL    HW157643   6.699   5.375   7.708 -0.8002 -0.5405  1.8632
17227SOL    HW257644   6.818   5.400   7.798 -0.1327 -0.5926  1.0069
17228SOL     OW57645   1.553   4.557   1.942  0.5352  0.4883 -0.5708
17228SOL    HW157646   1.524   4.633   1.891  0.8508  0.3945 -0.8993
17228SOL    HW257647   1.548   4.585   2.033  3.1557  1.8491 -0.7294
17229SOL     OW57648   7.060   8.655   4.207 -0.4467 -0.0337 -0.1358
17229SOL    HW157649   7.113   8.730   4.178 -0.1391 -0.1315  0.1760
17229SOL    HW257650   6.999   8.692   4.270 -0.5765  0.0296 -0.2965
17230SOL     OW57651   8.729   5.123   7.256 -0.3361 -0.6710  0.1873
17230SOL    HW157652   8.720   5.174   7.175  1.9520 -1.4368 -0.6364
17230SOL    HW257653   8.811   5.155   7.295  1.0796 -3.4516 -0.2394
17231SOL     OW57654   6.184   8.191   6.217  0.3238 -0.4521 -0.0481
17231SOL    HW157655   6.160   8.192   6.310  1.8613 -1.7046  0.4106
17231SOL    HW257656   6.103   8.169   6.172 -1.0364  2.4342  0.7243
17232SOL     OW57657   5.006   1.307   3.168 -0.1072 -0.0860 -0.0994
17232SOL    HW157658   4.958   1.359   3.103  0.8118 -0.3726 -1.0379
17232SOL    HW257659   5.077   1.267   3.119 -0.3132 -1.5966  0.7796
17233SOL     OW57660   6.678   8.874   8.891 -0.1542  0.3903  0.2525
17233SOL    HW157661   6.696   8.948   8.948  0.1563  0.3153  0.2558
17233SOL    HW257662   6.583   8.874   8.879 -0.2026  0.4926  0.6495
17234SOL     OW57663   2.004   8.947   1.559 -0.6574  0.1771  0.0918
17234SOL    HW157664   2.050   8.885   1.503 -0.0533  0.2824  0.4574
17234SOL    HW257665   1.956   8.893   1.621 -0.1049  0.0720  0.4316
17235SOL     OW57666   5.775   0.539   0.838  0.6588  0.1047  0.2563
17235SOL    HW157667   5.863   0.502   0.848  1.1206  0.9215 -0.5591
17235SOL    HW257668   5.790   0.633   0.826 -0.3503  0.2947  0.3817
17236SOL     OW57669   5.168   5.162   0.243  0.0431  0.4313  0.4268
17236SOL    HW157670   5.137   5.240   0.289 -2.6950 -0.3686  0.1344
17236SOL    HW257671   5.101   5.096   0.259 -0.5088 -0.2800 -3.6112
17237SOL     OW57672   1.448   0.079   3.595 -0.2934  0.1536 -0.1299
17237SOL    HW157673   1.503   0.145   3.553  0.0100 -0.2733 -0.4013
17237SOL    HW257674   1.486  -0.005   3.570 -1.0021 -0.1431 -0.2340
17238SOL     OW57675   3.479   8.320   9.345 -0.4818 -0.2186 -0.8419
17238SOL    HW157676   3.386   8.316   9.370 -0.2064  0.3343  0.3181
17238SOL    HW257677   3.503   8.229   9.328 -0.4895 -0.7794  1.7841
17239SOL     OW57678   7.300   0.468   8.471 -0.2137 -0.6735 -0.2249
17239SOL    HW157679   7.352   0.402   8.518  3.5589  0.6867 -2.0839
17239SOL    HW257680   7.329   0.461   8.380 -1.2011  2.1496 -0.8548
17240SOL     OW57681   2.513   5.358   5.928  0.2366  0.6630 -0.1602
17240SOL    HW157682   2.429   5.343   5.885  0.0853 -1.9747  0.8259
17240SOL    HW257683   2.578   5.331   5.863  0.2580  1.3112 -0.4119
17241SOL     OW57684   4.392   3.224   7.533 -0.0301  0.0578 -0.4529
17241SOL    HW157685   4.399   3.226   7.437 -0.2948 -0.6929 -0.4990
17241SOL    HW257686   4.298   3.228   7.550  0.0754  2.7181 -0.1159
17242SOL     OW57687   5.399   6.171   0.009 -0.5061  0.1901 -0.0940
17242SOL    HW157688   5.306   6.154   0.027 -1.0050  1.1827 -1.5048
17242SOL    HW257689   5.440   6.173   0.095 -1.3061 -2.7086  0.4673
17243SOL     OW57690   6.084   3.073   2.789 -0.2801  0.6366  0.1019
17243SOL    HW157691   6.148   3.016   2.832 -1.6838 -0.1311  1.2682
17243SOL    HW257692   5.999   3.035   2.812 -1.2519  2.8463  0.4019
17244SOL     OW57693   3.501   3.958   6.331 -0.1591  0.2208 -0.6453
17244SOL    HW157694   3.531   3.906   6.405  0.0246 -0.0884 -0.9396
17244SOL    HW257695   3.515   4.049   6.359  0.6852  0.0892 -0.6289
17245SOL     OW57696   1.864   2.601   3.196  0.2669 -0.6240 -0.4062
17245SOL    HW157697   1.831   2.683   3.159  0.0463 -0.4682  0.1282
17245SOL    HW257698   1.958   2.616   3.207  0.4202 -0.8433 -1.3365
17246SOL     OW57699   2.475   7.736   1.772  0.1213 -0.2260  0.5290
17246SOL    HW157700   2.442   7.765   1.857 -0.1188  0.8228  0.0950
17246SOL    HW257701   2.404   7.683   1.735  1.2798 -3.1233  2.1386
17247SOL     OW57702   8.412   5.520   3.968 -0.2655  0.6118  0.5632
17247SOL    HW157703   8.391   5.481   3.884 -3.4122  1.4403  0.8229
17247SOL    HW257704   8.388   5.453   4.032 -0.1721  0.8433  0.8427
17248SOL     OW57705   6.485   0.310   9.020  0.1920  0.1390  0.7592
17248SOL    HW157706   6.490   0.317   8.925 -2.7781  1.3990  0.5766
17248SOL    HW257707   6.408   0.256   9.037  2.1536 -2.3427  2.5416
17249SOL     OW57708   8.981   7.411   8.015 -0.3803 -0.0454 -0.6639
17249SOL    HW157709   9.016   7.497   7.992 -0.4538 -0.2028 -1.4002
17249SOL    HW257710   8.895   7.429   8.053  0.6682  0.3912  1.7015
17250SOL     OW57711   0.607   2.394   6.776  0.0616  0.1302  0.3846
17250SOL    HW157712   0.574   2.318   6.728 -1.1240  1.5486 -1.1804
17250SOL    HW257713   0.529   2.447   6.795  1.0378  1.9996 -0.5356
17251SOL     OW57714   3.605   2.286   3.774  0.1189  0.1093  0.3225
17251SOL    HW157715   3.578   2.237   3.696 -0.8363  0.1369  0.6205
17251SOL    HW257716   3.526   2.334   3.801  0.3865 -0.0011  1.3740
17252SOL     OW57717   9.022   3.438   7.220 -0.0242  0.1395 -0.4079
17252SOL    HW157718   8.930   3.448   7.198 -1.5177  1.6818  4.9931
17252SOL    HW257719   9.052   3.527   7.236  2.1811 -0.4307 -1.0243
17253SOL     OW57720   3.112   0.085   1.283 -0.0085 -0.0995 -0.0338
17253SOL    HW157721   3.038   0.093   1.222 -0.9245 -1.2773  0.8808
17253SOL    HW257722   3.161   0.167   1.271 -1.8642  1.0631 -0.1427
17254SOL     OW57723   5.129   5.476   2.458 -0.4792 -0.5314 -0.5240
17254SOL    HW157724   5.143   5.458   2.551 -0.8355 -0.3060 -0.4263
17254SOL    HW257725   5.040   5.445   2.441 -0.9949  0.8156 -0.4251
17255SOL     OW57726   4.531   3.741   1.526 -0.0606 -0.0323 -0.1214
17255SOL    HW157727   4.568   3.775   1.608 -0.0765  1.0103 -0.5331
17255SOL    HW257728   4.500   3.654   1.549  2.0969 -0.7251  0.3957
17256SOL     OW57729   2.696   4.243   3.069 -0.0981  0.1907  0.3875
17256SOL    HW157730   2.687   4.336   3.050 -1.3501 -0.1884 -1.0360
17256SOL    HW257731   2.741   4.240   3.154  1.1833  2.0567 -0.1561
17257SOL     OW57732   1.601   0.006   8.220  0.1441 -0.0299 -0.4583
17257SOL    HW157733   1.522   0.060   8.210 -0.5883 -0.2991  2.8080
17257SOL    HW257734   1.669   0.068   8.246  0.8291  0.0574 -2.3196
17258SOL     OW57735   3.954   4.163   3.098  0.3352  0.5088 -0.1213
17258SOL    HW157736   4.018   4.205   3.041 -0.5223  1.4522 -0.4193
17258SOL    HW257737   3.983   4.184   3.187 -0.4755  2.4313 -0.2669
17259SOL     OW57738   5.458   5.333   7.432 -0.1216  0.0863  0.5344
17259SOL    HW157739   5.492   5.264   7.489  1.0892 -0.9118 -1.2713
17259SOL    HW257740   5.530   5.396   7.425 -0.1746  0.0946 -0.0004
17260SOL     OW57741   7.619   8.691   5.023 -0.1149 -0.1211  0.4724
17260SOL    HW157742   7.628   8.596   5.032  1.6220 -0.1306 -0.8863
17260SOL    HW257743   7.586   8.703   4.934  1.2871  0.6010  0.0345
17261SOL     OW57744   7.474   1.926   5.080  0.4713 -0.3159  0.1332
17261SOL    HW157745   7.501   1.843   5.039  0.8612  0.8562 -2.1213
17261SOL    HW257746   7.556   1.974   5.094  0.2545 -0.2867  1.4947
17262SOL     OW57747   7.585   0.538   0.859 -0.0158 -0.3575 -0.1805
17262SOL    HW157748   7.496   0.505   0.875 -0.4410  1.4854  1.7336
17262SOL    HW257749   7.621   0.553   0.946  1.5133  0.6041 -0.9426
17263SOL     OW57750   8.130   5.425   5.394 -0.6834 -0.3191 -0.1535
17263SOL    HW157751   8.109   5.518   5.378 -4.2199 -0.5268  1.9422
17263SOL    HW257752   8.062   5.377   5.346  0.5538 -1.7925 -0.4778
17264SOL     OW57753   4.992   1.414   0.530  0.2518  0.5633  0.1818
17264SOL    HW157754   5.081   1.451   0.531 -0.5103  2.5096 -0.1222
17264SOL    HW257755   4.935   1.490   0.543 -1.5067 -0.2064 -2.4428
17265SOL     OW57756   5.685   5.787   8.300 -0.3017 -0.3045  0.2597
17265SOL    HW157757   5.668   5.702   8.260 -0.5649 -0.0493 -0.1711
17265SOL    HW257758   5.713   5.766   8.390  0.0552 -0.8644  0.0232
17266SOL     OW57759   0.887   1.351   1.113 -0.1223  0.3342  0.7690
17266SOL    HW157760   0.798   1.315   1.114  0.2564 -0.7021 -0.4720
17266SOL    HW257761   0.929   1.309   1.038  1.6777  0.1824  1.8154
17267SOL     OW57762   7.505   8.852   7.016 -0.1639 -0.1134 -0.1668
17267SOL    HW157763   7.563   8.787   6.976  0.4481  0.1551  0.2619
17267SOL    HW257764   7.544   8.936   6.993  0.5577  0.0379  1.4607
17268SOL     OW57765   5.929   0.072   8.895  0.1931  0.1411  0.7611
17268SOL    HW157766   5.918   0.092   8.802  1.6029 -1.0847  0.2798
17268SOL    HW257767   5.874  -0.005   8.910 -0.2511  0.5052  1.0197
17269SOL     OW57768   7.647   3.546   8.703 -0.1974  0.4317  0.2247
17269SOL    HW157769   7.656   3.637   8.732 -2.7086  0.3321  1.6693
17269SOL    HW257770   7.553   3.527   8.713  0.3593 -2.5743  0.8422
17270SOL     OW57771   8.027   0.858   8.924  0.1232  0.0601  0.1691
17270SOL    HW157772   8.057   0.887   9.010 -0.0986  0.8284 -0.0051
17270SOL    HW257773   8.105   0.819   8.884  0.4515  0.4725  0.3918
17271SOL     OW57774   5.583   1.993   6.635  0.5762 -0.2891  0.4354
17271SOL    HW157775   5.584   2.088   6.623  2.6641 -0.4409 -1.2625
17271SOL    HW257776   5.544   1.958   6.555 -0.7562 -0.8797  1.3107
17272SOL     OW57777   8.581   6.069   6.760  0.2101 -0.1087  0.3557
17272SOL    HW157778   8.665   6.030   6.735 -0.5866 -1.5260 -0.2674
17272SOL    HW257779   8.545   6.009   6.825 -0.9868 -0.3944 -0.5115
17273SOL     OW57780   6.008   6.087   8.675 -0.6213  0.3289 -0.5398
17273SOL    HW157781   6.034   6.168   8.631 -2.0935  1.6911  0.9716
17273SOL    HW257782   6.068   6.079   8.749 -2.1079  1.5855  0.8950
17274SOL     OW57783   2.219   7.487   6.747 -0.2397 -0.6192 -0.5465
17274SOL    HW157784   2.156   7.559   6.747  0.4679  0.0188  0.3914
17274SOL    HW257785   2.165   7.408   6.740 -1.1885 -0.1163  0.7150
17275SOL     OW57786   2.937   5.969   8.813  0.3963 -0.0689  0.3708
17275SOL    HW157787   2.950   6.028   8.887  0.6948 -0.9848  1.0666
17275SOL    HW257788   2.845   5.979   8.789  0.2818  0.1778  0.9106
17276SOL     OW57789   6.047   2.155   1.692  0.0205 -0.7299 -0.6799
17276SOL    HW157790   6.123   2.158   1.749 -0.1461  1.5635 -0.4550
17276SOL    HW257791   6.044   2.065   1.659  1.6857 -1.3777  0.7870
17277SOL     OW57792   0.527   6.936   6.075  0.2547  0.4760 -0.0847
17277SOL    HW157793   0.606   6.942   6.129 -0.0926  0.2423  0.4520
17277SOL    HW257794   0.558   6.948   5.985  1.1696 -1.5574 -0.0748
17278SOL     OW57795   0.555   4.628   1.225  0.6987  0.4744 -0.3828
17278SOL    HW157796   0.636   4.662   1.265  0.2310  1.8667 -0.5543
17278SOL    HW257797   0.585   4.570   1.155  1.6006  1.8172 -1.1705
17279SOL     OW57798   4.297   8.946   3.679 -0.1633  0.1178  0.5843
17279SOL    HW157799   4.327   9.033   3.654 -2.9469  0.8169 -0.6725
17279SOL    HW257800   4.378   8.897   3.697  1.5229  2.6083  0.3145
17280SOL     OW57801   7.550   0.627   8.641 -0.1654  0.2316 -0.1526
17280SOL    HW157802   7.567   0.695   8.706 -0.2361  0.4178 -0.3304
17280SOL    HW257803   7.489   0.567   8.685  0.5608 -0.1817  0.3104
17281SOL     OW57804   2.503   4.477   6.635  0.0236  0.6501 -0.2804
17281SOL    HW157805   2.589   4.504   6.670  0.6253 -2.4607  0.9511
17281SOL    HW257806   2.449   4.465   6.713 -0.3566 -1.0160 -0.7696
17282SOL     OW57807   7.468   9.067   0.766 -0.4177  0.4356  0.6526
17282SOL    HW157808   7.435   9.134   0.706 -1.3545  0.0495  0.7284
17282SOL    HW257809   7.395   9.007   0.779 -0.4096  0.7792  2.5829
17283SOL     OW57810   0.322   1.164   0.873  0.1475 -0.0445 -0.0352
17283SOL    HW157811   0.315   1.151   0.778 -2.5617 -1.0577  0.2105
17283SOL    HW257812   0.279   1.087   0.911 -2.7831  2.2686  1.8415
17284SOL     OW57813   6.011   6.132   8.262  0.6262 -0.3370 -0.1208
17284SOL    HW157814   6.004   6.174   8.177  0.7448 -1.4108 -0.6771
17284SOL    HW257815   6.082   6.179   8.306 -1.6189  2.4620  0.7622
17285SOL     OW57816   8.958   2.782   3.490  0.1869  0.3547  0.0199
17285SOL    HW157817   8.965   2.805   3.397  0.7118  0.0756 -0.0123
17285SOL    HW257818   8.889   2.839   3.524 -0.4059  0.0540 -0.6678
17286SOL     OW57819   8.601   6.381   9.298  0.4050  0.0693 -0.1599
17286SOL    HW157820   8.669   6.320   9.325 -0.8940 -1.5787 -0.4749
17286SOL    HW257821   8.522   6.350   9.342 -0.1459  2.0287  0.3216
17287SOL     OW57822   2.545   0.668   0.158  0.2559 -0.2685 -0.0744
17287SOL    HW157823   2.599   0.610   0.211  0.6984  1.2662  1.2144
17287SOL    HW257824   2.591   0.675   0.074  0.9973 -0.5683  0.3017
17288SOL     OW57825   8.910   8.050   2.267 -0.3789  0.2890  0.3363
17288SOL    HW157826   8.916   8.142   2.240 -1.4056  0.2541 -0.0802
17288SOL    HW257827   8.820   8.040   2.298 -0.0106 -0.3665  1.2137
17289SOL     OW57828   7.777   4.090   5.052  0.0018 -0.2908 -0.2429
17289SOL    HW157829   7.869   4.071   5.071 -0.2261 -1.0303  0.1763
17289SOL    HW257830   7.774   4.185   5.040  0.7059 -0.1851  0.3580
17290SOL     OW57831   8.246   4.338   5.301  0.3234  0.1645  0.7208
17290SOL    HW157832   8.215   4.303   5.384  0.5069 -0.4896  0.5178
17290SOL    HW257833   8.306   4.409   5.326  0.6487 -0.2583  1.1558
17291SOL     OW57834   0.076   2.570   8.759 -0.3525  0.3181  0.1244
17291SOL    HW157835   0.132   2.644   8.782 -0.8460  0.5094  0.7432
17291SOL    HW257836   0.124   2.493   8.790 -0.5618  0.5052  0.9567
17292SOL     OW57837   6.937   0.663   2.194  0.1903  0.3969 -0.0033
17292SOL    HW157838   6.867   0.713   2.236  0.7096  0.3411  0.9528
17292SOL    HW257839   6.892   0.593   2.147 -0.5278  1.5550 -1.1145
17293SOL     OW57840   6.378   1.267   5.003 -0.2718 -0.3478 -0.5249
17293SOL    HW157841   6.444   1.300   5.064 -1.9471 -1.5682  2.1420
17293SOL    HW257842   6.338   1.193   5.049 -3.2634  0.1060 -2.1274
17294SOL     OW57843   6.477   0.803   1.695 -0.4862  0.2237  0.1695
17294SOL    HW157844   6.566   0.816   1.726 -0.3864  0.3515 -0.1563
17294SOL    HW257845   6.488   0.766   1.607 -0.7625 -0.8194  0.5574
17295SOL     OW57846   2.063   1.750   7.673 -0.4837  0.0353 -0.5595
17295SOL    HW157847   2.085   1.731   7.764 -2.4063  0.3786  0.0018
17295SOL    HW257848   1.968   1.740   7.668 -0.4675  0.4654 -2.4258
17296SOL     OW57849   3.951   7.571   7.779 -0.0442 -0.4490  0.1246
17296SOL    HW157850   3.974   7.503   7.842 -0.0236 -1.3993 -0.8773
17296SOL    HW257851   3.949   7.525   7.694  0.2521  0.8539 -0.6114
17297SOL     OW57852   3.277   7.222   8.317  0.1205  0.1963 -0.3676
17297SOL    HW157853   3.238   7.285   8.257 -0.1637  0.4186  0.0475
17297SOL    HW257854   3.344   7.177   8.264 -1.3368 -0.8746 -1.3885
17298SOL     OW57855   7.476   2.269   3.326  0.5461  0.7767  0.0269
17298SOL    HW157856   7.496   2.361   3.339  1.5084  0.7462 -0.9758
17298SOL    HW257857   7.519   2.224   3.399  0.3754  1.0900  0.3195
17299SOL     OW57858   7.268   7.319   2.277 -0.1382 -0.6861 -0.4879
17299SOL    HW157859   7.186   7.275   2.299 -0.1988 -0.0256  0.6650
17299SOL    HW257860   7.272   7.394   2.336  0.1077  0.7152 -2.1956
17300SOL     OW57861   4.492   1.748   8.306  0.4722 -0.1251 -0.0865
17300SOL    HW157862   4.436   1.778   8.378  1.1866  1.6038 -0.2093
17300SOL    HW257863   4.519   1.660   8.332  1.0441  0.6074  1.9809
17301SOL     OW57864   6.040   3.165   5.192 -0.0604  0.5016  0.2951
17301SOL    HW157865   5.971   3.134   5.133 -0.3885 -1.0417  1.4169
17301SOL    HW257866   5.993   3.210   5.262  0.0384 -0.5478  1.0607
17302SOL     OW57867   1.798   0.183   8.300 -0.5185  0.1382 -0.0681
17302SOL    HW157868   1.848   0.126   8.359 -1.4923 -0.0099  0.6357
17302SOL    HW257869   1.865   0.230   8.250  0.3579  0.5705  1.4396
17303SOL     OW57870   2.610   0.853   1.884  0.5226 -0.7143 -0.1998
17303SOL    HW157871   2.680   0.916   1.900 -0.9798  0.9707  0.1097
17303SOL    HW257872   2.633   0.812   1.800  1.6525  0.0828 -0.3025
17304SOL     OW57873   6.643   3.619   5.933  0.4316 -1.0501  0.6488
17304SOL    HW157874   6.631   3.529   5.903  0.7281 -0.3116 -1.9040
17304SOL    HW257875   6.709   3.656   5.874 -0.3194  1.0958  1.0417
17305SOL     OW57876   4.806   3.784   3.251  0.0383  0.1359  0.6328
17305SOL    HW157877   4.841   3.712   3.303 -1.3545 -0.1781  1.1724
17305SOL    HW257878   4.711   3.777   3.259 -0.1662  1.3363 -0.2621
17306SOL     OW57879   8.292   8.623   5.196  0.0530  0.1590  0.2539
17306SOL    HW157880   8.294   8.528   5.211 -0.3283  0.4074  2.2338
17306SOL    HW257881   8.203   8.641   5.164 -0.7260  0.0897  2.2370
17307SOL     OW57882   0.226   7.182   1.216 -0.1235  0.0845  0.3504
17307SOL    HW157883   0.156   7.180   1.281 -0.1460 -0.5341  0.3149
17307SOL    HW257884   0.184   7.160   1.133 -0.5460  3.1387 -0.3557
17308SOL     OW57885   8.625   7.686   7.730  0.2249  0.4164 -0.0473
17308SOL    HW157886   8.653   7.655   7.644  0.0149 -0.1499  0.0830
17308SOL    HW257887   8.562   7.755   7.712 -0.4281 -0.2432 -0.3682
17309SOL     OW57888   3.489   7.534   8.957  0.6198 -0.1967  0.1226
17309SOL    HW157889   3.458   7.449   8.990  1.0720 -0.8653 -1.1227
17309SOL    HW257890   3.470   7.531   8.864 -0.3855  1.5488  0.2474
17310SOL     OW57891   5.178   7.103   8.812  0.2246  0.1730  0.2927
17310SOL    HW157892   5.249   7.038   8.815 -1.6351 -1.9315  0.7488
17310SOL    HW257893   5.174   7.137   8.901  0.2163 -0.2010  0.4368
17311SOL     OW57894   7.399   5.045   6.912 -0.4750  0.1361 -0.0350
17311SOL    HW157895   7.363   5.057   6.825  0.5550 -1.0193 -0.6536
17311SOL    HW257896   7.492   5.067   6.903 -0.3771  0.0990  0.7889
17312SOL     OW57897   4.686   4.266   1.335 -0.2789 -0.0991  0.0661
17312SOL    HW157898   4.704   4.321   1.411  0.3882 -0.2977  0.0604
17312SOL    HW257899   4.639   4.191   1.370 -1.1688  0.4525  0.0780
17313SOL     OW57900   7.963   7.618   3.891  0.3568 -0.2545 -0.0979
17313SOL    HW157901   7.909   7.560   3.945 -0.5143 -0.3734 -1.0545
17313SOL    HW257902   8.040   7.636   3.944  0.3720 -1.8119  0.4607
17314SOL     OW57903   1.404   3.214   0.575 -0.1758 -0.0467  0.3559
17314SOL    HW157904   1.447   3.220   0.660  0.5752 -0.0796 -0.0144
17314SOL    HW257905   1.464   3.162   0.521 -1.1531 -0.9589  0.1212
17315SOL     OW57906   9.202   2.451   4.934 -0.0994  0.2890  0.1637
17315SOL    HW157907   9.138   2.484   4.998 -1.4449 -0.3857 -0.7804
17315SOL    HW257908   9.206   2.520   4.868  1.4372  1.0742  1.0108
17316SOL     OW57909   0.585   0.223   5.695 -0.0255  0.3674  0.1761
17316SOL    HW157910   0.631   0.159   5.749 -1.5366 -0.3804  0.6452
17316SOL    HW257911   0.529   0.269   5.757  0.5341  1.6902 -0.2764
17317SOL     OW57912   2.098   4.020   5.949 -0.2422  0.4483  0.1245
17317SOL    HW157913   2.151   4.098   5.936  1.0993 -0.3496  0.6219
17317SOL    HW257914   2.053   4.035   6.031 -0.5259  0.9806 -0.1236
17318SOL     OW57915   0.055   9.132   7.191 -0.2759  0.8455  0.0900
17318SOL    HW157916   0.097   9.106   7.109  0.9857  2.5039  0.1557
17318SOL    HW257917   0.025   9.222   7.176 -1.3968  0.6535  0.9661
17319SOL     OW57918   3.231   1.935   1.981  0.1835  0.1273 -0.5876
17319SOL    HW157919   3.274   2.018   1.999  1.0838 -0.3267 -0.5609
17319SOL    HW257920   3.188   1.912   2.063  1.4759 -0.3140 -0.0022
17320SOL     OW57921   6.906   4.599   9.048  0.4380  0.6238 -0.5220
17320SOL    HW157922   6.889   4.603   8.954  0.1995 -0.0445 -0.5102
17320SOL    HW257923   6.995   4.564   9.054  0.5185  0.8314 -0.5004
17321SOL     OW57924   8.303   3.835   3.770 -0.0371 -0.1255 -0.0453
17321SOL    HW157925   8.291   3.743   3.745 -0.8202  0.2889 -1.2820
17321SOL    HW257926   8.238   3.883   3.718 -0.0018  1.0767  0.9780
17322SOL     OW57927   2.238   1.483   2.133 -0.6644 -0.2886  0.2687
17322SOL    HW157928   2.218   1.470   2.040 -0.4765 -2.9289  0.5276
17322SOL    HW257929   2.183   1.420   2.179  0.7154 -0.4561  1.7952
17323SOL     OW57930   8.526   1.156   2.441  0.3246 -0.2985  0.2090
17323SOL    HW157931   8.527   1.105   2.360 -0.2823  0.2612 -0.1611
17323SOL    HW257932   8.557   1.242   2.415 -0.3180  0.0163  0.4752
17324SOL     OW57933   3.913   0.555   8.148 -0.0993  0.2356  0.1722
17324SOL    HW157934   3.903   0.649   8.131 -1.1654  0.3488  1.3452
17324SOL    HW257935   3.826   0.525   8.172  0.3401 -0.9529  0.3593
17325SOL     OW57936   6.185   8.893   6.730 -0.0622 -0.4590  0.1677
17325SOL    HW157937   6.210   8.800   6.732 -0.5203 -0.6990 -2.1025
17325SOL    HW257938   6.243   8.931   6.663  0.0945  0.9072  1.0538
17326SOL     OW57939   4.628   5.516   1.908 -0.0318 -0.0176 -0.7139
17326SOL    HW157940   4.712   5.537   1.948  0.8794 -2.5918 -1.0212
17326SOL    HW257941   4.583   5.462   1.973 -1.6286  1.6073 -0.4227
17327SOL     OW57942   6.615   7.895   4.610 -0.0703  0.6456 -0.4240
17327SOL    HW157943   6.584   7.879   4.699  1.7856 -0.6539  0.0188
17327SOL    HW257944   6.589   7.817   4.561  3.5118 -1.1866  0.2894
17328SOL     OW57945   7.675   8.069   5.324  0.0231  0.3228  0.0325
17328SOL    HW157946   7.584   8.058   5.296 -0.1682  0.3076  0.6464
17328SOL    HW257947   7.727   8.056   5.245 -0.6222  2.5360 -0.8352
17329SOL     OW57948   4.976   8.270   2.733  0.4201 -0.6175 -0.0226
17329SOL    HW157949   5.040   8.290   2.665  0.9999  0.0078  0.6808
17329SOL    HW257950   5.025   8.282   2.815 -0.4394 -0.7171  0.5155
17330SOL     OW57951   3.852   6.351   2.835  0.6816  0.2831  0.0172
17330SOL    HW157952   3.908   6.280   2.867 -0.8502 -0.2120  1.6937
17330SOL    HW257953   3.783   6.360   2.900  1.5061  4.2339  0.6191
17331SOL     OW57954   6.733   8.882   3.716  0.3936  0.4001 -0.6307
17331SOL    HW157955   6.656   8.833   3.685 -0.7205  2.6264 -1.5843
17331SOL    HW257956   6.744   8.952   3.653  1.5550  1.7765  1.0048
17332SOL     OW57957   4.481   7.532   9.280 -0.3989 -0.1315  0.0881
17332SOL    HW157958   4.475   7.468   9.209  0.5048 -0.2682  0.1278
17332SOL    HW257959   4.393   7.532   9.319 -0.4798 -1.1751 -0.0556
17333SOL     OW57960   4.160   8.344   9.231 -0.7152 -0.0032 -0.9834
17333SOL    HW157961   4.191   8.424   9.274  0.6017 -0.7894 -0.4019
17333SOL    HW257962   4.161   8.365   9.138  1.5793  0.0742 -1.0045
17334SOL     OW57963   5.580   0.957   8.546 -0.4698 -0.4504 -0.0790
17334SOL    HW157964   5.544   1.044   8.528  0.5776 -0.1968 -1.1157
17334SOL    HW257965   5.614   0.963   8.635 -0.8796  0.0255  0.0545
17335SOL     OW57966   9.169   1.226   4.437  0.0495  0.3438 -0.4048
17335SOL    HW157967   9.226   1.281   4.491 -1.7886  2.9290 -0.9030
17335SOL    HW257968   9.204   1.234   4.348  0.0741  0.3361 -0.3957
17336SOL     OW57969   6.701   4.175   2.058  0.1201  0.1789 -0.0178
17336SOL    HW157970   6.615   4.134   2.068  0.5932 -0.6726  0.6750
17336SOL    HW257971   6.725   4.204   2.146  1.1369 -0.8501  0.0787
17337SOL     OW57972   4.260   7.594   0.114 -0.0475  0.3921 -0.1797
17337SOL    HW157973   4.222   7.674   0.078 -0.9589 -0.2658 -0.7189
17337SOL    HW257974   4.315   7.624   0.186 -1.5668  1.3860  0.6206
17338SOL     OW57975   3.653   1.361   7.093  0.1962 -0.2178  0.4460
17338SOL    HW157976   3.603   1.314   7.026 -0.2331  0.7528  0.0792
17338SOL    HW257977   3.637   1.453   7.075  3.1259  0.2035 -0.4637
17339SOL     OW57978   7.711   0.841   8.086  0.3355 -0.1381  0.1288
17339SOL    HW157979   7.651   0.895   8.139  0.2820 -0.0066 -0.0639
17339SOL    HW257980   7.797   0.879   8.102  0.5586 -1.0966  1.3893
17340SOL     OW57981   0.529   4.673   7.384  0.7510  0.4007  0.1141
17340SOL    HW157982   0.552   4.692   7.475 -0.0080  0.2386  0.3445
17340SOL    HW257983   0.435   4.656   7.386  1.2290 -2.9631 -0.1104
17341SOL     OW57984   7.939   2.510   6.438 -0.4563 -0.3932  0.3852
17341SOL    HW157985   7.853   2.502   6.396 -0.6823 -1.8386  1.0815
17341SOL    HW257986   8.000   2.470   6.376 -0.2484  0.6469 -0.1159
17342SOL     OW57987   4.111   4.617   7.103 -0.2293  0.4095 -0.5310
17342SOL    HW157988   4.207   4.621   7.095 -0.3075  0.4864 -1.4873
17342SOL    HW257989   4.090   4.525   7.091 -0.4334  0.6671 -2.3515
17343SOL     OW57990   1.004   3.350   4.598 -0.0112 -0.7526  0.0133
17343SOL    HW157991   0.966   3.418   4.543  0.3759 -1.0806 -0.6829
17343SOL    HW257992   0.965   3.363   4.684  0.6947  0.8839  0.1157
17344SOL     OW57993   3.544   5.621   0.996  0.5443  0.4307  0.2125
17344SOL    HW157994   3.559   5.550   1.058 -0.3104  0.0792  0.0307
17344SOL    HW257995   3.631   5.637   0.957  0.7341 -0.5837  0.1846
17345SOL     OW57996   3.798   1.661   2.638 -0.0113 -0.2889 -0.6404
17345SOL    HW157997   3.707   1.632   2.645  0.0507 -0.5656 -0.9397
17345SOL    HW257998   3.796   1.728   2.569 -0.3162  1.1377  0.6815
17346SOL     OW57999   5.367   3.087   3.852 -0.1998 -0.1567 -0.4943
17346SOL    HW158000   5.421   3.132   3.788 -0.2800  1.4825  0.5191
17346SOL    HW258001   5.289   3.060   3.804  0.2760 -0.0199 -1.3449
17347SOL     OW58002   7.085   5.960   8.324 -0.2395 -0.0196 -0.0356
17347SOL    HW158003   7.166   5.991   8.363  0.5392 -0.5746 -1.1438
17347SOL    HW258004   7.051   6.036   8.276 -0.1023  0.0725  0.0137
17348SOL     OW58005   9.213   1.069   2.273 -0.4786 -0.4293  0.0191
17348SOL    HW158006   9.129   1.080   2.228 -0.7022 -0.2491  0.4753
17348SOL    HW258007   9.241   1.158   2.294  0.0462 -0.4567 -0.5144
17349SOL     OW58008   7.333   3.273   2.487  0.3015  0.0634 -0.3578
17349SOL    HW158009   7.399   3.341   2.483 -0.2952  0.6604 -0.2560
17349SOL    HW258010   7.258   3.315   2.530 -1.0554  0.1737 -2.6371
17350SOL     OW58011   3.574   3.600   8.480  0.3319 -0.3855  0.0380
17350SOL    HW158012   3.510   3.654   8.435 -0.7303 -0.3564  1.5446
17350SOL    HW258013   3.587   3.525   8.421  0.7795  0.7736 -1.4070
17351SOL     OW58014   4.777   0.107   3.112 -0.0302  0.0937  0.2902
17351SOL    HW158015   4.814   0.038   3.056  1.5067  0.6947  0.5365
17351SOL    HW258016   4.801   0.080   3.201 -4.7224 -2.3172  1.1564
17352SOL     OW58017   3.175   9.081   2.269  0.2053  0.1353 -0.6138
17352SOL    HW158018   3.155   9.173   2.281  0.3013  0.0252  0.5139
17352SOL    HW258019   3.266   9.080   2.241  1.5256  0.2741  3.1627
17353SOL     OW58020   1.693   9.237   7.481 -0.3614  0.6928 -0.1332
17353SOL    HW158021   1.726   9.160   7.527 -0.5602  0.5508 -0.2247
17353SOL    HW258022   1.722   9.224   7.390 -1.1233  0.2993 -0.3278
17354SOL     OW58023   4.387   0.234   6.967 -0.4077  0.2575 -0.9999
17354SOL    HW158024   4.384   0.257   7.060  1.7367  0.0410 -0.8353
17354SOL    HW258025   4.344   0.149   6.962 -0.6750  0.3411 -0.2371
17355SOL     OW58026   7.398   6.362   0.680 -0.0933 -0.0088  0.1972
17355SOL    HW158027   7.420   6.269   0.667  2.3292  0.7807 -2.4433
17355SOL    HW258028   7.337   6.362   0.754 -0.9911 -3.7786 -0.3196
17356SOL     OW58029   6.816   3.414   5.466  0.2999  0.2152 -0.0605
17356SOL    HW158030   6.799   3.360   5.389 -1.5680  0.9706 -0.2312
17356SOL    HW258031   6.805   3.353   5.540 -1.9863  0.3176 -0.2395
17357SOL     OW58032   8.421   0.157   8.259  0.4088 -0.7508  0.5519
17357SOL    HW158033   8.453   0.226   8.200 -0.8531  1.0105  1.7972
17357SOL    HW258034   8.370   0.098   8.203 -0.4593  0.6784 -0.2309
17358SOL     OW58035   5.009   4.057   4.127  0.1031  0.0708 -0.5989
17358SOL    HW158036   5.047   4.111   4.057  0.2840  0.8732  0.1007
17358SOL    HW258037   5.072   3.987   4.140 -0.3721 -0.6303 -1.8677
17359SOL     OW58038   0.652   3.395   4.132 -0.4971  0.1790 -0.4486
17359SOL    HW158039   0.633   3.461   4.198  1.4359  0.6806 -0.3441
17359SOL    HW258040   0.590   3.324   4.150  2.4717 -1.6883  4.7398
17360SOL     OW58041   9.054   7.831   3.803  0.2246  0.2006  0.2927
17360SOL    HW158042   9.056   7.874   3.888 -3.1886  1.7302 -0.2665
17360SOL    HW258043   9.014   7.746   3.820 -0.6506  0.5901  0.1964
17361SOL     OW58044   8.887   5.255   5.974 -0.1275  0.0163  0.5234
17361SOL    HW158045   8.932   5.172   5.956 -0.0988  0.4721 -1.7817
17361SOL    HW258046   8.954   5.309   6.016  0.3165 -0.6154  0.6444
17362SOL     OW58047   6.758   9.090   5.022 -0.0246  0.4577 -0.2899
17362SOL    HW158048   6.753   9.186   5.017 -1.4417  0.3682 -1.2168
17362SOL    HW258049   6.819   9.073   5.093  0.1065  2.0574  0.0194
17363SOL     OW58050   1.736   7.536   5.724  0.0370  0.5562  0.3417
17363SOL    HW158051   1.690   7.452   5.731  2.7161 -1.0045  0.7691
17363SOL    HW258052   1.708   7.571   5.640 -0.9379 -0.9207 -0.0003
17364SOL     OW58053   4.077   3.924   2.948 -0.5563 -0.2488 -0.3142
17364SOL    HW158054   4.149   3.943   2.888 -1.8374 -1.6111 -2.4198
17364SOL    HW258055   4.038   4.009   2.967  0.4560  0.2994 -0.6119
17365SOL     OW58056   6.984   4.962   0.688 -0.3409  0.6448 -0.4451
17365SOL    HW158057   7.054   4.907   0.653 -1.4263 -1.4304  0.4641
17365SOL    HW258058   7.029   5.030   0.738  1.0330  0.1854 -1.0195
17366SOL     OW58059   3.942   8.638   2.774 -0.5750 -0.0355 -0.1300
17366SOL    HW158060   4.034   8.660   2.789 -0.8181 -0.0808  1.6637
17366SOL    HW258061   3.936   8.545   2.798 -1.2023  0.1344  0.3891
17367SOL     OW58062   4.659   7.430   8.067 -0.1988  0.0782  0.1644
17367SOL    HW158063   4.600   7.385   8.127 -1.0795 -1.0492 -1.4729
17367SOL    HW258064   4.696   7.360   8.013 -1.9583  1.2027 -2.7665
17368SOL     OW58065   7.089   6.973   6.860  0.2766  0.6986 -0.4527
17368SOL    HW158066   7.044   6.889   6.863 -1.1505  1.4430  0.2215
17368SOL    HW258067   7.100   6.997   6.952  2.9407  0.1202 -0.5689
17369SOL     OW58068   1.389   0.931   1.913 -0.7700  0.2514  0.3058
17369SOL    HW158069   1.452   1.002   1.901 -0.6476  0.2832  1.0424
17369SOL    HW258070   1.314   0.972   1.956 -0.5171 -0.1321  1.1484
17370SOL     OW58071   3.806   3.357   2.929  0.2380 -0.0700 -0.2864
17370SOL    HW158072   3.812   3.412   3.007 -1.1328  0.1055 -0.2791
17370SOL    HW258073   3.786   3.418   2.857  0.8151 -0.3111 -0.6598
17371SOL     OW58074   3.366   0.046   0.655 -0.2430  0.0019  0.5270
17371SOL    HW158075   3.302  -0.012   0.695 -0.8276 -0.2789 -0.7657
17371SOL    HW258076   3.451   0.013   0.684 -0.6285 -0.5890  0.9878
17372SOL     OW58077   2.626   8.925   8.003 -0.2804  0.2945 -0.1821
17372SOL    HW158078   2.696   8.989   7.990  0.1151 -0.1906 -0.4539
17372SOL    HW258079   2.568   8.966   8.067  0.5425  0.4706  0.4639
17373SOL     OW58080   7.718   8.616   0.138 -0.5628 -0.3019 -0.1381
17373SOL    HW158081   7.646   8.658   0.186  0.0693 -0.9330  1.4149
17373SOL    HW258082   7.702   8.522   0.148  0.0630 -0.4401 -0.4288
17374SOL     OW58083   5.455   5.260   7.162 -0.2358 -0.1659  0.0890
17374SOL    HW158084   5.539   5.297   7.137 -0.7195  1.2115  0.4094
17374SOL    HW258085   5.448   5.278   7.256 -1.3563  0.7475 -0.1413
17375SOL     OW58086   2.251   9.173   5.703  0.3666 -0.2062 -0.0814
17375SOL    HW158087   2.339   9.207   5.684  0.4983 -0.9977 -0.9964
17375SOL    HW258088   2.192   9.237   5.664  0.6283 -1.7549 -3.3926
17376SOL     OW58089   6.395   3.397   1.302  0.4523  0.0539  0.2501
17376SOL    HW158090   6.368   3.489   1.310 -1.7955 -0.5089 -0.1521
17376SOL    HW258091   6.358   3.355   1.380  1.2668 -0.5656  0.3153
17377SOL     OW58092   9.045   9.282   3.561  0.2521 -0.3924 -0.3711
17377SOL    HW158093   9.074   9.191   3.553  1.5827  0.0975 -1.4916
17377SOL    HW258094   9.076   9.325   3.482 -0.6562  0.9818 -0.0339
17378SOL     OW58095   0.537   0.708   0.313  0.8010  0.3817  0.1052
17378SOL    HW158096   0.619   0.659   0.302  0.6384 -0.2796  1.5958
17378SOL    HW258097   0.469   0.640   0.315  0.2294  0.9081 -0.8562
17379SOL     OW58098   4.955   3.826   3.011  1.2537 -0.3963 -0.3619
17379SOL    HW158099   4.981   3.918   3.018 -0.7688  0.1875  0.1076
17379SOL    HW258100   4.926   3.803   3.100  1.0927 -1.2666 -0.6336
17380SOL     OW58101   1.935   5.019   0.695  0.0085  0.1664 -0.2124
17380SOL    HW158102   1.890   4.936   0.681  0.9471 -0.0820 -2.1293
17380SOL    HW258103   1.998   5.000   0.765  0.2373 -0.7601 -0.6513
17381SOL     OW58104   6.542   2.059   1.415  0.3368 -0.2669 -0.1393
17381SOL    HW158105   6.476   2.122   1.444 -1.3259 -1.0332 -2.0161
17381SOL    HW258106   6.590   2.104   1.345  0.8965 -0.2116  0.2675
17382SOL     OW58107   1.072   6.073   1.080  0.6168 -0.3191  0.1693
17382SOL    HW158108   1.072   6.106   0.990 -0.8474 -1.2618 -0.2077
17382SOL    HW258109   0.988   6.028   1.090  1.0080 -0.7751  1.8185
17383SOL     OW58110   6.980   5.273   0.528 -0.3969  0.6453  0.0958
17383SOL    HW158111   6.904   5.214   0.531 -0.0186  0.1697  0.6356
17383SOL    HW258112   7.055   5.214   0.519  0.0363  1.0050  1.2163
17384SOL     OW58113   6.701   3.356   0.598 -0.3773  0.3571 -0.1213
17384SOL    HW158114   6.676   3.316   0.681 -0.7119  0.4389 -0.1807
17384SOL    HW258115   6.647   3.434   0.591  1.9429  2.1673  1.0942
17385SOL     OW58116   0.521   6.581   7.017  0.4681  0.0744  0.4354
17385SOL    HW158117   0.498   6.586   6.924  1.9003 -1.4032 -0.0410
17385SOL    HW258118   0.500   6.669   7.051  0.6017  0.8842 -1.4276
17386SOL     OW58119   8.742   4.670   0.170  0.3056  0.6790 -0.0882
17386SOL    HW158120   8.726   4.698   0.261  1.1202  1.6148 -0.2145
17386SOL    HW258121   8.680   4.720   0.118 -0.6737 -0.4029  0.0005
17387SOL     OW58122   2.034   5.265   5.652 -0.4385  0.4755 -0.4477
17387SOL    HW158123   2.021   5.175   5.681 -0.2599  0.9454  1.2186
17387SOL    HW258124   2.020   5.262   5.558 -1.7953 -1.0344 -0.2496
17388SOL     OW58125   0.622   4.949   0.652 -0.2691 -0.0237 -0.2775
17388SOL    HW158126   0.613   4.860   0.618 -1.0034  0.0325 -0.2388
17388SOL    HW258127   0.706   4.949   0.697  0.8027 -0.0742 -2.1687
17389SOL     OW58128   1.135   1.484   3.399 -0.5514  0.2048  0.1241
17389SOL    HW158129   1.193   1.490   3.323  1.4148  1.3838  1.6335
17389SOL    HW258130   1.114   1.575   3.420  0.0017 -0.0217  1.7583
17390SOL     OW58131   3.306   4.477   1.220  0.3754  0.4334 -0.0087
17390SOL    HW158132   3.226   4.443   1.179  0.5486  0.0493 -0.0271
17390SOL    HW258133   3.350   4.526   1.151  0.8512 -0.5188 -0.3891
17391SOL     OW58134   4.870   5.145   0.855  0.2512 -0.3604  0.2126
17391SOL    HW158135   4.910   5.149   0.768  2.1928  0.3697  1.0926
17391SOL    HW258136   4.796   5.085   0.844  0.7911 -0.7429 -1.7959
17392SOL     OW58137   1.388   7.891   2.889  0.2684 -0.4942 -0.3086
17392SOL    HW158138   1.332   7.922   2.818  0.7922 -1.5630 -1.2284
17392SOL    HW258139   1.477   7.894   2.853  0.8885  1.4293  1.2085
17393SOL     OW58140   9.258   2.999   7.744 -0.0182  0.4212 -0.6229
17393SOL    HW158141   9.165   3.019   7.739 -0.6115 -1.8265  0.4922
17393SOL    HW258142   9.282   3.015   7.835  0.7807  1.1753 -0.9375
17394SOL     OW58143   3.960   6.888   2.568  0.6523  0.0292  0.7070
17394SOL    HW158144   3.966   6.834   2.489 -2.8720  0.7331 -0.2504
17394SOL    HW258145   3.944   6.825   2.638  1.2559 -0.4392  0.4372
17395SOL     OW58146   0.123   0.064   6.865 -0.4030  0.0595  0.0629
17395SOL    HW158147   0.075   0.031   6.941 -1.3235 -0.6732 -0.8060
17395SOL    HW258148   0.155   0.150   6.892 -2.9343  0.9714  0.4355
17396SOL     OW58149   6.032   1.357   1.076 -0.0707 -0.0309  0.5682
17396SOL    HW158150   6.126   1.366   1.059 -0.1414  0.0235  0.1904
17396SOL    HW258151   6.027   1.300   1.153  0.2827  0.3448  0.8691
17397SOL     OW58152   5.938   4.767   4.036  0.4001 -0.0928  0.3591
17397SOL    HW158153   5.968   4.843   3.986 -1.2699  0.4499  0.0917
17397SOL    HW258154   5.928   4.800   4.125 -1.0099  0.2297  0.1021
17398SOL     OW58155   6.432   9.340   1.694  0.0114 -0.5018 -0.2327
17398SOL    HW158156   6.380   9.324   1.615  0.7216  0.5321 -0.9342
17398SOL    HW258157   6.368   9.361   1.762 -0.5897 -1.1290 -0.5942
17399SOL     OW58158   7.816   4.332   4.657 -0.2778  0.7504 -0.7119
17399SOL    HW158159   7.727   4.305   4.634  0.2340 -1.4474 -0.3360
17399SOL    HW258160   7.829   4.414   4.609 -2.2537  0.7836 -1.3007
17400SOL     OW58161   5.264   1.012   0.043 -0.4011  0.3964  0.0288
17400SOL    HW158162   5.279   1.006  -0.052 -0.1064 -1.8356  0.1481
17400SOL    HW258163   5.194   0.949   0.060 -0.5919  0.9162  1.2792
17401SOL     OW58164   0.677   6.273   4.903 -0.0338 -0.0944 -0.2263
17401SOL    HW158165   0.620   6.333   4.952  0.5810  1.2918 -1.1348
17401SOL    HW258166   0.721   6.222   4.970 -0.6983  0.3582  0.5796
17402SOL     OW58167   0.104   1.653   4.354  0.5376  0.1359 -0.2602
17402SOL    HW158168   0.019   1.657   4.397 -0.1497 -1.5134 -1.3854
17402SOL    HW258169   0.118   1.742   4.320  0.6766  1.2506  2.3972
17403SOL     OW58170   7.439   8.983   2.037 -0.2160 -0.0038  0.2640
17403SOL    HW158171   7.464   8.895   2.065  0.8330  0.0186 -0.5632
17403SOL    HW258172   7.390   9.019   2.112  1.2635 -0.4663  1.5011
17404SOL     OW58173   0.731   7.670   3.202  0.3849  0.2619 -0.1368
17404SOL    HW158174   0.726   7.610   3.127  1.7452 -0.7461  0.5190
17404SOL    HW258175   0.695   7.619   3.275  1.7148  0.1324  0.4639
17405SOL     OW58176   5.929   8.935   7.324 -0.0952  0.6897  0.6733
17405SOL    HW158177   5.878   9.015   7.323  0.3074  0.9702  1.4111
17405SOL    HW258178   5.870   8.868   7.290 -1.1025  0.9296  1.8587
17406SOL     OW58179   4.419   4.378   1.635 -0.3680 -0.3820  0.6492
17406SOL    HW158180   4.430   4.348   1.725  0.0350 -1.7371  0.1676
17406SOL    HW258181   4.469   4.460   1.631 -1.1232  0.1639  1.8732
17407SOL     OW58182   8.773   3.044   1.823 -0.1406  0.2225 -0.7214
17407SOL    HW158183   8.795   3.137   1.818 -1.2570  0.6305  0.8971
17407SOL    HW258184   8.726   3.026   1.742  2.3343  0.3492 -2.2905
17408SOL     OW58185   8.509   7.522   1.801  0.2015 -0.4899 -0.3755
17408SOL    HW158186   8.418   7.495   1.788  0.8504 -1.8129 -2.6453
17408SOL    HW258187   8.534   7.483   1.884 -0.6174 -2.1970 -0.8816
17409SOL     OW58188   7.131   1.906   8.025  0.3550  0.3745  0.0627
17409SOL    HW158189   7.058   1.935   7.970  0.8056  1.9298  0.2306
17409SOL    HW258190   7.091   1.858   8.096 -0.4164  0.2922 -0.4165
17410SOL     OW58191   2.257   0.951   3.932 -0.4279 -0.0602  0.2027
17410SOL    HW158192   2.304   0.882   3.980  2.0587  0.8948 -0.6952
17410SOL    HW258193   2.251   0.918   3.843 -1.6183 -0.2009  0.3206
17411SOL     OW58194   6.334   9.046   8.190 -0.2133  0.6106  0.1269
17411SOL    HW158195   6.372   8.999   8.115 -1.2915  0.6812 -0.4864
17411SOL    HW258196   6.369   9.001   8.267  2.7042  1.8899 -0.3133
17412SOL     OW58197   2.255   8.334   4.281  0.5543  0.0809 -0.0378
17412SOL    HW158198   2.168   8.349   4.318  1.7394 -0.0575  3.1178
17412SOL    HW258199   2.260   8.394   4.206 -1.6783  1.2510  0.6668
17413SOL     OW58200   2.875   2.906   5.174 -0.3260  0.1929  0.0872
17413SOL    HW158201   2.940   2.847   5.134 -0.0503  0.3062  0.3602
17413SOL    HW258202   2.863   2.975   5.109 -0.8027 -0.2605 -0.3239
17414SOL     OW58203   6.577   0.285   6.978  0.4624 -0.1781 -0.0464
17414SOL    HW158204   6.555   0.363   6.928 -2.4888 -0.3768  0.7486
17414SOL    HW258205   6.637   0.316   7.046  1.3332  0.8517 -1.2457
17415SOL     OW58206   7.619   2.403   0.510 -0.1571  0.3945 -0.2468
17415SOL    HW158207   7.603   2.463   0.583 -2.3826  1.0245 -1.1758
17415SOL    HW258208   7.571   2.324   0.533  0.7907 -0.1681 -0.1403
17416SOL     OW58209   8.784   8.369   3.487 -0.1013 -0.0221 -0.1986
17416SOL    HW158210   8.725   8.444   3.472 -1.1583 -0.5716  1.0461
17416SOL    HW258211   8.850   8.402   3.548  0.3108  0.2925 -0.7949
17417SOL     OW58212   4.873   4.258   4.291 -0.4981 -0.3254  0.6525
17417SOL    HW158213   4.918   4.209   4.222 -2.8571 -0.2645 -1.0359
17417SOL    HW258214   4.872   4.198   4.366  1.4787 -0.6635  0.4727
17418SOL     OW58215   6.392   6.040   5.451  0.8676  0.2104  0.0190
17418SOL    HW158216   6.389   6.133   5.470 -2.2419  0.2624 -0.0929
17418SOL    HW258217   6.401   5.997   5.536  1.4008  0.5882  0.1545
17419SOL     OW58218   6.638   1.065   3.358  0.1400 -0.3682 -0.4473
17419SOL    HW158219   6.579   1.084   3.285  1.0167 -0.7470 -1.2766
17419SOL    HW258220   6.594   0.996   3.407 -0.3817 -0.2247 -0.7040
17420SOL     OW58221   1.922   6.370   2.824 -0.3439 -0.0577 -0.0339
17420SOL    HW158222   1.968   6.338   2.746 -0.3209 -0.4652  0.1467
17420SOL    HW258223   1.869   6.442   2.791  1.0290  0.9750 -0.1098
17421SOL     OW58224   8.143   2.164   2.861  0.2099  0.3079  0.2599
17421SOL    HW158225   8.148   2.139   2.953  1.0590  0.1614  0.1868
17421SOL    HW258226   8.124   2.082   2.815  0.2244  0.3017  0.2651
17422SOL     OW58227   0.292   1.188   5.505 -0.5518 -0.1400 -0.5237
17422SOL    HW158228   0.259   1.128   5.572  1.5661 -0.1942  0.5480
17422SOL    HW258229   0.286   1.275   5.546  3.0628 -0.3858  0.9058
17423SOL     OW58230   0.744   6.976   1.682 -0.1509  0.5499 -0.1471
17423SOL    HW158231   0.826   6.936   1.652  0.2226  0.9686  0.3077
17423SOL    HW258232   0.755   7.069   1.665 -1.1050  0.4638 -1.3916
17424SOL     OW58233   2.289   4.734   4.846  0.0754  0.2173  0.1320
17424SOL    HW158234   2.216   4.775   4.892 -0.4282  0.6281 -1.0017
17424SOL    HW258235   2.363   4.791   4.863 -0.2427  0.6912 -0.0370
17425SOL     OW58236   2.930   1.936   5.832 -0.4672 -0.2447 -0.5804
17425SOL    HW158237   2.930   2.030   5.852 -2.2763 -0.6981  1.9386
17425SOL    HW258238   2.961   1.894   5.912  0.2744 -1.8272 -1.6550
17426SOL     OW58239   3.168   2.636   9.100  0.2450  0.1847 -0.8403
17426SOL    HW158240   3.243   2.687   9.130 -0.2638  0.7157 -0.4548
17426SOL    HW258241   3.167   2.560   9.158 -0.4856  0.9993  0.2689
17427SOL     OW58242   5.473   0.730   4.552 -0.2565  0.2730 -0.0930
17427SOL    HW158243   5.420   0.774   4.485 -0.9867 -0.4523 -0.0111
17427SOL    HW258244   5.563   0.759   4.534 -0.3317 -0.4024 -1.8155
17428SOL     OW58245   1.511   4.632   1.532  0.0403 -0.0059  0.2032
17428SOL    HW158246   1.491   4.717   1.572 -0.2543 -0.1310  0.3295
17428SOL    HW258247   1.481   4.568   1.597 -2.6786 -0.2720 -1.1682
17429SOL     OW58248   1.238   4.247   8.546  0.3216 -0.4575  0.9404
17429SOL    HW158249   1.280   4.200   8.618  1.3158 -1.1877 -0.0721
17429SOL    HW258250   1.266   4.200   8.467  1.0329  1.5669 -0.0946
17430SOL     OW58251   0.465   4.871   9.237  0.5071  0.4415  0.0801
17430SOL    HW158252   0.542   4.923   9.259  0.4896  0.5271 -0.0617
17430SOL    HW258253   0.472   4.855   9.143  1.1067 -0.7748  0.3127
17431SOL     OW58254   3.881   7.203   4.648  0.6909  0.0511 -0.2638
17431SOL    HW158255   3.918   7.132   4.596 -0.0601 -1.4610  1.1893
17431SOL    HW258256   3.873   7.167   4.737 -0.8979  1.5068  0.2511
17432SOL     OW58257   8.576   2.284   0.378  1.0197  0.2486  0.0005
17432SOL    HW158258   8.490   2.311   0.344  0.4602 -0.9770  0.3523
17432SOL    HW258259   8.622   2.250   0.301  1.5305  1.6810 -0.3447
17433SOL     OW58260   4.770   2.868   4.400  0.3420 -0.3487 -0.5412
17433SOL    HW158261   4.732   2.800   4.456  0.6321  0.0087  0.0957
17433SOL    HW258262   4.865   2.862   4.416  0.3516  0.3523 -0.3055
17434SOL     OW58263   7.332   9.018   8.844  0.5816 -0.2761  0.2169
17434SOL    HW158264   7.427   9.022   8.831  0.5839 -1.2781 -0.1419
17434SOL    HW258265   7.304   8.940   8.797 -0.7193  1.1083 -1.4260
17435SOL     OW58266   3.591   0.167   1.020 -0.4454  0.6110  0.5482
17435SOL    HW158267   3.679   0.148   1.051 -0.2001 -2.3873 -1.4995
17435SOL    HW258268   3.604   0.223   0.943  0.0411 -1.8454 -1.2966
17436SOL     OW58269   8.916   8.840   1.280 -0.0218  0.4269 -0.3914
17436SOL    HW158270   8.906   8.912   1.218 -0.1016  0.9357  0.2052
17436SOL    HW258271   8.877   8.764   1.235 -0.2934  0.8419 -0.8646
17437SOL     OW58272   1.559   3.545   0.428  0.7838  0.0098 -0.1442
17437SOL    HW158273   1.472   3.581   0.412  1.3487  0.3452 -2.8567
17437SOL    HW258274   1.619   3.608   0.388  2.2915 -0.3738  1.3885
17438SOL     OW58275   7.016   3.213   7.937 -0.1191  0.4721 -0.1376
17438SOL    HW158276   7.091   3.166   7.899  0.1128  1.1602 -0.5504
17438SOL    HW258277   7.048   3.302   7.948 -1.0981  0.9362 -0.9504
17439SOL     OW58278   7.197   3.821   8.589  0.1228  0.3370 -0.4846
17439SOL    HW158279   7.282   3.833   8.631  1.2080 -3.0561 -1.3743
17439SOL    HW258280   7.208   3.855   8.501  0.5441  0.0431 -0.5497
17440SOL     OW58281   4.479   6.552   5.802  0.5038  0.6943 -0.5907
17440SOL    HW158282   4.434   6.636   5.802 -2.0592 -0.5646  0.3880
17440SOL    HW258283   4.415   6.491   5.764  1.9009 -0.9962 -0.3683
17441SOL     OW58284   7.896   6.715   1.043  0.1626 -0.3413 -0.0817
17441SOL    HW158285   7.980   6.762   1.039  0.9319 -1.7401 -1.1365
17441SOL    HW258286   7.882   6.697   1.136  0.7515  0.3797  0.1531
17442SOL     OW58287   0.381   0.667   7.695 -0.3353  0.1486 -0.1570
17442SOL    HW158288   0.476   0.655   7.691 -0.0097  1.8165  1.4927
17442SOL    HW258289   0.345   0.579   7.683  1.4787 -0.8046  1.0673
17443SOL     OW58290   0.119   3.403   0.506 -0.5179 -0.6054  0.6405
17443SOL    HW158291   0.110   3.337   0.437  0.2354  0.4834 -0.5655
17443SOL    HW258292   0.099   3.486   0.462  0.4762  0.1817  1.6055
17444SOL     OW58293   4.380   0.220   1.772  0.8256 -0.3947  0.3809
17444SOL    HW158294   4.441   0.151   1.799 -0.3117 -1.9305 -0.7766
17444SOL    HW258295   4.387   0.222   1.676 -0.8417 -0.5655  0.2254
17445SOL     OW58296   6.853   3.746   5.785  0.0070 -0.2194 -0.0849
17445SOL    HW158297   6.794   3.792   5.725 -0.4489 -0.2767  0.3127
17445SOL    HW258298   6.937   3.745   5.739 -0.9821 -2.9132 -2.1178
17446SOL     OW58299   1.603   6.612   5.396 -0.3891 -0.2134 -0.1130
17446SOL    HW158300   1.521   6.587   5.439 -0.3970 -1.0175 -0.5784
17446SOL    HW258301   1.653   6.531   5.391 -0.2280 -0.0563 -1.2576
17447SOL     OW58302   4.074   4.719   8.612 -0.0463  0.5383  0.1018
17447SOL    HW158303   4.069   4.792   8.674 -3.1485 -0.3087  1.0503
17447SOL    HW258304   4.103   4.644   8.665 -1.3676  0.1198  0.2748
17448SOL     OW58305   1.549   1.786   5.179 -0.2367 -0.3962 -0.1368
17448SOL    HW158306   1.464   1.795   5.221  0.1606 -0.8122  0.7991
17448SOL    HW258307   1.611   1.785   5.252  0.6621  0.8173 -0.8401
17449SOL     OW58308   3.008   5.346   6.474 -0.4229  0.0987 -0.0799
17449SOL    HW158309   2.993   5.436   6.503  0.2077  0.1469  0.1099
17449SOL    HW258310   3.041   5.301   6.552  0.6522  0.0634 -0.5369
17450SOL     OW58311   4.186   7.215   0.632 -0.7095 -0.1423 -0.0464
17450SOL    HW158312   4.261   7.250   0.679 -2.0280  2.0947  0.5212
17450SOL    HW258313   4.129   7.290   0.618 -2.7528 -1.7205 -0.6602
17451SOL     OW58314   4.966   8.085   8.601  0.2354  0.3338 -0.4116
17451SOL    HW158315   4.895   8.025   8.624  1.8151 -0.9934  1.3180
17451SOL    HW258316   5.045   8.031   8.606  1.7352  2.5168  1.2322
17452SOL     OW58317   7.123   6.075   5.554  0.1923 -0.2561 -0.1095
17452SOL    HW158318   7.206   6.122   5.552  0.2468 -0.3597 -0.3796
17452SOL    HW258319   7.105   6.060   5.647  0.0038  0.5920 -0.0038
17453SOL     OW58320   9.211   2.430   0.742  0.0897  0.6627 -0.0813
17453SOL    HW158321   9.237   2.423   0.834 -0.5029 -1.4528 -0.0202
17453SOL    HW258322   9.117   2.414   0.743  0.0385  0.8932 -1.0191
17454SOL     OW58323   3.776   9.170   0.105 -0.3647  0.0912  0.0723
17454SOL    HW158324   3.718   9.179   0.029  0.3765  1.5964 -0.3523
17454SOL    HW258325   3.844   9.109   0.077  0.6329  1.6230 -0.9787
17455SOL     OW58326   8.632   5.602   4.863 -0.2354  0.9256  0.1925
17455SOL    HW158327   8.656   5.693   4.880 -2.4490  1.4896  0.6141
17455SOL    HW258328   8.539   5.597   4.883 -0.6029 -0.9983 -1.5574
17456SOL     OW58329   5.435   2.256   0.153 -0.2092 -0.1015 -0.5205
17456SOL    HW158330   5.417   2.325   0.217 -2.1858  0.3935 -1.5515
17456SOL    HW258331   5.375   2.273   0.081 -2.2718 -4.0493  0.0060
17457SOL     OW58332   8.344   3.043   6.369 -0.4859 -0.2261 -0.4538
17457SOL    HW158333   8.435   3.055   6.396 -0.7133  1.7193 -0.4170
17457SOL    HW258334   8.304   3.129   6.378 -1.3219 -0.0066 -4.2852
17458SOL     OW58335   3.999   8.586   8.176  0.1171  0.1816  0.3942
17458SOL    HW158336   4.003   8.670   8.222  2.6158  0.5485 -0.3667
17458SOL    HW258337   4.006   8.520   8.245 -0.0364  0.6310  0.8420
17459SOL     OW58338   8.356   1.368   5.215  0.0048 -0.0746 -0.1073
17459SOL    HW158339   8.401   1.421   5.280  1.0073  0.7197 -1.3985
17459SOL    HW258340   8.378   1.278   5.238 -2.4177 -0.1278  2.6386
17460SOL     OW58341   8.736   1.400   2.474  0.2889  0.0679 -0.0565
17460SOL    HW158342   8.694   1.486   2.476 -2.4194 -1.1375 -0.8288
17460SOL    HW258343   8.765   1.385   2.564 -0.1379  1.3505  0.3136
17461SOL     OW58344   2.175   8.972   0.565 -0.5147 -0.1636  0.4359
17461SOL    HW158345   2.182   8.948   0.657 -0.3714  0.8197  0.6869
17461SOL    HW258346   2.169   8.888   0.519  2.1227 -0.7806  1.0992
17462SOL     OW58347   8.433   2.653   6.410 -0.3745  0.0662 -0.1289
17462SOL    HW158348   8.410   2.597   6.484  0.2966  0.5880  0.4972
17462SOL    HW258349   8.491   2.719   6.448  0.3186  0.1014 -1.2054
17463SOL     OW58350   1.489   4.242   3.578  0.1028  0.3934  0.1805
17463SOL    HW158351   1.522   4.313   3.633 -0.7013 -0.3740  1.7225
17463SOL    HW258352   1.396   4.262   3.566 -0.5749 -1.2574  2.1424
17464SOL     OW58353   3.824   3.547   3.701 -0.3899 -0.5522  0.0849
17464SOL    HW158354   3.799   3.630   3.662 -0.6263  0.2339  1.8281
17464SOL    HW258355   3.913   3.531   3.669 -0.5444  0.1008 -0.6770
17465SOL     OW58356   5.531   3.039   9.238  0.3944  0.2168 -0.3159
17465SOL    HW158357   5.524   3.117   9.293 -0.6858  0.8870 -1.3512
17465SOL    HW258358   5.441   3.010   9.226  0.8344 -1.7752  0.8127
17466SOL     OW58359   5.196   7.437   7.005 -0.1114  0.8043  0.0764
17466SOL    HW158360   5.188   7.527   7.036 -1.9063  1.1155 -1.0908
17466SOL    HW258361   5.107   7.402   7.013 -0.4811  0.5600 -3.4453
17467SOL     OW58362   3.229   1.149   6.841  0.1888  0.2482 -0.4905
17467SOL    HW158363   3.324   1.151   6.848  0.1633  2.5340  0.2953
17467SOL    HW258364   3.212   1.165   6.748  0.6083  0.9774 -0.4565
17468SOL     OW58365   1.385   5.954   2.247 -0.5464 -0.0005  0.6290
17468SOL    HW158366   1.412   6.028   2.192 -1.1142  0.5330  1.0556
17468SOL    HW258367   1.459   5.894   2.244  0.2893  0.9907  1.0063
17469SOL     OW58368   5.892   5.668   5.831  0.2600  0.6378  0.0382
17469SOL    HW158369   5.929   5.589   5.792  2.0972  1.0378  0.8516
17469SOL    HW258370   5.896   5.652   5.926  0.2522  1.5325  0.1982
17470SOL     OW58371   0.364   8.493   5.191  0.5575 -0.2076  0.1299
17470SOL    HW158372   0.365   8.455   5.103  0.7951 -0.6961  0.3389
17470SOL    HW258373   0.330   8.423   5.247  0.0608  0.2215  0.3734
17471SOL     OW58374   0.170   8.569   6.154  0.0185 -0.3328 -0.2219
17471SOL    HW158375   0.088   8.603   6.189  0.4955 -0.3629  0.9713
17471SOL    HW258376   0.144   8.511   6.082 -0.8663  1.7875 -1.7126
17472SOL     OW58377   4.283   5.866   0.795  0.3380 -0.5745  0.2395
17472SOL    HW158378   4.274   5.914   0.877 -0.6023  2.3778 -1.4258
17472SOL    HW258379   4.193   5.850   0.766  0.6340 -0.5261 -0.7656
17473SOL     OW58380   6.876   3.276   7.011  0.0373  0.3497 -0.2009
17473SOL    HW158381   6.912   3.305   6.927 -1.7650 -0.7734 -1.4393
17473SOL    HW258382   6.952   3.249   7.062  1.2644  1.9998 -1.0711
17474SOL     OW58383   1.298   4.025   7.671 -0.0800  0.6466  0.1500
17474SOL    HW158384   1.382   4.023   7.718  0.3016 -1.9017 -0.4898
17474SOL    HW258385   1.233   4.004   7.737  0.1868 -0.5683  0.0485
17475SOL     OW58386   5.482   2.571   0.316 -0.4741 -0.0622  0.3502
17475SOL    HW158387   5.400   2.576   0.268  0.0622 -0.7471 -0.6758
17475SOL    HW258388   5.490   2.656   0.359 -0.6996  0.8345 -1.2862
17476SOL     OW58389   7.710   8.520   8.277  0.5191  0.4751  0.0592
17476SOL    HW158390   7.748   8.589   8.222 -0.3957  1.0531  0.1247
17476SOL    HW258391   7.671   8.459   8.216  2.4707 -0.7416 -0.0718
17477SOL     OW58392   6.645   5.511   3.916  0.0553  0.3448 -0.1304
17477SOL    HW158393   6.577   5.445   3.909  2.5428 -2.3884 -0.7346
17477SOL    HW258394   6.695   5.503   3.835  1.1040  2.2806  0.2449
17478SOL     OW58395   0.349   7.829   1.617 -0.1151 -0.5050 -0.8628
17478SOL    HW158396   0.425   7.884   1.600  1.0385 -1.4255  1.0657
17478SOL    HW258397   0.382   7.758   1.672 -1.8408 -2.3866 -2.1118
17479SOL     OW58398   6.504   7.595   2.269  0.3587 -0.4308  0.4239
17479SOL    HW158399   6.419   7.563   2.237 -0.2147  1.8411 -0.5303
17479SOL    HW258400   6.559   7.598   2.191  0.9704 -0.8077  0.8332
17480SOL     OW58401   6.050   1.438   6.421 -0.1800 -0.4853 -0.1372
17480SOL    HW158402   6.078   1.354   6.458  0.1439 -0.3806 -0.1418
17480SOL    HW258403   6.038   1.495   6.497  0.4471 -0.2823 -0.1798
17481SOL     OW58404   9.019   6.657   7.105 -0.0717  0.1095 -0.1902
17481SOL    HW158405   8.958   6.584   7.090  0.9240 -0.5139 -1.4082
17481SOL    HW258406   9.032   6.695   7.018  1.4135  0.1003  0.0067
17482SOL     OW58407   9.081   6.201   2.117  0.3920 -0.6419 -0.1206
17482SOL    HW158408   9.048   6.282   2.157  2.7789  0.0769  0.5645
17482SOL    HW258409   9.061   6.133   2.182  1.7616  0.0634  1.0903
17483SOL     OW58410   8.660   3.246   1.387  0.4872 -0.2932 -0.5774
17483SOL    HW158411   8.636   3.339   1.389 -1.3460 -0.7479  1.2501
17483SOL    HW258412   8.637   3.218   1.298  2.9174  1.3672 -1.8480
17484SOL     OW58413   8.885   5.033   2.042 -0.4307 -0.6180 -0.6144
17484SOL    HW158414   8.919   5.014   2.130 -1.8852  0.9797  0.3499
17484SOL    HW258415   8.858   4.948   2.008  0.8124 -1.3597  0.1821
17485SOL     OW58416   7.762   7.510   8.537 -0.0909  0.4874  0.6629
17485SOL    HW158417   7.796   7.468   8.458  0.2497 -0.9220  1.5120
17485SOL    HW258418   7.676   7.543   8.511 -0.0456 -0.0741 -0.2687
17486SOL     OW58419   4.042   6.397   4.860  0.0898 -0.0598 -0.8336
17486SOL    HW158420   4.054   6.336   4.787 -1.6656 -0.4576 -0.8338
17486SOL    HW258421   3.988   6.467   4.823 -2.1253 -1.0082  0.4020
17487SOL     OW58422   8.616   8.903   4.837 -0.1853 -0.0297 -0.5041
17487SOL    HW158423   8.661   8.986   4.855  0.4661  0.0528 -2.3078
17487SOL    HW258424   8.540   8.904   4.895  1.0558  0.7366  1.2177
17488SOL     OW58425   3.295   6.948   0.200  0.2852 -0.0244  0.0494
17488SOL    HW158426   3.289   6.852   0.208  1.4612  0.0189  2.6322
17488SOL    HW258427   3.216   6.980   0.244  0.1534  0.2038 -0.3502
17489SOL     OW58428   5.183   0.081   2.100  0.1118  0.1655  0.0478
17489SOL    HW158429   5.250   0.050   2.161  0.3101 -1.5726 -0.9809
17489SOL    HW258430   5.195   0.027   2.022 -2.4183 -0.1584 -0.2181
17490SOL     OW58431   3.318   9.007   5.155  0.0245 -0.8181  0.2954
17490SOL    HW158432   3.371   9.068   5.206  0.0382 -0.6357  0.0645
17490SOL    HW258433   3.305   9.051   5.071 -0.9883 -0.6008  0.5571
17491SOL     OW58434   3.659   2.196   9.361 -0.0388 -0.6415  0.4128
17491SOL    HW158435   3.601   2.219   9.289  0.7664 -0.7415 -0.2798
17491SOL    HW258436   3.656   2.272   9.419 -0.0226 -0.2049 -0.1572
17492SOL     OW58437   5.189   8.206   6.648 -0.3246  0.4955  0.2319
17492SOL    HW158438   5.281   8.181   6.647 -0.7465 -1.2131  0.5853
17492SOL    HW258439   5.166   8.209   6.741 -0.8974 -0.2440  0.1241
17493SOL     OW58440   6.517   8.427   0.944  0.1893  0.0322 -0.3376
17493SOL    HW158441   6.585   8.442   0.878  1.1970 -0.2126  0.5998
17493SOL    HW258442   6.566   8.417   1.026 -1.0349  0.4146  0.4600
17494SOL     OW58443   1.175   5.589   2.157 -0.0608  0.4625 -0.1159
17494SOL    HW158444   1.168   5.684   2.172  0.2960  0.6987 -1.2848
17494SOL    HW258445   1.129   5.575   2.074  1.1817 -0.1367 -0.7319
17495SOL     OW58446   6.885   2.601   8.153  0.1838  0.2672 -0.2194
17495SOL    HW158447   6.949   2.662   8.116  0.5989  1.1851  1.8435
17495SOL    HW258448   6.805   2.618   8.103  0.6986  1.4400 -0.7000
17496SOL     OW58449   7.430   0.524   4.178  0.1582 -0.2972 -0.1389
17496SOL    HW158450   7.480   0.547   4.100  1.7820  3.1049  1.6449
17496SOL    HW258451   7.340   0.513   4.147  0.4830  2.2453 -2.3994
17497SOL     OW58452   3.499   2.251   7.399  0.0382  0.0461 -0.0967
17497SOL    HW158453   3.537   2.257   7.312  2.1383  2.4637  0.8675
17497SOL    HW258454   3.573   2.262   7.459 -1.7088  1.6489  1.9535
17498SOL     OW58455   9.189   1.002   8.088  0.1071  0.5334  0.7152
17498SOL    HW158456   9.225   1.038   8.168 -0.1729  0.0994  1.0382
17498SOL    HW258457   9.175   0.909   8.106  0.2349  0.3860  0.0973
17499SOL     OW58458   5.410   7.521   3.869  0.7903  0.0346  0.4872
17499SOL    HW158459   5.378   7.605   3.901  0.9491  0.2759  0.0139
17499SOL    HW258460   5.428   7.470   3.949 -0.7124 -0.0920  0.7752
17500SOL     OW58461   0.229   7.333   4.599 -0.0343 -0.0831  0.4664
17500SOL    HW158462   0.317   7.322   4.561 -0.2359 -0.8213  0.2057
17500SOL    HW258463   0.234   7.417   4.646  0.7957 -0.0951  0.4184
17501SOL     OW58464   2.946   2.442   1.955 -0.4232  0.1567 -0.0665
17501SOL    HW158465   2.888   2.395   1.894 -1.7446 -1.2576  2.1517
17501SOL    HW258466   2.895   2.518   1.983 -0.2938  0.1455  0.1980
17502SOL     OW58467   6.034   6.944   6.279 -0.2450  0.6915 -0.1176
17502SOL    HW158468   5.970   6.875   6.258 -1.2875  1.6330 -0.1193
17502SOL    HW258469   6.104   6.931   6.216  0.8467 -1.9507  1.4439
17503SOL     OW58470   2.412   7.659   0.391 -0.3061  0.4243  0.0966
17503SOL    HW158471   2.483   7.662   0.328 -1.3516 -0.5600 -1.1859
17503SOL    HW258472   2.335   7.689   0.343 -1.3329 -1.2892  0.5478
17504SOL     OW58473   0.545   3.951   3.099 -0.3050  0.5031  0.6001
17504SOL    HW158474   0.632   3.967   3.136  0.1691  1.1967 -0.7350
17504SOL    HW258475   0.519   3.866   3.135  0.8151  0.3976  1.2122
17505SOL     OW58476   7.771   9.254   5.025  0.0945  0.1873 -0.4409
17505SOL    HW158477   7.742   9.343   5.003 -0.3801  0.0371 -0.4311
17505SOL    HW258478   7.846   9.239   4.968 -1.3715 -0.3604 -2.3337
17506SOL     OW58479   1.162   7.756   8.588 -0.4532  0.3444  0.1532
17506SOL    HW158480   1.141   7.757   8.681 -0.1706 -2.1906  0.3190
17506SOL    HW258481   1.243   7.807   8.582 -0.6741  0.8552  1.2213
17507SOL     OW58482   1.092   1.097   7.754 -0.0683  0.1783 -0.5492
17507SOL    HW158483   1.181   1.066   7.737  0.6221  0.1937  2.5111
17507SOL    HW258484   1.096   1.191   7.733  0.6012  0.1560 -0.5615
17508SOL     OW58485   9.176   5.116   7.370 -0.3239  0.1209 -0.7658
17508SOL    HW158486   9.087   5.087   7.390 -0.4594  1.6834  1.1846
17508SOL    HW258487   9.192   5.189   7.430  2.7352 -0.9021 -0.1504
17509SOL     OW58488   8.662   1.825   5.024  0.9152  0.5909 -0.4103
17509SOL    HW158489   8.580   1.790   5.057  2.2753 -1.3569  1.1968
17509SOL    HW258490   8.663   1.801   4.932 -0.5821  1.2265 -0.6104
17510SOL     OW58491   5.460   1.679   2.329  0.4768  0.1467  0.3750
17510SOL    HW158492   5.417   1.763   2.350  2.2712  0.8451  1.5426
17510SOL    HW258493   5.457   1.630   2.411 -1.7360 -1.5789 -0.6259
17511SOL     OW58494   0.627   9.020   3.077  0.8424  0.1927  0.0607
17511SOL    HW158495   0.597   8.932   3.098 -0.9167  0.8452  0.5244
17511SOL    HW258496   0.589   9.039   2.991  2.4449 -0.0145 -0.7294
17512SOL     OW58497   0.081   3.273   4.132  0.1114 -0.2683  1.0494
17512SOL    HW158498   0.120   3.249   4.216 -0.3965 -0.7720  1.1498
17512SOL    HW258499   0.053   3.364   4.144  1.4671  0.1919  0.8854
17513SOL     OW58500   1.519   5.983   0.810  0.0407 -0.9447 -0.1257
17513SOL    HW158501   1.600   5.946   0.776 -0.3106 -0.7973 -1.1728
17513SOL    HW258502   1.493   5.923   0.880  1.0022 -1.0389  0.1598
17514SOL     OW58503   3.172   5.673   9.341 -0.4537  0.3197 -0.9674
17514SOL    HW158504   3.147   5.640   9.255  0.4229 -0.6405 -0.8733
17514SOL    HW258505   3.264   5.695   9.332 -0.6986  1.5686 -0.6502
17515SOL     OW58506   0.692   8.635   5.077  0.0949  0.2733  0.0119
17515SOL    HW158507   0.707   8.730   5.078  1.8802  0.0438 -0.7805
17515SOL    HW258508   0.662   8.614   5.166  1.6916  1.3043  0.8365
17516SOL     OW58509   6.351   4.790   1.393  0.3366  0.1055  0.1471
17516SOL    HW158510   6.272   4.770   1.443  0.6084  1.6580  1.2757
17516SOL    HW258511   6.406   4.839   1.453  1.3826  0.6514 -1.1906
17517SOL     OW58512   7.728   2.928   7.808 -0.0324  0.4249  0.9272
17517SOL    HW158513   7.792   2.861   7.830  1.8641  2.0870  0.7627
17517SOL    HW258514   7.647   2.898   7.849  0.2990 -2.6981 -0.4413
17518SOL     OW58515   2.397   6.276   5.642  0.2184  0.0800 -0.1137
17518SOL    HW158516   2.462   6.218   5.681  0.5159 -0.3908 -1.2784
17518SOL    HW258517   2.429   6.364   5.663 -1.2228 -0.0640  3.2937
17519SOL     OW58518   0.331   5.347   6.565 -0.4853 -0.6612  0.6626
17519SOL    HW158519   0.399   5.303   6.514 -0.6446 -0.6297  0.4176
17519SOL    HW258520   0.378   5.411   6.619 -0.3995  0.0501 -0.2223
17520SOL     OW58521   3.920   5.930   8.288 -0.9961  0.1048  0.1353
17520SOL    HW158522   3.957   6.000   8.235 -1.5056 -0.2595 -0.7285
17520SOL    HW258523   3.917   5.965   8.377 -1.5555  1.2882 -0.3397
17521SOL     OW58524   2.823   0.256   7.871 -0.5844 -0.1884  0.3263
17521SOL    HW158525   2.795   0.167   7.891  0.0101  0.0389  2.3977
17521SOL    HW258526   2.744   0.301   7.841 -0.7972 -1.4980 -1.1738
17522SOL     OW58527   5.172   3.183   5.924 -0.1544 -0.1897 -0.4133
17522SOL    HW158528   5.252   3.133   5.938  0.0470 -0.1394 -1.3276
17522SOL    HW258529   5.200   3.274   5.924 -0.2096 -0.1742 -0.7761
17523SOL     OW58530   6.793   1.238   2.322  0.0381  0.0996  0.5078
17523SOL    HW158531   6.842   1.289   2.386  0.8841  1.5894 -1.2160
17523SOL    HW258532   6.752   1.304   2.266 -1.0349 -1.1425 -0.2170
17524SOL     OW58533   0.772   6.779   2.021  0.5147  0.1752 -0.3225
17524SOL    HW158534   0.801   6.860   1.980 -2.0810  2.2155  1.5328
17524SOL    HW258535   0.767   6.716   1.948  3.8168  1.1710 -1.6001
17525SOL     OW58536   2.611   9.327   1.418  0.1971  0.1702  0.0054
17525SOL    HW158537   2.579   9.238   1.431 -2.9344  1.0960 -0.4177
17525SOL    HW258538   2.667   9.322   1.341 -0.2459 -1.3655 -0.2475
17526SOL     OW58539   1.815   7.903   2.485 -0.4315  0.3940  0.5886
17526SOL    HW158540   1.788   7.921   2.395 -2.1872 -2.4404  0.4203
17526SOL    HW258541   1.901   7.862   2.476 -0.6758 -0.0331  0.1749
17527SOL     OW58542   3.352   2.210   2.011  0.0281  0.2948 -0.2505
17527SOL    HW158543   3.281   2.244   1.957 -1.8041 -0.2811  1.6786
17527SOL    HW258544   3.387   2.287   2.056  0.4420  0.5282 -0.9503
17528SOL     OW58545   7.700   2.712   1.449  0.0969 -0.1128  0.1512
17528SOL    HW158546   7.682   2.777   1.381 -0.3244  0.3006  0.6536
17528SOL    HW258547   7.717   2.763   1.528  0.4509 -0.5943  0.3929
17529SOL     OW58548   5.860   7.761   0.414 -0.0624  0.4362  0.1155
17529SOL    HW158549   5.785   7.712   0.380  0.8496 -1.3657  0.5948
17529SOL    HW258550   5.905   7.793   0.336 -0.8200  0.7788 -0.1925
17530SOL     OW58551   1.641   0.022   0.501 -0.0770 -0.5471 -0.5635
17530SOL    HW158552   1.703   0.075   0.552 -0.6647 -0.6530  0.2857
17530SOL    HW258553   1.687  -0.060   0.485  0.3423 -0.2812 -0.7432
17531SOL     OW58554   3.504   1.150   4.376 -0.8179 -0.1604 -0.1583
17531SOL    HW158555   3.573   1.158   4.442 -0.6311  0.0272 -0.3759
17531SOL    HW258556   3.435   1.101   4.420 -0.8440  0.2733  0.2936
17532SOL     OW58557   1.296   5.104   8.903  0.1989 -0.0604  0.0320
17532SOL    HW158558   1.205   5.076   8.914 -0.1107  1.5902  2.5518
17532SOL    HW258559   1.291   5.173   8.836 -0.3695 -0.1517 -0.0288
17533SOL     OW58560   0.414   1.625   3.210 -0.2287 -0.1476  0.3640
17533SOL    HW158561   0.348   1.693   3.219  2.6412  2.9388 -0.1103
17533SOL    HW258562   0.382   1.570   3.139 -2.2421  1.2083  0.1393
17534SOL     OW58563   1.049   7.216   5.705  0.2241  0.7243  0.2704
17534SOL    HW158564   1.024   7.190   5.617  1.3342 -0.7715  0.3647
17534SOL    HW258565   0.967   7.212   5.755 -0.0845 -0.2745 -0.2865
17535SOL     OW58566   8.408   7.605   5.352 -0.2034 -0.4318  0.2596
17535SOL    HW158567   8.487   7.552   5.344  0.1514  0.1637 -0.2773
17535SOL    HW258568   8.439   7.689   5.385 -0.2897  0.5527 -2.0448
17536SOL     OW58569   8.287   4.791   7.750  0.0669  0.0064 -0.0804
17536SOL    HW158570   8.286   4.775   7.845 -0.1961  0.5069  0.0010
17536SOL    HW258571   8.287   4.886   7.741 -0.2593 -0.0383 -0.5910
17537SOL     OW58572   7.950   9.011   3.462 -0.4504  0.1245  0.1387
17537SOL    HW158573   7.871   9.033   3.413 -0.6633 -1.4844 -0.2732
17537SOL    HW258574   8.014   9.077   3.434 -1.1087  0.3409 -0.9275
17538SOL     OW58575   5.958   1.598   1.210 -0.1187  0.3700  0.2570
17538SOL    HW158576   5.963   1.517   1.159  0.0569 -0.1837  1.1244
17538SOL    HW258577   6.048   1.632   1.210 -0.0519  0.1940  0.4720
17539SOL     OW58578   9.120   1.319   5.983  0.2390 -0.3409  0.0543
17539SOL    HW158579   9.182   1.386   5.955 -0.1979 -0.3367 -0.9292
17539SOL    HW258580   9.154   1.288   6.067  1.3218 -0.0278 -0.2604
17540SOL     OW58581   8.755   1.419   2.191 -0.1292  0.0390 -0.4638
17540SOL    HW158582   8.737   1.332   2.155  0.5683 -0.5482  0.5467
17540SOL    HW258583   8.780   1.403   2.282  1.2545  1.1770 -0.6088
17541SOL     OW58584   1.829   1.550   0.975 -0.4745 -0.4085 -0.3562
17541SOL    HW158585   1.806   1.542   1.068 -0.2543 -0.1539 -0.2775
17541SOL    HW258586   1.806   1.641   0.953 -0.1586 -0.3493 -0.4474
17542SOL     OW58587   8.228   1.746   7.489  0.4287  0.0018 -0.1874
17542SOL    HW158588   8.150   1.733   7.543  0.2799 -0.6896 -0.5505
17542SOL    HW258589   8.228   1.840   7.469 -1.1796 -0.2131 -1.4448
17543SOL     OW58590   1.401   6.687   5.872 -0.1322 -0.1331  0.1804
17543SOL    HW158591   1.404   6.717   5.781 -0.9383 -0.1062  0.1508
17543SOL    HW258592   1.461   6.745   5.919  0.5576 -0.3745 -0.3883
17544SOL     OW58593   8.715   5.157   4.595  0.0311  0.2995 -0.3694
17544SOL    HW158594   8.687   5.080   4.645  0.0627 -0.1329 -1.0040
17544SOL    HW258595   8.638   5.214   4.595 -0.0900  0.1424 -0.1446
17545SOL     OW58596   6.868   0.754   7.356  0.3097  0.1387  0.0283
17545SOL    HW158597   6.815   0.831   7.373  0.0101  0.1138 -0.7524
17545SOL    HW258598   6.906   0.770   7.270  1.9096  0.3411  0.7363
17546SOL     OW58599   1.414   4.078   6.457  0.1193 -0.4514  0.2800
17546SOL    HW158600   1.381   4.065   6.368 -0.4934  1.8778  0.1180
17546SOL    HW258601   1.336   4.071   6.512 -0.1563  1.6724  0.2329
17547SOL     OW58602   4.231   0.887   4.522 -0.3596 -0.7697 -0.1507
17547SOL    HW158603   4.148   0.890   4.570  0.2938 -1.2013  1.0389
17547SOL    HW258604   4.293   0.935   4.578 -0.0375  0.5440 -1.5455
17548SOL     OW58605   4.687   3.145   0.919 -0.0782  0.2283  0.8383
17548SOL    HW158606   4.691   3.206   0.992 -1.4962 -0.4872  1.5512
17548SOL    HW258607   4.594   3.137   0.898  0.2120 -0.4314 -0.3260
17549SOL     OW58608   1.607   6.497   7.021  0.4710  0.3250 -0.4732
17549SOL    HW158609   1.631   6.583   6.988  2.0812 -0.6601 -2.1302
17549SOL    HW258610   1.655   6.488   7.103  0.2128  1.0494 -0.2425
17550SOL     OW58611   0.110   5.228   3.547 -0.8619  0.0503  0.4458
17550SOL    HW158612   0.126   5.138   3.576 -0.5318  0.2535  0.9161
17550SOL    HW258613   0.151   5.234   3.461  0.2593  0.1177  0.9753
17551SOL     OW58614   8.431   2.992   0.759  0.4436  1.3697 -0.2541
17551SOL    HW158615   8.432   3.084   0.735  1.0559  1.1213 -1.2182
17551SOL    HW258616   8.486   2.949   0.694 -0.6423  0.1689 -0.4188
17552SOL     OW58617   2.627   7.504   4.759  0.4828  0.0752  0.3047
17552SOL    HW158618   2.614   7.520   4.853 -0.6769  1.4293 -0.0607
17552SOL    HW258619   2.710   7.545   4.739  0.6686 -0.0999  0.7012
17553SOL     OW58620   5.167   5.856   6.880 -0.0705  0.3091  0.0724
17553SOL    HW158621   5.225   5.931   6.863 -0.1893  0.4070  0.0996
17553SOL    HW258622   5.142   5.826   6.793  0.7789 -0.3275  0.0335
17554SOL     OW58623   1.697   6.285   1.181  0.3606 -0.1908  0.1593
17554SOL    HW158624   1.688   6.349   1.251  1.4602  2.4951 -1.9782
17554SOL    HW258625   1.791   6.277   1.166  0.2899 -2.6483  0.5568
17555SOL     OW58626   0.160   6.644   1.876  0.0213  0.4622 -0.0115
17555SOL    HW158627   0.226   6.614   1.938 -0.5626  0.9927  0.8903
17555SOL    HW258628   0.077   6.632   1.923 -0.4875  0.2498 -0.9464
17556SOL     OW58629   3.536   2.469   4.869  0.3036  0.3234 -0.0064
17556SOL    HW158630   3.531   2.507   4.782  0.9242 -0.8904 -0.5918
17556SOL    HW258631   3.445   2.454   4.894  0.1407 -2.2526 -1.8026
17557SOL     OW58632   7.371   7.056   8.928  0.4884  0.0245  0.2500
17557SOL    HW158633   7.416   7.030   8.847 -0.5952  0.8491 -0.6509
17557SOL    HW258634   7.315   7.129   8.902 -0.9518 -0.5986  1.4465
17558SOL     OW58635   6.262   6.032   7.748  0.1151  0.1611 -0.5266
17558SOL    HW158636   6.197   6.005   7.684  1.0344  0.1061 -1.4615
17558SOL    HW258637   6.327   5.962   7.749  0.7330  0.7163 -0.4233
17559SOL     OW58638   8.320   1.018   8.051 -0.1558  0.1841  0.0319
17559SOL    HW158639   8.252   1.076   8.015 -0.7166  0.1391  1.0068
17559SOL    HW258640   8.382   1.077   8.093 -0.6100  0.1083  0.8283
17560SOL     OW58641   2.610   0.261   2.417  0.8096  0.1561 -0.1450
17560SOL    HW158642   2.623   0.253   2.512  0.8560  2.5387  0.1147
17560SOL    HW258643   2.690   0.225   2.379  1.2156  0.0547  0.7755
17561SOL     OW58644   7.810   3.194   8.805  0.6079 -0.3406 -0.3031
17561SOL    HW158645   7.727   3.215   8.762 -0.0952  0.7856  1.4312
17561SOL    HW258646   7.864   3.272   8.792  1.1811 -0.8411 -0.9404
17562SOL     OW58647   7.954   8.877   6.545  0.2307  0.3983 -0.0652
17562SOL    HW158648   7.930   8.970   6.544 -0.2499  0.2766 -0.1078
17562SOL    HW258649   7.878   8.834   6.585 -0.0758 -0.1290 -1.1846
17563SOL     OW58650   4.284   6.346   1.084 -0.8447 -0.1798  0.5342
17563SOL    HW158651   4.295   6.379   0.995  0.6288 -0.4958  0.5672
17563SOL    HW258652   4.190   6.331   1.093 -0.9144 -1.3398 -1.4133
17564SOL     OW58653   0.204   3.715   6.567 -0.3808 -0.0821  0.0050
17564SOL    HW158654   0.188   3.782   6.501  1.7871  0.0346 -0.4681
17564SOL    HW258655   0.117   3.683   6.590 -1.3016  1.1428 -1.5696
17565SOL     OW58656   7.061   5.087   4.384  0.2583 -0.7603 -0.3151
17565SOL    HW158657   7.002   5.016   4.407 -0.8814  0.6244  1.2651
17565SOL    HW258658   7.100   5.114   4.467  0.7737  0.3435 -0.8996
17566SOL     OW58659   3.579   9.299   1.979 -0.8317  0.2692 -0.2250
17566SOL    HW158660   3.599   9.351   1.901 -0.6533  1.1406  0.3869
17566SOL    HW258661   3.665   9.278   2.016 -0.9253  0.1484 -0.0786
17567SOL     OW58662   5.996   7.038   7.331 -0.8964  0.3019 -0.4338
17567SOL    HW158663   6.053   6.962   7.321 -0.0937  0.7964  0.2562
17567SOL    HW258664   6.048   7.111   7.298 -0.3086  1.0920  2.0389
17568SOL     OW58665   5.806   7.639   0.728 -0.1247 -0.3671  0.6240
17568SOL    HW158666   5.851   7.680   0.655  1.1162 -1.4208  0.7680
17568SOL    HW258667   5.804   7.707   0.796  1.5533 -0.3801  0.7261
17569SOL     OW58668   5.415   6.742   3.054  0.5048 -0.0085 -0.3355
17569SOL    HW158669   5.429   6.804   3.125 -1.4439  1.9230 -1.5436
17569SOL    HW258670   5.410   6.657   3.097 -0.4259  1.0794  1.8169
17570SOL     OW58671   8.112   3.142   8.825  0.3496  0.7163  0.7414
17570SOL    HW158672   8.144   3.124   8.736 -1.2704  0.9808  0.0569
17570SOL    HW258673   8.128   3.235   8.839 -2.1687  1.4575 -0.5818
17571SOL     OW58674   7.663   7.797   5.553 -0.1149 -0.0112 -0.8525
17571SOL    HW158675   7.598   7.864   5.528 -0.7701 -0.4556 -0.3696
17571SOL    HW258676   7.616   7.740   5.614  0.7719 -0.2853 -0.4160
17572SOL     OW58677   2.656   3.602   1.149  0.4235  0.2053  0.0794
17572SOL    HW158678   2.613   3.527   1.189  0.4289  0.8471  1.3395
17572SOL    HW258679   2.712   3.565   1.081 -0.2770 -0.8422  0.0540
17573SOL     OW58680   6.642   4.630   7.083  0.4662 -0.6825  0.6501
17573SOL    HW158681   6.640   4.660   7.174 -1.1193 -1.3085  0.8502
17573SOL    HW258682   6.649   4.535   7.089 -0.6754 -0.8034  0.1398
17574SOL     OW58683   6.081   5.108   5.575  0.0823 -0.0323 -0.3231
17574SOL    HW158684   6.027   5.142   5.646  0.4378 -2.5689  1.2649
17574SOL    HW258685   6.168   5.098   5.613  0.3878 -1.0196 -1.2234
17575SOL     OW58686   6.499   0.061   5.534 -0.5440 -0.1978 -0.3291
17575SOL    HW158687   6.484   0.005   5.610 -0.4484  0.3097  0.0710
17575SOL    HW258688   6.567   0.123   5.563 -1.4184  0.8114 -0.3902
17576SOL     OW58689   8.633   6.327   1.908  0.0589 -0.2857  0.1718
17576SOL    HW158690   8.715   6.291   1.943  0.8626  0.0661 -1.2705
17576SOL    HW258691   8.586   6.250   1.875  1.1166 -0.2169 -1.5807
17577SOL     OW58692   7.847   8.465   3.002 -0.6440 -0.5032  0.3095
17577SOL    HW158693   7.820   8.557   3.004  0.5778 -0.1127 -0.2458
17577SOL    HW258694   7.824   8.436   2.914  1.1082 -0.0156 -0.3572
17578SOL     OW58695   2.388   2.576   8.014 -0.0378 -0.1980  0.2719
17578SOL    HW158696   2.395   2.666   8.048 -0.2999 -0.9323  2.3902
17578SOL    HW258697   2.304   2.575   7.968 -0.7232  0.2927  1.4525
17579SOL     OW58698   3.120   1.650   2.549  0.1848  0.6297  0.4373
17579SOL    HW158699   3.042   1.615   2.592  0.1996 -1.0367 -0.7781
17579SOL    HW258700   3.088   1.719   2.492 -0.3804  0.0597  0.0626
17580SOL     OW58701   8.006   3.158   0.652 -0.1135  0.0906 -0.0810
17580SOL    HW158702   8.075   3.166   0.587  0.4094  0.2725  0.4838
17580SOL    HW258703   7.990   3.247   0.682 -1.5831  0.2366 -1.1936
17581SOL     OW58704   4.547   4.657   9.354 -0.4756  0.8395 -0.1161
17581SOL    HW158705   4.605   4.688   9.284 -0.0350  1.9848  0.7306
17581SOL    HW258706   4.460   4.660   9.315 -0.0788 -0.1626 -1.1519
17582SOL     OW58707   5.174   3.227   0.539 -0.0392 -0.7942 -0.0996
17582SOL    HW158708   5.127   3.197   0.461 -0.0965 -2.2196  0.4506
17582SOL    HW258709   5.186   3.148   0.591  1.7804 -0.2250  0.4189
17583SOL     OW58710   2.328   1.812   8.379  0.8337 -0.3500 -0.1624
17583SOL    HW158711   2.410   1.784   8.421  0.4205 -0.7484  0.3948
17583SOL    HW258712   2.281   1.859   8.448  0.3596 -0.5959 -0.3143
17584SOL     OW58713   2.803   7.044   6.843  0.1677 -0.1662 -0.2784
17584SOL    HW158714   2.888   7.081   6.819  1.2162 -0.3736  2.6576
17584SOL    HW258715   2.771   7.003   6.763  2.8515 -0.1088 -1.4997
17585SOL     OW58716   7.494   4.067   8.048  0.0655  0.1690  0.0944
17585SOL    HW158717   7.570   4.021   8.012  0.1242  0.6079 -0.3540
17585SOL    HW258718   7.419   4.016   8.016  0.1722 -0.4869  0.8542
17586SOL     OW58719   5.233   2.094   4.071  0.1468  0.1687 -0.1534
17586SOL    HW158720   5.202   2.117   4.159  0.4269 -1.4692  0.3967
17586SOL    HW258721   5.235   2.178   4.024 -0.8782  0.9381  1.1141
17587SOL     OW58722   5.634   1.860   0.639  0.0658 -0.1273 -0.5554
17587SOL    HW158723   5.662   1.918   0.567  0.4877  1.1001  0.5591
17587SOL    HW258724   5.563   1.907   0.682  0.8072 -0.1257  0.7347
17588SOL     OW58725   4.972   4.540   6.390 -0.3736 -0.2932  0.8156
17588SOL    HW158726   4.957   4.527   6.297  2.5131 -0.2517  0.2585
17588SOL    HW258727   4.956   4.634   6.404  0.2231 -0.0856  0.1289
17589SOL     OW58728   3.659   7.021   7.063 -0.3278 -0.4608  0.9631
17589SOL    HW158729   3.733   6.972   7.099  0.9697 -0.2125 -1.1858
17589SOL    HW258730   3.598   6.953   7.034  0.5575 -0.7874 -0.1944
17590SOL     OW58731   7.751   1.023   3.631 -0.3342 -0.2157  0.5122
17590SOL    HW158732   7.734   1.053   3.541  0.6667 -0.0750  0.3559
17590SOL    HW258733   7.729   1.098   3.686 -0.9034 -0.2854  0.3836
17591SOL     OW58734   3.424   5.183   0.911  0.1941  0.0136 -0.0067
17591SOL    HW158735   3.346   5.206   0.962 -0.8140 -2.4097 -0.3233
17591SOL    HW258736   3.391   5.126   0.842  2.0982 -0.0182 -0.9271
17592SOL     OW58737   1.142   7.218   9.069 -0.2683 -0.1213  1.0841
17592SOL    HW158738   1.129   7.133   9.028 -1.4520  1.1086 -1.3297
17592SOL    HW258739   1.236   7.232   9.065 -0.2769 -0.2374 -1.0216
17593SOL     OW58740   7.700   3.335   2.887 -0.2804 -0.0574  0.5556
17593SOL    HW158741   7.687   3.352   2.980  0.2146 -0.8445  0.7771
17593SOL    HW258742   7.793   3.354   2.871 -0.8132  2.1966 -0.2684
17594SOL     OW58743   7.683   6.298   5.574 -0.8391  0.0689 -0.3282
17594SOL    HW158744   7.766   6.334   5.604 -0.5420 -1.4623  0.8397
17594SOL    HW258745   7.644   6.367   5.520  0.0032  1.8343  1.2119
17595SOL     OW58746   4.328   4.070   7.524  0.0936 -0.2131  0.4203
17595SOL    HW158747   4.243   4.064   7.480  0.2736 -1.9827  0.2578
17595SOL    HW258748   4.392   4.059   7.454  0.3883 -4.1755  1.0963
17596SOL     OW58749   4.980   6.396   4.292  0.2005 -0.0987  0.7747
17596SOL    HW158750   4.909   6.456   4.315  1.3812  0.9716  1.7848
17596SOL    HW258751   5.055   6.427   4.342  2.1510  0.4528 -2.2481
17597SOL     OW58752   2.212   0.124   1.907 -0.4872  0.1603 -0.1355
17597SOL    HW158753   2.214   0.218   1.925  0.8862  0.0251  0.5706
17597SOL    HW258754   2.120   0.105   1.889 -1.3712  1.0771  2.8613
17598SOL     OW58755   8.477   1.340   4.821  0.0664  0.1244 -0.2002
17598SOL    HW158756   8.569   1.342   4.793  0.0450 -0.1998 -0.3076
17598SOL    HW258757   8.471   1.262   4.877 -0.3530 -0.4074 -0.9648
17599SOL     OW58758   2.970   3.582   9.133  0.4921 -0.4023  0.0114
17599SOL    HW158759   2.931   3.538   9.208  0.5641  1.1009  0.9713
17599SOL    HW258760   3.011   3.661   9.169 -0.4853  1.0023 -1.7396
17600SOL     OW58761   3.902   5.157   2.718 -0.3539 -0.1941 -0.5235
17600SOL    HW158762   3.811   5.166   2.745  0.3246  0.1024  1.9082
17600SOL    HW258763   3.931   5.247   2.702 -0.3119 -0.2403 -0.7147
17601SOL     OW58764   5.621   4.634   4.255  0.0831  0.3321 -0.3197
17601SOL    HW158765   5.555   4.566   4.245  0.0326  0.5017 -1.2612
17601SOL    HW258766   5.697   4.590   4.293 -0.0090 -0.2109 -0.7657
17602SOL     OW58767   1.113   5.482   5.959 -0.5548 -0.0239  0.7355
17602SOL    HW158768   1.084   5.553   6.015 -0.2621  0.6298  0.0756
17602SOL    HW258769   1.039   5.421   5.957 -0.9498  0.4387  0.9972
17603SOL     OW58770   8.511   0.186   9.080 -0.0982 -0.6192 -0.4964
17603SOL    HW158771   8.426   0.228   9.062 -0.3376  0.1861  2.0866
17603SOL    HW258772   8.489   0.109   9.132  0.7768  0.6038  1.8160
17604SOL     OW58773   7.953   6.301   3.497 -0.0865 -0.8012 -0.9797
17604SOL    HW158774   7.915   6.309   3.410 -0.0482  1.6669 -0.8272
17604SOL    HW258775   8.045   6.324   3.486 -0.2177  0.1659 -0.2119
17605SOL     OW58776   3.491   0.605   7.880 -0.1541  0.6214  0.3301
17605SOL    HW158777   3.419   0.648   7.833  0.4418  1.0354 -0.2175
17605SOL    HW258778   3.467   0.513   7.881 -0.9519  0.8243  0.6197
17606SOL     OW58779   2.307   4.520   2.531 -0.0021 -0.0325 -0.1258
17606SOL    HW158780   2.333   4.599   2.579  0.0585 -0.5337  0.6919
17606SOL    HW258781   2.316   4.544   2.439  0.4639  0.7651  0.1149
17607SOL     OW58782   4.377   9.016   6.146 -0.1910 -0.0646  0.0706
17607SOL    HW158783   4.292   8.987   6.179  0.1980  1.3272  2.6127
17607SOL    HW258784   4.432   8.938   6.149 -1.0199 -0.6736 -0.2720
17608SOL     OW58785   9.364   1.841   3.066 -0.4625  0.0958  0.5751
17608SOL    HW158786   9.362   1.748   3.088 -0.2358 -0.7346 -2.4172
17608SOL    HW258787   9.436   1.877   3.118 -0.8982 -1.2443  2.1861
17609SOL     OW58788   1.182   5.198   2.217 -0.2999 -0.1794  0.4795
17609SOL    HW158789   1.221   5.271   2.169 -0.6510 -1.1059 -1.2826
17609SOL    HW258790   1.112   5.167   2.161  1.2150 -3.2692  0.1122
17610SOL     OW58791   3.847   7.045   3.818  0.4400  0.3847 -0.3485
17610SOL    HW158792   3.913   7.022   3.752  0.5722 -0.1863 -0.0172
17610SOL    HW258793   3.808   7.126   3.785  0.3610 -0.0042 -1.2309
17611SOL     OW58794   1.742   7.244   4.330 -0.2936 -0.2074  0.1165
17611SOL    HW158795   1.706   7.162   4.363 -1.3242  1.0132  2.2026
17611SOL    HW258796   1.667   7.302   4.321  0.6596  1.2214  0.9081
17612SOL     OW58797   4.021   5.167   7.723 -0.3320 -0.6261  0.5950
17612SOL    HW158798   4.037   5.254   7.687  1.5414 -1.1216  0.1094
17612SOL    HW258799   3.952   5.130   7.668 -0.0232 -0.0211 -0.2187
17613SOL     OW58800   5.968   8.084   8.980  0.1278 -0.5201  0.1898
17613SOL    HW158801   5.992   8.177   8.975 -0.7011 -0.3461 -0.8920
17613SOL    HW258802   5.932   8.074   9.068  0.1764  0.1985  0.2998
17614SOL     OW58803   9.140   7.214   5.791  0.1600  0.1123 -0.0363
17614SOL    HW158804   9.148   7.310   5.785 -1.2905  0.3900  1.6791
17614SOL    HW258805   9.101   7.199   5.877 -1.3741 -1.9264 -1.0257
17615SOL     OW58806   5.044   8.024   7.784  0.2351 -0.0389 -0.2051
17615SOL    HW158807   5.053   7.945   7.837 -0.3671  0.4005  0.5848
17615SOL    HW258808   5.114   8.081   7.813 -1.0613  0.8549  1.3555
17616SOL     OW58809   3.110   0.114   5.136 -0.2070 -0.2967  0.0139
17616SOL    HW158810   3.185   0.119   5.078 -1.2549 -1.5184 -1.5166
17616SOL    HW258811   3.123   0.034   5.187  0.3849  0.4301  1.0435
17617SOL     OW58812   1.065   4.307   7.473 -0.1475  0.2290  0.0043
17617SOL    HW158813   1.041   4.399   7.466  0.1077  0.2512 -0.6219
17617SOL    HW258814   1.147   4.308   7.523 -0.1441  0.3432 -0.0023
17618SOL     OW58815   7.076   1.814   9.124  0.7958 -0.1671 -0.4703
17618SOL    HW158816   7.106   1.839   9.036 -0.0349 -1.6748 -1.2235
17618SOL    HW258817   7.062   1.897   9.169  0.1693  0.6843 -2.1491
17619SOL     OW58818   7.238   2.567   3.496  0.2481 -0.4333 -0.1173
17619SOL    HW158819   7.153   2.612   3.502  0.0498 -0.9692  1.4556
17619SOL    HW258820   7.257   2.566   3.402  0.0541  2.4822 -0.2854
17620SOL     OW58821   7.001   6.048   1.380  0.1953 -0.0080 -0.6840
17620SOL    HW158822   7.095   6.065   1.388  0.0567  1.9905 -2.3724
17620SOL    HW258823   6.960   6.129   1.410 -0.9140 -0.2690 -1.4500
17621SOL     OW58824   3.674   6.085   1.309 -0.4420 -0.4209 -0.4579
17621SOL    HW158825   3.611   6.033   1.358 -1.8285  1.2355 -0.3863
17621SOL    HW258826   3.756   6.035   1.313 -0.8251 -0.9768  2.4029
17622SOL     OW58827   6.629   3.606   0.071  0.0094  0.0370 -0.0608
17622SOL    HW158828   6.662   3.647  -0.009 -0.7454  1.4352  0.3079
17622SOL    HW258829   6.683   3.528   0.082 -1.6341 -1.7318 -3.3824
17623SOL     OW58830   6.836   1.929   0.213  0.3748 -0.0606  0.3673
17623SOL    HW158831   6.929   1.912   0.204  0.0992 -1.0792 -0.8186
17623SOL    HW258832   6.824   2.017   0.177  0.5170 -0.9738 -2.1045
17624SOL     OW58833   7.721   8.414   4.996 -0.1009 -0.4304 -0.7156
17624SOL    HW158834   7.715   8.409   5.092  2.5841  1.6148 -0.3226
17624SOL    HW258835   7.663   8.344   4.965 -3.0798  0.4053  2.2963
17625SOL     OW58836   4.132   5.497   8.384 -0.0392  0.0862  0.1994
17625SOL    HW158837   4.226   5.489   8.398 -0.1629  1.7474  2.5555
17625SOL    HW258838   4.117   5.591   8.371 -1.6615  0.4070  3.3341
17626SOL     OW58839   3.686   5.089   7.342  0.2960  0.6267  0.5447
17626SOL    HW158840   3.653   5.077   7.252  0.8804 -0.5998  0.4694
17626SOL    HW258841   3.629   5.033   7.395  0.9629  0.0897  0.7014
17627SOL     OW58842   1.126   5.693   5.760  0.6129 -0.8150  0.2030
17627SOL    HW158843   1.144   5.633   5.688  1.3563  0.2913 -0.5622
17627SOL    HW258844   1.180   5.662   5.832  2.6015  0.0963 -0.8198
17628SOL     OW58845   3.272   3.941   7.872  0.1773 -0.3454 -0.4793
17628SOL    HW158846   3.179   3.962   7.883 -0.0124 -0.5242 -1.5892
17628SOL    HW258847   3.318   4.019   7.904 -0.3173 -0.5823  0.8500
17629SOL     OW58848   3.470   8.769   1.146  0.2697  0.5357  0.1778
17629SOL    HW158849   3.441   8.678   1.153 -0.5861  0.8312  0.6434
17629SOL    HW258850   3.521   8.784   1.225 -0.9819  0.9323  0.9351
17630SOL     OW58851   1.832   2.407   5.175  0.0006 -0.3639  0.3357
17630SOL    HW158852   1.918   2.422   5.136 -0.3586  1.8138  0.2951
17630SOL    HW258853   1.849   2.346   5.247  1.5692 -0.0308  0.2823
17631SOL     OW58854   6.999   0.187   3.198  0.4289 -0.0382  0.2933
17631SOL    HW158855   7.043   0.265   3.163  0.3565  0.9633  2.2816
17631SOL    HW258856   6.926   0.172   3.138  1.0365  0.8162 -0.6991
17632SOL     OW58857   6.101   7.465   5.139  0.3743  0.1883  0.1626
17632SOL    HW158858   6.106   7.502   5.050 -0.3438 -0.3074 -0.0895
17632SOL    HW258859   6.185   7.487   5.178  1.2427 -0.7389 -1.0965
17633SOL     OW58860   3.666   8.906   7.822 -0.5364  0.5973 -0.6868
17633SOL    HW158861   3.727   8.834   7.807  0.3570  1.0895  0.4263
17633SOL    HW258862   3.584   8.863   7.845 -0.7886 -0.0838 -2.6887
17634SOL     OW58863   5.968   3.989   0.697  0.6595  0.1271  0.2465
17634SOL    HW158864   5.879   3.985   0.732  0.3890 -1.6028 -0.5380
17634SOL    HW258865   6.019   3.934   0.756  0.8443 -0.2550 -0.2632
17635SOL     OW58866   3.313   4.201   7.658 -0.3024  0.4373 -0.3145
17635SOL    HW158867   3.319   4.221   7.565 -0.7024  1.7675 -0.0632
17635SOL    HW258868   3.404   4.186   7.685 -0.2334 -0.5470 -1.0203
17636SOL     OW58869   3.828   0.174   1.354 -0.4291 -0.1493  0.1505
17636SOL    HW158870   3.808   0.184   1.261  0.3195 -0.5920 -0.0636
17636SOL    HW258871   3.896   0.239   1.371  0.5792 -1.1502  0.0103
17637SOL     OW58872   0.374   5.336   1.613  0.8610 -0.3922  0.2113
17637SOL    HW158873   0.416   5.255   1.583  1.2398 -0.5381  1.1174
17637SOL    HW258874   0.363   5.387   1.533  2.5480 -0.4515 -0.1116
17638SOL     OW58875   6.706   9.194   9.351  0.1801 -0.2980 -0.6495
17638SOL    HW158876   6.750   9.138   9.286 -0.0657 -2.4708  0.9604
17638SOL    HW258877   6.615   9.164   9.350  0.7713 -2.7706  2.9146
17639SOL     OW58878   1.289   2.116   4.698  0.0393 -0.7811 -0.0880
17639SOL    HW158879   1.333   2.100   4.614  0.5821 -2.1100  0.4153
17639SOL    HW258880   1.197   2.095   4.681  0.1367 -0.9823 -0.3771
17640SOL     OW58881   6.083   4.735   2.517 -0.5895 -0.1670 -0.1520
17640SOL    HW158882   6.085   4.727   2.612 -3.3364 -0.6197 -0.0432
17640SOL    HW258883   6.046   4.822   2.501 -2.6646 -1.0642 -0.6711
17641SOL     OW58884   4.149   7.649   3.413  0.0104  0.4497  0.8056
17641SOL    HW158885   4.086   7.647   3.485 -0.7329  3.4893  0.3622
17641SOL    HW258886   4.104   7.694   3.342  0.9187 -1.9192 -1.4828
17642SOL     OW58887   5.558   4.543   3.734 -0.1209  0.5672 -0.2161
17642SOL    HW158888   5.596   4.532   3.647  0.2011  1.0878 -0.1499
17642SOL    HW258889   5.604   4.480   3.789  0.4530  0.9855 -0.2017
17643SOL     OW58890   6.102   4.251   3.645 -0.2076 -0.5058  0.0073
17643SOL    HW158891   6.053   4.178   3.682  0.2458 -1.1253 -0.5804
17643SOL    HW258892   6.035   4.312   3.614 -0.6508 -1.5563 -1.2257
17644SOL     OW58893   7.029   4.584   0.142 -0.3900 -0.1971 -0.2949
17644SOL    HW158894   7.057   4.621   0.058 -0.0195  0.2279  0.0114
17644SOL    HW258895   6.986   4.657   0.186  1.5599  0.3093  0.8930
17645SOL     OW58896   2.389   4.552   3.580  0.0704  0.4872  0.2367
17645SOL    HW158897   2.372   4.620   3.646  0.3738  1.1416 -0.3517
17645SOL    HW258898   2.335   4.478   3.608  2.4720 -0.4087  3.0005
17646SOL     OW58899   9.330   3.349   5.293  0.0442  0.0633 -0.0424
17646SOL    HW158900   9.423   3.369   5.279 -0.1701  1.0644 -0.1039
17646SOL    HW258901   9.310   3.283   5.226  0.1671  1.4900 -1.5549
17647SOL     OW58902   2.566   6.623   7.387  0.4552 -0.6947 -0.2379
17647SOL    HW158903   2.654   6.646   7.417  0.2978 -0.7746  0.3031
17647SOL    HW258904   2.569   6.635   7.292  0.9238 -0.2807 -0.1765
17648SOL     OW58905   9.322   9.167   6.749 -0.6681  0.3571  0.3270
17648SOL    HW158906   9.321   9.101   6.680  2.6997 -0.0329  0.4511
17648SOL    HW258907   9.354   9.247   6.706 -0.4280  0.6435  1.0133
17649SOL     OW58908   8.889   4.228   4.658 -0.8356  0.0529 -0.2784
17649SOL    HW158909   8.975   4.192   4.680 -1.2438 -1.2194 -0.6736
17649SOL    HW258910   8.857   4.265   4.740  1.3241  3.3423 -0.7485
17650SOL     OW58911   6.968   6.441   0.199 -0.3658 -0.0270 -0.1050
17650SOL    HW158912   7.049   6.390   0.190 -0.3617 -0.4478  1.8674
17650SOL    HW258913   6.910   6.384   0.249 -1.4990  0.7225 -0.5455
17651SOL     OW58914   7.377   5.683   7.433 -0.2169  0.3872  0.4307
17651SOL    HW158915   7.358   5.682   7.527  1.0848 -2.4330  0.7630
17651SOL    HW258916   7.473   5.686   7.428 -0.2196 -0.7943 -0.7463
17652SOL     OW58917   7.629   0.143   6.387  0.3525  0.2331 -0.2545
17652SOL    HW158918   7.614   0.069   6.328  1.0173  1.0643 -1.4816
17652SOL    HW258919   7.544   0.157   6.429 -0.2908  0.0065 -1.4514
17653SOL     OW58920   3.467   7.830   2.310  0.0803 -0.6522 -0.5991
17653SOL    HW158921   3.496   7.831   2.219  1.1795 -2.5413 -0.3324
17653SOL    HW258922   3.545   7.809   2.361 -0.5152  0.3323  0.8044
17654SOL     OW58923   6.763   7.931   5.761  0.6685  0.2579  0.2554
17654SOL    HW158924   6.807   8.015   5.748 -1.2961  1.2288 -0.4264
17654SOL    HW258925   6.784   7.880   5.683 -0.6952  1.3388 -0.8668
17655SOL     OW58926   8.261   6.212   8.765 -0.3291  0.1456  0.4852
17655SOL    HW158927   8.308   6.246   8.688  0.1596 -1.6985 -0.0797
17655SOL    HW258928   8.202   6.283   8.790  0.6351  1.3963 -0.6155
17656SOL     OW58929   6.682   7.802   6.010  0.0275 -0.5183 -0.4214
17656SOL    HW158930   6.727   7.841   5.935  0.9020  0.2230  0.4591
17656SOL    HW258931   6.752   7.785   6.073 -0.4296 -2.8097 -0.4337
17657SOL     OW58932   5.486   7.238   8.397 -0.7835 -0.1061  0.2250
17657SOL    HW158933   5.501   7.333   8.399 -1.0818 -0.0711  1.8007
17657SOL    HW258934   5.486   7.211   8.489 -3.2157 -1.2276 -0.0129
17658SOL     OW58935   2.201   6.737   4.254 -0.6252 -0.1470 -0.1116
17658SOL    HW158936   2.214   6.646   4.227 -1.6727 -0.6733  1.0618
17658SOL    HW258937   2.110   6.741   4.283 -0.1057  0.8159  1.5351
17659SOL     OW58938   8.755   3.200   0.462  0.7149  0.3697  0.0184
17659SOL    HW158939   8.832   3.178   0.410 -0.3989 -1.4771 -0.9549
17659SOL    HW258940   8.790   3.249   0.536  2.9285 -1.0653  0.0308
17660SOL     OW58941   8.757   0.933   0.177  0.3976 -0.0915  0.7262
17660SOL    HW158942   8.817   0.949   0.250  0.8560 -1.6713  0.7291
17660SOL    HW258943   8.779   1.000   0.112  1.5337 -0.0622  1.1175
17661SOL     OW58944   4.765   1.295   7.808  0.2880 -0.6597 -0.1237
17661SOL    HW158945   4.744   1.354   7.881 -0.2258 -0.6793 -0.2509
17661SOL    HW258946   4.701   1.225   7.816 -0.9285  0.2219 -1.6309
17662SOL     OW58947   1.894   0.083   6.489 -0.3782 -0.1339  0.3406
17662SOL    HW158948   1.852  -0.004   6.490  0.9290 -0.8269  2.7519
17662SOL    HW258949   1.986   0.064   6.473  0.1998  0.5977  2.5147
17663SOL     OW58950   9.215   5.257   3.883  0.6356  0.2850  0.0998
17663SOL    HW158951   9.140   5.252   3.824  0.6772  0.7308  0.0050
17663SOL    HW258952   9.177   5.281   3.967  0.4859 -1.1227  0.4458
17664SOL     OW58953   5.465   3.340   0.763  0.1980  0.3046 -0.1123
17664SOL    HW158954   5.448   3.256   0.804 -1.0840  0.3594 -0.4984
17664SOL    HW258955   5.555   3.361   0.788 -0.0091 -0.4074  1.3388
17665SOL     OW58956   1.814   5.289   4.409 -0.0621  0.0078 -0.1193
17665SOL    HW158957   1.761   5.285   4.489  1.2320 -1.8566  0.7027
17665SOL    HW258958   1.889   5.344   4.433  0.1098 -0.1949 -0.1964
17666SOL     OW58959   4.013   5.757   9.092  0.0185 -0.4043 -0.0791
17666SOL    HW158960   4.080   5.804   9.043 -0.8278  0.1932 -0.7012
17666SOL    HW258961   4.061   5.687   9.138  1.0148 -0.1527 -0.7006
17667SOL     OW58962   1.279   3.811   4.271 -0.3465 -0.2131 -0.3763
17667SOL    HW158963   1.266   3.727   4.314 -0.6268  0.6566  1.3111
17667SOL    HW258964   1.198   3.860   4.290 -0.2293  0.4112 -1.4072
17668SOL     OW58965   1.027   3.696   6.011 -0.8558  0.8314  0.2126
17668SOL    HW158966   1.123   3.689   6.008 -0.8187  1.2758  0.2843
17668SOL    HW258967   1.007   3.702   6.105 -1.0485 -0.4534  0.2673
17669SOL     OW58968   7.888   1.358   5.080 -0.3023 -0.7377 -0.4364
17669SOL    HW158969   7.887   1.399   4.993 -2.4012  1.7731  0.6290
17669SOL    HW258970   7.956   1.406   5.128 -2.7816  1.7813  0.8226
17670SOL     OW58971   2.390   2.893   3.255 -0.2904  0.4051 -0.3001
17670SOL    HW158972   2.422   2.898   3.345  0.1805 -1.2271 -0.3440
17670SOL    HW258973   2.425   2.972   3.213  4.0302 -1.3031 -0.4096
17671SOL     OW58974   6.872   1.114   5.292 -0.0698 -0.7311  0.1784
17671SOL    HW158975   6.848   1.023   5.312  1.3695 -0.7290  2.2208
17671SOL    HW258976   6.968   1.114   5.293 -0.0510  1.0731  1.5864
17672SOL     OW58977   8.375   5.357   4.215  0.1294 -0.0514  0.1945
17672SOL    HW158978   8.401   5.425   4.278  1.3007 -1.1729  0.9871
17672SOL    HW258979   8.399   5.275   4.258  0.0185 -0.9094 -1.3155
17673SOL     OW58980   5.631   3.593   7.948 -0.2065 -0.5438  0.5850
17673SOL    HW158981   5.539   3.608   7.969 -0.1922 -1.7013  1.5657
17673SOL    HW258982   5.658   3.522   8.006  1.7981  0.9111  1.5661
17674SOL     OW58983   5.893   0.745   2.450  0.0460 -0.5282 -0.1907
17674SOL    HW158984   5.967   0.795   2.485 -0.9333 -0.2216  1.5202
17674SOL    HW258985   5.818   0.804   2.458 -0.2609 -0.4358 -2.8971
17675SOL     OW58986   4.687   5.657   4.621  0.0116  0.3994 -0.0079
17675SOL    HW158987   4.719   5.662   4.711  0.1932  0.9276 -0.0979
17675SOL    HW258988   4.676   5.748   4.594  0.0223  0.2460 -0.5467
17676SOL     OW58989   7.769   9.142   0.836 -0.0366  0.0553  0.3692
17676SOL    HW158990   7.730   9.158   0.749 -0.0726  0.2042  0.4122
17676SOL    HW258991   7.863   9.145   0.821 -0.0339  1.1546  0.5231
17677SOL     OW58992   5.227   3.450   5.927  0.2575 -0.7268  0.7259
17677SOL    HW158993   5.287   3.452   5.853  0.7073 -1.7445  1.0495
17677SOL    HW258994   5.172   3.527   5.915  0.2812 -0.9032 -0.6999
17678SOL     OW58995   7.179   4.679   5.976  0.0396  0.0130  0.2376
17678SOL    HW158996   7.235   4.749   5.941 -1.2812  0.2036 -1.6463
17678SOL    HW258997   7.231   4.600   5.963  0.8003  0.4206  0.6772
17679SOL     OW58998   8.444   2.489   2.946 -0.1770 -0.0866 -0.0116
17679SOL    HW158999   8.525   2.539   2.955 -0.4593  0.9905 -2.4511
17679SOL    HW259000   8.388   2.521   3.016  0.3593  1.6263 -0.3109
17680SOL     OW59001   5.413   6.669   0.460 -0.3178 -0.1091 -0.1044
17680SOL    HW159002   5.381   6.698   0.545  1.5919  0.0853  0.5892
17680SOL    HW259003   5.471   6.595   0.480 -0.7496 -0.8185 -1.3557
17681SOL     OW59004   4.424   5.477   9.140  0.1134 -0.3146  0.2012
17681SOL    HW159005   4.388   5.409   9.082  0.5476 -0.8181  0.5106
17681SOL    HW259006   4.432   5.434   9.225  0.3096  0.1540  0.4236
17682SOL     OW59007   6.187   1.984   6.338  0.1077 -0.0878 -0.3761
17682SOL    HW159008   6.174   2.073   6.372 -0.1469  0.1404 -1.0482
17682SOL    HW259009   6.183   1.928   6.415  0.6777  0.5243  0.1091
17683SOL     OW59010   8.079   2.363   8.863  0.6034  0.0162  0.7151
17683SOL    HW159011   8.065   2.280   8.816  0.2105 -0.6532  1.9773
17683SOL    HW259012   8.174   2.366   8.877  0.8151  0.5534 -0.6784
17684SOL     OW59013   1.277   4.157   7.136  0.3348  0.2671  0.2398
17684SOL    HW159014   1.204   4.143   7.196 -1.2072  0.9382 -1.3581
17684SOL    HW259015   1.276   4.252   7.120  0.6364  0.1031 -0.8581
17685SOL     OW59016   4.796   8.970   3.390 -0.0406  0.7659  0.0728
17685SOL    HW159017   4.716   8.977   3.338 -0.2057 -1.5500 -0.0701
17685SOL    HW259018   4.809   9.058   3.426 -1.2232  1.8514 -1.9478
17686SOL     OW59019   6.953   9.119   2.820 -0.2517  0.2806  0.3087
17686SOL    HW159020   6.983   9.107   2.911 -0.1743  0.8568  0.3672
17686SOL    HW259021   6.990   9.045   2.773  2.4441  1.6253  0.1054
17687SOL     OW59022   8.722   7.136   3.912  0.3704  0.4616 -0.1165
17687SOL    HW159023   8.815   7.155   3.929  0.5956  0.6146 -1.4231
17687SOL    HW259024   8.717   7.123   3.817 -0.5563 -1.8521  0.2021
17688SOL     OW59025   0.988   7.637   2.302  0.7053  0.3576 -0.5433
17688SOL    HW159026   0.893   7.641   2.293  0.5966  0.6006  0.5918
17688SOL    HW259027   1.013   7.725   2.327  0.9870 -0.1562  1.1252
17689SOL     OW59028   7.601   5.323   2.984  0.9814  0.1492  0.1589
17689SOL    HW159029   7.616   5.308   3.078  1.5854 -2.4469 -0.2693
17689SOL    HW259030   7.663   5.392   2.960  2.0561 -0.3673  1.3264
17690SOL     OW59031   1.947   8.661   1.280 -0.1375 -0.0118 -0.3618
17690SOL    HW159032   2.036   8.691   1.297 -0.4097  1.2918 -1.0265
17690SOL    HW259033   1.957   8.573   1.244  1.0181  0.6896 -1.8631
17691SOL     OW59034   7.354   0.713   4.775  0.1965  0.9350  0.3685
17691SOL    HW159035   7.418   0.753   4.715 -0.8127  1.4486 -0.3907
17691SOL    HW259036   7.393   0.628   4.796  1.3299  1.3957  0.2548
17692SOL     OW59037   6.413   4.408   7.316  0.3975  0.2740  0.0843
17692SOL    HW159038   6.349   4.407   7.245  1.1730  0.7976 -0.6293
17692SOL    HW259039   6.494   4.374   7.277  0.7644  0.3310  0.7773
17693SOL     OW59040   6.456   5.161   0.984  0.1741 -1.2068  0.5240
17693SOL    HW159041   6.489   5.079   1.020 -0.2766 -1.3035  0.7313
17693SOL    HW259042   6.430   5.212   1.061  1.8352 -0.2467  0.4972
17694SOL     OW59043   8.886   8.293   0.601  0.6225 -0.1859 -0.0947
17694SOL    HW159044   8.978   8.274   0.586  0.5484  1.2059 -2.9861
17694SOL    HW259045   8.885   8.386   0.626 -0.0118  0.0691 -1.0054
17695SOL     OW59046   7.166   6.073   6.441 -0.2498 -0.0864  0.4185
17695SOL    HW159047   7.181   6.128   6.517 -1.1780  1.1097 -0.2185
17695SOL    HW259048   7.071   6.069   6.432 -0.1740 -0.8029 -0.2576
17696SOL     OW59049   6.190   9.332   2.897 -0.5274  0.5500  0.6702
17696SOL    HW159050   6.231   9.418   2.882 -1.0212  0.7718  0.5729
17696SOL    HW259051   6.240   9.272   2.842 -1.6393  1.1669 -1.0755
17697SOL     OW59052   1.569   8.082   1.590 -0.1544  0.6953  0.4183
17697SOL    HW159053   1.621   8.161   1.575  1.0230 -0.0335  0.5247
17697SOL    HW259054   1.619   8.032   1.655 -0.7479 -0.2497  0.1721
17698SOL     OW59055   6.214   5.686   2.141  0.1480  0.1309  0.0765
17698SOL    HW159056   6.267   5.746   2.088 -1.7502  1.8539 -0.0378
17698SOL    HW259057   6.129   5.685   2.097 -0.2653 -1.7021  0.8163
17699SOL     OW59058   4.247   4.377   2.288  0.5579 -0.3973 -0.5835
17699SOL    HW159059   4.166   4.337   2.257 -0.2028  0.3348  0.3749
17699SOL    HW259060   4.253   4.459   2.239 -0.0194  0.1917  0.2894
17700SOL     OW59061   5.397   3.792   8.235 -0.7023  0.6941 -0.5447
17700SOL    HW159062   5.410   3.759   8.146 -0.2164  1.3666 -0.7335
17700SOL    HW259063   5.302   3.788   8.248 -0.7625  0.4313 -1.0299
17701SOL     OW59064   5.053   4.342   6.598  0.0317  0.1022 -0.5188
17701SOL    HW159065   5.145   4.348   6.573  0.0778 -0.2074 -0.4260
17701SOL    HW259066   5.008   4.406   6.541  0.2408 -0.0564 -0.8646
17702SOL     OW59067   4.035   3.877   4.849 -0.2236 -0.4998  0.2685
17702SOL    HW159068   4.126   3.906   4.851  0.0292 -1.1582 -0.9633
17702SOL    HW259069   3.991   3.941   4.792 -0.2778 -0.8526 -0.0883
17703SOL     OW59070   2.339   2.662   1.493 -0.1291  0.7589  0.3537
17703SOL    HW159071   2.281   2.735   1.469 -0.6277  0.6320  1.1285
17703SOL    HW259072   2.401   2.700   1.555  0.4702  0.8358 -0.2903
17704SOL     OW59073   8.891   3.094   6.420 -0.5422  0.1365  0.2525
17704SOL    HW159074   8.931   3.007   6.427 -0.4300  0.1005 -0.7542
17704SOL    HW259075   8.920   3.139   6.499  0.6411 -0.2386  0.0536
17705SOL     OW59076   2.818   0.991   1.602  0.3418  0.2963  0.2374
17705SOL    HW159077   2.861   1.018   1.684 -0.1389  1.6825  0.0636
17705SOL    HW259078   2.759   0.920   1.628  0.6206  0.3292  0.9821
17706SOL     OW59079   5.761   3.151   1.696  0.1122 -0.6294 -0.0566
17706SOL    HW159080   5.845   3.194   1.679  0.0439 -0.4236  0.1251
17706SOL    HW259081   5.781   3.058   1.693 -0.1327 -0.6745 -2.6413
17707SOL     OW59082   7.378   6.760   0.343 -0.1344  0.1677 -0.5253
17707SOL    HW159083   7.362   6.788   0.253 -1.0239  0.0843 -0.4050
17707SOL    HW259084   7.369   6.664   0.340  1.5790 -0.0237 -0.6774
17708SOL     OW59085   1.204   9.077   3.041  0.0045 -0.2320  0.5387
17708SOL    HW159086   1.174   8.987   3.059 -2.0156  0.2305 -0.2128
17708SOL    HW259087   1.128   9.120   3.002  1.5654  1.2344 -1.0631
17709SOL     OW59088   3.942   2.752   1.306  0.3836 -0.0595  0.4386
17709SOL    HW159089   3.861   2.714   1.273  1.3272 -0.7715 -1.2053
17709SOL    HW259090   3.965   2.698   1.382 -1.2142  0.8564  1.6497
17710SOL     OW59091   5.393   4.503   8.660  0.6826  0.3793 -0.2525
17710SOL    HW159092   5.463   4.469   8.604  0.7484 -0.9883  0.6061
17710SOL    HW259093   5.391   4.597   8.642  1.3341  0.1197 -1.8157
17711SOL     OW59094   7.372   1.221   7.670 -0.5268 -0.7173 -0.4181
17711SOL    HW159095   7.351   1.207   7.762  0.7507  0.4862  0.0901
17711SOL    HW259096   7.400   1.312   7.665  1.8912 -1.4227 -1.4708
17712SOL     OW59097   6.422   3.062   7.235 -0.2074  0.0294 -0.3867
17712SOL    HW159098   6.343   3.052   7.288  1.2808  1.7641  2.3663
17712SOL    HW259099   6.436   3.157   7.230  0.7323 -0.1654 -2.3954
17713SOL     OW59100   5.351   6.388   8.862  0.1492  0.0066  0.4723
17713SOL    HW159101   5.393   6.439   8.931  0.5798  1.4107 -0.7791
17713SOL    HW259102   5.286   6.447   8.824 -0.3290 -0.8604 -0.1001
17714SOL     OW59103   7.951   0.123   3.142  0.1711 -0.1974  0.0325
17714SOL    HW159104   7.978   0.086   3.227 -1.7721  0.9754  1.2418
17714SOL    HW259105   7.861   0.093   3.131 -0.0225  0.7174 -1.0067
17715SOL     OW59106   1.829   0.969   8.910  0.3585  0.4627  0.1290
17715SOL    HW159107   1.898   1.021   8.869  1.2621 -1.9427 -1.6952
17715SOL    HW259108   1.872   0.926   8.983  0.7861 -0.7904 -0.8180
17716SOL     OW59109   2.413   6.820   5.141 -0.4442 -0.1186  0.3231
17716SOL    HW159110   2.366   6.817   5.058  0.1448  3.3799 -0.2962
17716SOL    HW259111   2.351   6.787   5.206 -2.5342  1.2112 -0.9204
17717SOL     OW59112   8.389   6.626   9.265 -0.0749 -0.3242  0.2427
17717SOL    HW159113   8.313   6.576   9.295  0.2565  0.1343  1.9614
17717SOL    HW259114   8.458   6.604   9.329  0.3786  1.4997  0.4150
17718SOL     OW59115   2.789   4.423   5.068  0.4850  0.6535  0.3435
17718SOL    HW159116   2.740   4.472   5.134 -0.1580 -0.0371  0.3932
17718SOL    HW259117   2.801   4.336   5.106  0.9732  0.5447 -0.0434
17719SOL     OW59118   7.334   2.893   5.460  0.1952  0.2968 -0.1268
17719SOL    HW159119   7.361   2.803   5.475 -1.0829  0.0158  0.6815
17719SOL    HW259120   7.349   2.908   5.367  2.7591  0.0943  0.1888
17720SOL     OW59121   2.715   6.860   8.030  0.6243  0.2417 -0.1373
17720SOL    HW159122   2.749   6.771   8.037  2.1445  0.9251  2.5085
17720SOL    HW259123   2.620   6.849   8.026  0.7927 -1.4852 -0.3494
17721SOL     OW59124   9.151   6.152   3.302 -0.3022  0.2786  0.9092
17721SOL    HW159125   9.232   6.146   3.253 -0.8848  1.7841 -0.2938
17721SOL    HW259126   9.082   6.136   3.238 -1.0122  0.1976  1.6635
17722SOL     OW59127   3.884   1.617   5.898 -0.1279  0.2824  0.2465
17722SOL    HW159128   3.968   1.638   5.857  0.2167 -0.6200  0.4578
17722SOL    HW259129   3.886   1.664   5.981  0.6445 -0.5708  0.7306
17723SOL     OW59130   9.080   3.025   4.019 -0.4297 -0.0312 -0.2008
17723SOL    HW159131   9.050   3.055   4.104  1.9173  0.8596  0.3884
17723SOL    HW259132   9.001   2.993   3.975 -1.6698 -0.7295  2.3644
17724SOL     OW59133   7.160   7.665   8.289  0.3133  0.3164 -0.4992
17724SOL    HW159134   7.147   7.760   8.282 -0.1406  0.3696  0.7041
17724SOL    HW259135   7.132   7.644   8.378  2.0829 -0.6680 -0.1191
17725SOL     OW59136   2.809   0.059   7.257 -0.1915  0.5997  0.1543
17725SOL    HW159137   2.778   0.081   7.345 -1.9558 -1.3621  0.0706
17725SOL    HW259138   2.893   0.015   7.272  0.0595  1.2584  0.7522
17726SOL     OW59139   5.008   7.080   2.563 -1.0534  0.1593  0.3027
17726SOL    HW159140   4.933   7.137   2.574  0.7950  2.8596 -0.1075
17726SOL    HW259141   5.000   7.015   2.633 -3.4974  0.5834  0.4831
17727SOL     OW59142   3.504   4.477   5.862  0.5619  0.1859  0.2499
17727SOL    HW159143   3.511   4.542   5.933  0.8366  0.0221  0.3728
17727SOL    HW259144   3.411   4.478   5.839  0.1340 -0.9683  1.7599
17728SOL     OW59145   5.662   1.702   5.779 -0.3966 -0.1053  0.0970
17728SOL    HW159146   5.620   1.617   5.796 -1.0279  0.4651  1.5873
17728SOL    HW259147   5.694   1.730   5.865  1.4010  0.3706 -0.6717
17729SOL     OW59148   3.054   3.903   2.379 -0.1583  0.2383 -0.3580
17729SOL    HW159149   3.037   3.958   2.303  0.0382  1.3085  0.3509
17729SOL    HW259150   2.971   3.901   2.427  0.4129  1.8640  0.8147
17730SOL     OW59151   2.573   8.389   0.420  0.0834 -0.5410  0.5751
17730SOL    HW159152   2.667   8.401   0.405 -0.3562  1.1902 -1.2379
17730SOL    HW259153   2.550   8.311   0.371 -0.0499  1.2189 -2.4276
17731SOL     OW59154   1.450   8.676   7.279 -0.5249 -0.0505  0.4780
17731SOL    HW159155   1.544   8.666   7.289 -0.6237 -0.3895  1.1837
17731SOL    HW259156   1.425   8.736   7.350 -0.8647 -0.0919  0.3952
17732SOL     OW59157   2.733   3.466   3.177 -0.4155 -0.4909  0.1555
17732SOL    HW159158   2.640   3.480   3.194 -0.6288  0.9950 -1.9066
17732SOL    HW259159   2.736   3.388   3.122 -0.3980 -0.7012  0.4500
17733SOL     OW59160   3.986   3.591   1.517 -0.1440  0.1861 -0.6319
17733SOL    HW159161   3.981   3.633   1.602 -0.4521 -1.3319  0.1424
17733SOL    HW259162   4.056   3.526   1.527 -0.0779  0.0940 -1.5897
17734SOL     OW59163   0.230   0.864   0.603  0.7652 -0.7449 -0.1019
17734SOL    HW159164   0.203   0.868   0.695  1.1823 -0.1818 -0.0015
17734SOL    HW259165   0.242   0.771   0.586 -2.0367 -1.1333 -0.3874
17735SOL     OW59166   2.815   4.122   7.362 -0.5237  0.3202  0.1120
17735SOL    HW159167   2.773   4.181   7.299 -1.1339 -0.5108 -0.2764
17735SOL    HW259168   2.855   4.181   7.426 -1.7062  1.1600  0.1146
17736SOL     OW59169   1.031   6.692   0.610  0.1868  0.2828 -0.3019
17736SOL    HW159170   1.068   6.775   0.582 -2.7014  0.8341 -3.1836
17736SOL    HW259171   0.967   6.715   0.677 -2.1299  0.8505 -2.5514
17737SOL     OW59172   2.953   7.654   4.903  0.0477  0.3663 -0.0925
17737SOL    HW159173   2.916   7.730   4.947 -3.4488 -0.9685 -0.4102
17737SOL    HW259174   2.911   7.579   4.945  1.3955 -1.2508 -1.4997
17738SOL     OW59175   5.595   4.512   0.327  0.2726  0.4221  0.0513
17738SOL    HW159176   5.629   4.554   0.406  0.3391 -1.6331  1.1617
17738SOL    HW259177   5.558   4.585   0.276  0.5683  1.8521  1.7739
17739SOL     OW59178   7.656   3.937   0.861 -0.5504  0.0571 -0.5248
17739SOL    HW159179   7.566   3.923   0.834 -0.5349 -0.2155 -0.4404
17739SOL    HW259180   7.703   3.861   0.827 -0.5694 -0.3967  0.4526
17740SOL     OW59181   5.999   3.395   2.965  0.0465 -0.4369  0.5432
17740SOL    HW159182   6.031   3.377   2.877  0.0128 -0.2574  0.4919
17740SOL    HW259183   5.917   3.443   2.951  0.3101  0.0668  0.6667
17741SOL     OW59184   8.255   7.988   5.613 -0.5890  0.4628  0.2611
17741SOL    HW159185   8.201   7.945   5.547  0.3695  0.9798 -0.8983
17741SOL    HW259186   8.212   8.071   5.630  0.1865  1.2071 -1.2141
17742SOL     OW59187   0.559   7.320   2.152 -0.2499  0.4823  0.3375
17742SOL    HW159188   0.470   7.344   2.125  0.1819 -0.0618 -1.7055
17742SOL    HW259189   0.564   7.226   2.138  0.8646  0.6147 -0.2512
17743SOL     OW59190   1.610   2.593   0.280 -0.0082 -0.3111 -0.0267
17743SOL    HW159191   1.653   2.622   0.200 -0.7625 -2.1353 -1.1404
17743SOL    HW259192   1.600   2.673   0.332  1.3989  0.7448 -1.2902
17744SOL     OW59193   9.106   1.071   8.350  0.3671 -0.6896 -0.1962
17744SOL    HW159194   9.116   1.152   8.400  2.0396 -0.7297 -0.4079
17744SOL    HW259195   9.081   1.100   8.262  0.3320 -0.4271 -0.1006
17745SOL     OW59196   6.441   2.056   5.986  0.2679 -0.3741  0.5747
17745SOL    HW159197   6.411   2.035   5.898  0.5313 -1.8039  0.7939
17745SOL    HW259198   6.430   2.151   5.994  0.7522 -0.1294 -1.1852
17746SOL     OW59199   3.334   5.864   1.751 -0.5875 -0.0533 -0.1814
17746SOL    HW159200   3.308   5.785   1.704 -2.9887 -0.7419  2.0828
17746SOL    HW259201   3.332   5.839   1.843 -0.5234  2.3951  0.5511
17747SOL     OW59202   2.323   7.636   7.447  0.4829  0.0567  0.2988
17747SOL    HW159203   2.302   7.663   7.357  2.7263 -0.1910 -0.3643
17747SOL    HW259204   2.242   7.596   7.479 -0.7651  1.2706 -1.1483
17748SOL     OW59205   8.571   6.739   7.597  0.0675 -0.0906 -0.1402
17748SOL    HW159206   8.527   6.772   7.519 -0.7811  1.3484  0.9066
17748SOL    HW259207   8.501   6.721   7.659  0.5561 -3.1108 -0.3125
17749SOL     OW59208   0.459   2.607   2.629 -0.4523 -0.4203  0.3461
17749SOL    HW159209   0.369   2.579   2.642 -0.3034 -1.2542 -0.3313
17749SOL    HW259210   0.480   2.580   2.539  0.3644  0.0442  0.3882
17750SOL     OW59211   8.922   0.307   8.649  1.2216  0.0562  0.5338
17750SOL    HW159212   8.952   0.268   8.567  1.3260  0.7398  0.2374
17750SOL    HW259213   8.947   0.400   8.641 -0.8906  0.6537  0.2919
17751SOL     OW59214   8.228   8.045   0.205  0.3649  0.3635 -0.3148
17751SOL    HW159215   8.290   8.031   0.277  1.0829 -0.4256 -1.0664
17751SOL    HW259216   8.162   7.977   0.217 -0.5978  1.4376  0.7058
17752SOL     OW59217   7.443   1.138   1.161  0.4258 -0.4926 -0.1939
17752SOL    HW159218   7.533   1.120   1.188  1.0265  0.2814 -1.5691
17752SOL    HW259219   7.433   1.233   1.175 -0.2967 -0.6295  0.2582
17753SOL     OW59220   1.205   9.070   0.750  0.5206  1.0528  0.1963
17753SOL    HW159221   1.151   9.148   0.759 -1.2841 -0.2463  1.2502
17753SOL    HW259222   1.172   9.028   0.671 -1.2008 -0.5559  1.6884
17754SOL     OW59223   5.683   0.526   6.540 -0.1252  0.5257 -0.4445
17754SOL    HW159224   5.602   0.482   6.516  0.4690 -1.0852  0.3568
17754SOL    HW259225   5.655   0.609   6.579 -1.4457 -0.3435  0.5439
17755SOL     OW59226   2.143   8.673   2.588  0.6064  0.1778  0.3715
17755SOL    HW159227   2.095   8.595   2.615  1.0459 -0.6454 -1.1187
17755SOL    HW259228   2.141   8.730   2.665 -0.8325 -0.7512  1.0656
17756SOL     OW59229   8.642   9.234   5.876  0.1271  0.2208  0.1954
17756SOL    HW159230   8.726   9.222   5.832 -0.8646 -0.0976 -1.7128
17756SOL    HW259231   8.657   9.202   5.965  1.7928 -0.6065 -0.3443
17757SOL     OW59232   3.585   6.947   3.066 -0.3612 -0.2044 -0.2064
17757SOL    HW159233   3.616   6.859   3.087  1.5362  0.6053  0.6571
17757SOL    HW259234   3.663   7.002   3.073 -1.6044  1.6448 -0.1678
17758SOL     OW59235   6.580   0.227   1.993  0.4578 -0.0841 -0.0512
17758SOL    HW159236   6.612   0.216   1.904  1.1164 -1.7481  0.3572
17758SOL    HW259237   6.620   0.155   2.042  2.2602  2.2322  2.2037
17759SOL     OW59238   7.684   4.306   3.313 -0.1455 -0.1952  0.2588
17759SOL    HW159239   7.739   4.312   3.391 -0.8065  2.2025  0.6170
17759SOL    HW259240   7.684   4.395   3.277 -0.3931 -1.0733 -2.1265
17760SOL     OW59241   9.227   3.997   6.670 -0.1489 -0.4424 -0.3504
17760SOL    HW159242   9.315   4.032   6.660  0.4442  0.2293  4.5367
17760SOL    HW259243   9.177   4.067   6.711 -2.2806 -1.6075 -0.7933
17761SOL     OW59244   4.856   8.503   3.740 -0.3463 -0.0346  0.6398
17761SOL    HW159245   4.929   8.441   3.735  1.1146  1.6524 -0.1332
17761SOL    HW259246   4.893   8.579   3.785 -2.3497 -0.0275  2.3966
17762SOL     OW59247   7.520   3.185   4.594  0.2258 -0.0717  0.2462
17762SOL    HW159248   7.480   3.256   4.544  1.2097  0.3008 -0.0205
17762SOL    HW259249   7.599   3.163   4.547  1.2159  0.3243  1.6454
17763SOL     OW59250   2.030   0.435   0.896  0.1239  0.0692 -0.5104
17763SOL    HW159251   2.000   0.397   0.978 -0.7105  0.2729 -0.7133
17763SOL    HW259252   2.073   0.517   0.920  0.1113 -0.0004 -0.2563
17764SOL     OW59253   7.773   6.787   6.299  0.0095 -0.0326 -0.0840
17764SOL    HW159254   7.840   6.719   6.303 -1.3121 -1.3510  0.3322
17764SOL    HW259255   7.793   6.844   6.373  1.5126  0.4632 -0.8075
17765SOL     OW59256   0.310   3.608   1.756  0.3254 -0.1510  0.2872
17765SOL    HW159257   0.261   3.686   1.782 -0.5700 -0.2143 -1.1578
17765SOL    HW259258   0.345   3.629   1.670  0.3407 -1.2358  0.0204
17766SOL     OW59259   9.322   0.604   1.505 -0.1778 -0.1555  0.6636
17766SOL    HW159260   9.415   0.581   1.500  0.0952  1.1098 -1.6451
17766SOL    HW259261   9.276   0.524   1.483  0.5348 -0.0112 -1.5716
17767SOL     OW59262   7.065   0.511   3.449  0.8584 -0.4994  0.7650
17767SOL    HW159263   7.100   0.548   3.367 -0.4489 -0.1728  0.3311
17767SOL    HW259264   7.056   0.418   3.431 -0.1215 -0.3176  0.2635
17768SOL     OW59265   5.702   1.774   0.898 -0.3470 -0.2356  0.4159
17768SOL    HW159266   5.671   1.780   0.807 -1.7858  1.0853  0.9538
17768SOL    HW259267   5.622   1.760   0.949  0.2255  0.7057  1.6143
17769SOL     OW59268   2.653   2.710   4.327 -0.3017  0.5665 -0.2372
17769SOL    HW159269   2.632   2.803   4.322  0.2259  0.7423  0.5957
17769SOL    HW259270   2.703   2.701   4.408 -0.1410 -0.4050 -0.4305
17770SOL     OW59271   7.295   1.938   3.529 -0.9085 -0.1946 -0.3928
17770SOL    HW159272   7.286   1.931   3.624  0.0733  1.5986 -0.1054
17770SOL    HW259273   7.206   1.936   3.495 -1.2302 -1.5247  0.4900
17771SOL     OW59274   1.375   3.924   3.424  0.2490  0.0489  0.2619
17771SOL    HW159275   1.292   3.951   3.464  0.7659  1.4292  0.4833
17771SOL    HW259276   1.408   4.004   3.383 -0.4891 -1.4084 -3.4843
17772SOL     OW59277   6.810   7.375   2.072  0.1427  0.1484 -0.0972
17772SOL    HW159278   6.905   7.365   2.063  0.0538  0.2417 -1.3916
17772SOL    HW259279   6.773   7.301   2.022 -0.4550  1.1835 -1.2562
17773SOL     OW59280   6.259   7.193   0.971  0.4695 -0.1109  0.2507
17773SOL    HW159281   6.195   7.126   0.994 -0.9198  0.9791 -0.3117
17773SOL    HW259282   6.207   7.268   0.940  2.0090  0.7576 -0.3998
17774SOL     OW59283   0.157   8.875   8.426  1.1159  0.4302 -0.3572
17774SOL    HW159284   0.221   8.942   8.402  0.7418  1.1302  0.5125
17774SOL    HW259285   0.205   8.815   8.482  1.3254  0.2514 -0.7260
17775SOL     OW59286   8.415   2.848   7.411  0.1140  0.4120  0.2359
17775SOL    HW159287   8.381   2.798   7.337 -1.1520 -0.3082  1.2497
17775SOL    HW259288   8.350   2.917   7.425  1.2216  1.6110 -0.3782
17776SOL     OW59289   6.048   2.349   2.154  0.6482  0.0823 -0.7581
17776SOL    HW159290   6.135   2.387   2.149  1.2205 -1.0148  0.2532
17776SOL    HW259291   5.990   2.417   2.119  1.5525  2.0930  1.3195
17777SOL     OW59292   8.938   1.018   4.198  0.2686  0.0857  0.6449
17777SOL    HW159293   8.995   0.942   4.200 -0.0683 -0.1632  0.9351
17777SOL    HW259294   8.980   1.078   4.137  0.5619 -0.3136  0.4498
17778SOL     OW59295   3.214   8.826   1.251  0.0651  0.3597 -0.1514
17778SOL    HW159296   3.228   8.732   1.258 -0.0307  0.4647  2.8094
17778SOL    HW259297   3.299   8.861   1.221  0.2608 -0.6055 -0.7390
17779SOL     OW59298   1.818   2.163   7.994 -0.0931  0.6105 -0.0246
17779SOL    HW159299   1.748   2.168   8.060  0.5687  0.5957  0.6918
17779SOL    HW259300   1.783   2.211   7.919 -0.2118  2.0959  0.9408
17780SOL     OW59301   7.992   9.332   8.821  0.3799 -0.1476 -0.5115
17780SOL    HW159302   8.083   9.361   8.831  0.0886  0.9493 -0.8536
17780SOL    HW259303   7.964   9.311   8.910  0.6784  0.4669 -0.2635
17781SOL     OW59304   8.644   2.389   5.077 -0.1992 -0.0395 -0.2846
17781SOL    HW159305   8.570   2.386   5.015 -0.8260  0.7303  0.4028
17781SOL    HW259306   8.613   2.445   5.148  0.0572 -1.8368  1.3151
17782SOL     OW59307   3.346   8.542   1.588 -0.2285  0.0971  0.0730
17782SOL    HW159308   3.405   8.475   1.622 -1.6117 -0.8042  0.8098
17782SOL    HW259309   3.338   8.521   1.495 -1.4720 -1.4883  0.4866
17783SOL     OW59310   7.549   3.965   3.756  0.1694  0.1823  0.0566
17783SOL    HW159311   7.478   3.904   3.779  0.2694 -0.3188 -0.8935
17783SOL    HW259312   7.564   4.015   3.836  1.0562 -2.0111  1.3762
17784SOL     OW59313   3.950   3.063   2.103 -0.0145  0.2631 -0.0177
17784SOL    HW159314   3.991   3.037   2.020 -1.3660 -2.1561 -0.0339
17784SOL    HW259315   3.994   3.008   2.169  0.7639  1.8713  0.8630
17785SOL     OW59316   1.598   7.965   8.404 -0.3002 -0.1297 -0.1320
17785SOL    HW159317   1.568   8.035   8.346 -1.3690  0.2767  0.8881
17785SOL    HW259318   1.671   8.003   8.452 -0.5937  0.1365  0.1032
17786SOL     OW59319   4.640   3.266   1.693 -0.0947  0.3969 -0.3794
17786SOL    HW159320   4.583   3.330   1.736  0.4082  0.4422  0.2280
17786SOL    HW259321   4.650   3.195   1.758  0.1175  0.1451 -0.6836
17787SOL     OW59322   6.365   5.208   5.939  0.3212 -0.4276 -0.7739
17787SOL    HW159323   6.288   5.265   5.939  1.3335  1.0294  0.5438
17787SOL    HW259324   6.413   5.235   5.861  0.4724  0.0779 -0.5109
17788SOL     OW59325   4.363   2.710   4.289 -0.6245  0.1328  0.0987
17788SOL    HW159326   4.430   2.646   4.266 -2.0130 -1.4822  0.3382
17788SOL    HW259327   4.403   2.795   4.268  1.1228 -0.8111 -0.6342
17789SOL     OW59328   6.505   4.328   6.279 -0.0578  0.0888  0.4386
17789SOL    HW159329   6.441   4.263   6.307  0.9824 -1.6861 -1.1032
17789SOL    HW259330   6.452   4.400   6.245 -1.2794 -1.1742 -0.4708
17790SOL     OW59331   2.656   8.700   8.457  0.2862  0.4058  0.5246
17790SOL    HW159332   2.614   8.742   8.382 -0.1013 -0.1083  0.4486
17790SOL    HW259333   2.608   8.619   8.468  1.4653 -0.3541  0.2359
17791SOL     OW59334   2.801   9.272   0.972  0.2146 -0.8759 -0.3176
17791SOL    HW159335   2.767   9.257   0.883 -1.4239 -2.6750  0.5502
17791SOL    HW259336   2.849   9.192   0.993 -0.5481 -1.0439  0.8885
17792SOL     OW59337   8.611   4.110   5.691 -0.1020 -0.2842  0.5142
17792SOL    HW159338   8.528   4.131   5.735  0.1287 -0.5070  1.0679
17792SOL    HW259339   8.677   4.120   5.760  0.5017  1.1601 -0.2167
17793SOL     OW59340   6.572   2.388   2.070 -0.1987 -0.3344 -0.2056
17793SOL    HW159341   6.544   2.430   2.152 -1.6663 -2.5715  0.5567
17793SOL    HW259342   6.498   2.401   2.010 -0.8238 -1.9230  0.1438
17794SOL     OW59343   8.738   7.459   7.241  0.1141 -0.2778  0.3330
17794SOL    HW159344   8.721   7.471   7.148 -0.6983 -0.3827  0.4602
17794SOL    HW259345   8.833   7.449   7.247  0.1111 -0.9616 -0.5629
17795SOL     OW59346   6.572   3.515   0.852  0.0811  0.1739 -0.2828
17795SOL    HW159347   6.588   3.600   0.812 -0.0745  0.1873 -0.3162
17795SOL    HW259348   6.644   3.505   0.915 -0.1347  0.5164  0.0227
17796SOL     OW59349   8.746   4.664   1.702 -0.6045  0.3442  0.0633
17796SOL    HW159350   8.684   4.594   1.724 -0.8320  0.4863 -0.1217
17796SOL    HW259351   8.725   4.686   1.611  1.2415 -1.2139 -0.8170
17797SOL     OW59352   2.671   4.186   8.170 -0.1652  0.0541 -0.5532
17797SOL    HW159353   2.635   4.222   8.089 -1.6139 -1.6801 -0.7331
17797SOL    HW259354   2.747   4.135   8.142 -0.4459 -0.2407 -0.7952
17798SOL     OW59355   0.201   5.596   4.390 -0.2269  0.2740  0.6645
17798SOL    HW159356   0.244   5.582   4.474 -0.8462  1.1618  1.1509
17798SOL    HW259357   0.120   5.643   4.412  1.3958  4.0779 -0.6852
17799SOL     OW59358   7.634   2.971   6.302 -0.2058  0.1547  0.6219
17799SOL    HW159359   7.668   2.891   6.262 -0.5079  0.8059 -1.0049
17799SOL    HW259360   7.573   2.940   6.369  0.0440 -0.9845  0.3412
17800SOL     OW59361   2.625   4.175   2.006  0.3655 -0.0099 -0.0528
17800SOL    HW159362   2.597   4.135   1.924 -0.1225 -0.1533  0.1799
17800SOL    HW259363   2.591   4.265   2.002 -1.1972 -0.5396  0.7520
17801SOL     OW59364   6.444   3.524   7.759 -0.1223  0.1846  0.1827
17801SOL    HW159365   6.454   3.558   7.670  1.5426  1.2991  0.7322
17801SOL    HW259366   6.503   3.448   7.762 -0.0178  0.2717  0.3730
17802SOL     OW59367   7.434   9.179   6.003  0.3657  0.0988  0.2104
17802SOL    HW159368   7.362   9.128   5.966 -0.1577  0.8275  0.1910
17802SOL    HW259369   7.487   9.205   5.927 -0.0756  0.6396  0.0815
17803SOL     OW59370   6.232   7.678   2.606 -0.2542 -0.1996  0.2432
17803SOL    HW159371   6.275   7.594   2.591  0.0202  0.0632 -0.4970
17803SOL    HW259372   6.139   7.661   2.592  0.0528  0.2348 -2.9290
17804SOL     OW59373   2.354   6.647   4.485  0.3695  0.1816  0.2588
17804SOL    HW159374   2.280   6.591   4.508  1.2969 -1.7365 -1.1856
17804SOL    HW259375   2.318   6.712   4.425 -0.4678  0.4049  0.9725
17805SOL     OW59376   4.911   9.316   7.426 -0.4893 -0.2269 -0.2214
17805SOL    HW159377   5.002   9.289   7.430 -0.4698 -0.2238 -0.5759
17805SOL    HW259378   4.896   9.364   7.508  0.7677  2.6644 -1.5251
17806SOL     OW59379   2.208   9.138   9.289 -0.3320 -0.0788 -0.1829
17806SOL    HW159380   2.119   9.127   9.322 -0.5819  0.4798 -0.6726
17806SOL    HW259381   2.236   9.223   9.324  0.4360 -0.7661  0.9333
17807SOL     OW59382   7.923   6.618   9.222 -0.2156 -0.1553 -0.0846
17807SOL    HW159383   7.955   6.705   9.194 -1.0292 -0.4432 -2.0937
17807SOL    HW259384   7.828   6.623   9.211 -0.1698 -1.7181 -1.6292
17808SOL     OW59385   3.093   1.813   4.318 -0.5775  0.3413 -0.3728
17808SOL    HW159386   3.082   1.808   4.223 -0.4404  2.0992 -0.5023
17808SOL    HW259387   3.019   1.866   4.348  0.2747  1.1736  0.2940
17809SOL     OW59388   8.587   5.566   3.293  0.4222  0.0341 -0.3444
17809SOL    HW159389   8.662   5.587   3.348 -0.1777  0.1665  0.4372
17809SOL    HW259390   8.546   5.491   3.335 -0.2024  0.3084 -0.4471
17810SOL     OW59391   6.473   3.625   8.108  0.3961  0.2604 -0.6234
17810SOL    HW159392   6.461   3.710   8.151  0.1081 -0.0195 -0.1402
17810SOL    HW259393   6.386   3.604   8.072  0.4217  0.0863 -0.5844
17811SOL     OW59394   6.530   1.524   1.551 -0.1768 -0.2982 -0.3251
17811SOL    HW159395   6.479   1.599   1.582  1.3966  0.2150  1.1568
17811SOL    HW259396   6.473   1.449   1.568 -0.4881  0.2543  1.2750
17812SOL     OW59397   2.763   8.518   2.051  0.0280  0.3493 -0.0403
17812SOL    HW159398   2.774   8.607   2.087  2.3495 -0.6522  2.0494
17812SOL    HW259399   2.668   8.503   2.053 -0.5620  3.1701 -1.6358
17813SOL     OW59400   5.079   6.506   6.593  0.2003  0.2664  0.1540
17813SOL    HW159401   5.020   6.579   6.608 -1.0422 -0.3237 -1.5808
17813SOL    HW259402   5.166   6.541   6.612 -0.3359  2.2769 -0.8378
17814SOL     OW59403   8.123   3.691   8.071  0.1345  0.2587  0.0519
17814SOL    HW159404   8.079   3.767   8.108 -0.1924  0.8522 -1.4490
17814SOL    HW259405   8.141   3.635   8.145 -0.0679  1.5769  1.1390
17815SOL     OW59406   5.017   7.976   7.507 -0.7789  0.5142 -0.1923
17815SOL    HW159407   5.041   7.948   7.419 -1.0612  0.8261 -0.3716
17815SOL    HW259408   5.100   7.981   7.555 -0.7427 -1.0145 -0.0340
17816SOL     OW59409   7.250   2.850   5.714 -0.0596  0.3302 -0.0925
17816SOL    HW159410   7.284   2.891   5.634 -0.5383  0.6668 -0.1212
17816SOL    HW259411   7.329   2.817   5.758  0.0640 -1.9199 -1.8231
17817SOL     OW59412   3.475   7.714   6.032  0.0175 -0.0860  0.6557
17817SOL    HW159413   3.426   7.716   6.115 -2.1533 -2.5314 -0.4107
17817SOL    HW259414   3.408   7.698   5.965  2.0479 -1.7294 -1.1399
17818SOL     OW59415   9.091   9.305   1.879 -0.4136  0.0340  0.1122
17818SOL    HW159416   9.118   9.214   1.876 -2.0328 -0.4539 -1.2324
17818SOL    HW259417   9.025   9.308   1.949  0.1558  0.3413  0.6428
17819SOL     OW59418   1.750   2.282   5.851  0.0872  0.1195 -0.4881
17819SOL    HW159419   1.759   2.237   5.766 -0.2371 -0.3855 -0.2612
17819SOL    HW259420   1.732   2.211   5.913 -0.6756  0.5927 -0.1645
17820SOL     OW59421   1.124   3.933   3.568  0.0914 -0.2237  0.3382
17820SOL    HW159422   1.116   3.999   3.636 -0.9136  0.2446 -0.2208
17820SOL    HW259423   1.049   3.875   3.581  0.8861 -1.2106  0.7436
17821SOL     OW59424   8.155   6.120   7.437  0.0951 -0.2939 -0.5148
17821SOL    HW159425   8.089   6.170   7.389 -1.2006 -1.6267 -0.1968
17821SOL    HW259426   8.188   6.181   7.503 -2.3654 -0.1731  0.7053
17822SOL     OW59427   1.094   3.184   0.893 -0.0888  0.2337 -0.5752
17822SOL    HW159428   1.079   3.101   0.847 -0.8539 -0.1458  0.3353
17822SOL    HW259429   1.021   3.240   0.866 -0.6219 -0.0397  0.2700
17823SOL     OW59430   6.358   4.727   3.679  0.5295  0.2783 -0.1961
17823SOL    HW159431   6.402   4.799   3.724  0.1044 -0.8944  2.2659
17823SOL    HW259432   6.429   4.668   3.654  0.6261 -0.7398  2.1732
17824SOL     OW59433   9.302   5.565   6.932  0.0133  0.4677 -0.5286
17824SOL    HW159434   9.357   5.554   6.855  0.1291 -0.3335 -0.3404
17824SOL    HW259435   9.364   5.563   7.006 -0.3146 -1.2896 -0.2526
17825SOL     OW59436   7.260   1.109   8.377  0.5259  0.5491 -0.2930
17825SOL    HW159437   7.216   1.023   8.374  0.4602  0.5827 -0.2935
17825SOL    HW259438   7.288   1.118   8.468  0.3954  0.5960 -0.2569
17826SOL     OW59439   4.069   0.100   7.125  0.0263 -0.1108 -0.6041
17826SOL    HW159440   4.008   0.031   7.098 -0.8388  0.5374 -0.3779
17826SOL    HW259441   4.152   0.056   7.139 -0.6966 -1.2336  0.2717
17827SOL     OW59442   0.115   5.871   4.687 -0.9210 -0.3324  0.1542
17827SOL    HW159443   0.175   5.929   4.641 -2.8669  1.5824 -0.1246
17827SOL    HW259444   0.109   5.794   4.631 -0.2033  0.2613 -0.7732
17828SOL     OW59445   9.275   1.273   1.633 -0.0452  0.3600 -0.1655
17828SOL    HW159446   9.342   1.210   1.659 -0.8756 -0.7514 -0.6482
17828SOL    HW259447   9.266   1.331   1.708 -0.0872 -0.8078  0.7569
17829SOL     OW59448   4.506   5.708   0.773 -0.3144  0.6199  0.2041
17829SOL    HW159449   4.507   5.724   0.868 -1.3139  0.1140  0.3190
17829SOL    HW259450   4.428   5.755   0.742  0.0927  0.9128 -0.3981
17830SOL     OW59451   0.079   6.505   2.298 -0.3658  0.7293 -0.2082
17830SOL    HW159452   0.011   6.501   2.365 -0.3540  0.6141 -0.2028
17830SOL    HW259453   0.156   6.466   2.340 -0.9067 -1.2759 -0.9498
17831SOL     OW59454   4.696   6.756   6.419 -0.3171  0.1223  0.3458
17831SOL    HW159455   4.747   6.804   6.484  0.7484  1.3991 -1.3522
17831SOL    HW259456   4.630   6.819   6.389 -0.2985 -0.1752 -0.3412
17832SOL     OW59457   8.115   8.031   1.806  0.3026  0.1230 -0.3184
17832SOL    HW159458   8.175   7.968   1.845 -1.5242 -2.0109 -0.7287
17832SOL    HW259459   8.055   8.053   1.877 -1.4727 -1.7916 -1.1160
17833SOL     OW59460   4.858   8.670   1.683 -0.0066 -0.4830 -0.0236
17833SOL    HW159461   4.839   8.670   1.777 -3.8530 -1.0878 -0.6276
17833SOL    HW259462   4.936   8.616   1.675  0.2046 -0.7714  2.7887
17834SOL     OW59463   0.442   6.012   1.238  0.2075  0.2694 -0.4865
17834SOL    HW159464   0.456   6.100   1.271 -2.9960  0.9645 -0.6977
17834SOL    HW259465   0.435   6.022   1.143 -1.0565 -0.0411 -0.4418
17835SOL     OW59466   8.818   8.854   2.477 -0.5338 -0.0350 -0.1257
17835SOL    HW159467   8.890   8.867   2.414 -0.7002  1.0397 -0.1159
17835SOL    HW259468   8.855   8.879   2.561 -0.8815  0.4312 -0.1062
17836SOL     OW59469   3.844   7.705   8.770 -0.3110 -0.2835 -0.2977
17836SOL    HW159470   3.761   7.749   8.755 -0.0125  2.1719  3.7212
17836SOL    HW259471   3.822   7.612   8.775 -2.1324 -0.0633 -2.6552
17837SOL     OW59472   0.755   5.009   4.182  0.6496  0.4320 -0.0013
17837SOL    HW159473   0.787   4.920   4.170 -0.8463 -0.0078 -1.1110
17837SOL    HW259474   0.689   5.002   4.251  0.4106  0.6440 -0.2049
17838SOL     OW59475   0.245   2.453   0.819 -0.0833 -0.2887  0.6926
17838SOL    HW159476   0.287   2.414   0.895 -0.2979  0.6652  1.3116
17838SOL    HW259477   0.193   2.525   0.854 -1.7860 -1.0638 -0.1205
17839SOL     OW59478   4.534   6.162   4.666  0.5505  0.1294 -1.1729
17839SOL    HW159479   4.597   6.133   4.731  0.1648 -1.3031 -1.4078
17839SOL    HW259480   4.553   6.255   4.653 -0.9201  1.1443  2.7260
17840SOL     OW59481   8.891   8.300   1.242  0.6840 -0.7053 -0.0588
17840SOL    HW159482   8.820   8.273   1.300  0.2182  0.1689 -0.2090
17840SOL    HW259483   8.968   8.253   1.275  0.7586  0.8434  2.2170
17841SOL     OW59484   6.330   2.711   3.717  0.6182 -0.3552 -0.9191
17841SOL    HW159485   6.291   2.734   3.801 -1.7399 -0.2764 -1.9617
17841SOL    HW259486   6.400   2.775   3.705  0.7453 -0.1217  0.7805
17842SOL     OW59487   2.770   8.894   6.460 -0.0635 -0.3246 -0.1638
17842SOL    HW159488   2.789   8.958   6.391 -1.1745 -0.5677 -0.7136
17842SOL    HW259489   2.819   8.816   6.435 -0.2235 -0.3112 -0.5178
17843SOL     OW59490   8.938   1.610   8.948  0.2316  0.2742  0.3031
17843SOL    HW159491   8.967   1.655   9.026  0.2967 -0.2580  0.5918
17843SOL    HW259492   8.873   1.547   8.979  1.2705 -0.9324  0.1507
17844SOL     OW59493   1.114   2.304   1.336 -0.2076 -0.2384 -0.1880
17844SOL    HW159494   1.106   2.395   1.305  2.1363 -0.0921 -0.5676
17844SOL    HW259495   1.054   2.299   1.410  0.6113  2.0751  0.7429
17845SOL     OW59496   7.984   5.124   3.195  0.0969  0.1545  0.2146
17845SOL    HW159497   7.894   5.146   3.218 -1.0426 -0.1694 -3.3151
17845SOL    HW259498   8.023   5.208   3.169  0.2415  0.0485  0.0846
17846SOL     OW59499   6.821   7.572   2.263  0.3189 -0.2904  0.0737
17846SOL    HW159500   6.908   7.561   2.302  1.1583  1.3577 -1.1795
17846SOL    HW259501   6.802   7.487   2.223  0.6813 -1.1193  1.5561
17847SOL     OW59502   7.697   8.191   2.474  0.2899 -0.4181  0.3704
17847SOL    HW159503   7.782   8.197   2.518  1.0935  1.9079 -1.2911
17847SOL    HW259504   7.675   8.282   2.455 -1.8580 -1.1053 -0.6019
17848SOL     OW59505   8.281   7.124   6.601 -0.1420  0.0328  0.2207
17848SOL    HW159506   8.244   7.035   6.597  0.0342 -0.1238  1.5983
17848SOL    HW259507   8.216   7.178   6.556 -1.2712 -0.4925  1.1561
17849SOL     OW59508   3.436   1.085   0.643  0.8105  0.6457 -0.1561
17849SOL    HW159509   3.431   1.050   0.554  0.1550 -0.2021  0.2040
17849SOL    HW259510   3.444   1.008   0.699 -0.4015  1.0595  0.6357
17850SOL     OW59511   8.056   0.131   2.637 -0.1577  0.3374 -0.3652
17850SOL    HW159512   8.073   0.145   2.730 -1.0397 -1.8059  0.1723
17850SOL    HW259513   8.116   0.191   2.593  1.5967  0.1120  1.5545
17851SOL     OW59514   6.266   0.379   4.316 -0.3658  0.1700  0.5700
17851SOL    HW159515   6.294   0.399   4.405  0.0861 -2.1082  0.9965
17851SOL    HW259516   6.347   0.362   4.268 -0.6363  0.8260 -0.1316
17852SOL     OW59517   5.042   3.657   5.887  0.2342  0.3571  0.3432
17852SOL    HW159518   5.034   3.735   5.832 -1.0776 -0.8068 -1.2004
17852SOL    HW259519   4.975   3.668   5.954  1.0269  1.2096  1.0214
17853SOL     OW59520   8.171   5.767   8.338  0.3177 -0.1245 -0.2266
17853SOL    HW159521   8.243   5.709   8.363  0.7999  0.8711  0.7955
17853SOL    HW259522   8.170   5.834   8.407 -1.5787 -0.1026 -0.2396
17854SOL     OW59523   5.546   0.554   8.273 -0.0069  0.3825  0.7054
17854SOL    HW159524   5.625   0.534   8.322 -0.1149 -0.0297  0.7162
17854SOL    HW259525   5.577   0.573   8.184 -0.0453 -1.9318  0.1233
17855SOL     OW59526   1.906   4.528   5.357  0.3864 -0.5483 -0.2730
17855SOL    HW159527   1.827   4.522   5.302  0.3011 -1.8156 -0.0361
17855SOL    HW259528   1.954   4.603   5.321 -1.0213  0.3866 -0.2849
17856SOL     OW59529   6.263   2.605   1.379  0.1015 -0.0120  0.2631
17856SOL    HW159530   6.283   2.698   1.392 -0.7595  0.5902 -2.1367
17856SOL    HW259531   6.219   2.578   1.459  0.0445  1.7560  0.8620
17857SOL     OW59532   4.672   5.625   1.581  0.1191 -0.2776 -0.4967
17857SOL    HW159533   4.680   5.591   1.492 -2.5691  0.2084 -1.0212
17857SOL    HW259534   4.719   5.709   1.579  0.4991 -0.4986 -1.3082
17858SOL     OW59535   8.338   3.611   5.097 -0.1906 -0.5947  1.0325
17858SOL    HW159536   8.399   3.554   5.050 -1.1270  0.5809 -1.8871
17858SOL    HW259537   8.370   3.613   5.186  2.5998 -1.9185  0.1701
17859SOL     OW59538   7.391   1.763   0.223  0.3181 -0.4064  0.0902
17859SOL    HW159539   7.351   1.676   0.217  0.2602 -0.3703 -0.0403
17859SOL    HW259540   7.397   1.780   0.317  0.1880 -0.4866  0.1138
17860SOL     OW59541   7.599   1.673   7.269  0.1160  0.5206  0.0520
17860SOL    HW159542   7.612   1.759   7.309  0.4676 -0.0590  1.2463
17860SOL    HW259543   7.505   1.665   7.258  0.1675  1.5860 -1.3217
17861SOL     OW59544   7.747   1.353   0.487  0.2851  0.3471  0.2743
17861SOL    HW159545   7.763   1.358   0.581  1.9313 -1.6837  0.1725
17861SOL    HW259546   7.694   1.274   0.476  0.8483  0.0724 -0.5541
17862SOL     OW59547   4.028   5.552   2.460  0.0118 -0.5196 -0.2558
17862SOL    HW159548   4.018   5.490   2.532 -2.2555 -0.4708 -0.4764
17862SOL    HW259549   4.009   5.637   2.498  2.5916  0.0548 -0.0830
17863SOL     OW59550   7.091   4.297   5.287 -0.3419  0.4512 -0.0412
17863SOL    HW159551   7.062   4.349   5.362  0.1722  1.8937 -0.8223
17863SOL    HW259552   7.062   4.346   5.211  0.9923  0.0889 -0.8140
17864SOL     OW59553   4.794   2.413   5.008  0.3676  0.5122  0.8046
17864SOL    HW159554   4.752   2.453   5.084 -0.8451  0.0684  0.3845
17864SOL    HW259555   4.801   2.320   5.029 -0.7686  0.2375  0.0434
17865SOL     OW59556   7.426   4.139   6.076  0.2681  0.4185  0.1185
17865SOL    HW159557   7.373   4.087   6.017 -0.1909  2.8145 -1.7593
17865SOL    HW259558   7.364   4.177   6.137  0.0792  1.4534 -0.6881
17866SOL     OW59559   8.030   0.635   6.102  0.0693 -0.0008 -0.1397
17866SOL    HW159560   8.012   0.557   6.050 -0.6397  0.4502 -0.5823
17866SOL    HW259561   7.982   0.621   6.184  1.1342 -0.6817  0.3866
17867SOL     OW59562   8.926   7.911   6.783  0.7783 -0.4562 -0.5602
17867SOL    HW159563   8.964   7.897   6.696  2.8274  0.1510  0.1785
17867SOL    HW259564   8.995   7.957   6.832 -1.0541  1.0184  0.7915
17868SOL     OW59565   8.860   8.897   4.074  0.4870 -0.0717  0.1825
17868SOL    HW159566   8.797   8.941   4.018  0.2357  1.1530  1.3679
17868SOL    HW259567   8.850   8.804   4.054 -1.0676  0.1685 -0.2796
17869SOL     OW59568   7.323   3.241   4.776 -0.9853 -0.1924  0.3590
17869SOL    HW159569   7.240   3.200   4.753 -0.8309 -1.1027  1.3681
17869SOL    HW259570   7.380   3.225   4.701 -2.0808  1.6031 -0.9374
17870SOL     OW59571   5.847   0.740   5.637 -0.3724 -0.6757  0.4411
17870SOL    HW159572   5.879   0.756   5.726  0.9681  1.8783 -0.3861
17870SOL    HW259573   5.905   0.672   5.603  0.5589 -0.1129  0.8404
17871SOL     OW59574   7.790   0.777   0.388  0.0437 -0.0951  0.8536
17871SOL    HW159575   7.765   0.696   0.432  1.7916 -1.1428  0.0319
17871SOL    HW259576   7.886   0.780   0.396  0.0929  1.3675  0.0038
17872SOL     OW59577   6.422   6.829   3.927 -0.0712 -0.6688 -0.7583
17872SOL    HW159578   6.485   6.771   3.883 -1.3495 -0.7626 -2.5721
17872SOL    HW259579   6.375   6.771   3.987 -0.2130 -1.1761 -1.3436
17873SOL     OW59580   3.388   0.842   0.230  0.2644  0.0403 -0.3405
17873SOL    HW159581   3.359   0.760   0.269 -1.2378  0.0860 -1.2843
17873SOL    HW259582   3.478   0.853   0.261 -0.4497 -0.4882  2.1367
17874SOL     OW59583   8.475   7.374   9.290 -0.1579  0.2457  1.0752
17874SOL    HW159584   8.540   7.382   9.359  0.2223  0.0416  0.7400
17874SOL    HW259585   8.499   7.295   9.243  0.2418  0.9691  0.0341
17875SOL     OW59586   3.454   3.597   2.576  0.3873 -0.1195  0.3218
17875SOL    HW159587   3.412   3.669   2.529  1.0373 -1.4069 -2.4148
17875SOL    HW259588   3.395   3.523   2.565  0.9377 -0.6612  0.8984
17876SOL     OW59589   6.900   2.335   8.600  0.0759 -0.4117  0.1383
17876SOL    HW159590   6.933   2.281   8.529  0.0283 -0.7633  0.3833
17876SOL    HW259591   6.856   2.274   8.658 -1.7144  0.1194 -0.5804
17877SOL     OW59592   5.876   5.810   5.216  0.2767  0.2657  0.3363
17877SOL    HW159593   5.864   5.718   5.237  0.3346  0.6453  2.2294
17877SOL    HW259594   5.959   5.834   5.257  1.2206  0.7505 -1.7244
17878SOL     OW59595   1.686   5.418   3.959  0.3093  0.1967  0.1716
17878SOL    HW159596   1.626   5.410   3.885  1.3879  2.5274 -1.0554
17878SOL    HW259597   1.661   5.347   4.018 -0.8482 -1.5382 -2.2318
17879SOL     OW59598   5.251   4.383   1.644  0.1533  0.5220 -0.4549
17879SOL    HW159599   5.273   4.396   1.552 -0.3180  0.6708 -0.5483
17879SOL    HW259600   5.303   4.307   1.670  0.4307  0.5936 -0.7930
17880SOL     OW59601   4.334   6.106   6.324  0.0232 -0.4669 -0.2038
17880SOL    HW159602   4.346   6.030   6.268 -2.7832 -0.1044 -1.5107
17880SOL    HW259603   4.265   6.080   6.386  0.0678  0.5291  0.2949
17881SOL     OW59604   8.021   4.630   7.882  0.0071 -0.2014 -0.1430
17881SOL    HW159605   8.087   4.567   7.913  0.9352  0.5011 -0.6303
17881SOL    HW259606   8.038   4.709   7.933 -2.7343 -0.9754  2.2723
17882SOL     OW59607   6.072   8.973   3.798  0.2194 -0.6215 -0.0982
17882SOL    HW159608   6.050   9.066   3.807  0.3608 -0.6803  1.0063
17882SOL    HW259609   6.008   8.928   3.853 -0.1519 -1.2324 -1.0057
17883SOL     OW59610   7.054   7.309   0.883  0.2798  0.7004  0.2662
17883SOL    HW159611   6.983   7.373   0.882  0.5094  0.9541  0.2923
17883SOL    HW259612   7.050   7.269   0.796 -0.0918  0.4962  0.3735
17884SOL     OW59613   1.227   1.480   8.176  0.0889  0.3398 -0.0084
17884SOL    HW159614   1.231   1.570   8.209 -1.0248  0.6873 -0.8000
17884SOL    HW259615   1.136   1.453   8.189 -0.1530  0.1347 -1.8519
17885SOL     OW59616   3.310   8.748   7.229  0.7190 -0.3211 -0.1022
17885SOL    HW159617   3.275   8.822   7.179  0.2173  1.1028  2.1565
17885SOL    HW259618   3.395   8.730   7.189  0.3018  0.6376 -1.5111
17886SOL     OW59619   5.845   6.067   9.310  0.3425 -0.4137  0.5464
17886SOL    HW159620   5.803   6.116   9.239  1.4626 -0.1921  0.0017
17886SOL    HW259621   5.821   6.115   9.389  0.6629  0.4992  0.1127
17887SOL     OW59622   6.784   5.684   8.989  0.1299 -0.1238  0.0778
17887SOL    HW159623   6.875   5.685   9.017  0.9535 -0.4369 -2.3930
17887SOL    HW259624   6.737   5.642   9.061  1.4341  2.3952  2.5970
17888SOL     OW59625   9.099   1.194   1.423  0.0427 -0.4487  0.4767
17888SOL    HW159626   9.162   1.146   1.368 -0.8169  0.4434 -1.3548
17888SOL    HW259627   9.153   1.235   1.491  1.3285 -0.4795 -0.4918
17889SOL     OW59628   5.024   7.277   8.059  0.9821  0.0857  0.4310
17889SOL    HW159629   5.093   7.330   8.019  0.7659 -0.7625 -1.1622
17889SOL    HW259630   5.071   7.207   8.104  1.2207 -1.3142 -1.8323
17890SOL     OW59631   3.915   6.664   0.121  0.0962 -0.1474  0.3635
17890SOL    HW159632   3.915   6.734   0.055 -1.5360 -0.8996 -0.5154
17890SOL    HW259633   3.851   6.693   0.186 -0.0019 -0.4553  0.4043
17891SOL     OW59634   1.954   3.319   5.409  0.0883  0.7594 -0.6003
17891SOL    HW159635   1.903   3.298   5.487  1.6672 -0.7294  0.0915
17891SOL    HW259636   1.894   3.305   5.336 -0.6211 -0.5471  0.2036
17892SOL     OW59637   0.214   5.704   6.022  0.6472 -0.0020 -0.3541
17892SOL    HW159638   0.282   5.765   5.994  0.9574 -1.5239 -3.2060
17892SOL    HW259639   0.140   5.722   5.963 -0.3826 -0.3643  0.7784
17893SOL     OW59640   0.876   7.915   4.011 -0.1473  0.3289 -0.0403
17893SOL    HW159641   0.940   7.947   3.949 -1.5444  0.7654 -1.3268
17893SOL    HW259642   0.867   7.985   4.076  0.6206  0.2817  0.1197
17894SOL     OW59643   4.746   4.197   1.761  0.3390  0.1845  0.3325
17894SOL    HW159644   4.713   4.236   1.680 -0.3568  0.5530  0.7868
17894SOL    HW259645   4.841   4.205   1.755  0.2848  0.3315 -0.3833
17895SOL     OW59646   7.684   5.070   2.097 -0.2254  0.3009 -0.9023
17895SOL    HW159647   7.589   5.055   2.097 -0.3737  1.1993  0.0780
17895SOL    HW259648   7.716   5.022   2.173 -0.0510  0.9417 -0.5698
17896SOL     OW59649   1.310   7.383   7.004 -0.0031 -0.3184  0.2428
17896SOL    HW159650   1.319   7.352   6.914 -1.5322  1.1007 -0.4527
17896SOL    HW259651   1.376   7.451   7.013 -0.6084  0.3553 -0.2307
17897SOL     OW59652   4.928   9.187   0.706 -0.0575  0.0078 -0.5120
17897SOL    HW159653   4.900   9.178   0.615 -1.8333 -0.8634  0.0493
17897SOL    HW259654   4.990   9.115   0.719  0.2141  0.1435 -1.0369
17898SOL     OW59655   8.788   6.030   8.579  0.3553 -0.1112 -0.0637
17898SOL    HW159656   8.789   5.956   8.519 -4.4907  1.0693 -2.1021
17898SOL    HW259657   8.846   6.095   8.539  1.3665 -1.2552 -0.5084
17899SOL     OW59658   6.195   1.643   7.286 -0.5889  0.2251 -0.1764
17899SOL    HW159659   6.161   1.714   7.341  1.4704  2.3829 -1.4719
17899SOL    HW259660   6.201   1.682   7.199 -0.2766 -1.9019 -1.1470
17900SOL     OW59661   0.755   8.176   5.050  0.2377  0.0409 -0.2566
17900SOL    HW159662   0.735   8.238   4.980 -1.8645  0.8473  0.9891
17900SOL    HW259663   0.733   8.091   5.013  1.0561  0.2323 -1.2285
17901SOL     OW59664   0.529   7.106   8.118  0.0070 -0.0326 -0.2086
17901SOL    HW159665   0.555   7.113   8.210 -0.9362  1.7351 -0.0235
17901SOL    HW259666   0.611   7.105   8.069  0.4961  0.4689  0.5818
17902SOL     OW59667   4.278   9.367   7.948 -0.4706  0.2458  0.0066
17902SOL    HW159668   4.358   9.385   7.997 -0.9768 -0.9555  1.3530
17902SOL    HW259669   4.209   9.407   8.001 -0.8440  0.5373 -0.6974
17903SOL     OW59670   0.341   8.158   5.754 -0.3176 -0.1417  0.0831
17903SOL    HW159671   0.316   8.074   5.793 -0.4197 -0.8768 -1.5049
17903SOL    HW259672   0.387   8.204   5.825 -1.0521 -1.1508  1.2542
17904SOL     OW59673   7.161   0.809   4.966 -0.8954  0.0310  0.0881
17904SOL    HW159674   7.209   0.811   5.048  0.5036  1.5782 -0.7044
17904SOL    HW259675   7.225   0.781   4.901 -1.4157  0.7645 -0.7700
17905SOL     OW59676   3.161   4.864   1.083  0.1799  0.3405 -0.5779
17905SOL    HW159677   3.093   4.930   1.095 -0.3988 -0.6108  2.1750
17905SOL    HW259678   3.166   4.851   0.988 -3.5133  0.4460 -0.9311
17906SOL     OW59679   6.916   4.989   3.215 -0.0163 -0.5541  0.5469
17906SOL    HW159680   6.872   5.058   3.166 -0.5988 -0.1596  1.6029
17906SOL    HW259681   7.000   5.027   3.240 -0.5058 -0.0498  1.4891
17907SOL     OW59682   1.362   6.228   1.397  0.1344 -0.1480 -0.4546
17907SOL    HW159683   1.441   6.226   1.450  0.1217  1.3893 -0.3341
17907SOL    HW259684   1.368   6.150   1.342  2.6416  0.8769 -1.7556
17908SOL     OW59685   2.394   2.835   1.170  0.1947 -0.7775  0.2681
17908SOL    HW159686   2.386   2.852   1.076 -2.2599 -2.1743  0.1483
17908SOL    HW259687   2.320   2.883   1.209  0.9221 -0.5848  1.4481
17909SOL     OW59688   0.996   1.017   5.832  0.3016  0.0480  0.2230
17909SOL    HW159689   1.071   1.047   5.883  0.0762  0.3076  0.4027
17909SOL    HW259690   1.024   0.933   5.794  1.3424  0.9771 -1.1711
17910SOL     OW59691   4.345   7.165   1.188 -0.7857 -0.5898 -0.0882
17910SOL    HW159692   4.338   7.257   1.212  0.2559 -0.6380  0.4804
17910SOL    HW259693   4.270   7.123   1.230 -1.2481 -0.0134 -0.3306
17911SOL     OW59694   1.829   7.570   2.412  0.0635 -0.2386  0.0564
17911SOL    HW159695   1.851   7.557   2.504 -1.0315  0.9470  0.5070
17911SOL    HW259696   1.804   7.483   2.381 -2.8179 -0.1557  1.8143
17912SOL     OW59697   5.527   8.269   1.165  0.0591 -0.1307  0.7234
17912SOL    HW159698   5.474   8.237   1.238 -0.7294  1.0724  0.7008
17912SOL    HW259699   5.585   8.334   1.203  1.4981 -1.3565  0.7242
17913SOL     OW59700   6.634   6.996   0.881  0.5788  0.2581 -0.4857
17913SOL    HW159701   6.619   6.919   0.936 -1.0582  0.8874 -0.0152
17913SOL    HW259702   6.721   7.027   0.907 -0.0409  0.3720  1.5611
17914SOL     OW59703   4.073   8.448   3.180  0.1150  0.6226  0.0542
17914SOL    HW159704   4.163   8.478   3.185  0.4418 -0.2364 -0.4998
17914SOL    HW259705   4.069   8.373   3.239 -0.3564  0.9181  0.4143
17915SOL     OW59706   6.080   0.675   2.718 -0.0928  0.0434  0.0933
17915SOL    HW159707   6.089   0.757   2.767  0.2140 -0.0484  0.1917
17915SOL    HW259708   6.111   0.608   2.779 -1.1579 -0.2538  0.3367
17916SOL     OW59709   9.207   6.923   4.331  0.0600 -0.4647  0.1672
17916SOL    HW159710   9.195   6.965   4.245  1.4422  0.5926  0.4621
17916SOL    HW259711   9.228   6.832   4.310  0.4489 -0.2020 -0.6269
17917SOL     OW59712   5.877   8.837   5.326 -0.3751 -0.0821 -0.1723
17917SOL    HW159713   5.936   8.770   5.291  0.6747  1.1192 -0.8247
17917SOL    HW259714   5.913   8.919   5.292  0.6665  1.2188  3.5618
17918SOL     OW59715   3.066   7.895   8.268  0.4554  0.0458 -0.0820
17918SOL    HW159716   3.107   7.906   8.355 -0.2643  0.7979  0.1754
17918SOL    HW259717   3.012   7.973   8.258  0.5480 -0.0307 -1.2265
17919SOL     OW59718   8.770   9.163   0.850  0.4813  0.2125  0.1992
17919SOL    HW159719   8.860   9.131   0.850 -0.1499 -1.8465  1.8104
17919SOL    HW259720   8.765   9.221   0.926  0.3804  0.0695  0.3028
17920SOL     OW59721   0.553   3.734   1.847 -0.0705 -0.1002 -0.1707
17920SOL    HW159722   0.474   3.700   1.803 -1.1103  0.3945  1.2589
17920SOL    HW259723   0.522   3.766   1.931  1.7355 -0.1869  0.5676
17921SOL     OW59724   2.871   4.466   3.739 -0.1539 -0.0166  0.7093
17921SOL    HW159725   2.923   4.513   3.803  0.3169  0.3211  0.0868
17921SOL    HW259726   2.928   4.394   3.710 -1.2138 -1.6165  2.3779
17922SOL     OW59727   6.256   7.474   3.653  0.0129 -0.2588 -0.2492
17922SOL    HW159728   6.345   7.488   3.686 -0.2671  1.0699 -0.0021
17922SOL    HW259729   6.249   7.379   3.641  1.9803 -0.2549 -1.8109
17923SOL     OW59730   8.043   8.524   6.486 -0.4378  0.2125  0.3971
17923SOL    HW159731   8.083   8.543   6.571  0.7252  0.9017 -0.2664
17923SOL    HW259732   7.964   8.577   6.484 -0.3753  0.3337  0.9830
17924SOL     OW59733   2.424   6.462   9.100 -0.2592 -0.0320  0.5866
17924SOL    HW159734   2.424   6.464   9.004  2.5625  3.3022  0.4718
17924SOL    HW259735   2.486   6.393   9.122 -2.1939 -2.0109  0.1788
17925SOL     OW59736   9.026   3.771   3.974  0.7209 -0.4772  0.4131
17925SOL    HW159737   8.957   3.834   3.996 -0.2937 -1.0722 -0.9102
17925SOL    HW259738   9.063   3.746   4.059 -0.5918 -0.0202  1.1533
17926SOL     OW59739   3.915   4.659   7.814  0.0841 -0.9361  0.7848
17926SOL    HW159740   3.991   4.683   7.761 -0.5025 -0.2279  0.2455
17926SOL    HW259741   3.937   4.572   7.849 -0.0607 -2.0561 -1.7130
17927SOL     OW59742   8.298   0.621   3.236 -0.1134  0.8551 -0.2650
17927SOL    HW159743   8.301   0.644   3.144  0.2772  0.9900 -0.2178
17927SOL    HW259744   8.275   0.702   3.281  0.2152  0.9123 -0.1968
17928SOL     OW59745   3.058   2.422   0.582  0.0866 -0.2749  0.5293
17928SOL    HW159746   3.047   2.517   0.571  1.2479 -0.2223 -0.3723
17928SOL    HW259747   3.095   2.412   0.670 -1.2933 -0.0258  1.1781
17929SOL     OW59748   3.355   3.519   2.169 -0.3070 -0.2383  0.1388
17929SOL    HW159749   3.314   3.598   2.134  0.5998  1.2619  2.2015
17929SOL    HW259750   3.304   3.499   2.248 -0.7329 -1.9558 -0.5321
17930SOL     OW59751   7.438   5.083   0.554 -0.2625 -0.0713  0.2315
17930SOL    HW159752   7.488   5.157   0.521 -1.3403  0.5230 -0.1120
17930SOL    HW259753   7.468   5.008   0.503 -1.2363  0.6630 -1.5055
17931SOL     OW59754   6.566   7.213   4.565 -0.1830  0.2360 -0.4525
17931SOL    HW159755   6.478   7.207   4.601  0.0991  0.0759  0.2263
17931SOL    HW259756   6.623   7.182   4.635  0.3583 -0.4325 -1.1637
17932SOL     OW59757   6.595   0.676   8.899 -0.0246 -0.2030 -0.3756
17932SOL    HW159758   6.565   0.638   8.817 -1.0742  1.4633 -0.8180
17932SOL    HW259759   6.680   0.635   8.915 -0.6770 -2.0005 -1.2469
17933SOL     OW59760   1.653   1.534   8.802 -0.1908  0.0450  0.4364
17933SOL    HW159761   1.606   1.599   8.751  1.2981 -0.9194 -2.4175
17933SOL    HW259762   1.737   1.576   8.823 -0.6590  0.3091  1.8894
17934SOL     OW59763   0.883   3.905   8.096  0.0766 -0.0436  0.0061
17934SOL    HW159764   0.793   3.911   8.128 -0.1485 -0.2172 -0.5685
17934SOL    HW259765   0.874   3.880   8.004  0.6484  1.3652 -0.4763
17935SOL     OW59766   1.456   7.822   5.903 -0.5046 -0.0027  0.4993
17935SOL    HW159767   1.475   7.916   5.902  1.0746 -0.2917  0.8911
17935SOL    HW259768   1.454   7.799   5.996  1.0229 -0.6855  0.3969
17936SOL     OW59769   3.165   9.035   0.673 -0.1133 -0.1784  0.0338
17936SOL    HW159770   3.220   9.097   0.720  0.1688 -1.1206  0.9612
17936SOL    HW259771   3.217   9.009   0.597  1.3516 -2.0897  1.5995
17937SOL     OW59772   2.808   6.487   3.981 -0.2917  0.2555  0.7056
17937SOL    HW159773   2.798   6.419   3.914 -0.9248 -0.3283  1.3812
17937SOL    HW259774   2.866   6.449   4.046 -0.4928  0.4359  0.9929
17938SOL     OW59775   7.468   4.333   8.118 -0.1677  0.1594  0.2899
17938SOL    HW159776   7.524   4.324   8.196 -1.0214  1.5364  1.1108
17938SOL    HW259777   7.464   4.245   8.081  0.5492 -0.4660  1.6034
17939SOL     OW59778   3.686   4.490   1.898  1.2269 -0.2154  0.0248
17939SOL    HW159779   3.711   4.403   1.867  1.2478 -0.7960  1.5869
17939SOL    HW259780   3.601   4.507   1.856  1.4827 -0.7475 -0.7174
17940SOL     OW59781   4.871   0.981   4.522  0.0428  0.0379 -0.7259
17940SOL    HW159782   4.781   0.950   4.533  0.0394  0.2136 -0.2595
17940SOL    HW259783   4.866   1.076   4.535  0.5403 -0.1230  0.8339
17941SOL     OW59784   8.500   6.050   8.541  0.1625 -0.2676  0.0937
17941SOL    HW159785   8.488   6.034   8.448  1.8296 -1.3915  0.0270
17941SOL    HW259786   8.595   6.050   8.553  0.0064  0.8016  1.6471
17942SOL     OW59787   1.417   8.221   0.618 -0.3779 -0.0575  0.0457
17942SOL    HW159788   1.468   8.268   0.685 -1.2107 -1.6271  1.8597
17942SOL    HW259789   1.364   8.289   0.576 -0.4200  0.8671  1.5412
17943SOL     OW59790   2.555   5.172   0.104  0.0023 -0.0501 -0.5793
17943SOL    HW159791   2.545   5.189   0.010 -0.0179  1.3455 -0.3486
17943SOL    HW259792   2.466   5.152   0.134 -0.0672 -0.0404 -0.7741
17944SOL     OW59793   8.351   4.839   1.879  0.1538 -0.2368  0.7117
17944SOL    HW159794   8.274   4.893   1.861  1.9093  2.3841  0.4090
17944SOL    HW259795   8.349   4.771   1.811 -0.0222  1.9676 -1.6553
17945SOL     OW59796   1.195   5.343   0.830  0.4262 -0.2710  0.3340
17945SOL    HW159797   1.177   5.281   0.760 -2.2943  0.0680  0.6515
17945SOL    HW259798   1.199   5.428   0.786 -0.8274 -0.1117  0.5078
17946SOL     OW59799   1.522   8.941   5.408  0.4735  0.0903  0.2779
17946SOL    HW159800   1.550   8.938   5.317  0.9227  0.3512  0.4058
17946SOL    HW259801   1.429   8.965   5.404  0.5124  0.1751 -0.1050
17947SOL     OW59802   3.382   8.780   3.918  0.5605 -0.8849  0.3978
17947SOL    HW159803   3.380   8.820   4.005  0.0084 -0.8509  0.3728
17947SOL    HW259804   3.291   8.783   3.888  0.8160 -0.4949 -0.3612
17948SOL     OW59805   2.254   9.214   3.991 -0.1600 -0.0840 -0.1118
17948SOL    HW159806   2.210   9.210   4.076 -1.1689 -0.1246 -0.6217
17948SOL    HW259807   2.321   9.281   4.002 -0.3846  0.0210  0.6744
17949SOL     OW59808   0.690   6.689   8.893 -0.1390 -0.2267 -0.3758
17949SOL    HW159809   0.765   6.682   8.953 -0.5874  1.0574  0.3606
17949SOL    HW259810   0.702   6.773   8.849 -1.1703  0.0248 -0.1980
17950SOL     OW59811   4.168   1.062   6.518  0.4105 -0.1094 -0.0865
17950SOL    HW159812   4.110   1.130   6.484 -0.9490 -1.0518  0.2892
17950SOL    HW259813   4.173   1.080   6.612 -1.3710 -1.4906  0.3314
17951SOL     OW59814   3.432   6.935   9.034 -0.0461  0.1924 -0.0130
17951SOL    HW159815   3.385   6.888   9.103  0.0356 -0.5921 -0.4776
17951SOL    HW259816   3.505   6.976   9.079  1.0404 -1.7562  0.1321
17952SOL     OW59817   1.120   7.102   4.502 -0.0489  0.5461  0.4177
17952SOL    HW159818   1.046   7.051   4.471 -0.6063  1.2625  0.5365
17952SOL    HW259819   1.149   7.056   4.581  2.4919 -2.3007 -1.9290
17953SOL     OW59820   6.389   4.950   3.233 -0.0425  0.0578 -0.3499
17953SOL    HW159821   6.324   4.894   3.191  0.9601 -0.2547 -1.5478
17953SOL    HW259822   6.468   4.896   3.238  1.5032  1.7934 -3.1378
17954SOL     OW59823   0.418   2.066   2.569 -0.5630  0.1871 -0.2030
17954SOL    HW159824   0.480   2.116   2.516  0.8108  0.4516  1.5813
17954SOL    HW259825   0.422   2.106   2.655 -0.0498 -2.4346  1.0884
17955SOL     OW59826   8.045   4.832   6.542  0.9651 -0.0816  0.1268
17955SOL    HW159827   7.998   4.774   6.482  2.1404 -0.4820 -0.4383
17955SOL    HW259828   8.069   4.777   6.616  0.1383  0.2428  0.6546
17956SOL     OW59829   5.660   0.734   4.956 -0.2471  0.2104 -0.0814
17956SOL    HW159830   5.722   0.740   4.883  1.0757 -1.3525  0.8267
17956SOL    HW259831   5.713   0.753   5.034 -1.2364  0.2172  0.6119
17957SOL     OW59832   4.244   1.350   9.061 -0.4207  0.6018 -0.5240
17957SOL    HW159833   4.299   1.363   9.138  1.6456  1.1507 -1.9857
17957SOL    HW259834   4.258   1.258   9.037 -2.0138  0.0867  0.3967
17958SOL     OW59835   3.257   9.011   7.095 -0.6611  0.4453 -0.0786
17958SOL    HW159836   3.194   9.008   7.023 -1.8496  0.3863  0.9376
17958SOL    HW259837   3.229   9.084   7.150  0.4442  0.7226  0.1462
17959SOL     OW59838   6.733   0.966   6.503 -0.0678 -0.9173 -0.4057
17959SOL    HW159839   6.773   0.896   6.451  0.2406 -0.4533 -0.8038
17959SOL    HW259840   6.666   1.003   6.446  0.7077  0.0182 -0.7345
17960SOL     OW59841   4.574   8.311   1.666  0.0565 -0.5404  0.0425
17960SOL    HW159842   4.597   8.381   1.727  0.6043  1.5674 -2.4200
17960SOL    HW259843   4.603   8.231   1.710  2.1670  1.0296  1.7608
17961SOL     OW59844   8.163   4.371   5.045  0.3793 -0.6856 -0.3020
17961SOL    HW159845   8.222   4.352   5.117  0.6775 -1.6090 -0.7732
17961SOL    HW259846   8.076   4.346   5.077  0.3198  0.0838  0.1655
17962SOL     OW59847   7.616   3.495   1.629 -0.5367  0.5270  0.6327
17962SOL    HW159848   7.527   3.520   1.652 -1.4355 -0.4220 -1.5440
17962SOL    HW259849   7.605   3.420   1.571  1.7716 -0.6757  1.6251
17963SOL     OW59850   7.694   4.994   1.577  0.2233  0.2206  0.5368
17963SOL    HW159851   7.624   4.974   1.640  0.7682 -0.0917  1.0525
17963SOL    HW259852   7.664   5.073   1.532 -0.3890  0.1790  0.8611
17964SOL     OW59853   5.617   8.913   6.043 -0.3217 -0.3577  0.2752
17964SOL    HW159854   5.678   8.957   5.985 -0.6273 -0.0561  0.1783
17964SOL    HW259855   5.659   8.829   6.064 -0.6012 -0.8627 -1.0889
17965SOL     OW59856   4.898   6.377   1.445 -0.8966 -0.1143  0.1623
17965SOL    HW159857   4.878   6.354   1.354  0.4523 -0.0398 -0.1776
17965SOL    HW259858   4.992   6.362   1.453 -0.7360  1.2348  1.1435
17966SOL     OW59859   3.964   6.598   4.561 -0.0676  0.3858 -0.4952
17966SOL    HW159860   3.939   6.587   4.652  1.3553  0.3179 -0.0975
17966SOL    HW259861   4.057   6.575   4.558  0.4485  2.3523 -1.5630
17967SOL     OW59862   7.930   7.843   3.184  0.2295  0.7582 -0.1941
17967SOL    HW159863   7.987   7.915   3.156 -1.1879  1.8776 -0.3020
17967SOL    HW259864   7.872   7.827   3.110 -0.6942  0.7849  0.5050
17968SOL     OW59865   1.388   4.336   9.047  0.1335  0.1967  0.1077
17968SOL    HW159866   1.297   4.366   9.044  0.4527  1.1430 -1.3633
17968SOL    HW259867   1.421   4.367   9.131  0.1512  3.2403 -0.9085
17969SOL     OW59868   1.663   2.244   5.011  0.4869  0.2477  0.1291
17969SOL    HW159869   1.682   2.241   4.917  0.5552 -2.2230  0.1453
17969SOL    HW259870   1.739   2.288   5.049  1.6970 -0.9649 -0.7604
17970SOL     OW59871   7.671   7.010   6.686  0.2071 -1.0984 -0.2832
17970SOL    HW159872   7.716   7.058   6.755 -1.1898 -0.7721  0.4375
17970SOL    HW259873   7.729   6.937   6.666  1.6940  0.0752 -0.3940
17971SOL     OW59874   3.087   3.351   9.059  0.0877  0.6739 -0.3261
17971SOL    HW159875   3.062   3.442   9.074  0.6039  1.1038 -1.9238
17971SOL    HW259876   3.095   3.314   9.147 -1.0022  1.9155  0.3295
17972SOL     OW59877   2.641   3.683   5.046 -0.2654 -0.2563 -0.7121
17972SOL    HW159878   2.606   3.603   5.007 -0.0605 -0.6149 -0.1687
17972SOL    HW259879   2.617   3.752   4.983 -0.5599 -0.7164 -1.1196
17973SOL     OW59880   3.474   9.128   0.505 -0.1804 -0.2940 -0.0430
17973SOL    HW159881   3.522   9.147   0.425  0.5772 -0.1099  0.4526
17973SOL    HW259882   3.409   9.062   0.478  0.8356 -1.1242 -0.5629
17974SOL     OW59883   8.167   3.460   5.587  0.2114  0.2173 -0.3586
17974SOL    HW159884   8.089   3.419   5.626  0.6803 -0.7047 -0.3583
17974SOL    HW259885   8.151   3.458   5.493 -0.6023  1.7888 -0.2866
17975SOL     OW59886   8.858   2.452   8.658 -1.0276  0.1659 -0.4418
17975SOL    HW159887   8.865   2.357   8.665 -1.1980  0.1604 -0.3262
17975SOL    HW259888   8.836   2.481   8.747  1.9671  0.6041  0.2505
17976SOL     OW59889   8.306   7.950   5.943  0.3596  0.3691  0.1739
17976SOL    HW159890   8.213   7.924   5.944  0.5761 -0.4290 -0.0240
17976SOL    HW259891   8.307   8.031   5.891 -0.3635  0.9563  1.0368
17977SOL     OW59892   2.542   8.441   4.759 -0.7129  0.2678  0.0802
17977SOL    HW159893   2.495   8.482   4.831  0.5298 -1.3681  1.9537
17977SOL    HW259894   2.520   8.348   4.767  0.7940 -0.1712 -0.5509
17978SOL     OW59895   6.331   6.502   3.562 -0.2432  0.0702  0.1231
17978SOL    HW159896   6.386   6.579   3.546 -0.6441  0.4905  0.7278
17978SOL    HW259897   6.301   6.513   3.653 -1.3296 -0.1456 -0.2029
17979SOL     OW59898   9.281   2.110   1.728 -0.2676  0.2478 -0.4847
17979SOL    HW159899   9.352   2.046   1.726 -0.9632 -0.5359 -1.3562
17979SOL    HW259900   9.324   2.195   1.713  0.4541 -0.2582 -1.4145
17980SOL     OW59901   5.314   5.848   7.444 -0.5022 -0.1527  0.4831
17980SOL    HW159902   5.360   5.896   7.514 -0.0513  0.7177 -0.3913
17980SOL    HW259903   5.273   5.775   7.489  2.9263 -1.8633  1.1466
17981SOL     OW59904   5.629   1.579   0.499  0.0976  0.1159 -0.0776
17981SOL    HW159905   5.642   1.659   0.549  1.6324 -0.1583  0.0171
17981SOL    HW259906   5.641   1.509   0.563  1.5086 -0.2251 -0.6853
17982SOL     OW59907   0.739   4.671   7.235 -0.1365 -1.0526 -0.0442
17982SOL    HW159908   0.652   4.674   7.275 -0.7721 -1.3114 -1.3260
17982SOL    HW259909   0.751   4.579   7.212  1.4369 -1.4264  2.0586
17983SOL     OW59910   5.949   8.105   5.773 -0.6128  0.0158 -0.1020
17983SOL    HW159911   5.945   8.126   5.680 -0.3337  0.7084  0.0374
17983SOL    HW259912   6.021   8.041   5.780 -0.4941  0.1224 -0.3317
17984SOL     OW59913   6.982   2.181   8.362  0.6449 -0.1840  0.0475
17984SOL    HW159914   6.931   2.100   8.364  2.7963 -1.6841 -1.5410
17984SOL    HW259915   6.990   2.202   8.269  2.3036  0.3796  0.2823
17985SOL     OW59916   3.075   4.953   0.008  0.0759 -0.1300  0.0914
17985SOL    HW159917   3.087   5.009   0.085  1.2567 -0.3588  0.0891
17985SOL    HW259918   3.073   5.015  -0.065  0.3473 -0.0159  0.1796
17986SOL     OW59919   5.131   4.656   8.469 -0.6233  0.0085  0.2695
17986SOL    HW159920   5.195   4.710   8.514 -1.3154  0.8195  0.3104
17986SOL    HW259921   5.178   4.623   8.392  0.2847 -0.6520  1.0886
17987SOL     OW59922   3.399   3.410   5.354  0.3141 -0.1736  0.4077
17987SOL    HW159923   3.446   3.459   5.287 -0.0927  0.0249  0.2616
17987SOL    HW259924   3.310   3.446   5.352 -0.5595 -2.2726 -1.0955
17988SOL     OW59925   5.070   2.040   0.002  0.8985 -0.2828  0.3293
17988SOL    HW159926   5.020   1.993  -0.065  0.4261  1.3873 -0.5361
17988SOL    HW259927   5.004   2.093   0.047  1.8372  2.2029 -1.0321
17989SOL     OW59928   7.833   1.216   1.486  0.0807 -0.1753  0.0204
17989SOL    HW159929   7.909   1.214   1.428 -0.9029 -0.8462 -1.2961
17989SOL    HW259930   7.829   1.127   1.523 -0.2932 -0.2689 -0.2383
17990SOL     OW59931   2.890   4.173   8.627  0.4943 -0.1931  0.0108
17990SOL    HW159932   2.918   4.150   8.539 -1.1014  0.2588 -0.6627
17990SOL    HW259933   2.922   4.102   8.682  1.9249 -0.2458 -0.8352
17991SOL     OW59934   3.772   7.008   7.748 -0.4209  0.0935  0.2263
17991SOL    HW159935   3.752   7.057   7.668  1.6925 -0.6043 -0.7845
17991SOL    HW259936   3.686   6.979   7.780 -1.6538  3.2490  0.1569
17992SOL     OW59937   0.864   5.327   0.874  0.1478 -0.2831  0.5816
17992SOL    HW159938   0.890   5.360   0.788 -0.6040 -2.2756 -0.4596
17992SOL    HW259939   0.769   5.332   0.874  0.1531 -0.0117  1.4417
17993SOL     OW59940   8.934   1.706   8.694  0.2673 -0.3011  0.6309
17993SOL    HW159941   8.946   1.666   8.780 -0.3440 -0.2275  0.7556
17993SOL    HW259942   9.023   1.716   8.659  0.4672 -1.1304  0.8817
17994SOL     OW59943   0.545   9.139   8.154  0.1991 -0.2359 -0.6147
17994SOL    HW159944   0.492   9.128   8.233 -0.3626 -0.3295 -0.9985
17994SOL    HW259945   0.613   9.201   8.179  0.3299 -0.6570  0.0893
17995SOL     OW59946   5.984   0.797   9.307  0.0081 -0.0844  0.5607
17995SOL    HW159947   6.017   0.725   9.361  2.3520  1.3839  1.2173
17995SOL    HW259948   6.062   0.846   9.281 -1.4754  2.1908  0.0521
17996SOL     OW59949   0.502   2.235   2.778  0.5994  0.2233 -0.0195
17996SOL    HW159950   0.550   2.171   2.830  1.5181  1.5735  0.8355
17996SOL    HW259951   0.417   2.243   2.822  1.5333  1.7020  1.6265
17997SOL     OW59952   2.319   3.984   9.230 -0.2435  0.2892 -0.3771
17997SOL    HW159953   2.232   3.982   9.190 -0.0234  1.1583 -0.9440
17997SOL    HW259954   2.322   4.068   9.276  0.2415  0.2113 -0.2624
17998SOL     OW59955   0.218   6.779   4.415 -0.6363  0.1337  0.1009
17998SOL    HW159956   0.261   6.790   4.500  1.0698  0.0040 -0.7099
17998SOL    HW259957   0.173   6.862   4.401  0.2247  0.6917  0.5119
17999SOL     OW59958   5.785   8.777   7.165 -0.2372  0.2586  0.2598
17999SOL    HW159959   5.738   8.836   7.105  0.7256  0.3115 -0.4635
17999SOL    HW259960   5.748   8.691   7.148 -2.2103  0.7131  1.8729
18000SOL     OW59961   0.088   1.538   3.540  0.3154  0.1279 -0.3331
18000SOL    HW159962   0.125   1.451   3.546  0.4700  0.1542 -0.8256
18000SOL    HW259963   0.134   1.589   3.606  0.0717 -0.2128  0.1042
18001SOL     OW59964   1.846   6.532   6.735 -0.0415  0.0942  0.1403
18001SOL    HW159965   1.784   6.465   6.705  0.0210 -0.1583  0.5567
18001SOL    HW259966   1.925   6.482   6.758  0.5446  0.4803 -0.9736
18002SOL     OW59967   2.307   2.579   1.133  0.3378  0.6475 -0.0734
18002SOL    HW159968   2.357   2.656   1.159  0.5524  0.5950 -0.3238
18002SOL    HW259969   2.298   2.528   1.213 -0.1104  1.1039  0.1676
18003SOL     OW59970   7.008   8.397   0.660  0.1660 -0.3166  0.3272
18003SOL    HW159971   7.089   8.351   0.681  0.8781  1.3170  1.3675
18003SOL    HW259972   7.018   8.423   0.568  0.0038 -1.6877 -0.0924
18004SOL     OW59973   1.062   2.005   5.240  0.2100 -0.6573  0.4544
18004SOL    HW159974   1.105   2.050   5.313  0.2694 -1.6628  1.0522
18004SOL    HW259975   1.040   2.075   5.178  1.3929  0.0417  0.8051
18005SOL     OW59976   0.280   1.939   8.438  0.6685 -0.0754  0.3039
18005SOL    HW159977   0.192   1.935   8.477  0.9108 -0.2787  0.8351
18005SOL    HW259978   0.264   1.965   8.347 -0.0025 -0.9814  0.1530
18006SOL     OW59979   6.046   0.380   8.563  0.6763 -0.1450  0.0156
18006SOL    HW159980   6.081   0.353   8.478  2.1135  0.8633  0.2393
18006SOL    HW259981   6.089   0.463   8.581 -2.5540  1.6848 -0.0342
18007SOL     OW59982   1.211   5.402   4.357 -0.3017  0.7509 -0.5377
18007SOL    HW159983   1.135   5.392   4.300  0.2213  0.7826 -1.2465
18007SOL    HW259984   1.286   5.399   4.298  0.2271  1.2180  0.0993
18008SOL     OW59985   2.591   1.719   8.420 -0.0057  0.4061 -0.3457
18008SOL    HW159986   2.606   1.652   8.487  2.2639  0.5586 -0.6102
18008SOL    HW259987   2.655   1.788   8.440 -1.1389  1.7316 -1.0769
18009SOL     OW59988   5.582   6.814   6.854  0.1171  0.4839 -0.0446
18009SOL    HW159989   5.603   6.737   6.801 -2.1189 -0.7204  0.7130
18009SOL    HW259990   5.641   6.882   6.821 -0.0533 -0.6441 -2.9420
18010SOL     OW59991   6.417   1.847   2.617  0.0670  0.1100  0.0291
18010SOL    HW159992   6.509   1.871   2.629 -0.2504  0.8525  1.1368
18010SOL    HW259993   6.389   1.897   2.540  0.6140 -0.2216 -0.3936
18011SOL     OW59994   8.565   7.066   3.119  0.0489  0.0301  0.3661
18011SOL    HW159995   8.622   7.040   3.191 -1.6261 -0.9686  1.3714
18011SOL    HW259996   8.480   7.028   3.139 -0.6893  0.4015 -1.7370
18012SOL     OW59997   0.347   8.016   8.337  0.2378  0.0094 -0.2088
18012SOL    HW159998   0.387   7.956   8.400 -0.8719 -1.0888 -0.4924
18012SOL    HW259999   0.297   8.077   8.391  0.9231  0.3461  0.0563
18013SOL     OW60000   7.350   5.074   8.679  0.1223 -0.0763 -0.2121
18013SOL    HW160001   7.357   5.091   8.585  0.8076 -2.7589 -0.7335
18013SOL    HW260002   7.291   4.999   8.685  3.1416 -2.5789  1.0753
18014SOL     OW60003   8.712   5.325   7.641 -0.0459 -0.0829 -0.2833
18014SOL    HW160004   8.617   5.319   7.633 -0.1850  0.9783  0.3886
18014SOL    HW260005   8.744   5.319   7.550 -0.7442 -0.3385 -0.5235
18015SOL     OW60006   4.304   3.110   1.645  0.3553 -0.1656  0.5248
18015SOL    HW160007   4.383   3.109   1.591 -0.5091 -0.2818 -0.7970
18015SOL    HW260008   4.247   3.044   1.606 -0.8982  0.7892  0.6301
18016SOL     OW60009   4.194   4.861   7.271  0.2359 -0.1637 -0.0983
18016SOL    HW160010   4.101   4.863   7.292  0.1483 -0.1574 -0.4763
18016SOL    HW260011   4.199   4.894   7.181  0.5478 -0.6463 -0.2638
18017SOL     OW60012   0.317   6.240   4.027 -0.1009  0.5998 -0.0457
18017SOL    HW160013   0.287   6.152   4.051 -0.1485  0.6369  0.0332
18017SOL    HW260014   0.280   6.255   3.940  1.5501 -0.2470 -0.9306
18018SOL     OW60015   0.470   3.938   6.236 -0.1282  0.2322  0.3485
18018SOL    HW160016   0.514   4.023   6.228  0.4067 -0.1072 -0.4356
18018SOL    HW260017   0.528   3.887   6.292 -1.4752  1.0291  2.5917
18019SOL     OW60018   7.213   5.695   5.842  0.5540  0.1120  0.0019
18019SOL    HW160019   7.151   5.752   5.796 -0.0397 -1.2285 -0.9242
18019SOL    HW260020   7.181   5.692   5.932 -0.6699 -0.4476 -0.4313
18020SOL     OW60021   4.988   8.492   2.512  0.0319  0.4967 -0.0825
18020SOL    HW160022   4.957   8.581   2.529  1.9192  0.9925  1.0629
18020SOL    HW260023   4.909   8.442   2.491 -1.2572  2.0954  0.7911
18021SOL     OW60024   3.541   2.743   4.885  1.0493 -0.2137 -0.5744
18021SOL    HW160025   3.623   2.789   4.867  1.3841 -1.0520 -1.3112
18021SOL    HW260026   3.569   2.654   4.910  0.4185 -0.0670  0.7112
18022SOL     OW60027   8.695   6.111   3.030 -0.1802 -0.1660 -0.0221
18022SOL    HW160028   8.633   6.183   3.041 -2.4559 -2.0437  0.3739
18022SOL    HW260029   8.716   6.112   2.937  0.9239  1.7930  0.2074
18023SOL     OW60030   1.618   3.736   7.755  0.0270 -0.5127 -0.5211
18023SOL    HW160031   1.577   3.821   7.774 -0.7345 -0.4638 -2.2173
18023SOL    HW260032   1.553   3.672   7.785 -0.2618 -0.4565 -1.0054
18024SOL     OW60033   8.070   2.709   6.630 -0.2264  0.1956 -0.3831
18024SOL    HW160034   8.086   2.657   6.708 -2.0018  1.1035  0.6339
18024SOL    HW260035   8.030   2.647   6.568 -1.4703  0.1045  0.4799
18025SOL     OW60036   6.484   6.015   0.781  0.0138 -0.3917  0.3006
18025SOL    HW160037   6.394   6.044   0.768 -0.3573 -2.0909 -1.2755
18025SOL    HW260038   6.532   6.048   0.705  0.6331  0.0708  0.8737
18026SOL     OW60039   3.535   2.078   5.825  0.0086  0.2915  0.1230
18026SOL    HW160040   3.551   2.056   5.917  1.7378  0.7827 -0.0223
18026SOL    HW260041   3.576   2.007   5.776 -1.3055 -0.2096 -0.2949
18027SOL     OW60042   6.488   3.300   7.473 -0.5230 -0.1302  0.0957
18027SOL    HW160043   6.568   3.331   7.515  1.5076 -2.8940 -1.3703
18027SOL    HW260044   6.461   3.224   7.525 -0.7800 -0.6607 -0.7820
18028SOL     OW60045   8.880   7.788   0.704 -0.3863 -0.3275 -0.3626
18028SOL    HW160046   8.847   7.811   0.791 -1.0478  0.4361 -0.8065
18028SOL    HW260047   8.927   7.865   0.674 -2.3498  0.4262 -1.7274
18029SOL     OW60048   6.963   4.924   4.820 -0.0596 -0.2298  0.7703
18029SOL    HW160049   7.001   4.906   4.906 -0.5391  0.5447  1.1589
18029SOL    HW260050   6.870   4.938   4.838  0.0921  1.5116  0.3593
18030SOL     OW60051   2.972   0.704   1.270  0.5563 -0.2023 -0.2748
18030SOL    HW160052   3.048   0.658   1.234  1.6806  1.2217  0.1977
18030SOL    HW260053   2.908   0.703   1.199  2.2332  1.3834 -1.9274
18031SOL     OW60054   3.687   5.620   4.738 -0.9095  0.4111 -0.1054
18031SOL    HW160055   3.766   5.636   4.687  0.3067 -1.2516  1.1848
18031SOL    HW260056   3.617   5.660   4.685  0.5381  0.5623 -2.0339
18032SOL     OW60057   5.192   4.265   8.053  0.0048  0.3290 -0.1402
18032SOL    HW160058   5.250   4.272   8.129 -1.2040  0.6338  0.7944
18032SOL    HW260059   5.246   4.226   7.984  0.6830 -1.4784  1.3502
18033SOL     OW60060   8.070   6.488   7.458  0.4859 -0.3421 -0.4579
18033SOL    HW160061   8.136   6.518   7.395  0.9552  0.9095  0.5799
18033SOL    HW260062   8.036   6.407   7.421  1.4863 -0.1755 -1.8014
18034SOL     OW60063   7.283   5.704   4.972 -0.0743 -0.6340 -0.1235
18034SOL    HW160064   7.359   5.688   5.029 -0.9329  0.6942  1.4845
18034SOL    HW260065   7.215   5.645   5.006  0.0557 -1.4962 -1.2752
18035SOL     OW60066   1.940   7.351   0.411 -0.4881 -0.1381  0.3786
18035SOL    HW160067   1.881   7.393   0.348  1.6420  2.1501 -0.2818
18035SOL    HW260068   2.025   7.348   0.366 -0.1072 -3.9781  0.9873
18036SOL     OW60069   7.191   5.375   1.010 -0.0173 -0.5900 -0.2467
18036SOL    HW160070   7.279   5.348   0.984 -0.7213 -1.4544 -1.9353
18036SOL    HW260071   7.150   5.406   0.929 -0.5999  1.8767  0.8920
18037SOL     OW60072   1.516   4.678   4.695 -0.3471  0.5973 -0.2049
18037SOL    HW160073   1.474   4.746   4.746  1.2268  1.8470 -0.4921
18037SOL    HW260074   1.518   4.602   4.753 -0.1357  1.4695  0.9565
18038SOL     OW60075   5.970   5.396   3.308  0.3943 -0.7189 -0.0072
18038SOL    HW160076   5.905   5.364   3.371 -0.1174  1.2772  0.5592
18038SOL    HW260077   5.955   5.343   3.230 -1.2287 -1.0268  0.4608
18039SOL     OW60078   3.982   8.024   8.444 -0.4260 -0.0932 -0.2850
18039SOL    HW160079   3.960   7.940   8.484  1.7453 -0.2711  0.7179
18039SOL    HW260080   3.911   8.083   8.470 -1.0587 -1.1786  0.5121
18040SOL     OW60081   4.837   5.871   7.401  0.6782  0.1924 -0.0669
18040SOL    HW160082   4.910   5.921   7.439  0.7691 -0.0494  0.0835
18040SOL    HW260083   4.852   5.781   7.432  0.1542  0.1975  0.2081
18041SOL     OW60084   8.403   3.668   1.665 -0.2786  0.5355  0.1121
18041SOL    HW160085   8.364   3.624   1.741 -1.5328  1.1903 -0.1332
18041SOL    HW260086   8.483   3.618   1.647 -1.2727 -1.1892  0.2958
18042SOL     OW60087   0.143   7.467   3.633 -0.2149 -0.1538 -0.2003
18042SOL    HW160088   0.061   7.484   3.586 -0.3050  0.8371  0.3040
18042SOL    HW260089   0.141   7.525   3.708  0.4501 -0.9246  0.4363
18043SOL     OW60090   5.657   8.635   5.851 -0.1144  0.0287  0.6336
18043SOL    HW160091   5.711   8.645   5.930  1.7768 -1.4024 -0.3796
18043SOL    HW260092   5.719   8.606   5.784 -1.7965  0.5363 -1.2084
18044SOL     OW60093   7.505   7.927   3.914  0.3691 -0.4357 -0.2673
18044SOL    HW160094   7.531   7.996   3.976  0.3214 -0.5283 -0.1452
18044SOL    HW260095   7.574   7.861   3.922 -0.4582 -1.1790  0.8320
18045SOL     OW60096   1.466   8.421   2.657  0.1587  0.3589 -0.2421
18045SOL    HW160097   1.370   8.420   2.658  0.1318  1.4978 -0.6248
18045SOL    HW260098   1.489   8.377   2.575 -0.0475  0.3802 -0.3129
18046SOL     OW60099   1.315   5.798   7.991  0.0939 -0.0278 -0.4379
18046SOL    HW160100   1.398   5.750   7.994  0.4726  0.4208 -2.4219
18046SOL    HW260101   1.267   5.758   7.919 -0.3592  1.3220 -0.9073
18047SOL     OW60102   3.087   7.644   6.597  0.4186 -0.0459  0.2150
18047SOL    HW160103   3.011   7.649   6.655 -0.5182  0.7699 -1.0229
18047SOL    HW260104   3.067   7.706   6.527  1.7447 -0.6279 -0.7082
18048SOL     OW60105   1.202   7.415   3.143 -0.1029 -0.2358 -0.0836
18048SOL    HW160106   1.275   7.473   3.164  0.4307 -0.2614 -1.7633
18048SOL    HW260107   1.177   7.377   3.227  0.7734  0.9703  0.7565
18049SOL     OW60108   2.783   7.071   1.127  0.0389  0.0165  0.7195
18049SOL    HW160109   2.772   7.161   1.158 -1.4930 -0.2486  1.0040
18049SOL    HW260110   2.778   7.077   1.032 -1.2119  0.0971  0.7836
18050SOL     OW60111   2.114   7.163   0.938  0.4487 -0.2860  0.3387
18050SOL    HW160112   2.131   7.171   0.844  0.1816 -1.6600  0.1578
18050SOL    HW260113   2.168   7.089   0.966 -0.0272 -0.3404  1.1296
18051SOL     OW60114   4.918   3.517   0.746 -0.0999  0.0872  0.1159
18051SOL    HW160115   4.882   3.486   0.663 -0.1862  1.6702 -0.4680
18051SOL    HW260116   5.012   3.507   0.738 -0.2207 -2.6346  1.0587
18052SOL     OW60117   7.030   6.720   1.998 -0.4641  0.1915  0.3819
18052SOL    HW160118   7.044   6.636   2.041  0.8290  0.4903  0.5876
18052SOL    HW260119   6.935   6.730   1.995 -0.6094 -0.7400  1.3872
18053SOL     OW60120   6.567   3.521   3.300  0.1131 -0.0344  0.8608
18053SOL    HW160121   6.578   3.438   3.347  0.1897 -1.0542 -0.8449
18053SOL    HW260122   6.554   3.494   3.209 -0.5137  1.8223  0.3686
18054SOL     OW60123   3.919   7.346   4.178 -0.4386  0.6890 -0.0044
18054SOL    HW160124   3.983   7.313   4.115  1.2437  1.3706  1.2569
18054SOL    HW260125   3.883   7.267   4.219 -0.1301  0.2956 -0.4778
18055SOL     OW60126   4.582   6.769   3.319  0.2234  0.3323  0.3970
18055SOL    HW160127   4.576   6.708   3.245  0.3164  1.8829 -0.9472
18055SOL    HW260128   4.492   6.777   3.350  0.0473  0.3226 -0.0992
18056SOL     OW60129   1.510   7.955   9.179 -0.2413 -0.1394  0.4578
18056SOL    HW160130   1.536   7.867   9.152  1.1095  0.6708 -1.0455
18056SOL    HW260131   1.587   8.009   9.161 -1.6260  1.6581 -0.3858
18057SOL     OW60132   7.557   6.772   3.177 -0.0965 -0.3191  0.0418
18057SOL    HW160133   7.564   6.678   3.195 -2.2657 -0.2198  1.7752
18057SOL    HW260134   7.647   6.804   3.184  0.5358 -2.0597  0.5919
18058SOL     OW60135   8.157   5.520   4.506  0.2472 -0.1554  0.0946
18058SOL    HW160136   8.249   5.508   4.483 -0.5151 -1.8218 -2.5759
18058SOL    HW260137   8.123   5.431   4.518 -1.6058  0.2089 -1.8178
18059SOL     OW60138   8.718   5.658   3.683 -0.1841  0.8564  0.2716
18059SOL    HW160139   8.711   5.632   3.775  1.6024  1.0543  0.4932
18059SOL    HW260140   8.627   5.668   3.654 -0.9727 -2.7238  0.9821
18060SOL     OW60141   0.582   5.397   8.058 -0.2189  0.2315  0.3598
18060SOL    HW160142   0.489   5.375   8.047 -0.0334 -0.4814  0.1664
18060SOL    HW260143   0.605   5.358   8.143  0.4701 -1.6235 -0.6131
18061SOL     OW60144   8.582   5.767   4.475  0.0582  0.1135  0.0922
18061SOL    HW160145   8.644   5.827   4.433 -0.7743 -0.8807 -2.7892
18061SOL    HW260146   8.532   5.822   4.536  3.1414  1.0926  1.9905
18062SOL     OW60147   1.011   5.203   3.034 -0.3460 -0.1059 -0.1829
18062SOL    HW160148   0.952   5.229   2.964  1.0859  1.3495 -0.9129
18062SOL    HW260149   1.023   5.108   3.022 -1.1773 -0.1093 -1.0533
18063SOL     OW60150   5.770   1.048   8.119 -0.0985  0.1249 -0.4983
18063SOL    HW160151   5.751   0.968   8.167 -1.5925  0.8911  0.2821
18063SOL    HW260152   5.710   1.113   8.156  0.1600  1.2825 -1.9828
18064SOL     OW60153   3.169   5.637   5.319  0.3032 -0.3082 -0.2770
18064SOL    HW160154   3.237   5.604   5.259  0.1926 -0.9587 -0.0534
18064SOL    HW260155   3.191   5.599   5.403  0.9180  1.2414  0.2979
18065SOL     OW60156   9.088   9.349   5.768  0.6161 -0.0646  0.4148
18065SOL    HW160157   9.139   9.429   5.780 -0.4492  0.4110  2.0902
18065SOL    HW260158   9.151   9.278   5.778  1.0334  0.5153  2.1596
18066SOL     OW60159   0.418   4.854   2.280  0.4083 -0.1497 -0.3383
18066SOL    HW160160   0.463   4.849   2.195 -0.9211  0.4379 -1.1021
18066SOL    HW260161   0.464   4.791   2.335 -0.5708 -2.8068 -2.3672
18067SOL     OW60162   0.156   6.270   7.035 -0.4674  0.2843  0.1142
18067SOL    HW160163   0.073   6.238   7.071 -0.5246 -1.5853 -1.4896
18067SOL    HW260164   0.130   6.317   6.955  0.0239 -1.2434 -0.9932
18068SOL     OW60165   7.650   9.054   1.496  0.0456 -0.3557 -0.1199
18068SOL    HW160166   7.742   9.030   1.499  0.3927  0.9479  0.6070
18068SOL    HW260167   7.603   8.974   1.523  1.0718 -0.5494  1.1920
18069SOL     OW60168   7.659   3.756   2.514  0.3383  0.2457 -0.2919
18069SOL    HW160169   7.730   3.774   2.576  0.7531 -0.3579 -0.5699
18069SOL    HW260170   7.590   3.716   2.568  0.3322  0.5590 -0.0676
18070SOL     OW60171   8.727   2.930   8.776  0.0623 -0.3735 -0.2949
18070SOL    HW160172   8.682   2.900   8.855 -0.6420 -3.0989 -1.6232
18070SOL    HW260173   8.794   2.864   8.760  0.7244  0.5579 -1.5764
18071SOL     OW60174   6.348   3.923   0.675 -0.4121 -0.6421  0.2372
18071SOL    HW160175   6.411   3.927   0.603 -2.4457  0.0047 -1.6196
18071SOL    HW260176   6.334   3.829   0.689  0.7846 -0.7937  0.5677
18072SOL     OW60177   1.936   8.950   6.344  0.5817 -0.3879  0.3555
18072SOL    HW160178   1.861   8.988   6.390  0.5807  0.6499 -0.4771
18072SOL    HW260179   2.012   8.978   6.395  0.5327  0.2163  0.1081
18073SOL     OW60180   4.554   4.761   0.275 -0.2393  0.8037 -0.9212
18073SOL    HW160181   4.555   4.725   0.186 -0.0537 -1.2618 -0.1382
18073SOL    HW260182   4.641   4.741   0.310 -0.8302  0.1735  0.2452
18074SOL     OW60183   3.785   3.921   8.789  0.1982  0.2202 -0.0877
18074SOL    HW160184   3.776   4.016   8.784 -0.0249  0.1735 -0.7195
18074SOL    HW260185   3.836   3.905   8.869  2.1138  1.0016 -1.0892
18075SOL     OW60186   7.517   1.584   9.001  0.0408 -0.1623  0.3694
18075SOL    HW160187   7.533   1.502   9.047 -0.7986 -0.5827 -0.0717
18075SOL    HW260188   7.431   1.573   8.961  0.7029  0.2297 -1.2234
18076SOL     OW60189   7.374   8.352   3.263 -0.6230  0.1512  0.2443
18076SOL    HW160190   7.407   8.264   3.280  2.3999  1.2845  0.9541
18076SOL    HW260191   7.394   8.368   3.171 -0.8407  0.2144  0.2074
18077SOL     OW60192   0.333   0.767   3.416  0.2713 -0.2937  0.3015
18077SOL    HW160193   0.259   0.709   3.436 -1.6414  2.6880  2.8065
18077SOL    HW260194   0.406   0.730   3.466 -0.4421 -1.4051  0.5823
18078SOL     OW60195   8.605   4.206   0.508  0.4262  0.1140 -0.7286
18078SOL    HW160196   8.565   4.122   0.489 -0.5978  0.0828  1.3349
18078SOL    HW260197   8.531   4.264   0.529  1.2720  0.7177  0.7497
18079SOL     OW60198   6.974   3.044   2.728  0.1859 -0.0785 -0.0866
18079SOL    HW160199   7.001   3.106   2.796 -0.8907  0.4177 -0.0997
18079SOL    HW260200   7.013   2.961   2.754  1.2125  0.4857  0.2099
18080SOL     OW60201   6.201   1.753   3.822  0.2997  0.6342  0.0449
18080SOL    HW160202   6.268   1.754   3.754  1.3339 -1.0178  0.9746
18080SOL    HW260203   6.238   1.803   3.894  1.1120 -1.2492  1.0105
18081SOL     OW60204   2.344   8.478   5.400 -0.5120 -0.2289 -0.4993
18081SOL    HW160205   2.425   8.447   5.358 -0.7038 -0.4169 -0.7311
18081SOL    HW260206   2.365   8.567   5.429 -0.0138 -0.5111  0.0147
18082SOL     OW60207   7.794   7.537   5.492  0.0260 -0.4279  0.0132
18082SOL    HW160208   7.882   7.544   5.453 -0.1850  0.2665 -0.3696
18082SOL    HW260209   7.757   7.625   5.481 -0.7826 -0.7654  0.0140
18083SOL     OW60210   3.526   0.731   4.301  0.5066  0.2965  0.2923
18083SOL    HW160211   3.555   0.640   4.296  1.4945  0.6320 -0.5233
18083SOL    HW260212   3.597   0.776   4.347 -0.0432  0.6340  0.8208
18084SOL     OW60213   7.515   9.295   6.263 -0.5483 -0.4769 -0.4660
18084SOL    HW160214   7.521   9.270   6.171  1.3818 -0.0981 -0.4913
18084SOL    HW260215   7.425   9.325   6.274 -0.8938 -0.7915 -2.1487
18085SOL     OW60216   6.940   1.459   7.984  0.1857 -0.8967 -0.2204
18085SOL    HW160217   6.879   1.529   7.956  0.2918 -1.5586 -2.2928
18085SOL    HW260218   7.027   1.497   7.972  0.2271 -1.0306 -0.3423
18086SOL     OW60219   8.297   2.670   8.744 -0.5600 -0.9559 -0.6323
18086SOL    HW160220   8.233   2.679   8.673 -0.7191  1.3320 -0.2737
18086SOL    HW260221   8.346   2.753   8.742  0.2501 -1.3619  1.1486
18087SOL     OW60222   1.577   3.106   8.126 -0.1599 -0.4472 -0.9612
18087SOL    HW160223   1.661   3.112   8.172 -1.3188 -0.9928  1.3625
18087SOL    HW260224   1.548   3.016   8.140 -2.3740  0.4361  0.6859
18088SOL     OW60225   5.696   2.301   0.364  0.3467  0.5249  0.3790
18088SOL    HW160226   5.635   2.301   0.438 -0.9461  0.4315 -0.6452
18088SOL    HW260227   5.707   2.209   0.342 -2.8847  0.6042 -2.3186
18089SOL     OW60228   0.734   8.446   7.693  0.0100 -0.0535  0.0126
18089SOL    HW160229   0.642   8.451   7.667 -0.2776 -1.4889  0.6572
18089SOL    HW260230   0.733   8.452   7.788  0.7147  1.2191 -0.0416
18090SOL     OW60231   3.768   5.260   0.386 -0.0234 -0.2542 -0.0354
18090SOL    HW160232   3.727   5.176   0.362 -0.7435  0.0192  0.2143
18090SOL    HW260233   3.862   5.241   0.388  0.0057 -0.5342 -2.1116
18091SOL     OW60234   5.060   5.491   3.026 -0.1082  0.5512  0.2926
18091SOL    HW160235   5.132   5.529   3.075 -1.1443  0.1690  2.1866
18091SOL    HW260236   5.037   5.412   3.074 -1.3570  0.3050 -0.6506
18092SOL     OW60237   0.632   7.105   0.213 -0.2794 -0.6195  0.1003
18092SOL    HW160238   0.663   7.053   0.287  0.2371 -1.7897 -0.9048
18092SOL    HW260239   0.711   7.127   0.164 -0.4001  1.7418  0.8426
18093SOL     OW60240   9.213   0.215   2.254  0.1864 -0.4344  0.3920
18093SOL    HW160241   9.190   0.187   2.165 -0.0626 -1.6361  0.8170
18093SOL    HW260242   9.296   0.172   2.272  1.2087  1.2869  0.0884
18094SOL     OW60243   2.525   3.472   3.431 -0.5632 -0.5731  0.4243
18094SOL    HW160244   2.561   3.561   3.440  2.7752 -1.6672 -0.4187
18094SOL    HW260245   2.488   3.470   3.342  1.3696 -0.5676 -0.4372
18095SOL     OW60246   0.074   6.115   0.064  0.1970  0.2034  0.3978
18095SOL    HW160247   0.165   6.136   0.043 -0.8722  1.4635 -4.0893
18095SOL    HW260248   0.035   6.199   0.085 -0.9839  0.8512 -3.4982
18096SOL     OW60249   9.253   3.226   0.080 -0.3395  0.4776 -0.0517
18096SOL    HW160250   9.304   3.225   0.160 -0.3735 -0.4883 -0.0280
18096SOL    HW260251   9.278   3.146   0.034 -0.8655  0.6447 -0.6564
18097SOL     OW60252   6.372   2.385   3.534  0.0836  0.4425  0.4873
18097SOL    HW160253   6.341   2.472   3.507  1.1402  0.6931 -0.0200
18097SOL    HW260254   6.312   2.324   3.493  1.4943  0.8221 -2.3770
18098SOL     OW60255   5.770   2.298   8.593 -0.2160  0.4327  0.3064
18098SOL    HW160256   5.735   2.384   8.615 -0.7084  0.3276 -0.0461
18098SOL    HW260257   5.831   2.278   8.663  0.1107  1.1941  0.2463
18099SOL     OW60258   0.258   0.737   2.145 -0.0384 -0.0707  0.7929
18099SOL    HW160259   0.309   0.734   2.226  3.9939  1.4437 -1.4041
18099SOL    HW260260   0.206   0.817   2.153  0.1610 -0.0295  1.9171
18100SOL     OW60261   4.680   5.720   7.161  0.3397  0.7973  0.6103
18100SOL    HW160262   4.697   5.787   7.227  1.6232  1.0390  0.0576
18100SOL    HW260263   4.762   5.714   7.112  0.6963 -1.9994  1.3698
18101SOL     OW60264   6.299   7.400   2.280 -0.1121 -0.3335 -0.4381
18101SOL    HW160265   6.268   7.309   2.276 -1.6649  0.2065 -1.5381
18101SOL    HW260266   6.338   7.408   2.367 -0.4299 -1.9062 -0.1209
18102SOL     OW60267   5.043   2.215   4.955  0.0820  0.2351 -0.4791
18102SOL    HW160268   5.110   2.200   4.887  0.1629 -1.5630 -0.0582
18102SOL    HW260269   4.966   2.168   4.923 -0.1418  0.0869  0.2577
18103SOL     OW60270   3.803   4.663   5.722  0.0383  0.1984 -0.6522
18103SOL    HW160271   3.881   4.693   5.677 -0.4753  0.9025 -1.0825
18103SOL    HW260272   3.796   4.570   5.698  1.4280 -0.2209  0.3995
18104SOL     OW60273   5.724   5.709   7.066  0.3499  0.2004  0.6209
18104SOL    HW160274   5.745   5.734   6.976 -1.1658  0.4801  0.3223
18104SOL    HW260275   5.659   5.639   7.057 -1.2044  1.4825  1.4663
18105SOL     OW60276   6.010   3.465   7.543  0.1043  0.1974  0.2189
18105SOL    HW160277   6.058   3.470   7.460  0.9316  1.4777  0.7303
18105SOL    HW260278   6.005   3.372   7.563 -1.8463 -0.3100 -2.2085
18106SOL     OW60279   2.855   9.368   8.827 -0.2364 -0.0512 -0.1002
18106SOL    HW160280   2.887   9.281   8.851  0.1169 -0.4465 -1.8822
18106SOL    HW260281   2.923   9.405   8.770 -1.9033 -0.0633 -2.2515
18107SOL     OW60282   6.700   4.073   4.362 -0.1867  0.0483 -0.5704
18107SOL    HW160283   6.632   4.008   4.348  0.3923 -0.6210 -0.3056
18107SOL    HW260284   6.762   4.058   4.290  0.1924 -0.0162 -0.2337
18108SOL     OW60285   2.503   7.660   3.875  0.1181  0.2822 -0.0538
18108SOL    HW160286   2.416   7.695   3.856  0.9041  1.3270 -2.0888
18108SOL    HW260287   2.538   7.717   3.943 -0.0545  1.1242 -0.6560
18109SOL     OW60288   4.253   6.399   6.525 -0.7386  0.0394 -0.0812
18109SOL    HW160289   4.244   6.341   6.449  1.8057 -0.4343 -0.0956
18109SOL    HW260290   4.293   6.478   6.489 -0.0299  0.0236  0.6541
18110SOL     OW60291   8.825   2.137   3.444 -0.0024 -0.3397  0.1622
18110SOL    HW160292   8.859   2.217   3.405 -2.0191  0.0716 -0.8806
18110SOL    HW260293   8.840   2.069   3.379  0.0260 -0.4309  0.2626
18111SOL     OW60294   1.079   1.306   6.058 -0.5195  0.1182 -0.5838
18111SOL    HW160295   1.050   1.216   6.045 -1.4810  0.3145  0.1186
18111SOL    HW260296   1.104   1.309   6.151  0.6127  0.2809 -0.8770
18112SOL     OW60297   7.164   8.655   1.955  0.0029  0.1646  0.1273
18112SOL    HW160298   7.176   8.726   1.891  2.2452 -0.3808 -0.1149
18112SOL    HW260299   7.197   8.692   2.037 -0.4546 -0.0359  0.4063
18113SOL     OW60300   7.528   5.349   1.131 -0.0868  0.1328  0.1003
18113SOL    HW160301   7.460   5.334   1.197 -0.9251 -0.8599 -0.9622
18113SOL    HW260302   7.505   5.292   1.058  1.7662 -0.0555 -0.3991
18114SOL     OW60303   7.501   8.046   0.604 -0.2601  0.1878 -0.0941
18114SOL    HW160304   7.573   8.033   0.666 -1.5089 -1.4408  1.1275
18114SOL    HW260305   7.422   8.040   0.659 -1.3453  2.4566 -1.2885
18115SOL     OW60306   1.508   2.717   1.641  0.4018  0.7041 -0.4149
18115SOL    HW160307   1.514   2.783   1.572  1.0985 -1.0899 -2.1760
18115SOL    HW260308   1.434   2.662   1.615  1.9312 -1.2174 -0.9269
18116SOL     OW60309   6.211   8.959   2.648 -0.0586 -0.0645 -0.0464
18116SOL    HW160310   6.284   8.897   2.657  1.9774  1.9395 -1.5497
18116SOL    HW260311   6.176   8.969   2.736  2.2258 -0.2952  0.9594
18117SOL     OW60312   4.925   7.059   3.986 -0.4526  0.3545 -0.6996
18117SOL    HW160313   4.853   7.028   4.041  0.6021  0.4705  0.8043
18117SOL    HW260314   4.955   7.139   4.029  0.9648 -0.0240 -0.9486
18118SOL     OW60315   7.291   4.611   3.169 -0.3535 -0.6409  0.3329
18118SOL    HW160316   7.206   4.653   3.156 -0.3781 -0.5986  0.6219
18118SOL    HW260317   7.318   4.583   3.082 -0.0843  0.4694  0.0406
18119SOL     OW60318   1.188   5.598   0.705 -0.0912  0.6755 -0.0163
18119SOL    HW160319   1.115   5.576   0.647  1.7998  0.4180 -2.4828
18119SOL    HW260320   1.265   5.557   0.664  1.0474 -2.2463  4.3808
18120SOL     OW60321   9.291   1.610   5.396 -0.5246 -0.3329 -0.1714
18120SOL    HW160322   9.230   1.539   5.380 -0.4700 -0.8952  1.8529
18120SOL    HW260323   9.248   1.664   5.463 -0.4174  1.3787 -1.4036
18121SOL     OW60324   5.281   0.732   7.336  0.1184 -0.3029  0.2474
18121SOL    HW160325   5.364   0.685   7.328 -0.2385 -0.6124 -2.2878
18121SOL    HW260326   5.217   0.663   7.355  0.1292 -0.3461  0.1279
18122SOL     OW60327   6.150   8.974   5.504  0.5031 -0.0107 -0.1736
18122SOL    HW160328   6.114   8.981   5.415  0.2374  1.1216  0.0149
18122SOL    HW260329   6.212   9.046   5.511  1.2281 -0.6585  0.2536
18123SOL     OW60330   3.474   5.361   8.768 -0.1778  1.0957 -0.1457
18123SOL    HW160331   3.472   5.349   8.862  0.7695  2.5665  0.0861
18123SOL    HW260332   3.462   5.273   8.732  0.5965  0.3583  1.3436
18124SOL     OW60333   2.424   6.423   1.269  0.2849  0.3608 -0.2920
18124SOL    HW160334   2.368   6.437   1.346  0.4650  0.7659 -0.2315
18124SOL    HW260335   2.365   6.434   1.194  0.0878 -0.1319 -0.2117
18125SOL     OW60336   2.622   4.947   5.321 -0.7221  0.4030  0.4370
18125SOL    HW160337   2.662   4.879   5.375  1.1115  0.9437 -0.1795
18125SOL    HW260338   2.597   5.016   5.383 -2.3884 -0.6807  1.0340
18126SOL     OW60339   1.785   5.145   3.638  0.3388  0.3504  0.4033
18126SOL    HW160340   1.856   5.169   3.578  0.1712  0.1167  0.1025
18126SOL    HW260341   1.783   5.049   3.634 -0.2027  0.3645  0.1547
18127SOL     OW60342   2.287   7.818   8.904 -0.1910 -0.8629  0.0986
18127SOL    HW160343   2.328   7.856   8.827  0.2098 -0.8450  0.3178
18127SOL    HW260344   2.195   7.843   8.898 -0.1383 -0.7686 -0.3145
18128SOL     OW60345   5.168   2.910   1.177  0.3106 -0.2381  0.2753
18128SOL    HW160346   5.152   2.994   1.219  0.5291 -0.9169  1.7848
18128SOL    HW260347   5.082   2.882   1.146 -0.1510 -0.3783  1.6099
18129SOL     OW60348   5.031   6.661   9.193 -0.4390 -0.2562  0.2117
18129SOL    HW160349   4.952   6.617   9.162 -0.3334 -0.4149  0.1629
18129SOL    HW260350   5.102   6.604   9.164 -0.3043 -0.0767  0.1924
18130SOL     OW60351   6.993   7.046   0.249 -0.5534  0.8587 -0.1659
18130SOL    HW160352   6.930   7.105   0.207 -2.5031 -0.4942  0.6864
18130SOL    HW260353   6.948   7.016   0.328  1.4204  0.2364  0.7940
18131SOL     OW60354   7.197   6.295   0.913 -0.0003  0.0490 -0.5078
18131SOL    HW160355   7.191   6.211   0.958  1.9597  0.7939  1.2787
18131SOL    HW260356   7.107   6.313   0.885 -0.5883 -2.2753 -0.3291
18132SOL     OW60357   2.042   6.166   6.700  0.1011 -0.2794 -0.2325
18132SOL    HW160358   2.026   6.165   6.606  1.2982  0.5732 -0.4723
18132SOL    HW260359   1.964   6.208   6.737  0.6827  1.7211 -1.1213
18133SOL     OW60360   2.962   7.274   9.317  0.4311 -0.0086 -0.1179
18133SOL    HW160361   2.898   7.281   9.247  1.4213  0.4489 -1.0075
18133SOL    HW260362   2.936   7.340   9.381 -0.4518 -0.3959 -0.0674
18134SOL     OW60363   5.328   3.995   6.958  0.6028 -0.1210  0.0742
18134SOL    HW160364   5.304   3.942   6.883  0.3854  1.8347 -1.3087
18134SOL    HW260365   5.271   3.965   7.029 -1.9718  0.5528 -1.5950
18135SOL     OW60366   1.023   3.802   5.606  0.0747  0.1719  0.3502
18135SOL    HW160367   1.038   3.796   5.512 -1.0767  2.0722  0.0084
18135SOL    HW260368   1.103   3.765   5.645  0.1412 -1.6380 -1.3152
18136SOL     OW60369   4.691   1.550   8.942 -0.0325  0.0269  0.1610
18136SOL    HW160370   4.621   1.613   8.923 -0.1492  0.2270  1.1864
18136SOL    HW260371   4.752   1.559   8.869 -1.4616 -0.7263 -1.1819
18137SOL     OW60372   6.053   0.991   1.806  0.2262 -0.2344  0.0761
18137SOL    HW160373   6.079   0.932   1.877  2.4701 -0.6165 -0.9813
18137SOL    HW260374   6.075   0.943   1.726  0.1517  1.2139 -0.8417
18138SOL     OW60375   1.369   3.105   0.999 -0.0025  0.3477 -0.0803
18138SOL    HW160376   1.378   3.139   1.088 -0.3721 -1.7617  0.8326
18138SOL    HW260377   1.282   3.131   0.971 -0.8041 -0.9042  1.1194
18139SOL     OW60378   3.434   0.266   1.253  0.4641  0.0484  0.2733
18139SOL    HW160379   3.478   0.235   1.332  2.0746  0.3500 -0.4812
18139SOL    HW260380   3.466   0.210   1.183  0.3786  0.8693 -0.4481
18140SOL     OW60381   0.625   7.598   3.637  0.4448  0.6750 -0.1016
18140SOL    HW160382   0.541   7.556   3.618  0.5184  0.4571  0.0406
18140SOL    HW260383   0.690   7.539   3.597  0.5289  0.8289 -0.1896
18141SOL     OW60384   8.314   2.939   1.005 -0.1580 -0.9360  0.7242
18141SOL    HW160385   8.222   2.966   0.997  0.1021  0.0674  0.9191
18141SOL    HW260386   8.348   2.946   0.916 -0.0242 -0.3162  0.8158
18142SOL     OW60387   7.207   5.427   6.949  0.7918 -0.0957 -0.1598
18142SOL    HW160388   7.212   5.476   7.031 -0.1380 -0.1262 -0.0739
18142SOL    HW260389   7.175   5.491   6.885  2.4811  0.2083 -0.7590
18143SOL     OW60390   6.919   4.306   8.364 -0.1462  0.3950 -0.0344
18143SOL    HW160391   6.948   4.230   8.413 -0.8466  0.6913  0.8667
18143SOL    HW260392   6.982   4.314   8.292 -0.7769 -1.7761 -0.9168
18144SOL     OW60393   9.255   3.218   3.929  0.0669 -0.2482  0.3175
18144SOL    HW160394   9.319   3.228   4.000 -0.0919 -0.7761  0.5447
18144SOL    HW260395   9.207   3.138   3.952 -0.1364 -0.2985 -0.2699
18145SOL     OW60396   6.453   1.972   5.166 -0.4207  0.3003 -0.3855
18145SOL    HW160397   6.526   1.991   5.106 -0.0133  1.3202  0.4101
18145SOL    HW260398   6.385   2.034   5.141 -0.7187 -0.1142 -0.6041
18146SOL     OW60399   4.719   3.305   6.413 -0.2930  0.1252  0.1211
18146SOL    HW160400   4.716   3.397   6.388  0.1867 -0.6026 -2.9845
18146SOL    HW260401   4.806   3.294   6.452 -0.2878  0.9061  0.3639
18147SOL     OW60402   1.319   0.485   8.195  0.2655  0.2738 -0.0366
18147SOL    HW160403   1.355   0.494   8.107 -0.5288  3.0334 -0.1600
18147SOL    HW260404   1.368   0.548   8.248 -1.5663  1.1388  0.7007
18148SOL     OW60405   4.879   3.952   1.919 -0.4909 -0.2279  0.1429
18148SOL    HW160406   4.975   3.954   1.921 -0.4650  2.0433 -0.7310
18148SOL    HW260407   4.854   3.936   2.009  0.7159  0.5114  0.6409
18149SOL     OW60408   5.130   2.710   3.041 -0.0292 -0.1399  0.3562
18149SOL    HW160409   5.201   2.648   3.026  1.3588  1.0859  1.5326
18149SOL    HW260410   5.143   2.778   2.975 -1.3631 -0.8908 -0.7330
18150SOL     OW60411   4.490   4.975   6.465 -0.1831 -0.3549 -0.0106
18150SOL    HW160412   4.515   4.921   6.390  0.0115 -1.1797  0.6294
18150SOL    HW260413   4.431   5.041   6.428  0.4840 -0.2969 -1.0036
18151SOL     OW60414   2.824   6.302   7.821  0.1033  0.6125 -0.0160
18151SOL    HW160415   2.894   6.251   7.861 -0.2616  0.5361  0.5453
18151SOL    HW260416   2.750   6.241   7.817  0.2202  0.5289 -1.0939
18152SOL     OW60417   7.095   8.268   4.121 -0.1498  0.2968  0.4085
18152SOL    HW160418   7.088   8.347   4.068 -1.3747 -0.2179 -0.2488
18152SOL    HW260419   7.028   8.278   4.189 -0.8620 -0.5044 -0.1542
18153SOL     OW60420   3.479   6.670   6.734  0.2441 -0.3381  0.2110
18153SOL    HW160421   3.412   6.617   6.779 -0.1463  1.9322  2.5615
18153SOL    HW260422   3.463   6.655   6.641 -2.0648 -1.6314  0.7253
18154SOL     OW60423   1.117   6.179   0.822 -0.2822  0.2247 -0.2325
18154SOL    HW160424   1.187   6.136   0.773 -1.8898 -2.5113 -0.3157
18154SOL    HW260425   1.117   6.270   0.791 -0.3551 -1.0111 -4.3377
18155SOL     OW60426   7.981   2.651   1.325  0.2998 -0.2108 -0.3528
18155SOL    HW160427   8.004   2.653   1.418  1.7647  2.8141 -0.6355
18155SOL    HW260428   7.886   2.640   1.324  0.3073 -0.8702  1.4478
18156SOL     OW60429   1.525   5.757   0.078  0.3702 -0.0456 -0.0871
18156SOL    HW160430   1.448   5.811   0.068 -1.0407 -1.9334 -0.0006
18156SOL    HW260431   1.508   5.704   0.156  0.8334 -1.8788 -1.1590
18157SOL     OW60432   1.338   7.126   6.315  0.4853 -0.6756  0.3917
18157SOL    HW160433   1.431   7.110   6.332  0.7592  1.0018  0.6449
18157SOL    HW260434   1.337   7.205   6.261 -0.8351  0.7784  2.3659
18158SOL     OW60435   7.987   4.377   0.715 -0.3572  0.1115 -0.9196
18158SOL    HW160436   7.896   4.401   0.698 -0.0376  3.1003  0.9112
18158SOL    HW260437   7.985   4.330   0.799 -0.0121  3.5532  1.2115
18159SOL     OW60438   6.331   2.190   8.914  0.1974 -0.1616  0.4368
18159SOL    HW160439   6.425   2.207   8.916  0.3918 -1.1695  0.5867
18159SOL    HW260440   6.300   2.233   8.835  0.6702  0.6947  0.7047
18160SOL     OW60441   2.470   1.568   5.028  0.1363  0.5544 -0.3000
18160SOL    HW160442   2.493   1.493   5.083  1.2806  1.2850  0.2483
18160SOL    HW260443   2.453   1.639   5.089 -3.8348  0.0895 -0.6459
18161SOL     OW60444   5.971   2.216   8.820  0.0844 -0.0471  0.5576
18161SOL    HW160445   6.066   2.212   8.835  0.0176 -0.3189  0.9216
18161SOL    HW260446   5.938   2.134   8.855 -0.0737 -0.7699 -1.2061
18162SOL     OW60447   2.072   1.142   2.718  0.5496 -0.4140 -0.3257
18162SOL    HW160448   1.998   1.134   2.658  1.0239  4.2723 -1.9019
18162SOL    HW260449   2.149   1.125   2.663  0.8498  0.6723 -0.2585
18163SOL     OW60450   1.242   6.357   0.473 -0.0162  0.3497  0.0024
18163SOL    HW160451   1.241   6.392   0.562  0.5054  1.4577 -0.4048
18163SOL    HW260452   1.222   6.264   0.483  0.6702  0.3186  1.3393
18164SOL     OW60453   2.406   4.079   0.300  0.1638 -0.2432  0.6801
18164SOL    HW160454   2.322   4.124   0.299 -0.2393 -0.9700 -0.4951
18164SOL    HW260455   2.394   4.007   0.361  0.6422  0.8651  2.1557
18165SOL     OW60456   8.405   0.579   3.881  0.2072 -0.8959 -0.2657
18165SOL    HW160457   8.352   0.602   3.805 -0.3998  0.4871  0.5427
18165SOL    HW260458   8.345   0.533   3.940  0.0653  0.0225  0.3307
18166SOL     OW60459   1.641   7.644   5.493  0.0842 -0.1440 -0.1650
18166SOL    HW160460   1.720   7.696   5.481  1.2835 -1.7284  0.4004
18166SOL    HW260461   1.604   7.636   5.406  0.3531  0.9242 -0.3852
18167SOL     OW60462   5.988   6.912   5.502 -0.0184  0.6239  0.1833
18167SOL    HW160463   6.078   6.908   5.468 -0.4369 -0.1306 -0.9100
18167SOL    HW260464   5.936   6.945   5.429 -0.7928 -0.0312  0.4172
18168SOL     OW60465   8.536   8.325   4.801 -0.2220  0.3543 -0.6607
18168SOL    HW160466   8.613   8.282   4.837  0.7624  1.8194 -0.8890
18168SOL    HW260467   8.483   8.255   4.764  0.2727 -0.8424  0.8092
18169SOL     OW60468   2.256   5.371   0.342 -0.1581  0.2871  0.0698
18169SOL    HW160469   2.265   5.345   0.433  0.5914  0.3865  0.0258
18169SOL    HW260470   2.341   5.353   0.303 -1.0078 -1.4988 -1.0745
18170SOL     OW60471   7.486   3.507   5.399 -0.3531 -0.1228  0.1085
18170SOL    HW160472   7.499   3.517   5.493  0.6121 -0.6099  0.0437
18170SOL    HW260473   7.397   3.539   5.383 -0.8100 -0.7427  1.2999
18171SOL     OW60474   2.744   5.184   1.489 -0.1771  0.5508 -0.5569
18171SOL    HW160475   2.731   5.220   1.577  0.1523 -0.0145 -0.2702
18171SOL    HW260476   2.656   5.184   1.450 -0.3817  0.5047 -0.1077
18172SOL     OW60477   4.014   5.426   2.698 -0.4080 -0.1560 -0.4326
18172SOL    HW160478   4.098   5.384   2.719  1.1311  1.7333 -2.3704
18172SOL    HW260479   3.982   5.459   2.782  1.0429 -0.4522  0.2753
18173SOL     OW60480   4.864   5.422   4.778  0.5005  0.3375 -0.1548
18173SOL    HW160481   4.934   5.487   4.783  1.1678 -0.2442 -1.3916
18173SOL    HW260482   4.905   5.346   4.737 -0.5559 -0.4599  0.2157
18174SOL     OW60483   9.217   6.298   4.246  0.0898 -0.3634  0.2675
18174SOL    HW160484   9.194   6.353   4.320  0.2474  1.4593 -0.9642
18174SOL    HW260485   9.257   6.358   4.183  1.3836 -2.1098 -0.6803
18175SOL     OW60486   8.578   1.647   8.336  0.2042  0.1964  0.4615
18175SOL    HW160487   8.609   1.710   8.401 -0.8578  0.4741  0.7117
18175SOL    HW260488   8.593   1.691   8.252  3.7609 -1.0682  0.2576
18176SOL     OW60489   7.274   3.217   0.054 -0.3091  0.1272  0.4161
18176SOL    HW160490   7.309   3.233   0.142 -0.1700 -1.0564  0.5969
18176SOL    HW260491   7.316   3.283  -0.001  0.4793  0.1666  1.0379
18177SOL     OW60492   4.147   8.710   3.760 -0.1662  0.0939 -0.2437
18177SOL    HW160493   4.190   8.784   3.716  0.6330  0.5682  1.2721
18177SOL    HW260494   4.204   8.690   3.835 -1.1940 -1.0513  0.2650
18178SOL     OW60495   7.816   1.367   7.956  0.5412 -0.0342  0.1657
18178SOL    HW160496   7.856   1.341   7.873  1.4586 -0.5732  0.7543
18178SOL    HW260497   7.818   1.288   8.010  0.2243  0.3785  0.8008
18179SOL     OW60498   5.061   4.237   2.356 -0.2221  0.0821  0.4817
18179SOL    HW160499   5.026   4.245   2.268 -0.8696 -0.3674  0.6916
18179SOL    HW260500   5.056   4.144   2.376 -0.0803  0.1810  0.9908
18180SOL     OW60501   3.371   3.964   1.781  0.1289  0.0981 -0.0992
18180SOL    HW160502   3.367   4.044   1.834 -1.2541  0.4123 -0.6404
18180SOL    HW260503   3.424   3.989   1.705 -2.4980  1.4038 -1.6434
18181SOL     OW60504   3.951   2.006   4.808  0.0585 -0.0779  0.0552
18181SOL    HW160505   4.021   1.949   4.776 -0.8475 -1.3038  0.1894
18181SOL    HW260506   3.957   2.002   4.903  0.4803  0.6926  0.0694
18182SOL     OW60507   5.197   6.324   7.971 -0.1023 -0.2319 -0.2830
18182SOL    HW160508   5.235   6.381   8.037 -1.2510 -1.5371  1.6099
18182SOL    HW260509   5.242   6.346   7.890  1.2840  1.5055  0.9159
18183SOL     OW60510   4.610   8.920   0.285  0.4613  0.1958  0.1012
18183SOL    HW160511   4.555   8.996   0.270  0.5560  0.2834  0.1944
18183SOL    HW260512   4.549   8.850   0.310  0.4440  0.4419  0.7716
18184SOL     OW60513   1.213   6.429   6.140  0.8178  0.0356  0.0319
18184SOL    HW160514   1.210   6.380   6.222 -0.7841  0.6675  0.3891
18184SOL    HW260515   1.225   6.362   6.072  1.0916 -0.5911  0.6853
18185SOL     OW60516   2.939   2.889   7.961  0.3986 -1.0930  0.2591
18185SOL    HW160517   2.930   2.816   8.023  0.8313 -0.6222  0.8858
18185SOL    HW260518   3.030   2.917   7.970  0.0852 -0.1057  0.4567
18186SOL     OW60519   2.302   7.900   2.991  0.5034  0.3806  0.1296
18186SOL    HW160520   2.264   7.884   2.905 -0.4674  1.8424  0.2433
18186SOL    HW260521   2.357   7.824   3.008  0.0609 -0.3197 -1.4175
18187SOL     OW60522   6.655   6.933   9.174  0.0504  0.2307  0.5018
18187SOL    HW160523   6.648   7.027   9.157  0.3084  0.1436 -0.1062
18187SOL    HW260524   6.742   6.922   9.213 -0.0058  0.2494  0.6340
18188SOL     OW60525   8.941   8.325   2.207  1.1000 -0.0933 -0.4727
18188SOL    HW160526   9.020   8.352   2.256  1.2376  0.0612 -0.7756
18188SOL    HW260527   8.873   8.385   2.237  1.3396  0.4206 -0.9399
18189SOL     OW60528   6.110   6.068   7.089 -0.8660  0.0627  0.6210
18189SOL    HW160529   6.191   6.018   7.099 -1.6274 -1.7490 -1.5314
18189SOL    HW260530   6.054   6.037   7.160 -0.6443 -0.7803  0.4425
18190SOL     OW60531   1.179   6.697   1.990  0.1004 -0.1883 -0.6908
18190SOL    HW160532   1.137   6.633   1.933  0.5245  0.5152 -1.8247
18190SOL    HW260533   1.110   6.726   2.049 -0.1186 -1.6109 -0.2086
18191SOL     OW60534   1.497   8.339   2.383  0.1426 -0.3365 -0.2569
18191SOL    HW160535   1.447   8.265   2.348  0.5366 -1.0339  0.6026
18191SOL    HW260536   1.582   8.302   2.406 -0.2752 -0.0663  1.9323
18192SOL     OW60537   9.002   5.069   5.833  0.2462  0.3826 -0.5010
18192SOL    HW160538   8.998   5.130   5.759  0.5430 -0.4584 -1.2365
18192SOL    HW260539   8.999   4.982   5.792 -0.9252 -0.1036  0.5617
18193SOL     OW60540   0.968   0.717   7.891 -0.3467  0.8806 -0.5238
18193SOL    HW160541   0.973   0.811   7.911  0.6168  0.5138  1.0820
18193SOL    HW260542   0.927   0.678   7.968  0.5636 -0.1952 -0.5590
18194SOL     OW60543   1.524   2.647   5.766 -0.1468  0.4241  0.4753
18194SOL    HW160544   1.497   2.710   5.700  2.1439 -1.0256 -2.0460
18194SOL    HW260545   1.451   2.585   5.772 -0.6453  0.9280 -0.2310
18195SOL     OW60546   5.417   1.481   8.894  0.5942  0.1373  0.3342
18195SOL    HW160547   5.370   1.551   8.849 -1.3355 -0.1149  1.8592
18195SOL    HW260548   5.349   1.419   8.920  2.1553 -1.9398 -0.2475
18196SOL     OW60549   7.143   5.326   6.659 -0.0539  0.0769  0.1630
18196SOL    HW160550   7.171   5.402   6.710  0.9076 -0.4445  0.4451
18196SOL    HW260551   7.047   5.328   6.662 -0.0231 -0.1160  2.2641
18197SOL     OW60552   4.487   1.299   8.679  0.4238 -0.8683 -0.1662
18197SOL    HW160553   4.545   1.373   8.700  0.5503 -0.3304 -2.2008
18197SOL    HW260554   4.526   1.224   8.723  1.5700 -0.1377  0.0947
18198SOL     OW60555   7.632   1.804   7.806 -0.4221 -1.0018  0.5756
18198SOL    HW160556   7.574   1.873   7.840  1.0179  0.5055  0.1084
18198SOL    HW260557   7.693   1.787   7.877 -0.3888 -1.3568  0.4626
18199SOL     OW60558   8.346   4.237   8.693 -0.1843 -0.6078 -0.0878
18199SOL    HW160559   8.334   4.254   8.787 -1.1270  1.2318 -0.4858
18199SOL    HW260560   8.440   4.226   8.682 -0.0133 -0.3220  0.9926
18200SOL     OW60561   7.101   4.408   5.538  0.2489  0.3303 -0.0586
18200SOL    HW160562   7.107   4.483   5.596 -0.8151  0.0059  0.4930
18200SOL    HW260563   7.039   4.349   5.580  1.6044 -1.2213 -0.0960
18201SOL     OW60564   6.211   5.782   3.166  0.6360 -0.2815  0.0899
18201SOL    HW160565   6.255   5.706   3.204 -0.4982 -0.8056  0.4334
18201SOL    HW260566   6.226   5.775   3.072 -3.1310 -3.6002 -0.5634
18202SOL     OW60567   2.816   4.084   0.326  0.6239 -0.2883 -0.5111
18202SOL    HW160568   2.817   4.090   0.422  0.0212 -0.4574 -0.4868
18202SOL    HW260569   2.844   4.170   0.296  0.1515 -0.0099 -0.1796
18203SOL     OW60570   9.172   1.224   6.798  0.0863  0.3552 -0.4298
18203SOL    HW160571   9.104   1.190   6.739  0.3230 -1.4879  0.2921
18203SOL    HW260572   9.164   1.171   6.877  1.8447  0.6403 -0.0167
18204SOL     OW60573   7.124   8.733   2.971 -0.6435 -0.3333 -0.3393
18204SOL    HW160574   7.029   8.721   2.972 -0.7059 -0.1071 -1.7287
18204SOL    HW260575   7.147   8.743   3.063 -1.7447 -2.0282  0.1866
18205SOL     OW60576   7.814   0.231   2.651  0.1911  0.1916  0.7857
18205SOL    HW160577   7.901   0.193   2.648  0.2340  0.0876  2.4370
18205SOL    HW260578   7.825   0.312   2.702 -0.3122  1.2907 -0.7582
18206SOL     OW60579   8.032   0.511   3.480 -0.2974 -0.4836  0.2292
18206SOL    HW160580   7.945   0.470   3.472  0.5063 -2.3387  0.4763
18206SOL    HW260581   8.070   0.502   3.393 -0.2184  0.0033  0.2139
18207SOL     OW60582   2.638   1.397   7.819 -0.1531 -0.2830 -0.3709
18207SOL    HW160583   2.652   1.459   7.891  0.8297  0.6496 -1.3399
18207SOL    HW260584   2.546   1.408   7.796 -0.0558  0.6518 -0.3661
18208SOL     OW60585   8.948   8.228   8.060  0.2855 -0.5149  0.0195
18208SOL    HW160586   9.003   8.184   8.125  0.3679 -0.0301  0.2819
18208SOL    HW260587   8.913   8.305   8.106 -1.0831 -1.1187  0.0414
18209SOL     OW60588   4.392   8.488   3.631  0.0915  0.2211 -0.3201
18209SOL    HW160589   4.399   8.412   3.690  1.3777  2.7117  3.0564
18209SOL    HW260590   4.298   8.510   3.632 -0.3711 -1.5099 -1.7137
18210SOL     OW60591   1.243   6.845   3.620  0.0500  0.5331 -0.5448
18210SOL    HW160592   1.325   6.795   3.624 -0.1668  0.1986 -0.0712
18210SOL    HW260593   1.224   6.852   3.527  0.2546 -0.0046 -0.6360
18211SOL     OW60594   3.786   2.158   4.158 -0.1436  0.4697  0.2285
18211SOL    HW160595   3.783   2.244   4.201  1.1857 -0.1372  1.6443
18211SOL    HW260596   3.812   2.178   4.068 -2.2483  1.7265 -0.1635
18212SOL     OW60597   0.710   4.331   1.900 -0.2187  0.1982  0.2362
18212SOL    HW160598   0.702   4.241   1.933 -1.0719  0.5109  0.9216
18212SOL    HW260599   0.621   4.366   1.902  0.2361  1.3968  0.9885
18213SOL     OW60600   5.052   2.890   0.012 -0.0475 -0.1344  0.1254
18213SOL    HW160601   5.096   2.892   0.098  0.1009 -1.2017  0.0863
18213SOL    HW260602   4.976   2.834   0.026 -1.6686  1.9745  0.2849
18214SOL     OW60603   8.586   1.735   1.620 -0.1189  0.0120 -0.3490
18214SOL    HW160604   8.536   1.660   1.587 -1.6580  0.1743  1.4780
18214SOL    HW260605   8.667   1.697   1.654 -0.7473 -0.8066  0.2697
18215SOL     OW60606   5.903   1.762   4.539 -0.0124  0.4469 -0.0130
18215SOL    HW160607   5.924   1.769   4.446  1.9089 -2.3851  0.0906
18215SOL    HW260608   5.979   1.799   4.584  0.4185 -0.8638  0.3846
18216SOL     OW60609   7.096   4.250   2.260  0.4443 -0.3783 -0.2621
18216SOL    HW160610   7.161   4.180   2.268  2.1511  1.2702  1.0303
18216SOL    HW260611   7.129   4.306   2.191  0.4658  0.5085  0.4453
18217SOL     OW60612   3.533   3.934   3.745  0.9280  0.4981  0.3743
18217SOL    HW160613   3.519   3.877   3.670  0.1693 -0.2563  1.0659
18217SOL    HW260614   3.567   4.015   3.708  2.5031 -0.5457 -0.5938
18218SOL     OW60615   6.863   5.919   7.144  0.3405 -0.3668  0.8299
18218SOL    HW160616   6.941   5.974   7.151  0.9952 -0.7006 -2.1871
18218SOL    HW260617   6.895   5.830   7.157  0.5366 -0.5117 -0.4936
18219SOL     OW60618   0.303   7.223   4.074 -0.1249  0.3604 -0.1294
18219SOL    HW160619   0.390   7.232   4.112  1.4753  1.4261 -3.5773
18219SOL    HW260620   0.284   7.130   4.080  2.2353 -0.2643 -1.0214
18220SOL     OW60621   0.220   8.143   0.577  0.2223  0.5116 -0.0802
18220SOL    HW160622   0.188   8.201   0.507  0.9232  2.2158  0.9322
18220SOL    HW260623   0.315   8.147   0.570  0.2958  0.5188  0.8024
18221SOL     OW60624   7.542   2.306   2.322 -0.0983  0.1068 -0.1739
18221SOL    HW160625   7.477   2.329   2.389  1.0940  2.6645  0.2518
18221SOL    HW260626   7.500   2.330   2.239 -0.5660 -0.4938 -0.1151
18222SOL     OW60627   1.684   1.273   1.534 -0.4691  0.5402 -0.7232
18222SOL    HW160628   1.748   1.279   1.604 -0.4030 -0.2359 -0.7075
18222SOL    HW260629   1.727   1.313   1.458 -0.1436  0.4358 -0.5933
18223SOL     OW60630   2.078   6.536   0.244 -0.0940  0.3377 -0.0863
18223SOL    HW160631   2.131   6.601   0.290  0.4609  0.6215 -1.0914
18223SOL    HW260632   1.988   6.558   0.267  0.1766  0.2953  1.0707
18224SOL     OW60633   3.810   8.894   7.490 -0.9575 -0.0096  0.1521
18224SOL    HW160634   3.835   8.910   7.399  1.1820  0.3315  0.7423
18224SOL    HW260635   3.747   8.822   7.485  0.3349 -1.1272 -1.5209
18225SOL     OW60636   0.868   0.014   8.781 -0.7387 -0.6549  0.2868
18225SOL    HW160637   0.880  -0.080   8.789 -0.3092 -0.7892 -1.5908
18225SOL    HW260638   0.880   0.033   8.688 -3.0338  0.9492  0.2333
18226SOL     OW60639   7.548   8.404   2.989 -0.9552  0.3242  0.1555
18226SOL    HW160640   7.562   8.330   2.929  1.5647  0.1259  0.8394
18226SOL    HW260641   7.538   8.480   2.931 -0.3276 -0.1144 -0.5574
18227SOL     OW60642   3.968   6.408   8.678  0.1146 -0.3531 -0.0690
18227SOL    HW160643   3.908   6.415   8.752  1.2617 -0.2707  0.9028
18227SOL    HW260644   3.917   6.369   8.608 -1.1910  0.1773  0.5590
18228SOL     OW60645   6.601   3.150   2.376  0.3645 -0.6482 -0.2680
18228SOL    HW160646   6.542   3.109   2.439  0.9922  0.1576  0.8719
18228SOL    HW260647   6.686   3.153   2.420  0.6811  0.4607 -0.9099
18229SOL     OW60648   0.799   7.263   7.167  0.0778  0.3254 -0.0620
18229SOL    HW160649   0.838   7.271   7.254 -0.6329  2.3257  0.1262
18229SOL    HW260650   0.830   7.339   7.119 -1.2991  0.4524 -0.8174
18230SOL     OW60651   7.074   8.503   7.407 -0.0320  0.0375 -0.8169
18230SOL    HW160652   7.113   8.509   7.494 -0.1848 -0.0965 -0.7402
18230SOL    HW260653   7.064   8.595   7.379  0.9203  0.0688 -1.0993
18231SOL     OW60654   4.850   3.134   2.933 -0.2768 -0.2516 -0.4717
18231SOL    HW160655   4.828   3.045   2.906  0.1439  0.5248 -3.7371
18231SOL    HW260656   4.847   3.186   2.853  4.6195  1.6878  0.2046
18232SOL     OW60657   7.388   7.062   8.648 -0.6080  0.1118  0.6024
18232SOL    HW160658   7.367   7.132   8.586 -0.7994 -0.0527  0.4800
18232SOL    HW260659   7.339   6.986   8.616 -0.5493 -0.0278  0.8420
18233SOL     OW60660   8.174   4.456   9.232  0.1042  0.5297 -0.2051
18233SOL    HW160661   8.129   4.485   9.312 -1.6041  0.1648 -0.9818
18233SOL    HW260662   8.264   4.441   9.259 -0.4059  0.5503  1.6241
18234SOL     OW60663   2.094   7.695   5.018  0.6727 -0.3174 -0.7891
18234SOL    HW160664   2.165   7.751   5.050  0.3182  0.7256 -1.7503
18234SOL    HW260665   2.085   7.718   4.926 -1.0188 -0.2886 -0.6602
18235SOL     OW60666   7.392   6.464   8.163  0.0941  0.3135  0.2249
18235SOL    HW160667   7.426   6.520   8.094  0.5947 -1.1125 -0.7318
18235SOL    HW260668   7.406   6.514   8.244 -1.3105  2.3930 -0.7338
18236SOL     OW60669   4.940   6.167   8.417 -0.0848  0.4061  0.3394
18236SOL    HW160670   4.969   6.112   8.490 -2.6243 -2.2705 -0.4323
18236SOL    HW260671   5.000   6.145   8.346 -1.1001 -1.6538  0.0163
18237SOL     OW60672   0.808   7.840   7.494  0.1419 -0.3278  0.6460
18237SOL    HW160673   0.832   7.899   7.423  2.0196 -1.1798  0.4968
18237SOL    HW260674   0.739   7.885   7.541 -0.5589  0.6410 -1.2133
18238SOL     OW60675   8.859   0.184   6.100 -0.0960  0.3470 -0.1730
18238SOL    HW160676   8.939   0.182   6.048  0.2470  0.2383  0.3600
18238SOL    HW260677   8.866   0.262   6.154  0.7484 -0.8707  1.5723
18239SOL     OW60678   3.423   2.374   3.506 -0.1921  0.0942 -0.2921
18239SOL    HW160679   3.479   2.297   3.497  0.3503  0.3895  0.4367
18239SOL    HW260680   3.470   2.443   3.458 -0.1368  0.2324 -0.0425
18240SOL     OW60681   3.489   5.452   3.479 -0.1469  0.1836  0.0156
18240SOL    HW160682   3.517   5.528   3.428 -1.5146  0.5112 -0.3029
18240SOL    HW260683   3.538   5.379   3.442  1.6884  0.9946  0.7679
18241SOL     OW60684   6.397   9.153   3.725  0.0340 -0.2637  0.1198
18241SOL    HW160685   6.463   9.122   3.663  1.2002  2.3768 -0.1135
18241SOL    HW260686   6.330   9.193   3.671  0.6284  1.2761  0.4547
18242SOL     OW60687   3.216   4.059   8.754  0.0708 -0.2024  0.1148
18242SOL    HW160688   3.124   4.085   8.743 -0.2940 -0.1435  2.6919
18242SOL    HW260689   3.218   3.967   8.726 -0.7531 -0.1861 -0.0258
18243SOL     OW60690   6.156   5.594   4.272 -0.0580 -0.5821 -0.2410
18243SOL    HW160691   6.243   5.631   4.289 -0.5004 -0.2051  1.2738
18243SOL    HW260692   6.096   5.646   4.324 -1.3985 -0.0656 -2.1872
18244SOL     OW60693   6.002   8.583   4.807  0.7804  0.3617  0.5789
18244SOL    HW160694   6.038   8.606   4.721  0.2332  1.2459  0.5708
18244SOL    HW260695   6.004   8.665   4.856 -0.3241  0.2169  0.8946
18245SOL     OW60696   3.046   9.256   4.329  0.1033  0.4242 -0.0062
18245SOL    HW160697   3.070   9.296   4.412  0.8153 -0.8156  0.4159
18245SOL    HW260698   3.092   9.171   4.329 -0.6421 -0.0092 -1.2350
18246SOL     OW60699   4.200   3.519   5.600  0.1312  0.0570 -0.6449
18246SOL    HW160700   4.244   3.571   5.532  0.1232  0.3253 -0.4441
18246SOL    HW260701   4.268   3.502   5.665  0.0765  0.0047 -0.6008
18247SOL     OW60702   0.916   5.799   1.176 -0.0622 -0.5084  0.5061
18247SOL    HW160703   0.920   5.778   1.083  0.0810  1.8706 -0.0933
18247SOL    HW260704   0.860   5.876   1.181 -0.0388 -0.5663  2.3919
18248SOL     OW60705   7.424   0.124   6.804 -0.0255 -0.0975 -0.2059
18248SOL    HW160706   7.414   0.209   6.848  0.7336  0.6883 -1.4640
18248SOL    HW260707   7.398   0.142   6.713  0.5127 -1.1254 -0.5733
18249SOL     OW60708   0.324   5.340   8.842 -0.2745 -0.0575  0.1998
18249SOL    HW160709   0.264   5.380   8.905 -0.7943 -0.8463  0.2123
18249SOL    HW260710   0.277   5.263   8.809  0.3167 -0.1104 -0.5533
18250SOL     OW60711   8.866   6.580   3.029 -0.2522 -0.7776  0.4055
18250SOL    HW160712   8.957   6.593   3.002 -0.0596 -1.1723  0.8591
18250SOL    HW260713   8.843   6.659   3.078 -0.8129  0.2507 -1.4258
18251SOL     OW60714   4.573   6.437   9.005 -0.3524 -0.2044  0.3250
18251SOL    HW160715   4.521   6.451   8.926 -0.4805  0.3240  0.4945
18251SOL    HW260716   4.528   6.489   9.072  0.1069 -0.1477  0.5942
18252SOL     OW60717   2.775   9.028   7.519  0.0021 -0.1817 -0.0153
18252SOL    HW160718   2.739   9.084   7.587  2.5160 -1.4023  2.5414
18252SOL    HW260719   2.780   8.941   7.560  2.4187 -0.7851 -1.3912
18253SOL     OW60720   5.004   3.807   7.589 -0.2669  0.2635  0.0771
18253SOL    HW160721   4.954   3.757   7.654  0.9936 -0.6932  0.3434
18253SOL    HW260722   5.083   3.755   7.574 -1.3994 -0.6560 -3.7982
18254SOL     OW60723   4.768   5.558   1.338  0.2574 -0.1763  0.1531
18254SOL    HW160724   4.708   5.541   1.266  0.8419  0.3166 -0.4598
18254SOL    HW260725   4.827   5.483   1.338  2.1423  1.1810 -1.8433
18255SOL     OW60726   7.879   0.901   4.004  0.2409 -0.1623  0.3613
18255SOL    HW160727   7.956   0.929   4.053  0.6244 -1.3962  0.4868
18255SOL    HW260728   7.914   0.852   3.930 -0.3966  0.3169 -0.2772
18256SOL     OW60729   6.399   8.640   9.104 -0.4805  0.1174  0.4436
18256SOL    HW160730   6.482   8.632   9.152 -0.3103  0.6299  0.2392
18256SOL    HW260731   6.365   8.550   9.101 -0.8433  0.1747  2.1146
18257SOL     OW60732   6.856   1.686   5.750 -0.5939 -0.0770 -0.5237
18257SOL    HW160733   6.878   1.724   5.835 -4.6273  1.6842 -0.0627
18257SOL    HW260734   6.893   1.597   5.754 -1.0500 -0.2651  3.3160
18258SOL     OW60735   6.732   8.341   3.457 -0.3787 -0.2548 -0.1460
18258SOL    HW160736   6.709   8.368   3.368 -1.5159 -1.3460 -0.2124
18258SOL    HW260737   6.827   8.325   3.453 -0.5451 -1.1407 -1.4172
18259SOL     OW60738   7.663   6.262   2.424  0.5368 -0.1928  0.3188
18259SOL    HW160739   7.723   6.215   2.481 -0.3819  0.1898  1.6485
18259SOL    HW260740   7.719   6.324   2.377  1.2093  0.1102  1.4711
18260SOL     OW60741   8.004   3.754   5.920 -0.0339  0.3699  0.0539
18260SOL    HW160742   7.928   3.810   5.936 -0.1589  0.2817 -0.2269
18260SOL    HW260743   7.987   3.675   5.972  0.2320  0.6651  0.5975
18261SOL     OW60744   8.047   0.006   6.178 -0.2072  0.2584 -0.1299
18261SOL    HW160745   8.094   0.052   6.248  0.7539  0.2290 -0.7384
18261SOL    HW260746   8.104   0.015   6.101 -0.2967 -1.3942 -0.4266
18262SOL     OW60747   0.701   5.154   7.846 -0.2117  0.6419 -0.4965
18262SOL    HW160748   0.625   5.111   7.886  0.9997 -1.7273 -0.5559
18262SOL    HW260749   0.761   5.169   7.920  0.3887 -0.0807 -0.8249
18263SOL     OW60750   1.895   3.524   0.992  0.1952 -0.1488  0.1025
18263SOL    HW160751   1.934   3.585   0.929  0.0197 -0.2871 -0.1444
18263SOL    HW260752   1.812   3.565   1.015  0.2487 -0.1102  0.2243
18264SOL     OW60753   7.946   7.231   2.742 -0.0781  0.2007 -0.6057
18264SOL    HW160754   7.870   7.236   2.800  0.0007  0.7018 -0.5392
18264SOL    HW260755   7.931   7.153   2.688 -0.9050  0.6023 -0.9671
18265SOL     OW60756   3.737   8.629   0.092  0.3448  0.3246  0.6274
18265SOL    HW160757   3.758   8.539   0.067  0.3825  0.5818 -0.3103
18265SOL    HW260758   3.709   8.623   0.183 -1.2143 -0.8922  0.1155
18266SOL     OW60759   8.365   6.802   4.258  0.3187 -0.1646 -1.0000
18266SOL    HW160760   8.357   6.785   4.352  1.2719  0.7001 -0.7324
18266SOL    HW260761   8.347   6.718   4.216 -0.4769 -0.4760 -0.0688
18267SOL     OW60762   4.498   1.097   4.332  0.2312  0.1459  0.3471
18267SOL    HW160763   4.571   1.121   4.276 -0.0153 -0.1690 -0.1083
18267SOL    HW260764   4.421   1.106   4.277 -0.0253 -0.0295  0.6739
18268SOL     OW60765   2.966   7.744   7.614 -0.0416  1.2698 -0.0895
18268SOL    HW160766   2.957   7.823   7.668 -1.9875  0.2533  1.1848
18268SOL    HW260767   3.033   7.693   7.658 -0.7742  0.9840  0.7296
18269SOL     OW60768   7.671   1.665   8.795  0.0666 -0.7010 -0.6083
18269SOL    HW160769   7.670   1.578   8.754 -0.6625 -0.8613 -0.2764
18269SOL    HW260770   7.613   1.656   8.871  1.4055 -0.4127  0.4757
18270SOL     OW60771   4.507   5.451   7.781  0.1129  0.1535  0.2490
18270SOL    HW160772   4.433   5.391   7.786 -0.2280  0.4314 -1.0990
18270SOL    HW260773   4.584   5.394   7.785 -0.1991 -0.3355 -0.5286
18271SOL     OW60774   3.112   5.171   8.334  0.2983  0.1080  0.1123
18271SOL    HW160775   3.114   5.248   8.277  0.3852  1.3757  1.7551
18271SOL    HW260776   3.056   5.108   8.288 -0.7607  1.5991 -0.7096
18272SOL     OW60777   0.743   2.085   6.673 -0.1953 -0.5273 -0.2334
18272SOL    HW160778   0.771   2.140   6.746 -2.6993 -1.4981  1.6102
18272SOL    HW260779   0.744   1.996   6.708 -1.7561 -0.9817 -1.2398
18273SOL     OW60780   2.603   2.558   1.775 -0.1554  0.0971  0.1615
18273SOL    HW160781   2.609   2.633   1.716  1.4828  1.4068  1.8339
18273SOL    HW260782   2.579   2.484   1.719 -0.3844  1.5798 -1.8013
18274SOL     OW60783   6.291   1.419   1.050  0.2214 -0.1874 -0.3823
18274SOL    HW160784   6.324   1.330   1.037  0.4597  0.0830 -1.7543
18274SOL    HW260785   6.328   1.446   1.134  1.8228 -0.6377 -0.9195
18275SOL     OW60786   5.668   8.459   0.930  0.4145 -0.4134 -0.4998
18275SOL    HW160787   5.752   8.469   0.975 -0.3331 -0.5850  0.9725
18275SOL    HW260788   5.602   8.477   0.997 -0.7391  0.6007 -1.8368
18276SOL     OW60789   9.140   8.363   3.198 -0.3265  0.5441 -0.0635
18276SOL    HW160790   9.080   8.323   3.260 -0.7045  0.0196 -0.7553
18276SOL    HW260791   9.227   8.341   3.231 -0.5274 -0.5518 -0.2348
18277SOL     OW60792   2.968   3.560   5.959 -0.8294 -0.2578  0.5695
18277SOL    HW160793   3.043   3.558   6.019 -1.6918  1.0207  1.7497
18277SOL    HW260794   2.948   3.653   5.948 -0.6125 -0.4404 -1.8802
18278SOL     OW60795   1.724   5.966   4.959  0.1526  0.4883  0.2041
18278SOL    HW160796   1.698   5.927   5.042  0.1430  2.3596  1.1304
18278SOL    HW260797   1.732   5.892   4.899  2.2109 -1.1566  2.3478
18279SOL     OW60798   7.920   5.050   8.278  0.1624 -0.2391 -0.4660
18279SOL    HW160799   7.868   4.985   8.231  0.5721 -0.5601 -0.4778
18279SOL    HW260800   7.921   5.126   8.220 -3.6826  1.3414  1.1901
18280SOL     OW60801   4.756   5.650   5.923  0.0237 -0.0363  0.4624
18280SOL    HW160802   4.695   5.714   5.887  0.5886  0.8483  1.0551
18280SOL    HW260803   4.741   5.571   5.871 -1.2741  0.3128  0.2810
18281SOL     OW60804   9.342   7.282   4.844  0.1229 -0.4146  0.3301
18281SOL    HW160805   9.353   7.373   4.870 -0.5764 -0.2998  0.2440
18281SOL    HW260806   9.423   7.239   4.871  0.7205  0.3621 -0.2250
18282SOL     OW60807   3.462   1.656   5.228  0.0705  0.2076  0.1859
18282SOL    HW160808   3.400   1.713   5.183  0.2357  0.1422 -0.1228
18282SOL    HW260809   3.423   1.569   5.225  0.0815  0.2032  0.1670
18283SOL     OW60810   8.004   3.745   7.061  0.3003 -0.0004  0.1470
18283SOL    HW160811   8.070   3.688   7.023 -0.8036  0.0512 -1.9826
18283SOL    HW260812   7.939   3.757   6.992 -0.9167  1.5933  1.4689
18284SOL     OW60813   6.294   6.122   5.062 -0.6254 -0.0725  0.2017
18284SOL    HW160814   6.386   6.099   5.053 -0.4117  1.1629 -1.0469
18284SOL    HW260815   6.254   6.093   4.980 -1.5082 -1.2155  1.0050
18285SOL     OW60816   9.305   1.301   2.372  0.2472  0.5652  0.1510
18285SOL    HW160817   9.233   1.325   2.430  0.9982  2.3177  0.4248
18285SOL    HW260818   9.306   1.369   2.305  0.3119 -0.6354 -1.1097
18286SOL     OW60819   2.408   1.077   1.444  0.1727  0.2286  0.3681
18286SOL    HW160820   2.317   1.101   1.461 -0.5953 -0.6376 -2.1789
18286SOL    HW260821   2.405   0.986   1.414  1.9657 -0.0272  0.8124
18287SOL     OW60822   7.035   6.632   4.106 -0.2791  0.6832 -0.2284
18287SOL    HW160823   7.122   6.644   4.069 -0.4551  1.5817 -0.3838
18287SOL    HW260824   7.050   6.591   4.191  0.2603  0.3621 -0.4806
18288SOL     OW60825   7.756   7.585   0.149 -0.8276 -0.0826 -0.0341
18288SOL    HW160826   7.822   7.537   0.099 -0.0961  1.6438 -0.7926
18288SOL    HW260827   7.805   7.628   0.218 -1.4745 -0.3946  0.6314
18289SOL     OW60828   1.569   6.793   1.636  0.1798  0.0332 -0.6082
18289SOL    HW160829   1.547   6.795   1.729  0.9936 -3.2390 -0.2211
18289SOL    HW260830   1.485   6.803   1.591 -0.3210  0.8001  0.4595
18290SOL     OW60831   6.458   3.739   2.109 -0.2812  0.1495  0.0777
18290SOL    HW160832   6.495   3.685   2.039  0.4182  1.0211 -0.2362
18290SOL    HW260833   6.378   3.693   2.135 -0.6458 -0.0940 -1.4051
18291SOL     OW60834   5.606   8.660   9.059  1.0233  0.1111  0.2418
18291SOL    HW160835   5.582   8.577   9.018  0.0588  0.6382 -0.3006
18291SOL    HW260836   5.588   8.648   9.152  0.3872 -0.1182  0.0937
18292SOL     OW60837   9.012   1.263   6.301 -0.0202  0.4411 -0.0528
18292SOL    HW160838   8.948   1.272   6.372  0.8594  0.0116  0.8189
18292SOL    HW260839   8.966   1.294   6.223 -1.8379 -1.3022  0.2361
18293SOL     OW60840   4.525   6.285   1.511 -0.4117  0.8294 -0.1066
18293SOL    HW160841   4.532   6.271   1.416  1.4102 -0.1760  0.1179
18293SOL    HW260842   4.561   6.205   1.549  0.6835  1.9884  1.4007
18294SOL     OW60843   2.546   5.231   7.091 -0.3093 -0.0578  0.4837
18294SOL    HW160844   2.452   5.234   7.071 -0.2480 -1.3905 -0.1251
18294SOL    HW260845   2.559   5.300   7.156 -1.4442  1.0934 -0.4583
18295SOL     OW60846   5.073   0.058   0.293 -0.1321  0.1023  0.3591
18295SOL    HW160847   5.088   0.069   0.199  0.6922 -1.3884  0.2828
18295SOL    HW260848   4.987   0.097   0.308  0.3829  1.7432 -0.7054
18296SOL     OW60849   6.275   4.945   6.756 -0.3321  0.0659  0.1970
18296SOL    HW160850   6.345   4.940   6.691  0.3308 -2.2769  0.9810
18296SOL    HW260851   6.195   4.957   6.705  0.1923 -1.5400 -1.0841
18297SOL     OW60852   7.285   1.081   2.979  0.4135 -0.4632  0.1545
18297SOL    HW160853   7.252   1.016   3.041  3.1718  0.4891  2.8861
18297SOL    HW260854   7.265   1.165   3.020 -1.9556  0.5179 -2.6921
18298SOL     OW60855   4.794   8.986   3.987  0.2971 -0.2277 -0.0450
18298SOL    HW160856   4.750   9.067   4.011  3.4377  1.3182  1.0076
18298SOL    HW260857   4.875   9.014   3.943  1.5874 -2.7350  0.5254
18299SOL     OW60858   0.063   1.840   1.559  0.1119 -0.3374 -0.5383
18299SOL    HW160859   0.048   1.871   1.470 -0.6722  0.1126 -0.2585
18299SOL    HW260860   0.155   1.860   1.576  0.1647 -0.0796 -1.1151
18300SOL     OW60861   2.361   3.314   7.761  0.0549  0.1938 -0.5606
18300SOL    HW160862   2.422   3.300   7.688  0.8193 -0.2435  0.1497
18300SOL    HW260863   2.408   3.372   7.821 -0.6012  0.6159 -0.4446
18301SOL     OW60864   6.968   6.652   2.723  0.2101 -0.4156  0.5423
18301SOL    HW160865   6.945   6.733   2.768  1.8183 -0.2300  1.0692
18301SOL    HW260866   6.981   6.677   2.632  0.0432 -0.2149  0.5743
18302SOL     OW60867   6.479   1.575   6.626  0.2629  0.1115 -0.1455
18302SOL    HW160868   6.438   1.637   6.565  0.4660  1.0731  0.6764
18302SOL    HW260869   6.481   1.492   6.578 -2.4470  0.0608 -0.2962
18303SOL     OW60870   2.790   6.851   9.086  0.3819  0.1153  0.4963
18303SOL    HW160871   2.696   6.835   9.078  0.7410 -1.9616 -0.1473
18303SOL    HW260872   2.802   6.875   9.178 -0.7331  0.0504  0.6748
18304SOL     OW60873   5.944   3.132   0.883  0.0298  0.0123  0.0191
18304SOL    HW160874   5.935   3.050   0.834  0.6242 -0.3423  0.5020
18304SOL    HW260875   6.015   3.116   0.945 -0.7145  0.4515  1.0114
18305SOL     OW60876   1.924   8.025   3.235 -0.1132 -0.5676  0.4421
18305SOL    HW160877   1.921   8.064   3.322 -0.1362 -0.7317  0.5158
18305SOL    HW260878   2.015   7.998   3.224  0.1528  0.4675 -0.0396
18306SOL     OW60879   0.705   6.224   2.750  0.1258 -0.1513 -0.0947
18306SOL    HW160880   0.645   6.152   2.728  0.3342 -0.2756 -0.2652
18306SOL    HW260881   0.722   6.214   2.843  1.0458 -1.0102 -0.3375
18307SOL     OW60882   7.657   0.187   3.828 -0.7801  0.1341 -0.1771
18307SOL    HW160883   7.671   0.137   3.909  0.3685 -0.3047 -0.6203
18307SOL    HW260884   7.595   0.135   3.778 -2.8957  1.2690  1.1248
18308SOL     OW60885   6.069   0.312   8.308 -0.4152 -0.3957  0.1250
18308SOL    HW160886   5.998   0.268   8.261  0.3520  0.3345 -1.8169
18308SOL    HW260887   6.149   0.280   8.266  0.4054 -0.7618  1.8964
18309SOL     OW60888   1.504   1.487   1.341 -0.2069  0.2384 -0.5637
18309SOL    HW160889   1.506   1.511   1.434  0.3788 -1.9094  0.0353
18309SOL    HW260890   1.595   1.488   1.313 -0.2398 -0.4493 -0.7247
18310SOL     OW60891   3.158   8.522   3.542  0.3118  0.2131 -0.2191
18310SOL    HW160892   3.089   8.577   3.581  0.6098  1.4783 -1.3824
18310SOL    HW260893   3.200   8.580   3.478  1.0299 -1.2236 -1.0784
18311SOL     OW60894   6.744   3.449   2.343  0.2567  0.0980 -0.4723
18311SOL    HW160895   6.704   3.445   2.430 -0.1909 -2.5737 -0.7171
18311SOL    HW260896   6.724   3.364   2.303  1.1142  0.9458 -2.9106
18312SOL     OW60897   6.816   7.942   3.487  0.2603  0.2373 -0.1123
18312SOL    HW160898   6.754   8.005   3.523  0.5337 -0.0621  0.9180
18312SOL    HW260899   6.789   7.930   3.396 -1.7971 -0.6192  0.5686
18313SOL     OW60900   2.399   2.694   8.339  0.7203  0.0221 -0.7981
18313SOL    HW160901   2.307   2.679   8.359  1.1778 -0.6024  0.9999
18313SOL    HW260902   2.398   2.740   8.254 -1.1882 -0.5224 -1.1106
18314SOL     OW60903   3.959   1.535   0.088 -0.1437 -0.4534  0.3706
18314SOL    HW160904   3.864   1.541   0.099 -0.0115 -0.6569  1.6910
18314SOL    HW260905   3.977   1.441   0.082 -0.1753 -0.3822 -1.5424
18315SOL     OW60906   7.945   3.305   6.375 -0.2090  0.8551 -0.2127
18315SOL    HW160907   7.926   3.396   6.353  1.0356  1.3397  0.6135
18315SOL    HW260908   8.035   3.306   6.406 -0.0920 -0.7081 -0.4074
18316SOL     OW60909   7.728   2.073   0.015 -0.0523  0.0880 -0.1015
18316SOL    HW160910   7.799   2.137   0.011  0.5146 -0.5564 -2.7947
18316SOL    HW260911   7.773   1.989   0.027 -0.5850 -0.0791  0.7849
18317SOL     OW60912   1.529   3.040   2.743 -0.5243  0.2624  0.1720
18317SOL    HW160913   1.565   2.960   2.705 -1.5323  0.4549 -1.2979
18317SOL    HW260914   1.601   3.080   2.790  0.2089 -1.1037  0.2379
18318SOL     OW60915   7.027   5.254   3.703 -0.1213  0.6937  0.1952
18318SOL    HW160916   7.035   5.191   3.774  0.1665  0.9137  0.3602
18318SOL    HW260917   6.996   5.334   3.745 -1.8594  0.2760 -0.2214
18319SOL     OW60918   3.685   8.973   4.707 -0.4297  0.5683 -0.2616
18319SOL    HW160919   3.723   9.061   4.700 -0.3137  0.7778  2.2017
18319SOL    HW260920   3.610   8.975   4.647 -0.3476  2.3326 -0.3651
18320SOL     OW60921   2.901   0.807   8.667 -0.4826  0.1815 -0.0854
18320SOL    HW160922   2.856   0.891   8.657 -0.2269  0.0796 -2.6782
18320SOL    HW260923   2.985   0.818   8.623  0.2614 -0.9683  0.9492
18321SOL     OW60924   8.022   6.844   3.393 -0.0494 -0.5320 -0.3153
18321SOL    HW160925   8.103   6.808   3.431 -0.6914 -0.5297  1.1251
18321SOL    HW260926   8.037   6.938   3.390  0.1022 -0.5535 -0.2675
18322SOL     OW60927   7.026   5.969   4.324 -0.3912 -0.3076 -0.1766
18322SOL    HW160928   7.101   6.015   4.286  0.1094  0.9361  2.0818
18322SOL    HW260929   7.051   5.877   4.326  0.7278 -0.0083 -0.2035
18323SOL     OW60930   3.455   6.858   6.959  0.2863  0.0525  0.2822
18323SOL    HW160931   3.482   6.820   6.875  0.2218 -0.0327  0.3003
18323SOL    HW260932   3.368   6.893   6.942  1.4786  2.9190 -0.6112
18324SOL     OW60933   1.013   8.644   5.378  0.2754 -0.2233  0.0633
18324SOL    HW160934   0.936   8.639   5.435 -0.3670  0.6945 -0.6791
18324SOL    HW260935   1.087   8.626   5.436 -0.4544 -0.5605  0.9166
18325SOL     OW60936   0.204   7.059   6.005 -0.2780 -0.1398 -0.4355
18325SOL    HW160937   0.122   7.017   5.978  0.9531 -3.0502 -0.0162
18325SOL    HW260938   0.234   7.007   6.080  2.0029  0.7896 -0.6321
18326SOL     OW60939   0.882   2.207   2.122  0.2144 -0.1156  0.5982
18326SOL    HW160940   0.877   2.302   2.111  0.5657  0.4744  4.2955
18326SOL    HW260941   0.791   2.178   2.120  0.1322  0.1863 -1.0555
18327SOL     OW60942   9.299   6.384   3.756  0.4520 -0.6415 -0.5673
18327SOL    HW160943   9.382   6.430   3.751  0.7020 -1.0405 -0.0856
18327SOL    HW260944   9.307   6.314   3.691  0.2668 -0.3299 -0.9325
18328SOL     OW60945   7.658   8.739   0.398  0.1014 -0.0153  0.2922
18328SOL    HW160946   7.732   8.748   0.459  1.4555 -1.3664 -1.0601
18328SOL    HW260947   7.680   8.798   0.326  0.3208 -1.0343 -0.5017
18329SOL     OW60948   3.987   5.999   0.761  0.1295 -0.5093 -0.3814
18329SOL    HW160949   4.057   6.065   0.755 -0.9026  0.5869 -0.7571
18329SOL    HW260950   3.933   6.029   0.833 -1.3475  0.0779 -1.6734
18330SOL     OW60951   8.431   5.094   4.289 -0.4868 -0.1928  0.0795
18330SOL    HW160952   8.454   5.004   4.309 -1.8724 -0.7547 -0.7317
18330SOL    HW260953   8.399   5.092   4.198  1.1059  1.4293 -0.5933
18331SOL     OW60954   4.635   6.822   4.000 -0.2941 -0.2394 -0.6645
18331SOL    HW160955   4.653   6.891   3.935 -0.4163 -0.0896 -0.5395
18331SOL    HW260956   4.672   6.743   3.961 -0.5240 -0.1860 -1.0037
18332SOL     OW60957   7.589   3.883   1.961 -0.0214 -0.3279  0.5527
18332SOL    HW160958   7.585   3.957   2.022 -0.9793  0.2279 -0.1614
18332SOL    HW260959   7.682   3.872   1.942  0.0457  1.4731 -0.2647
18333SOL     OW60960   6.191   7.600   2.895  0.0931 -0.3433 -0.5055
18333SOL    HW160961   6.182   7.670   2.831 -0.6191 -0.2581 -0.3126
18333SOL    HW260962   6.180   7.643   2.980 -2.0546 -0.9339 -0.4394
18334SOL     OW60963   1.821   6.257   6.244  0.3587 -0.2659  0.2048
18334SOL    HW160964   1.734   6.291   6.266  0.3658  0.2367 -0.4862
18334SOL    HW260965   1.855   6.222   6.326 -0.7934 -1.1550  0.3347
18335SOL     OW60966   6.760   3.463   3.519  0.1924  0.2942 -0.1152
18335SOL    HW160967   6.841   3.420   3.547 -0.5350 -0.9741  0.1246
18335SOL    HW260968   6.776   3.488   3.428  0.8531  0.0648 -0.0693
18336SOL     OW60969   0.904   5.764   1.755 -0.1591 -0.3109 -0.3856
18336SOL    HW160970   0.820   5.796   1.719 -0.7764 -0.6043  0.7539
18336SOL    HW260971   0.956   5.843   1.768 -0.2334 -0.1277 -1.1269
18337SOL     OW60972   6.134   8.395   5.818 -0.4982 -0.1965 -0.3630
18337SOL    HW160973   6.189   8.452   5.764 -0.4416  0.7128  0.6120
18337SOL    HW260974   6.166   8.307   5.800  0.7673  0.2513 -0.4101
18338SOL     OW60975   4.657   0.270   0.585  0.3211 -0.6551 -0.7439
18338SOL    HW160976   4.670   0.252   0.678  0.0668 -1.4951 -0.8619
18338SOL    HW260977   4.658   0.365   0.579 -1.3304 -0.5250  0.3693
18339SOL     OW60978   9.168   2.152   3.554 -0.2234  0.1622 -0.0120
18339SOL    HW160979   9.228   2.217   3.589  1.1779 -0.1521 -1.6873
18339SOL    HW260980   9.147   2.183   3.466  0.0766 -1.3567 -0.6537
18340SOL     OW60981   6.619   6.063   1.225 -0.1390  0.4372 -0.6652
18340SOL    HW160982   6.562   6.015   1.165  1.7849 -0.9214 -1.5489
18340SOL    HW260983   6.646   5.999   1.290 -0.5186  1.3571  0.4353
18341SOL     OW60984   3.948   1.812   3.689  0.2745 -0.0525 -0.3727
18341SOL    HW160985   4.035   1.772   3.688  0.3090 -0.2609  2.6784
18341SOL    HW260986   3.965   1.905   3.708 -0.1686 -0.2657  1.1549
18342SOL     OW60987   2.719   3.635   6.408 -0.8195  0.0761  0.3940
18342SOL    HW160988   2.807   3.599   6.395 -1.4135 -0.7342 -1.9597
18342SOL    HW260989   2.729   3.728   6.388 -0.5676 -0.0871 -0.2679
18343SOL     OW60990   5.796   3.826   2.996  0.5602 -0.2960  0.1503
18343SOL    HW160991   5.741   3.799   3.069  1.9444 -0.2517  1.2585
18343SOL    HW260992   5.844   3.902   3.029  0.4607  0.3729 -1.1703
18344SOL     OW60993   3.040   9.128   3.279 -0.4260 -0.1614 -0.0469
18344SOL    HW160994   3.127   9.092   3.294 -0.8736 -1.0482  0.5009
18344SOL    HW260995   3.055   9.211   3.235  0.6728 -0.5573 -0.4292
18345SOL     OW60996   2.805   6.589   8.928  0.1288  0.4472  0.1898
18345SOL    HW160997   2.777   6.664   8.981 -0.0080  1.3839 -1.1436
18345SOL    HW260998   2.758   6.601   8.845  1.0391 -0.4643 -0.4706
18346SOL     OW60999   5.216   7.158   6.458  0.2503  0.1288 -0.4503
18346SOL    HW161000   5.300   7.156   6.411  0.1832  0.0956 -0.5698
18346SOL    HW261001   5.239   7.141   6.549  0.1863 -1.8980 -0.7575
18347SOL     OW61002   4.946   2.229   4.403 -0.2574 -0.3250 -0.1056
18347SOL    HW161003   4.878   2.254   4.340  0.2692 -1.5783 -1.1948
18347SOL    HW261004   4.985   2.312   4.430 -0.0065  0.2051 -1.9776
18348SOL     OW61005   4.593   4.013   3.981 -0.1127 -0.0742 -0.0027
18348SOL    HW161006   4.632   3.938   3.937  0.0248 -0.6654  1.0999
18348SOL    HW261007   4.647   4.087   3.955 -1.1662 -0.0414 -2.3656
18349SOL     OW61008   1.560   5.102   4.721  0.4900  0.3568 -0.5835
18349SOL    HW161009   1.618   5.112   4.796  1.1396  2.3912 -1.2903
18349SOL    HW261010   1.613   5.054   4.657  1.2952  1.7708 -1.0389
18350SOL     OW61011   3.489   5.534   6.056  0.6992 -0.2906  0.0622
18350SOL    HW161012   3.439   5.590   6.116  0.8765 -1.7031  1.6196
18350SOL    HW261013   3.576   5.572   6.054  0.7996 -0.4358  1.0435
18351SOL     OW61014   4.662   0.536   7.004  0.3810 -0.2435  0.4556
18351SOL    HW161015   4.684   0.547   7.097  0.7377  0.4954  0.2920
18351SOL    HW261016   4.713   0.604   6.959  0.0181 -0.4309 -0.2523
18352SOL     OW61017   3.938   8.451   1.443 -0.3447 -0.3425 -0.8406
18352SOL    HW161018   3.906   8.504   1.370 -0.5013 -1.0807 -1.3170
18352SOL    HW261019   3.998   8.388   1.403  0.6186  0.1048 -0.1418
18353SOL     OW61020   7.776   5.617   4.597  0.5098  0.0990 -0.1923
18353SOL    HW161021   7.749   5.557   4.527  0.5299 -1.2823  0.9328
18353SOL    HW261022   7.700   5.621   4.656  0.7676  0.6306  0.1110
18354SOL     OW61023   3.163   4.680   1.384  0.0738 -0.1556 -0.2534
18354SOL    HW161024   3.068   4.686   1.388  0.0861  0.3344 -0.6396
18354SOL    HW261025   3.181   4.626   1.307  0.1063 -0.4864 -0.0183
18355SOL     OW61026   1.819   5.657   7.372 -0.2986 -0.0692  0.1470
18355SOL    HW161027   1.907   5.693   7.379 -0.8566  1.0572  2.6083
18355SOL    HW261028   1.775   5.713   7.308  0.5412 -0.1435 -0.4972
18356SOL     OW61029   4.965   5.000   0.374  0.5347 -0.1733 -0.0471
18356SOL    HW161030   4.985   4.941   0.301  0.3477  0.9728 -1.0682
18356SOL    HW261031   5.015   4.965   0.448 -1.6896 -3.2185  0.1967
18357SOL     OW61032   8.690   8.505   1.380  0.3965 -0.3730 -0.1677
18357SOL    HW161033   8.745   8.547   1.313 -1.1729  0.4070 -1.0181
18357SOL    HW261034   8.688   8.568   1.452  0.9735 -0.6099  0.0631
18358SOL     OW61035   8.672   7.787   4.575 -0.1290  0.2827  0.5742
18358SOL    HW161036   8.614   7.797   4.499  0.4046  0.7619  0.2202
18358SOL    HW261037   8.756   7.762   4.537  0.1650  0.6218  0.9975
18359SOL     OW61038   2.753   2.810   3.777 -0.1189 -0.5282  0.0207
18359SOL    HW161039   2.660   2.789   3.785 -0.2094  0.3327  1.6654
18359SOL    HW261040   2.766   2.885   3.834  1.5640 -0.4913 -0.3417
18360SOL     OW61041   5.622   4.672   7.578 -0.3216 -0.4013  0.6011
18360SOL    HW161042   5.688   4.697   7.513 -0.0674 -2.0554  0.1784
18360SOL    HW261043   5.567   4.750   7.588  0.1806  0.1799 -0.9166
18361SOL     OW61044   5.551   5.185   4.362  0.0430  0.1936 -1.1788
18361SOL    HW161045   5.622   5.248   4.361  0.7577 -0.5981 -1.6707
18361SOL    HW261046   5.526   5.178   4.454  1.1169 -0.0882 -0.9028
18362SOL     OW61047   7.509   7.750   3.652  0.2848  0.0150 -0.3072
18362SOL    HW161048   7.505   7.798   3.735 -0.2150  0.2722 -0.4780
18362SOL    HW261049   7.603   7.733   3.640  0.2628 -1.3333  1.0437
18363SOL     OW61050   5.328   1.892   5.664  0.0288  0.6159 -0.1401
18363SOL    HW161051   5.361   1.980   5.681  0.3445  0.4742  0.0015
18363SOL    HW261052   5.335   1.847   5.749 -1.2845  0.8158  0.0943
18364SOL     OW61053   7.051   4.494   2.789  0.0758  0.2936  0.2389
18364SOL    HW161054   7.044   4.578   2.742 -0.7486 -0.4790 -1.0910
18364SOL    HW261055   7.126   4.450   2.748 -0.0346  0.0189  0.3334
18365SOL     OW61056   1.262   2.804   8.328 -0.3870  0.2946 -0.5044
18365SOL    HW161057   1.341   2.859   8.330 -1.1250  1.5077 -2.3396
18365SOL    HW261058   1.296   2.716   8.312  0.6368  0.6811 -0.5894
18366SOL     OW61059   4.893   5.934   0.804  0.3509  0.0251 -0.0974
18366SOL    HW161060   4.861   5.855   0.761 -1.6953  0.2855  0.8134
18366SOL    HW261061   4.938   5.903   0.882 -1.6277 -0.2569  0.9873
18367SOL     OW61062   1.308   7.657   0.925 -0.1412  0.1495  0.3347
18367SOL    HW161063   1.387   7.709   0.914 -0.6877  0.4610 -3.8816
18367SOL    HW261064   1.239   7.721   0.943 -0.1293  0.4679 -0.6787
18368SOL     OW61065   7.078   2.333   9.004 -0.0220 -0.0601  0.3615
18368SOL    HW161066   7.107   2.379   8.925 -0.5184 -0.5758 -0.1298
18368SOL    HW261067   7.135   2.256   9.010 -1.6029 -1.3854 -0.9280
18369SOL     OW61068   8.985   7.968   0.053  0.2028 -0.4193 -0.0781
18369SOL    HW161069   8.929   7.999  -0.018 -1.0540 -1.5509  0.3885
18369SOL    HW261070   9.066   8.018   0.042 -1.1069  1.7765 -0.3417
18370SOL     OW61071   8.342   4.822   6.431 -0.2947  0.8577 -0.1401
18370SOL    HW161072   8.279   4.889   6.405 -2.4946 -1.0333 -0.0230
18370SOL    HW261073   8.345   4.828   6.527 -1.2976  0.1470 -0.0513
18371SOL     OW61074   8.130   4.300   5.867 -0.6827 -0.2807  0.3749
18371SOL    HW161075   8.199   4.288   5.933 -1.9718 -0.2740  1.7872
18371SOL    HW261076   8.128   4.217   5.819 -0.2434 -0.5921  0.8785
18372SOL     OW61077   0.530   8.673   1.182  0.3250  0.3867  0.0059
18372SOL    HW161078   0.559   8.594   1.227 -0.9657 -1.1744 -1.7614
18372SOL    HW261079   0.610   8.709   1.142  0.9924  0.2733  1.1929
18373SOL     OW61080   8.144   7.849   9.295  0.1832 -0.5975 -0.3397
18373SOL    HW161081   8.111   7.830   9.383  0.3751  0.4336 -0.0221
18373SOL    HW261082   8.224   7.899   9.311 -0.4402  0.6839 -1.0900
18374SOL     OW61083   4.161   0.096   8.614  0.1139 -0.1340  0.2550
18374SOL    HW161084   4.229   0.158   8.589  1.1219 -1.5817 -0.7291
18374SOL    HW261085   4.193   0.055   8.695  0.1910 -0.4657  0.0595
18375SOL     OW61086   2.435   4.695   2.117 -0.1220 -0.7402 -0.5454
18375SOL    HW161087   2.432   4.704   2.212  0.6827  0.5895 -0.6144
18375SOL    HW261088   2.527   4.677   2.098 -0.2169 -0.6730 -1.0887
18376SOL     OW61089   2.662   0.193   8.191  0.0443 -0.0228  0.6347
18376SOL    HW161090   2.687   0.279   8.158 -2.2190  1.1009  1.6261
18376SOL    HW261091   2.639   0.208   8.283 -1.3982 -1.4370  0.5611
18377SOL     OW61092   0.790   8.166   7.724 -0.5518  0.0964  0.3017
18377SOL    HW161093   0.765   8.229   7.657 -0.6774 -0.8709 -0.5861
18377SOL    HW261094   0.773   8.210   7.807 -0.4098  1.3044 -0.3013
18378SOL     OW61095   8.704   1.529   5.070 -0.0559 -0.1253 -0.2791
18378SOL    HW161096   8.758   1.592   5.022 -0.2793  0.5630  0.3549
18378SOL    HW261097   8.619   1.571   5.078  0.0661 -0.0928  0.9732
18379SOL     OW61098   7.013   2.277   5.677  0.4838  0.1739 -0.7318
18379SOL    HW161099   7.063   2.348   5.637  1.9507 -0.3341  0.1294
18379SOL    HW261100   6.925   2.314   5.690  0.8439  1.3681 -1.5363
18380SOL     OW61101   2.435   5.308   5.071 -0.3102  0.0950  0.1660
18380SOL    HW161102   2.473   5.282   5.155  0.3707 -0.4427 -0.2885
18380SOL    HW261103   2.502   5.363   5.030 -1.1513  1.3987  0.4916
18381SOL     OW61104   4.890   5.769   0.572 -0.3494 -0.4990 -0.2703
18381SOL    HW161105   4.944   5.848   0.571  0.9127 -1.3280 -0.0663
18381SOL    HW261106   4.889   5.739   0.481  1.3184 -1.6271  0.0481
18382SOL     OW61107   0.881   2.635   2.743  0.4685 -0.1559  0.9198
18382SOL    HW161108   0.854   2.631   2.652  1.6273  3.2584  0.2720
18382SOL    HW261109   0.809   2.593   2.791 -1.2801 -0.0085 -1.3715
18383SOL     OW61110   2.275   2.361   8.530 -0.0405 -0.3404  0.4098
18383SOL    HW161111   2.251   2.334   8.442  1.0930  1.0913 -0.3884
18383SOL    HW261112   2.358   2.317   8.547 -0.4374 -0.9059  0.9270
18384SOL     OW61113   9.125   8.598   0.152  0.3948 -0.0473  0.0725
18384SOL    HW161114   9.110   8.693   0.153  0.1668 -0.0812  1.2690
18384SOL    HW261115   9.214   8.589   0.116  0.4624  0.6192  0.0485
18385SOL     OW61116   9.243   7.377   3.406 -0.5752 -0.2258 -0.8600
18385SOL    HW161117   9.267   7.286   3.393  1.5297  0.0081  0.8353
18385SOL    HW261118   9.257   7.418   3.321  1.9979 -0.8266 -0.7967
18386SOL     OW61119   1.691   3.890   1.568  0.2968  0.2970 -0.5378
18386SOL    HW161120   1.784   3.913   1.566  0.5713 -0.6804  0.2751
18386SOL    HW261121   1.651   3.962   1.617  0.6034  0.7842 -0.9934
18387SOL     OW61122   3.307   0.570   5.725 -0.3118 -0.6633 -0.2347
18387SOL    HW161123   3.391   0.616   5.728 -0.7831  0.1843  0.6002
18387SOL    HW261124   3.322   0.495   5.668  1.0225 -0.5436 -0.0617
18388SOL     OW61125   3.540   7.880   7.069  0.7407  0.5665 -0.1981
18388SOL    HW161126   3.538   7.864   7.164  0.5838  0.3741 -0.2331
18388SOL    HW261127   3.473   7.946   7.054  2.5036  2.5454  0.1760
18389SOL     OW61128   2.965   5.739   8.241 -0.6733 -0.3694  0.0876
18389SOL    HW161129   3.019   5.660   8.253 -0.5707 -0.2708  0.2800
18389SOL    HW261130   2.911   5.743   8.320 -1.5461 -0.9148 -0.4615
18390SOL     OW61131   5.950   3.959   1.536  0.1096  0.1570  0.2406
18390SOL    HW161132   6.020   3.994   1.590  0.4793 -1.2139  0.6947
18390SOL    HW261133   5.870   3.994   1.574  0.4128 -0.2163  1.2459
18391SOL     OW61134   5.551   6.511   2.162  1.0065  0.5263  0.4002
18391SOL    HW161135   5.638   6.531   2.128  2.0350 -1.8363  1.3848
18391SOL    HW261136   5.559   6.526   2.256  1.0073 -1.5053  0.7732
18392SOL     OW61137   0.497   3.204   9.042  0.3429  0.3733 -0.0974
18392SOL    HW161138   0.426   3.249   8.996  0.1806  0.0112 -0.2021
18392SOL    HW261139   0.576   3.227   8.993  0.0390 -0.9271 -1.2676
18393SOL     OW61140   5.649   5.913   0.023 -0.2132 -0.5720  0.0869
18393SOL    HW161141   5.602   5.885  -0.056 -2.9139  2.0269  0.5910
18393SOL    HW261142   5.713   5.976  -0.009 -1.4143  0.6061 -0.1065
18394SOL     OW61143   8.106   8.610   4.630 -0.6952  0.3221  0.3409
18394SOL    HW161144   8.046   8.582   4.700 -0.0531  0.2182  0.8598
18394SOL    HW261145   8.049   8.626   4.555 -1.2795 -0.6306  0.5626
18395SOL     OW61146   7.145   4.777   7.134  0.0782  0.6454  0.2391
18395SOL    HW161147   7.062   4.814   7.163  0.8861  0.8868  2.4189
18395SOL    HW261148   7.145   4.687   7.168  0.0452  0.0723 -1.1756
18396SOL     OW61149   5.404   8.660   2.060 -0.3217  0.7638 -0.4123
18396SOL    HW161150   5.357   8.610   2.128 -0.7880  1.2159 -0.3930
18396SOL    HW261151   5.425   8.595   1.993 -1.0714  0.5666 -0.4663
18397SOL     OW61152   0.195   8.915   1.582 -0.1091 -0.0147  0.1632
18397SOL    HW161153   0.163   8.857   1.652 -1.2945 -0.3569 -0.6400
18397SOL    HW261154   0.256   8.862   1.532  1.3721  0.4710  1.3727
18398SOL     OW61155   8.694   1.645   0.234  0.1123 -0.4010 -0.0616
18398SOL    HW161156   8.612   1.674   0.274  0.7997  1.5591  0.0071
18398SOL    HW261157   8.760   1.654   0.303  0.5797 -0.9249 -0.4284
18399SOL     OW61158   8.469   5.783   5.839 -0.1550 -0.5695  0.7133
18399SOL    HW161159   8.410   5.836   5.893 -0.9440 -0.8703  0.1483
18399SOL    HW261160   8.492   5.840   5.765  0.4178 -0.3876  1.0228
18400SOL     OW61161   5.191   5.365   7.099 -0.3035  0.0602  0.1384
18400SOL    HW161162   5.216   5.453   7.126  2.1318 -0.7668  0.8589
18400SOL    HW261163   5.274   5.322   7.079 -1.5582 -0.5610 -5.3794
18401SOL     OW61164   8.712   3.390   6.755 -0.0799  0.3172 -0.2677
18401SOL    HW161165   8.714   3.485   6.768 -0.4422  0.2223  0.5592
18401SOL    HW261166   8.784   3.372   6.694  1.7137  0.8511  1.5523
18402SOL     OW61167   3.345   2.154   5.648  0.5879 -0.4531  0.1294
18402SOL    HW161168   3.419   2.148   5.708  0.4979  0.0163  0.2963
18402SOL    HW261169   3.290   2.079   5.670  1.0641 -0.8631 -0.0669
18403SOL     OW61170   2.645   1.623   5.727 -0.0692  0.0219  0.3296
18403SOL    HW161171   2.641   1.674   5.646  0.2449 -0.0720  0.2535
18403SOL    HW261172   2.738   1.622   5.751 -0.2318  0.5083  0.9891
18404SOL     OW61173   1.125   8.381   4.981 -0.4959  0.4831 -0.0224
18404SOL    HW161174   1.066   8.430   5.038 -0.3136  0.5684  0.0919
18404SOL    HW261175   1.071   8.308   4.949 -1.0864  1.3255 -1.0259
18405SOL     OW61176   0.475   2.876   2.374  0.6550  0.2866 -0.6451
18405SOL    HW161177   0.425   2.896   2.453  1.1756  0.3988 -0.3323
18405SOL    HW261178   0.513   2.960   2.348  1.1671  0.1033 -0.5225
18406SOL     OW61179   1.127   6.398   5.316 -0.6263 -0.8467 -0.3824
18406SOL    HW161180   1.178   6.424   5.239  0.8401 -1.7175  0.2385
18406SOL    HW261181   1.182   6.421   5.390 -1.0797 -1.9108  0.3135
18407SOL     OW61182   1.483   6.533   3.012  0.2187  0.0984  0.9666
18407SOL    HW161183   1.402   6.564   2.973 -0.0731 -0.7638  0.8753
18407SOL    HW261184   1.552   6.563   2.952 -0.1658 -0.5854  0.1638
18408SOL     OW61185   7.881   0.366   0.336 -0.1627 -0.5006 -0.6845
18408SOL    HW161186   7.886   0.277   0.373  0.5898 -0.4418 -0.6350
18408SOL    HW261187   7.827   0.414   0.398 -0.6879 -0.9572 -0.7798
18409SOL     OW61188   2.658   3.101   6.912  0.4449 -0.1010 -0.1208
18409SOL    HW161189   2.595   3.109   6.984  1.0445 -1.7590  0.6286
18409SOL    HW261190   2.634   3.172   6.851 -1.7350 -0.2903  0.4382
18410SOL     OW61191   4.261   0.554   6.452 -0.3604  0.6057 -0.0236
18410SOL    HW161192   4.258   0.649   6.448  2.4025  0.7723  0.4832
18410SOL    HW261193   4.215   0.532   6.533 -0.5338  1.5165  0.1304
18411SOL     OW61194   8.747   1.436   8.318  0.0310  0.0533  0.0335
18411SOL    HW161195   8.835   1.469   8.337  0.4673 -2.1516  2.4072
18411SOL    HW261196   8.689   1.510   8.334  1.3784  1.4850 -1.3632
18412SOL     OW61197   6.980   3.064   4.874 -0.1391  0.2926 -0.1028
18412SOL    HW161198   6.974   3.023   4.960  1.9661  0.6802  0.2801
18412SOL    HW261199   6.956   3.155   4.889 -1.8740 -0.0751 -0.3866
18413SOL     OW61200   3.269   0.654   1.846 -0.4703 -0.0012  0.6546
18413SOL    HW161201   3.264   0.613   1.760 -1.0462  0.7404  0.3183
18413SOL    HW261202   3.223   0.738   1.835  1.2912  1.0842  1.0997
18414SOL     OW61203   8.460   6.358   2.433 -0.5480 -0.2194 -0.2826
18414SOL    HW161204   8.463   6.406   2.350 -1.3181  0.7324  0.2252
18414SOL    HW261205   8.367   6.341   2.448 -0.5242  0.5707  0.9124
18415SOL     OW61206   8.084   2.937   2.444  0.2495  0.7458 -0.1746
18415SOL    HW161207   8.043   2.858   2.477 -0.0280  0.3458 -1.4236
18415SOL    HW261208   8.034   2.959   2.365  2.5006  0.1457 -1.8526
18416SOL     OW61209   3.031   1.671   8.764 -0.1859  0.0485 -0.2965
18416SOL    HW161210   3.063   1.756   8.795  0.5014 -0.6559  1.0473
18416SOL    HW261211   2.936   1.676   8.771 -0.2286  1.1259 -1.4205
18417SOL     OW61212   9.216   4.499   1.076  0.2160 -0.1176  0.0555
18417SOL    HW161213   9.245   4.429   1.018 -0.6021  0.1264 -0.6630
18417SOL    HW261214   9.289   4.511   1.137  0.6376 -1.1248 -0.2347
18418SOL     OW61215   6.935   6.162   9.213 -0.2261  0.4317 -0.2851
18418SOL    HW161216   6.959   6.072   9.233  0.0382  0.6929  0.6590
18418SOL    HW261217   6.868   6.184   9.277  0.7188  1.3360  0.4399
18419SOL     OW61218   6.318   6.780   2.302 -0.1226  0.7243 -0.4279
18419SOL    HW161219   6.323   6.874   2.321  1.2642  0.6640 -0.3376
18419SOL    HW261220   6.257   6.773   2.228 -2.3580  1.3915  1.2547
18420SOL     OW61221   8.679   8.169   1.472  0.4050  0.1559 -0.4257
18420SOL    HW161222   8.599   8.149   1.423  0.0645 -1.3841  0.6721
18420SOL    HW261223   8.703   8.086   1.514  1.8485  0.9078  0.3155
18421SOL     OW61224   6.600   6.807   1.378 -0.3800 -0.6006 -0.2990
18421SOL    HW161225   6.509   6.835   1.380 -0.3567 -0.5528  1.0887
18421SOL    HW261226   6.604   6.740   1.309 -1.6508 -1.2556  0.2377
18422SOL     OW61227   8.414   1.758   1.034 -0.1126  0.2234 -0.2513
18422SOL    HW161228   8.413   1.819   0.960  0.3168 -0.4591 -0.8343
18422SOL    HW261229   8.339   1.784   1.087 -1.8231 -0.6538 -2.1042
18423SOL     OW61230   2.142   4.275   5.834  0.1860 -0.2342 -0.5997
18423SOL    HW161231   2.131   4.349   5.894  2.0643 -1.1197  0.9053
18423SOL    HW261232   2.232   4.281   5.804 -0.3436 -0.5570 -2.4054
18424SOL     OW61233   1.309   5.293   6.098 -0.2206  0.5280 -0.3220
18424SOL    HW161234   1.273   5.376   6.067 -0.2008  0.8637  0.5521
18424SOL    HW261235   1.283   5.230   6.031 -0.2417  1.2300 -0.9931
18425SOL     OW61236   6.840   5.500   6.050 -0.3120 -0.2568 -0.3756
18425SOL    HW161237   6.859   5.409   6.025 -1.7195 -0.4833 -0.7437
18425SOL    HW261238   6.904   5.520   6.118  0.6531 -1.1923 -0.9701
18426SOL     OW61239   6.130   7.260   7.219  0.1299  0.3822  0.4019
18426SOL    HW161240   6.154   7.316   7.293 -0.3153 -0.1696  0.9794
18426SOL    HW261241   6.087   7.319   7.158  0.9761  0.9498  0.3352
18427SOL     OW61242   4.912   9.022   8.435  0.4611  0.4656 -0.3023
18427SOL    HW161243   4.979   9.083   8.402 -0.2396  1.6137  0.3298
18427SOL    HW261244   4.939   9.004   8.525  1.4953 -1.4036 -0.9360
18428SOL     OW61245   0.908   7.510   1.743 -0.4908  0.7709 -0.2248
18428SOL    HW161246   0.970   7.520   1.815 -0.1655 -1.6097 -0.1046
18428SOL    HW261247   0.962   7.492   1.666 -0.9539 -1.6198 -0.0644
18429SOL     OW61248   8.379   8.602   0.290  0.3445  0.1854  0.7349
18429SOL    HW161249   8.409   8.573   0.204  1.1549  0.8889  0.7677
18429SOL    HW261250   8.339   8.524   0.329 -2.7185  0.5102 -1.3886
18430SOL     OW61251   5.116   5.153   9.184  0.0714  0.8198 -0.1328
18430SOL    HW161252   5.183   5.180   9.122 -0.6374  3.3976  0.1190
18430SOL    HW261253   5.040   5.207   9.164 -1.6617 -1.3211  0.2317
18431SOL     OW61254   9.219   8.919   4.757  0.2315  0.2168  0.0131
18431SOL    HW161255   9.139   8.866   4.760 -1.5408  2.5383 -1.8807
18431SOL    HW261256   9.212   8.976   4.833 -0.2630  0.8242 -0.4762
18432SOL     OW61257   8.917   0.124   7.521 -0.0140 -0.1407 -0.0205
18432SOL    HW161258   9.002   0.106   7.481 -1.1926 -1.0092 -2.2608
18432SOL    HW261259   8.879   0.194   7.468 -0.3091  0.9962  1.5995
18433SOL     OW61260   8.959   1.612   0.693 -0.1644 -0.1836 -0.1598
18433SOL    HW161261   8.907   1.688   0.668  0.0405  0.5545  1.5004
18433SOL    HW261262   9.037   1.649   0.734 -1.8173 -1.0681  4.4339
18434SOL     OW61263   1.898   5.538   5.639 -0.3517 -0.5176 -0.9410
18434SOL    HW161264   1.948   5.482   5.697  1.2833 -0.1373 -1.9052
18434SOL    HW261265   1.818   5.489   5.620 -0.5836 -0.9589  0.9783
18435SOL     OW61266   6.142   0.481   9.074  0.2099  0.0973 -0.2455
18435SOL    HW161267   6.056   0.522   9.065  0.5488  1.0534  0.6689
18435SOL    HW261268   6.147   0.419   9.001 -2.1023 -1.5501  0.8469
18436SOL     OW61269   2.505   6.768   4.700  0.3901  0.3938  0.1933
18436SOL    HW161270   2.492   6.716   4.620 -2.6365 -1.6985  1.8644
18436SOL    HW261271   2.575   6.722   4.747 -1.1394 -1.3292  0.8915
18437SOL     OW61272   7.852   9.361   9.081 -0.6314  0.3588  0.0096
18437SOL    HW161273   7.925   9.380   9.140  0.8659 -0.1123 -1.6220
18437SOL    HW261274   7.809   9.446   9.068  0.2687  0.8455  0.1455
18438SOL     OW61275   2.764   5.055   2.918 -0.0942 -0.3226  0.0640
18438SOL    HW161276   2.733   5.014   2.998 -1.8028 -1.1394 -0.9622
18438SOL    HW261277   2.839   5.001   2.890 -0.7158 -1.2231  0.0940
18439SOL     OW61278   6.394   8.184   3.439  0.1771  0.1663 -0.0785
18439SOL    HW161279   6.480   8.185   3.399  0.4018  0.3130  0.3998
18439SOL    HW261280   6.402   8.123   3.512 -0.4146 -0.6209 -0.6531
18440SOL     OW61281   7.138   6.590   1.067 -0.2092 -0.1916 -0.2346
18440SOL    HW161282   7.179   6.632   0.992  1.3631 -1.0584  0.1012
18440SOL    HW261283   7.211   6.555   1.118 -1.3059 -0.6151  1.1042
18441SOL     OW61284   7.127   1.503   6.737  0.4970 -0.3152 -0.5063
18441SOL    HW161285   7.097   1.412   6.745  0.4063 -0.1906  0.7642
18441SOL    HW261286   7.205   1.508   6.792  0.1207  0.5391 -0.0297
18442SOL     OW61287   4.230   5.573   7.219  0.2786 -0.0587 -0.2016
18442SOL    HW161288   4.300   5.508   7.224  0.2961 -0.0160  0.1685
18442SOL    HW261289   4.149   5.523   7.228  0.2286 -0.1812 -1.2659
18443SOL     OW61290   4.192   0.805   6.489 -0.6690 -0.4128 -0.3333
18443SOL    HW161291   4.157   0.798   6.577 -0.7122 -2.4031 -0.4617
18443SOL    HW261292   4.185   0.898   6.467  1.5792  0.5947  2.6188
18444SOL     OW61293   4.855   4.987   9.313  0.4668 -0.3764 -0.3545
18444SOL    HW161294   4.858   4.927   9.239 -0.9239 -1.7417  0.6343
18444SOL    HW261295   4.913   4.947   9.378 -0.3375 -0.5731  0.2490
18445SOL     OW61296   1.083   5.243   7.168  0.2796  0.2059 -0.2994
18445SOL    HW161297   1.165   5.288   7.151 -0.1844  0.8078 -0.9453
18445SOL    HW261298   1.022   5.277   7.103 -1.6505  2.8327  2.6064
18446SOL     OW61299   1.722   5.520   3.631 -0.4027 -0.4230 -0.1564
18446SOL    HW161300   1.775   5.490   3.557 -0.3245 -0.1411 -0.2123
18446SOL    HW261301   1.676   5.597   3.599 -0.6108 -0.4854 -0.0099
18447SOL     OW61302   3.913   0.755   5.005  0.3817  0.0186  0.5086
18447SOL    HW161303   3.854   0.824   5.035  0.4871  0.8580 -1.1091
18447SOL    HW261304   3.965   0.795   4.935  0.0172 -1.8238 -0.9284
18448SOL     OW61305   6.970   0.525   2.501  0.0958  0.2152  0.4435
18448SOL    HW161306   6.985   0.619   2.512 -2.5881  0.6266  1.6133
18448SOL    HW261307   7.034   0.484   2.559  2.7780  1.0952 -1.6724
18449SOL     OW61308   7.465   1.176   5.747  0.1105  0.0921 -0.4060
18449SOL    HW161309   7.404   1.150   5.679  1.4617  0.8194 -1.9875
18449SOL    HW261310   7.480   1.269   5.731 -2.4714  1.4057  3.3414
18450SOL     OW61311   9.121   7.562   0.167  0.1314  0.9856  0.0397
18450SOL    HW161312   9.078   7.583   0.249 -0.4872  1.5145 -0.4058
18450SOL    HW261313   9.053   7.571   0.101  0.3449 -0.5276 -0.4190
18451SOL     OW61314   7.919   2.985   8.648 -0.7939  0.3582 -0.4744
18451SOL    HW161315   7.902   3.033   8.730  0.5864  0.8916 -0.4715
18451SOL    HW261316   7.897   2.894   8.669 -1.5374  0.6647  0.1406
18452SOL     OW61317   0.606   5.503   8.541 -0.0854  0.5071 -0.1420
18452SOL    HW161318   0.576   5.483   8.629  0.7522  1.5278  0.3994
18452SOL    HW261319   0.673   5.438   8.523 -0.9133 -0.2981 -0.4274
18453SOL     OW61320   4.892   9.063   5.008 -0.3854 -0.3330  0.5578
18453SOL    HW161321   4.919   8.994   4.948  0.6443  1.4929 -1.2140
18453SOL    HW261322   4.972   9.112   5.028 -0.9665  0.0049  2.2764
18454SOL     OW61323   6.036   5.117   8.183  0.6833 -0.4338  0.5918
18454SOL    HW161324   5.940   5.119   8.178  0.6291  0.4470  1.6310
18454SOL    HW261325   6.064   5.106   8.092 -0.3956 -0.4698  0.2472
18455SOL     OW61326   2.372   0.774   7.180 -0.7589  0.4610  0.2132
18455SOL    HW161327   2.287   0.806   7.213 -0.5364  1.0880  0.1806
18455SOL    HW261328   2.362   0.678   7.178 -1.6044  0.5484 -0.1659
18456SOL     OW61329   5.745   2.328   0.062  0.6857  0.4589 -0.2235
18456SOL    HW161330   5.734   2.299   0.153  1.4716  0.7279 -0.0332
18456SOL    HW261331   5.719   2.420   0.062 -0.4811  0.1512 -0.5404
18457SOL     OW61332   6.109   5.705   7.024  0.3189  0.6363 -0.7626
18457SOL    HW161333   6.064   5.719   6.940  0.2710  1.5918 -0.5881
18457SOL    HW261334   6.156   5.787   7.040  0.9385  0.1861 -0.2163
18458SOL     OW61335   6.973   4.381   6.300  0.4699 -0.8725  0.0315
18458SOL    HW161336   7.033   4.456   6.302  0.3596 -0.7897  0.2027
18458SOL    HW261337   6.949   4.372   6.208  0.5243 -0.7313  0.0035
18459SOL     OW61338   6.990   5.717   8.218 -0.0890  0.3254  0.0709
18459SOL    HW161339   7.002   5.810   8.236  0.9591  0.3618 -0.7379
18459SOL    HW261340   6.895   5.703   8.226 -0.0368  0.9959  2.2585
18460SOL     OW61341   3.796   2.598   8.180 -0.0447  0.1153 -1.0635
18460SOL    HW161342   3.732   2.669   8.171  0.1816  0.2544 -1.6465
18460SOL    HW261343   3.800   2.581   8.274 -0.7866  0.2442 -1.0058
18461SOL     OW61344   5.863   0.975   0.850  0.2277  0.1652 -0.2945
18461SOL    HW161345   5.779   1.003   0.888  1.1313  2.1189  0.4068
18461SOL    HW261346   5.925   0.982   0.923  1.1337 -0.6440 -0.9714
18462SOL     OW61347   2.836   5.973   4.220  0.0190  0.2825  0.1781
18462SOL    HW161348   2.858   5.993   4.311 -0.7773  0.0044  0.4394
18462SOL    HW261349   2.908   6.011   4.169 -0.0210  1.3008  0.8529
18463SOL     OW61350   8.904   9.063   2.061 -0.0738 -0.2731 -0.0503
18463SOL    HW161351   8.874   8.984   2.107  0.7423  0.1481  1.2498
18463SOL    HW261352   8.993   9.077   2.093 -0.6319  1.8711  0.7035
18464SOL     OW61353   2.378   4.969   3.001 -0.1612  0.1807 -0.4720
18464SOL    HW161354   2.299   4.916   3.005 -0.3437  0.5223  0.8576
18464SOL    HW261355   2.353   5.045   2.948 -1.3263  1.1855  1.3934
18465SOL     OW61356   8.059   3.487   3.356 -0.3437 -0.4198 -0.9440
18465SOL    HW161357   8.113   3.531   3.421 -1.5773  0.8250 -0.7094
18465SOL    HW261358   8.065   3.394   3.379  1.3125 -0.2647 -0.6692
18466SOL     OW61359   2.736   0.699   1.016 -0.2232 -0.3144  0.6582
18466SOL    HW161360   2.765   0.625   0.962 -1.3295 -1.1794  1.2049
18466SOL    HW261361   2.669   0.662   1.073  0.3560  0.7467  2.1002
18467SOL     OW61362   5.593   3.954   4.057 -0.8756  0.3582 -0.1702
18467SOL    HW161363   5.672   3.910   4.088 -0.5034  1.9525  1.2672
18467SOL    HW261364   5.563   3.899   3.984  1.7734 -0.0510 -1.0750
18468SOL     OW61365   6.405   8.629   4.754 -1.0654 -0.1849 -0.4553
18468SOL    HW161366   6.379   8.582   4.833  1.0242  0.9668  0.9924
18468SOL    HW261367   6.455   8.564   4.704  0.7835  0.0508  0.9734
18469SOL     OW61368   7.578   6.492   0.393 -0.3223  0.0576  0.4522
18469SOL    HW161369   7.491   6.479   0.356  0.5100 -1.3321 -1.0993
18469SOL    HW261370   7.562   6.536   0.477 -2.5426 -0.7751  0.5094
18470SOL     OW61371   5.360   7.408   2.968  0.3645 -0.1147  0.2812
18470SOL    HW161372   5.315   7.323   2.959  0.8420 -0.3423 -0.0094
18470SOL    HW261373   5.374   7.417   3.063 -0.7120  0.1867  0.4268
18471SOL     OW61374   3.303   7.238   2.628  0.1281 -0.6776 -0.2974
18471SOL    HW161375   3.372   7.186   2.668 -0.1534  1.1163  2.8043
18471SOL    HW261376   3.344   7.320   2.604 -0.8245  0.4460  1.6650
18472SOL     OW61377   0.013   2.513   8.224 -0.7888  0.0898  0.0243
18472SOL    HW161378   0.031   2.466   8.143  3.1975  0.7922  0.3255
18472SOL    HW261379  -0.012   2.601   8.196  0.2643  0.2387 -0.4769
18473SOL     OW61380   4.905   0.320   2.755 -0.2050 -0.3363  0.3192
18473SOL    HW161381   4.922   0.338   2.847  2.0310  1.3076 -0.3416
18473SOL    HW261382   4.965   0.249   2.732  2.9253  2.4256 -0.9000
18474SOL     OW61383   1.416   5.697   7.114 -0.1901 -0.2694 -0.3182
18474SOL    HW161384   1.363   5.636   7.167  0.3167 -0.6007 -0.1893
18474SOL    HW261385   1.353   5.761   7.083 -0.7796 -0.9840 -0.6445
18475SOL     OW61386   7.715   6.410   1.187  0.0388 -0.4890  0.1762
18475SOL    HW161387   7.756   6.477   1.242  0.2645  0.6343 -1.3168
18475SOL    HW261388   7.768   6.408   1.107 -0.8914 -1.3587 -0.4436
18476SOL     OW61389   0.154   4.725   4.380 -0.4827 -0.2343  0.4963
18476SOL    HW161390   0.239   4.728   4.336  0.6414 -1.6770  2.3683
18476SOL    HW261391   0.090   4.727   4.310  1.1342 -0.4943 -1.0696
18477SOL     OW61392   5.477   5.184   0.854 -0.2071 -0.1958  0.0886
18477SOL    HW161393   5.500   5.182   0.947  0.3309  2.6414  0.0985
18477SOL    HW261394   5.391   5.226   0.851  0.3320  0.9067 -0.7387
18478SOL     OW61395   7.033   5.024   2.634  0.3572 -0.0588 -0.2065
18478SOL    HW161396   7.035   5.119   2.651  0.7570  0.1806 -1.4668
18478SOL    HW261397   7.124   5.003   2.611  0.4653 -0.9403  0.9597
18479SOL     OW61398   3.729   1.731   1.249 -0.0230  0.1274  0.2867
18479SOL    HW161399   3.743   1.666   1.180 -1.4773 -1.1618  1.1433
18479SOL    HW261400   3.816   1.765   1.268  0.9485 -2.3136  0.5041
18480SOL     OW61401   5.366   7.659   8.386  0.0391  0.9485  0.2093
18480SOL    HW161402   5.424   7.736   8.383  0.4675  0.6108 -1.5685
18480SOL    HW261403   5.424   7.585   8.367 -0.9778  0.6288 -1.9050
18481SOL     OW61404   7.693   8.755   7.521  0.3523 -0.1694  0.8274
18481SOL    HW161405   7.682   8.767   7.427 -0.8466 -0.0657  0.9635
18481SOL    HW261406   7.659   8.668   7.539  0.3718 -0.1045  1.1946
18482SOL     OW61407   6.087   4.691   8.850 -0.2313  0.1314  0.6207
18482SOL    HW161408   6.168   4.706   8.899 -0.9023  0.4641  1.6556
18482SOL    HW261409   6.106   4.614   8.797  1.1708  0.9092 -0.0785
18483SOL     OW61410   8.603   4.019   5.434 -0.5290  0.4623 -0.0685
18483SOL    HW161411   8.510   4.023   5.411 -0.8369 -0.3086  0.9647
18483SOL    HW261412   8.605   4.040   5.527  0.5983  2.7795 -0.5569
18484SOL     OW61413   7.588   1.855   9.045  0.1063 -0.2402 -0.0874
18484SOL    HW161414   7.553   1.766   9.051  0.6541 -0.5404 -1.0779
18484SOL    HW261415   7.557   1.887   8.961  0.5755  0.2066 -0.0941
18485SOL     OW61416   8.298   2.672   2.269  0.0457  0.5919 -0.1278
18485SOL    HW161417   8.314   2.761   2.298 -0.3102  0.9991 -1.1359
18485SOL    HW261418   8.203   2.665   2.264 -0.1301 -0.9068  3.0866
18486SOL     OW61419   2.785   5.652   2.758 -0.4354 -0.2676  0.3038
18486SOL    HW161420   2.825   5.608   2.833 -1.6686 -1.5535  0.2449
18486SOL    HW261421   2.760   5.738   2.792  0.5208 -0.1976  0.8823
18487SOL     OW61422   2.623   1.016   5.062 -0.0554 -0.0926  0.1877
18487SOL    HW161423   2.544   1.068   5.053 -1.5796 -1.6312  3.2524
18487SOL    HW261424   2.606   0.959   5.136  1.5195 -4.9052 -2.7119
18488SOL     OW61425   8.942   0.552   1.871  0.1402 -0.6938 -0.2440
18488SOL    HW161426   9.021   0.587   1.831 -0.5499 -0.1723 -1.1921
18488SOL    HW261427   8.960   0.459   1.883  1.1290 -0.4549  0.1555
18489SOL     OW61428   2.953   4.017   3.222  0.4291 -0.5128  0.0095
18489SOL    HW161429   2.878   3.982   3.173  0.6680  2.4211 -2.7648
18489SOL    HW261430   2.916   4.089   3.273  1.1729  0.4649 -0.7934
18490SOL     OW61431   7.977   7.261   0.523 -0.1015 -0.2654 -0.1611
18490SOL    HW161432   7.917   7.331   0.498 -0.2774 -0.1708  0.5281
18490SOL    HW261433   8.063   7.303   0.527 -0.0473 -0.3072 -0.7054
18491SOL     OW61434   2.284   6.788   4.891 -0.4215 -0.5879  0.0666
18491SOL    HW161435   2.355   6.785   4.826 -1.3278  0.3421 -1.0308
18491SOL    HW261436   2.204   6.795   4.838 -1.3126 -1.3368  1.2771
18492SOL     OW61437   4.575   6.515   4.217  0.8031 -0.0972  0.4996
18492SOL    HW161438   4.628   6.438   4.195 -1.2324 -1.7620  1.0931
18492SOL    HW261439   4.626   6.589   4.184  0.9755 -1.9008 -3.9812
18493SOL     OW61440   4.666   7.127   6.139 -0.2365 -0.0969 -0.2380
18493SOL    HW161441   4.736   7.161   6.194 -1.1554  0.5075  0.5986
18493SOL    HW261442   4.613   7.073   6.198  0.5059 -2.0569 -1.2580
18494SOL     OW61443   5.816   9.191   8.827 -0.7497 -0.1943 -0.2014
18494SOL    HW161444   5.819   9.187   8.731 -1.6525 -1.0663 -0.2133
18494SOL    HW261445   5.765   9.114   8.852  0.2253 -0.4544  1.0400
18495SOL     OW61446   9.212   3.248   0.701 -0.3545  0.5675  0.0598
18495SOL    HW161447   9.255   3.199   0.631 -0.4737 -0.0190  0.3887
18495SOL    HW261448   9.282   3.300   0.741  0.1230 -0.5956  0.7730
18496SOL     OW61449   1.690   2.913   7.182  0.4540 -0.1004  0.3363
18496SOL    HW161450   1.759   2.908   7.116  0.7819 -1.0122  0.7370
18496SOL    HW261451   1.722   2.860   7.254 -0.3817  0.0078  0.7969
18497SOL     OW61452   4.136   2.068   5.136 -0.1753 -0.0589 -0.3961
18497SOL    HW161453   4.086   2.114   5.069 -1.1509 -0.5038  0.0125
18497SOL    HW261454   4.108   1.977   5.128  0.2561 -0.2392  0.1183
18498SOL     OW61455   5.395   2.501   4.899 -0.1007 -0.5714  0.1918
18498SOL    HW161456   5.413   2.558   4.974  1.0565 -1.2361  0.4398
18498SOL    HW261457   5.378   2.415   4.938 -1.5985 -0.4715 -0.1941
18499SOL     OW61458   6.102   2.180   3.430  0.0046  0.4796  0.7108
18499SOL    HW161459   6.023   2.146   3.471  1.2863 -1.5287  1.6493
18499SOL    HW261460   6.085   2.174   3.336 -0.2050 -1.9846  0.8488
18500SOL     OW61461   4.538   5.370   0.295 -0.5508 -0.3272  0.6409
18500SOL    HW161462   4.620   5.363   0.344 -0.4003 -0.9429  0.3117
18500SOL    HW261463   4.474   5.326   0.350 -0.2263 -1.7045 -0.0384
18501SOL     OW61464   8.270   3.302   5.026 -0.1667 -0.5107 -0.8960
18501SOL    HW161465   8.355   3.345   5.014  0.7545 -0.9014  2.9170
18501SOL    HW261466   8.206   3.369   5.004  1.2146  1.2926  0.3045
18502SOL     OW61467   6.302   5.199   6.327  0.1987  0.0961 -0.1108
18502SOL    HW161468   6.249   5.155   6.260 -0.1186 -0.6056  0.5847
18502SOL    HW261469   6.259   5.177   6.410  1.4966 -0.3851  0.4667
18503SOL     OW61470   2.866   0.979   3.872 -0.2370 -1.1213 -0.0771
18503SOL    HW161471   2.773   0.976   3.850 -0.2368  0.6242 -0.4414
18503SOL    HW261472   2.905   0.910   3.819 -1.3606 -2.1109  0.3444
18504SOL     OW61473   2.853   7.080   2.615 -0.2303  0.0450 -0.2586
18504SOL    HW161474   2.933   7.044   2.576 -0.9670 -0.8637 -0.9774
18504SOL    HW261475   2.885   7.145   2.678  1.1202 -1.0819  0.2839
18505SOL     OW61476   7.623   3.813   7.041  0.2653 -0.4871  0.8176
18505SOL    HW161477   7.635   3.903   7.071  0.3855 -0.1152 -0.2854
18505SOL    HW261478   7.561   3.775   7.103 -2.3191  1.3199 -0.4933
18506SOL     OW61479   6.192   5.151   8.386  0.2954 -0.0145  0.3635
18506SOL    HW161480   6.243   5.071   8.371 -0.0520 -0.0780 -0.5881
18506SOL    HW261481   6.131   5.154   8.312 -0.6690  0.3773  1.1512
18507SOL     OW61482   3.248   5.584   3.980 -0.2983  0.3071  0.0836
18507SOL    HW161483   3.197   5.616   4.055 -0.5670 -0.6872  0.3445
18507SOL    HW261484   3.184   5.537   3.926 -0.1411  1.1514 -0.8718
18508SOL     OW61485   0.446   6.426   1.910  0.0779  0.8068  0.1108
18508SOL    HW161486   0.369   6.451   1.961 -1.3434 -0.8426 -1.0644
18508SOL    HW261487   0.417   6.433   1.819  0.8316 -1.1018 -0.3376
18509SOL     OW61488   4.598   6.477   7.611 -0.2492 -0.8114  0.5972
18509SOL    HW161489   4.567   6.387   7.602 -0.0678 -0.7996 -0.2101
18509SOL    HW261490   4.519   6.528   7.624 -0.4601 -0.9541 -0.0714
18510SOL     OW61491   0.045   6.538   4.612 -0.2459 -0.8418 -0.4291
18510SOL    HW161492  -0.048   6.561   4.609 -0.3396 -0.7372  1.6791
18510SOL    HW261493   0.088   6.616   4.647  0.1602 -1.8792  1.5968
18511SOL     OW61494   5.643   2.188   1.861  0.5826  0.3686  0.2711
18511SOL    HW161495   5.644   2.193   1.766 -0.2982 -1.8112  0.0926
18511SOL    HW261496   5.733   2.210   1.887  2.0225 -2.9153 -1.3808
18512SOL     OW61497   5.207   9.092   2.941 -0.0298  0.1040 -0.1338
18512SOL    HW161498   5.134   9.055   2.991 -0.6087  1.1870 -0.1348
18512SOL    HW261499   5.228   9.026   2.876  0.6950 -1.3223  1.4574
18513SOL     OW61500   6.398   1.889   5.475 -0.1880  0.6757 -0.0490
18513SOL    HW161501   6.366   1.808   5.435 -1.7458  0.5336  1.3810
18513SOL    HW261502   6.453   1.928   5.408 -1.3056 -0.3900 -1.6684
18514SOL     OW61503   9.219   8.170   6.836  0.5035 -0.6330  0.3458
18514SOL    HW161504   9.176   8.243   6.880 -0.5176 -0.3198 -1.0853
18514SOL    HW261505   9.181   8.092   6.875 -0.7300 -0.3560 -0.2621
18515SOL     OW61506   3.885   7.257   8.257 -0.1159 -0.0904 -0.2895
18515SOL    HW161507   3.913   7.280   8.345 -1.2810  2.1346 -0.4341
18515SOL    HW261508   3.870   7.162   8.261  0.2970 -0.1201  1.7652
18516SOL     OW61509   3.542   2.242   0.424 -0.2040  0.4075  0.2758
18516SOL    HW161510   3.633   2.270   0.413 -0.0097 -0.1412  0.4524
18516SOL    HW261511   3.514   2.216   0.336 -0.5774  1.6789 -0.0080
18517SOL     OW61512   1.790   2.825   0.069 -0.4497  0.4621 -0.3873
18517SOL    HW161513   1.854   2.889   0.037  1.1288 -0.6187  0.4969
18517SOL    HW261514   1.744   2.795  -0.010  0.3405  1.0381 -1.0850
18518SOL     OW61515   9.106   0.003   3.329  0.0102  0.6999  0.1867
18518SOL    HW161516   9.147  -0.066   3.277 -1.9437  0.3265 -0.9871
18518SOL    HW261517   9.129   0.084   3.283 -0.2641  0.5209 -0.2852
18519SOL     OW61518   1.082   2.183   2.366  0.1860  0.3959 -0.0583
18519SOL    HW161519   1.002   2.183   2.313 -2.0942 -0.2113  3.0859
18519SOL    HW261520   1.075   2.104   2.419  2.9131  0.3486  0.3546
18520SOL     OW61521   7.484   7.224   4.914 -0.0502 -0.4993 -0.0865
18520SOL    HW161522   7.491   7.160   4.843  1.2328 -0.0679 -0.3668
18520SOL    HW261523   7.416   7.188   4.971  1.8393 -3.0321  0.7155
18521SOL     OW61524   8.166   7.656   2.124  0.5039 -0.0856  0.4842
18521SOL    HW161525   8.212   7.581   2.087 -0.8564 -0.4636 -0.5379
18521SOL    HW261526   8.089   7.618   2.166 -0.7497  0.7832 -0.9352
18522SOL     OW61527   1.810   7.831   4.270 -0.0511  0.4453  0.4516
18522SOL    HW161528   1.812   7.745   4.313  0.0115 -0.3983 -1.1744
18522SOL    HW261529   1.717   7.853   4.265 -0.1658 -0.1520 -0.2806
18523SOL     OW61530   5.413   5.864   1.554 -0.3298 -0.1488 -0.0066
18523SOL    HW161531   5.328   5.876   1.597  0.2802 -1.3304  1.6083
18523SOL    HW261532   5.467   5.818   1.619  1.8372  1.3120 -0.6787
18524SOL     OW61533   8.487   0.379   8.648 -0.4025 -0.1806 -0.4463
18524SOL    HW161534   8.475   0.330   8.729 -0.1463 -1.1365 -0.9799
18524SOL    HW261535   8.505   0.313   8.582 -0.3984  0.6071 -1.2513
18525SOL     OW61536   6.467   0.979   8.804  0.2300  0.3632 -0.6377
18525SOL    HW161537   6.498   0.919   8.871 -1.0238  0.9076  0.4761
18525SOL    HW261538   6.442   0.923   8.731 -0.7079 -0.4580  0.2955
18526SOL     OW61539   0.900   0.167   8.134  0.3657  0.3736 -0.0262
18526SOL    HW161540   0.900   0.113   8.056  0.3411 -0.1718  0.3477
18526SOL    HW261541   0.974   0.227   8.122 -0.0272  0.7224 -0.7509
18527SOL     OW61542   8.337   6.345   4.805  0.4876 -0.2248  0.6631
18527SOL    HW161543   8.270   6.277   4.810  0.5882 -0.3523  0.2969
18527SOL    HW261544   8.392   6.329   4.882 -0.1642  0.1732  1.2280
18528SOL     OW61545   0.921   0.372   8.590  0.1568 -0.2402 -0.5335
18528SOL    HW161546   0.931   0.323   8.672 -1.5198  0.1997 -0.0098
18528SOL    HW261547   0.920   0.305   8.522 -0.4621 -0.8169  0.0204
18529SOL     OW61548   0.278   2.008   6.109  0.5806 -0.4088 -0.0203
18529SOL    HW161549   0.227   1.930   6.134 -0.5378  0.2035 -0.3278
18529SOL    HW261550   0.363   1.973   6.084  0.3026 -1.4746  0.4381
18530SOL     OW61551   5.763   1.625   0.063 -0.5843 -0.0001  0.5932
18530SOL    HW161552   5.779   1.639   0.156  2.2071  0.3194  0.1446
18530SOL    HW261553   5.725   1.707   0.033  0.6513  0.7615  1.0465
18531SOL     OW61554   4.843   9.252   0.970  0.3837 -0.0707 -0.1151
18531SOL    HW161555   4.864   9.212   0.886  0.9258 -1.1277  0.5026
18531SOL    HW261556   4.909   9.320   0.982 -0.4625  0.9707 -1.1124
18532SOL     OW61557   4.355   7.337   7.588  0.9677  0.4274  0.6555
18532SOL    HW161558   4.367   7.318   7.681  0.7354 -0.3122  0.5356
18532SOL    HW261559   4.267   7.307   7.569  0.4924  1.8567  0.5138
18533SOL     OW61560   7.736   8.887   2.216 -0.8545  0.2722 -0.2864
18533SOL    HW161561   7.722   8.856   2.126 -0.6046  0.3242 -0.3434
18533SOL    HW261562   7.830   8.875   2.231 -0.9723 -0.1562  0.1249
18534SOL     OW61563   6.492   4.940   3.781  0.1267 -0.2682  0.1623
18534SOL    HW161564   6.428   4.991   3.831 -2.3493 -1.0764 -1.9713
18534SOL    HW261565   6.509   4.992   3.703 -1.5357 -2.0168 -1.4767
18535SOL     OW61566   4.722   6.924   9.116 -0.2586 -0.4491 -0.3308
18535SOL    HW161567   4.778   6.910   9.040  0.8428  0.6255  0.2450
18535SOL    HW261568   4.642   6.876   9.096 -0.0956  0.0219 -2.2657
18536SOL     OW61569   0.820   4.437   3.763  0.4096  0.3051  0.4628
18536SOL    HW161570   0.831   4.495   3.838 -0.6285  0.2324  0.6832
18536SOL    HW261571   0.743   4.385   3.784 -0.1460  0.5721 -0.8388
18537SOL     OW61572   6.517   6.263   2.316  0.0303 -0.9081 -0.1911
18537SOL    HW161573   6.589   6.313   2.277 -1.9161  2.3348  0.0245
18537SOL    HW261574   6.471   6.224   2.242 -0.0622  0.0264 -0.6286
18538SOL     OW61575   1.083   2.784   6.859  0.3902  0.0414 -0.4385
18538SOL    HW161576   1.158   2.731   6.886 -0.0516  0.1464  1.1056
18538SOL    HW261577   1.074   2.849   6.929 -2.8848 -1.7248  1.0179
18539SOL     OW61578   0.075   3.335   2.253  0.1656  0.4866  0.2387
18539SOL    HW161579   0.155   3.296   2.289  0.7342 -0.9812 -2.3290
18539SOL    HW261580   0.004   3.293   2.301  0.8829  1.2002  1.9924
18540SOL     OW61581   1.695   4.825   6.678 -0.2643 -0.0535  0.4656
18540SOL    HW161582   1.699   4.921   6.686  0.4231 -0.1003  0.7614
18540SOL    HW261583   1.721   4.808   6.587  0.6690 -0.0053  0.7051
18541SOL     OW61584   7.984   8.138   8.113  0.3540  0.3650  0.3107
18541SOL    HW161585   8.060   8.087   8.083 -0.3605  0.7664 -2.4735
18541SOL    HW261586   7.923   8.072   8.147 -0.0826 -0.6438 -2.1809
18542SOL     OW61587   7.123   3.904   3.898 -0.1015  0.0135  0.3105
18542SOL    HW161588   7.153   3.872   3.983  0.0801 -0.0391  0.2272
18542SOL    HW261589   7.034   3.869   3.890 -0.2180  0.2426  0.5949
18543SOL     OW61590   5.568   6.656   2.840 -0.4564 -0.0507  0.4234
18543SOL    HW161591   5.507   6.686   2.907  1.7088  0.3435  2.3341
18543SOL    HW261592   5.628   6.730   2.826  0.5927 -0.9660 -0.1385
18544SOL     OW61593   1.584   3.212   0.788  0.4748  0.3530  0.7010
18544SOL    HW161594   1.654   3.216   0.852  0.6323  2.8604  0.4920
18544SOL    HW261595   1.506   3.187   0.838  0.9873  0.2713  1.4616
18545SOL     OW61596   2.032   5.673   9.167  0.2021 -0.2586  0.0458
18545SOL    HW161597   1.948   5.651   9.126  0.1079  1.2858 -0.6920
18545SOL    HW261598   2.084   5.709   9.095  0.7339  0.7338  0.9030
18546SOL     OW61599   2.372   4.327   6.827 -0.3421 -0.4218 -0.4819
18546SOL    HW161600   2.281   4.353   6.816 -0.2041 -0.0221 -0.6929
18546SOL    HW261601   2.379   4.244   6.780 -1.1477 -1.6576  1.4500
18547SOL     OW61602   3.403   3.745   8.347 -0.3310  0.0671 -0.2156
18547SOL    HW161603   3.395   3.840   8.338 -0.1099 -0.0530 -2.1715
18547SOL    HW261604   3.313   3.714   8.341 -0.4655  0.1714  1.0485
18548SOL     OW61605   4.302   4.019   3.998 -0.2752 -0.1636 -0.2573
18548SOL    HW161606   4.281   4.101   4.043  1.0971  0.2137 -0.2699
18548SOL    HW261607   4.397   4.020   3.990 -0.0640 -2.5230  1.1785
18549SOL     OW61608   5.481   2.233   7.282  0.7365 -0.8676 -0.4665
18549SOL    HW161609   5.394   2.221   7.321  0.5721 -2.2836 -1.2021
18549SOL    HW261610   5.538   2.251   7.357 -0.2014  0.2403  0.0086
18550SOL     OW61611   0.277   8.791   5.733 -0.0780  0.3060  0.0349
18550SOL    HW161612   0.234   8.712   5.699  0.0458  0.2412  0.0294
18550SOL    HW261613   0.255   8.792   5.826 -3.0646  2.1363 -0.5412
18551SOL     OW61614   3.570   2.890   0.790 -0.2312  0.3228  0.2845
18551SOL    HW161615   3.538   2.969   0.746 -1.1435 -0.5974 -0.7641
18551SOL    HW261616   3.496   2.830   0.788  0.0599 -0.1680  2.1376
18552SOL     OW61617   7.764   6.068   3.811  0.1830 -0.1194  0.1557
18552SOL    HW161618   7.772   6.160   3.784  0.5597 -0.1326  0.2085
18552SOL    HW261619   7.678   6.041   3.779 -0.0474  0.3326  0.3792
18553SOL     OW61620   0.310   5.749   7.788  0.7044  0.8087  0.2955
18553SOL    HW161621   0.275   5.735   7.876  3.4433 -0.5048  1.2771
18553SOL    HW261622   0.386   5.692   7.783  0.8883  1.1544 -2.8260
18554SOL     OW61623   7.433   4.196   9.212 -0.5786  0.5469  0.0556
18554SOL    HW161624   7.395   4.220   9.297 -1.7553  0.2305 -0.3574
18554SOL    HW261625   7.473   4.276   9.180 -0.6266  0.8184  0.6522
18555SOL     OW61626   0.756   3.784   0.025  0.4533  0.5555 -0.1988
18555SOL    HW161627   0.718   3.865   0.058  0.0159  0.1131  0.4030
18555SOL    HW261628   0.734   3.784  -0.068  2.4987  2.2719 -0.7718
18556SOL     OW61629   6.661   9.282   5.333  0.4418 -0.0159  0.0437
18556SOL    HW161630   6.654   9.320   5.421 -2.4633 -0.7951  0.2437
18556SOL    HW261631   6.679   9.357   5.276  2.6515  0.4707  1.2352
18557SOL     OW61632   6.251   9.093   9.016 -0.0718 -0.9078 -0.6857
18557SOL    HW161633   6.260   9.118   8.924  0.8775 -0.1900 -0.4054
18557SOL    HW261634   6.157   9.079   9.028 -0.2655 -0.4399 -1.6134
18558SOL     OW61635   1.999   4.081   9.311  0.1377  0.2546  0.1238
18558SOL    HW161636   2.013   4.174   9.329 -0.5353  0.7566 -1.6720
18558SOL    HW261637   2.033   4.069   9.222 -1.9783 -0.6181 -0.6374
18559SOL     OW61638   3.309   8.600   6.970  0.0715 -0.3083 -0.0067
18559SOL    HW161639   3.349   8.589   7.056  1.7078  0.9516 -0.5619
18559SOL    HW261640   3.366   8.662   6.925 -0.6776 -1.0239 -2.0440
18560SOL     OW61641   2.274   5.138   0.180 -0.2869  0.7328 -0.0866
18560SOL    HW161642   2.219   5.061   0.170  1.5512 -1.2183  3.1878
18560SOL    HW261643   2.250   5.175   0.265  0.8712  2.0138 -0.2727
18561SOL     OW61644   7.442   9.227   5.098 -0.0665  0.0402 -0.7205
18561SOL    HW161645   7.379   9.238   5.027 -1.8188 -0.0945  0.7549
18561SOL    HW261646   7.429   9.304   5.154  2.1516  0.7897 -1.1167
18562SOL     OW61647   5.519   0.252   7.816 -0.1372  0.0194 -0.2396
18562SOL    HW161648   5.521   0.188   7.887  1.3037  0.1686 -0.0999
18562SOL    HW261649   5.433   0.243   7.777  0.0495 -2.0549 -0.2691
18563SOL     OW61650   5.968   3.452   9.064 -0.5392  0.5358  0.3523
18563SOL    HW161651   6.031   3.480   9.131  1.0220  0.6162 -1.0983
18563SOL    HW261652   6.017   3.456   8.982 -1.3703 -2.8135 -0.4422
18564SOL     OW61653   3.431   4.286   2.867  0.3939 -0.2254 -0.1955
18564SOL    HW161654   3.424   4.382   2.868 -2.8744 -0.3103  2.5188
18564SOL    HW261655   3.400   4.261   2.780 -1.3814  1.1248  0.0032
18565SOL     OW61656   8.908   8.057   4.982 -0.4591  0.2659 -0.2967
18565SOL    HW161657   8.943   8.007   4.908 -1.4215 -2.3580  0.8935
18565SOL    HW261658   8.986   8.091   5.026  0.1429  1.4642 -2.1547
18566SOL     OW61659   3.939   7.337   5.942 -0.2724 -0.3303 -0.1688
18566SOL    HW161660   3.870   7.301   5.887 -1.6632  1.9804 -0.1167
18566SOL    HW261661   3.954   7.425   5.907 -0.2000  0.6886  2.2102
18567SOL     OW61662   4.748   7.804   3.428  0.2502  0.7003 -0.0818
18567SOL    HW161663   4.783   7.726   3.387 -0.2643 -0.5586  1.7570
18567SOL    HW261664   4.792   7.877   3.383  0.6383 -0.6089 -1.9171
18568SOL     OW61665   0.354   2.998   4.523 -0.5208 -0.0100  0.5619
18568SOL    HW161666   0.393   3.042   4.599 -0.7583  0.8777  0.1859
18568SOL    HW261667   0.422   3.002   4.456 -0.7456  0.2812  0.3500
18569SOL     OW61668   0.636   2.880   8.167 -0.5869  0.1685 -0.1515
18569SOL    HW161669   0.547   2.898   8.196 -1.0848  0.6343 -1.8818
18569SOL    HW261670   0.639   2.912   8.077  1.4328  0.4577 -0.0184
18570SOL     OW61671   5.283   8.795   1.400  0.5516  0.4024 -0.5036
18570SOL    HW161672   5.271   8.738   1.323 -0.5099  0.4057 -0.3621
18570SOL    HW261673   5.293   8.735   1.473  0.9323  0.4000 -0.5568
18571SOL     OW61674   1.118   1.023   2.484  0.1766  0.0010 -0.0514
18571SOL    HW161675   1.070   1.097   2.448 -1.3844  0.1061  2.0685
18571SOL    HW261676   1.179   1.062   2.547  1.4718 -0.3363 -1.0337
18572SOL     OW61677   2.208   7.409   6.049 -0.2223 -0.6633 -0.0134
18572SOL    HW161678   2.291   7.420   6.004  0.0543  1.4086  0.9029
18572SOL    HW261679   2.173   7.327   6.014  2.2202 -1.6490 -0.3422
18573SOL     OW61680   4.236   5.325   4.851  0.2278 -0.2543  0.6969
18573SOL    HW161681   4.226   5.418   4.832 -1.7331 -0.5625 -0.0449
18573SOL    HW261682   4.292   5.292   4.780 -2.0804 -0.2574 -1.2570
18574SOL     OW61683   6.886   2.223   0.583 -0.2464  0.3455  0.2477
18574SOL    HW161684   6.979   2.217   0.561 -0.0297 -0.3369  1.3050
18574SOL    HW261685   6.880   2.300   0.640 -0.4255  0.6892 -0.2233
18575SOL     OW61686   8.606   2.739   1.705  0.6190 -0.1937 -0.4966
18575SOL    HW161687   8.512   2.755   1.699  0.8183  1.0667 -0.4199
18575SOL    HW261688   8.641   2.773   1.623  1.1298  0.3351 -0.0666
18576SOL     OW61689   6.372   0.040   7.089  0.0079  0.3287  0.0206
18576SOL    HW161690   6.388   0.078   7.003 -0.0200 -1.3721 -0.7698
18576SOL    HW261691   6.459   0.032   7.128  0.5718 -2.7196 -1.5813
18577SOL     OW61692   1.806   3.695   0.683  0.2826  0.0880  0.0966
18577SOL    HW161693   1.737   3.629   0.686  1.1024 -0.7623  0.7327
18577SOL    HW261694   1.801   3.739   0.768  0.9804 -0.4659  0.4324
18578SOL     OW61695   4.688   6.424   0.298  0.0325  0.0400 -0.2854
18578SOL    HW161696   4.598   6.432   0.267 -0.0776 -0.2154 -0.0355
18578SOL    HW261697   4.725   6.512   0.288  0.5963 -0.4120 -2.9148
18579SOL     OW61698   0.634   7.054   2.717 -0.2934 -0.0352  0.0074
18579SOL    HW161699   0.614   7.068   2.624 -2.3294 -0.2457  0.3665
18579SOL    HW261700   0.716   7.004   2.716  0.0431  0.4704 -1.6471
18580SOL     OW61701   3.130   8.764   9.262  0.1914  0.0047  0.4551
18580SOL    HW161702   3.204   8.733   9.209 -0.4995 -1.7855  0.4537
18580SOL    HW261703   3.170   8.795   9.343  0.9905 -0.5198  0.2726
18581SOL     OW61704   5.329   0.939   3.921 -0.4248  0.0125 -0.0423
18581SOL    HW161705   5.365   0.857   3.956 -0.8666  0.4675  1.5678
18581SOL    HW261706   5.372   0.950   3.837  1.0136 -0.9407  0.5333
18582SOL     OW61707   2.517   5.661   8.630  0.9618  0.2038 -0.0819
18582SOL    HW161708   2.473   5.597   8.575 -0.3215  0.9960 -0.0030
18582SOL    HW261709   2.596   5.684   8.581 -1.6039  3.2186 -3.2685
18583SOL     OW61710   7.652   9.215   8.640  0.4825 -0.1624  0.0524
18583SOL    HW161711   7.580   9.244   8.583 -0.0280  1.3085  1.3944
18583SOL    HW261712   7.719   9.184   8.579 -0.3219  0.6957 -1.3212
18584SOL     OW61713   8.354   5.044   5.010  0.1696 -0.3429 -0.3965
18584SOL    HW161714   8.262   5.025   4.994  0.1895  0.0251 -0.9674
18584SOL    HW261715   8.363   5.040   5.105 -0.5442  0.0801 -0.3062
18585SOL     OW61716   8.484   4.751   4.682  0.2785  0.4282  0.1901
18585SOL    HW161717   8.572   4.764   4.646 -0.8333  0.9972 -2.5991
18585SOL    HW261718   8.437   4.704   4.613 -1.3471 -0.8341  2.0545
18586SOL     OW61719   0.439   5.743   2.216 -0.6550 -0.3869 -0.0728
18586SOL    HW161720   0.471   5.820   2.263 -1.6940  0.1478 -0.1882
18586SOL    HW261721   0.376   5.702   2.276 -2.4966  0.6797 -1.1596
18587SOL     OW61722   0.196   4.128   2.194  0.2790  0.2571 -0.3026
18587SOL    HW161723   0.242   4.147   2.113 -0.4362  1.8827 -0.3597
18587SOL    HW261724   0.254   4.067   2.241  1.0497 -0.0990 -1.6747
18588SOL     OW61725   2.557   4.798   7.925 -0.0218 -0.8383 -0.2507
18588SOL    HW161726   2.532   4.741   7.852  2.4160 -1.1423 -0.9440
18588SOL    HW261727   2.536   4.886   7.894  1.5532 -0.9041 -1.6630
18589SOL     OW61728   2.056   1.260   7.000 -0.4781 -0.3789  0.4449
18589SOL    HW161729   2.146   1.291   6.989 -0.4256 -0.3286  1.0047
18589SOL    HW261730   2.010   1.292   6.923  0.0462 -0.6336  0.0194
18590SOL     OW61731   5.820   8.835   8.578 -0.5608 -0.3679 -0.1993
18590SOL    HW161732   5.745   8.894   8.588 -0.5920 -0.2946 -0.8448
18590SOL    HW261733   5.834   8.828   8.484  0.0315 -0.6562 -0.0998
18591SOL     OW61734   5.925   3.329   3.915 -0.3921  0.0304  0.0406
18591SOL    HW161735   5.975   3.369   3.987 -0.5956  0.1392  0.1222
18591SOL    HW261736   5.838   3.368   3.922 -0.2766  0.4069 -0.5642
18592SOL     OW61737   0.460   3.724   1.534  0.5027  0.5676  0.3145
18592SOL    HW161738   0.513   3.660   1.486 -0.1615  0.1226  0.1513
18592SOL    HW261739   0.521   3.793   1.558  0.7947  0.9812 -1.4748
18593SOL     OW61740   0.630   4.004   5.904  0.8801 -0.3428 -0.2422
18593SOL    HW161741   0.676   3.980   5.824  2.1002  0.8354  0.0734
18593SOL    HW261742   0.663   3.944   5.970 -0.5763 -1.7245 -0.6934
18594SOL     OW61743   8.741   4.574   5.252  0.1230 -0.1842 -0.1646
18594SOL    HW161744   8.756   4.546   5.162  0.0007  0.0671 -0.2659
18594SOL    HW261745   8.646   4.570   5.263  0.1562 -0.4819  0.0436
18595SOL     OW61746   5.794   4.289   0.354  0.8704  0.3344 -0.2800
18595SOL    HW161747   5.732   4.229   0.394  0.1030  0.7677 -0.7793
18595SOL    HW261748   5.740   4.346   0.299  1.4387  1.9977  0.7721
18596SOL     OW61749   5.998   2.249   5.471  0.0881 -0.4192 -0.0324
18596SOL    HW161750   6.080   2.223   5.514 -0.2586  1.0155  1.6143
18596SOL    HW261751   6.017   2.336   5.434 -0.7490  0.0290  0.5722
18597SOL     OW61752   6.363   6.216   4.010 -1.0689 -0.0952  0.0059
18597SOL    HW161753   6.381   6.122   4.017 -1.1334 -0.0809  0.3828
18597SOL    HW261754   6.284   6.222   3.957 -2.7608 -0.4202  2.3284
18598SOL     OW61755   3.436   1.284   3.977  0.1305  0.0882  0.2732
18598SOL    HW161756   3.517   1.260   4.022 -0.4700  2.1240  2.7165
18598SOL    HW261757   3.449   1.375   3.953 -1.6016  0.6476  1.2882
18599SOL     OW61758   3.102   5.327   6.005 -0.5721  0.2727 -0.5993
18599SOL    HW161759   3.078   5.254   5.948  1.0426 -0.2343 -0.6840
18599SOL    HW261760   3.020   5.353   6.047 -1.1818 -1.6052 -0.5476
18600SOL     OW61761   6.265   6.781   3.699  0.0513 -0.3835 -0.4320
18600SOL    HW161762   6.230   6.700   3.735 -0.5593 -0.5348 -1.3310
18600SOL    HW261763   6.288   6.833   3.776 -2.2129 -0.2700  0.2594
18601SOL     OW61764   6.497   4.443   0.916  0.4264  0.0388  0.0903
18601SOL    HW161765   6.411   4.404   0.903  0.9656 -0.8568 -0.9246
18601SOL    HW261766   6.526   4.410   1.002  0.2441 -0.6009 -0.0904
18602SOL     OW61767   5.557   5.909   2.814 -0.1043 -0.5882 -0.1642
18602SOL    HW161768   5.604   5.919   2.731 -0.8006  0.6275 -0.4314
18602SOL    HW261769   5.571   5.991   2.860  0.3232 -1.2726  0.9769
18603SOL     OW61770   4.339   4.789   6.106  0.3574  0.0892  0.1075
18603SOL    HW161771   4.342   4.845   6.029 -1.3114  1.5110  1.0105
18603SOL    HW261772   4.260   4.736   6.095  1.1903 -1.1639 -0.0822
18604SOL     OW61773   3.689   2.964   8.226 -0.4832 -0.0051 -0.0142
18604SOL    HW161774   3.744   3.041   8.239 -0.2592  0.0813 -1.3660
18604SOL    HW261775   3.603   3.000   8.204 -0.6198 -0.1474  0.2776
18605SOL     OW61776   9.360   3.435   2.026 -0.0252 -0.4999  0.2866
18605SOL    HW161777   9.433   3.391   1.983  1.0845  0.3190  1.2447
18605SOL    HW261778   9.375   3.422   2.119 -0.8601  0.0695  0.5186
18606SOL     OW61779   7.558   2.570   3.210 -0.0499 -0.4686  0.1530
18606SOL    HW161780   7.573   2.651   3.162 -0.1731 -0.6321 -0.1671
18606SOL    HW261781   7.605   2.504   3.160 -0.9993 -0.8185 -0.3165
18607SOL     OW61782   1.870   4.239   2.116 -0.6349  0.2145  1.1566
18607SOL    HW161783   1.846   4.162   2.169 -0.2170 -0.4239  0.4424
18607SOL    HW261784   1.846   4.314   2.170 -3.4202 -0.3664  0.8665
18608SOL     OW61785   6.655   8.101   7.392 -0.4438  0.2561  0.3175
18608SOL    HW161786   6.606   8.083   7.473 -0.0737  1.1347  0.7478
18608SOL    HW261787   6.741   8.128   7.423 -0.1251  0.0621 -0.3995
18609SOL     OW61788   2.759   2.690   1.017  0.0386 -0.7872  0.1258
18609SOL    HW161789   2.852   2.714   1.026 -0.2972  0.7226 -0.0695
18609SOL    HW261790   2.754   2.646   0.933  0.7976 -2.1517  0.7634
18610SOL     OW61791   7.659   5.759   2.337  0.3036 -0.3226  0.0610
18610SOL    HW161792   7.579   5.706   2.334  0.0297 -0.1652  2.3760
18610SOL    HW261793   7.627   5.850   2.333  0.2260 -0.2346  1.6576
18611SOL     OW61794   6.091   9.311   5.330 -0.4698  0.6161  0.4660
18611SOL    HW161795   6.156   9.282   5.265 -1.6906 -0.2745 -0.4154
18611SOL    HW261796   6.138   9.309   5.413  1.6879  3.5473 -0.5201
18612SOL     OW61797   3.643   6.883   2.559 -1.0766 -0.0268  1.0259
18612SOL    HW161798   3.562   6.834   2.567 -0.6272 -0.8029  0.9436
18612SOL    HW261799   3.682   6.852   2.477  0.1801 -1.0333  1.9487
18613SOL     OW61800   4.092   3.719   8.060 -0.0260  0.2128  0.2932
18613SOL    HW161801   4.123   3.730   8.150 -1.3218  0.7693  0.6802
18613SOL    HW261802   4.138   3.640   8.029  0.7482  0.2562  1.2890
18614SOL     OW61803   6.587   5.705   7.762 -0.2612 -0.3112 -0.1569
18614SOL    HW161804   6.650   5.638   7.737 -1.9252 -1.9076 -0.2613
18614SOL    HW261805   6.580   5.696   7.857 -1.4106 -1.1611 -0.3112
18615SOL     OW61806   7.847   7.371   8.317 -0.2715 -0.4604 -0.1437
18615SOL    HW161807   7.759   7.352   8.286  0.0598 -1.2070 -0.6406
18615SOL    HW261808   7.892   7.409   8.241  0.2270 -1.3221 -0.2914
18616SOL     OW61809   5.538   2.466   7.790  0.5670  0.1985  0.1042
18616SOL    HW161810   5.545   2.374   7.815 -1.6687 -0.0586  0.0043
18616SOL    HW261811   5.600   2.512   7.846  0.4153 -1.1619  1.4484
18617SOL     OW61812   3.914   5.798   4.628 -0.2147 -0.5265 -0.2780
18617SOL    HW161813   3.921   5.879   4.679 -1.2807 -0.1843 -0.6442
18617SOL    HW261814   4.004   5.775   4.606  0.2589 -0.6145  1.6361
18618SOL     OW61815   3.229   1.960   6.408 -0.0077  0.2079  0.4637
18618SOL    HW161816   3.209   1.994   6.321  0.6763 -1.8947 -0.6017
18618SOL    HW261817   3.324   1.949   6.408 -0.1967 -1.9500  0.5441
18619SOL     OW61818   3.972   9.288   2.661 -0.0150  0.1743 -0.4126
18619SOL    HW161819   4.001   9.318   2.747 -0.3409  0.1580 -0.2920
18619SOL    HW261820   4.026   9.337   2.599  1.6200 -1.2815 -0.1894
18620SOL     OW61821   2.998   2.157   3.780 -0.3091 -0.0537  0.0584
18620SOL    HW161822   3.051   2.236   3.791  0.2509 -0.3993 -0.0900
18620SOL    HW261823   3.060   2.085   3.793 -1.1458 -0.4957  1.8720
18621SOL     OW61824   0.251   7.167   3.210 -0.1449 -0.0303  0.1038
18621SOL    HW161825   0.271   7.099   3.145  0.6969  1.1449 -0.9139
18621SOL    HW261826   0.206   7.235   3.160 -1.1193  0.1130  1.1396
18622SOL     OW61827   9.122   7.406   6.191  0.6588  0.6160  0.0210
18622SOL    HW161828   9.130   7.405   6.286  1.2372 -0.2155 -0.0306
18622SOL    HW261829   9.201   7.453   6.161  1.0952 -0.1825 -0.0991
18623SOL     OW61830   4.188   6.054   6.727  0.5645  0.5412 -0.1427
18623SOL    HW161831   4.163   6.049   6.635  0.0403  0.4406  0.0007
18623SOL    HW261832   4.105   6.061   6.774  0.3467 -4.3255  0.7025
18624SOL     OW61833   2.258   3.325   0.437  0.0356 -0.1562 -0.3774
18624SOL    HW161834   2.219   3.272   0.507  0.0621  0.8192  0.4015
18624SOL    HW261835   2.184   3.347   0.380 -0.2505  0.2213  0.1282
18625SOL     OW61836   3.295   0.303   8.252 -0.2690  0.0868 -0.0302
18625SOL    HW161837   3.287   0.297   8.157  1.8893 -1.4070 -0.1738
18625SOL    HW261838   3.291   0.212   8.282  0.5168  0.4260  1.1590
18626SOL     OW61839   0.057   7.245   7.787 -0.2147  0.2228  0.4442
18626SOL    HW161840   0.019   7.193   7.717  1.6103 -1.1418  0.4199
18626SOL    HW261841  -0.003   7.232   7.861 -0.8812 -0.2209 -0.1591
18627SOL     OW61842   6.147   3.393   8.495  0.5863 -0.0069  0.0417
18627SOL    HW161843   6.054   3.410   8.512  0.7697 -0.0765  1.2416
18627SOL    HW261844   6.176   3.470   8.446  0.1898  0.6609  0.8139
18628SOL     OW61845   5.896   1.575   8.951  1.0787  0.1878  0.0546
18628SOL    HW161846   5.975   1.525   8.971  0.2181 -1.4092 -0.3677
18628SOL    HW261847   5.892   1.576   8.855 -0.5748 -1.7587  0.0371
18629SOL     OW61848   4.932   7.474   6.707 -0.7375 -0.0269 -0.4437
18629SOL    HW161849   4.950   7.393   6.754 -0.2689 -0.4937 -1.3896
18629SOL    HW261850   4.888   7.531   6.771  1.2305 -0.0538  1.0140
18630SOL     OW61851   0.544   6.102   7.829 -0.1286  0.1353 -0.1715
18630SOL    HW161852   0.625   6.075   7.871 -1.9207 -1.5817  2.4641
18630SOL    HW261853   0.537   6.196   7.849  1.5915  0.5507 -1.2886
18631SOL     OW61854   0.557   7.882   1.951  0.2986  0.1725  0.0364
18631SOL    HW161855   0.503   7.960   1.964 -1.2231 -0.9851  0.9760
18631SOL    HW261856   0.613   7.879   2.029  0.1467  0.1688  0.1459
18632SOL     OW61857   1.672   1.497   2.399 -0.0077  0.2339  0.5411
18632SOL    HW161858   1.670   1.405   2.424  1.6501  0.2600  0.8989
18632SOL    HW261859   1.717   1.498   2.315 -3.1886  0.4134 -1.2885
18633SOL     OW61860   1.004   8.808   8.254 -0.2944  0.1225  0.2148
18633SOL    HW161861   1.028   8.732   8.200  0.6860  0.8496 -0.3998
18633SOL    HW261862   1.075   8.870   8.240 -0.1286  0.4234  2.1848
18634SOL     OW61863   1.957   4.212   7.519  0.6404 -0.1418  0.9019
18634SOL    HW161864   1.979   4.294   7.562  3.0759 -0.0850 -0.3055
18634SOL    HW261865   1.941   4.236   7.427 -1.1713 -0.7156  1.0184
18635SOL     OW61866   8.369   7.814   3.981 -0.3012  0.3140 -0.2530
18635SOL    HW161867   8.437   7.746   3.987  0.8902  1.4063 -1.0045
18635SOL    HW261868   8.373   7.859   4.065  0.1462  0.5913 -0.4196
18636SOL     OW61869   2.271   7.027   2.934  0.3736 -0.0692  0.6462
18636SOL    HW161870   2.256   6.961   3.001 -0.7310 -0.5859 -0.0782
18636SOL    HW261871   2.220   6.998   2.859  0.4950  1.1988  0.0292
18637SOL     OW61872   6.837   8.740   2.960 -0.8537  0.3361 -0.1958
18637SOL    HW161873   6.779   8.760   3.033 -3.0239 -0.5541 -1.5678
18637SOL    HW261874   6.804   8.657   2.925  3.1719 -1.8963  0.7318
18638SOL     OW61875   8.477   1.444   0.070  0.6830  1.2509 -0.4669
18638SOL    HW161876   8.487   1.490   0.154  0.9859  0.7562 -0.2247
18638SOL    HW261877   8.539   1.487   0.012  0.5568  1.5199 -0.4054
18639SOL     OW61878   1.821   8.198   1.258  0.3740 -0.0254 -0.4089
18639SOL    HW161879   1.787   8.125   1.309 -0.2466 -0.1772 -1.0317
18639SOL    HW261880   1.778   8.191   1.173 -1.0816  2.0781  0.0669
18640SOL     OW61881   1.007   5.297   3.539 -0.0647 -0.4768 -0.4429
18640SOL    HW161882   1.057   5.342   3.608 -2.2227  0.9342  0.2879
18640SOL    HW261883   0.946   5.363   3.506 -1.0376 -1.9470 -1.7243
18641SOL     OW61884   8.771   6.372   9.068  0.1209 -0.0632  0.0788
18641SOL    HW161885   8.833   6.321   9.120  0.5332  1.8484  1.6253
18641SOL    HW261886   8.711   6.410   9.133 -0.2157  1.2947 -0.9797
18642SOL     OW61887   1.008   5.382   0.149  0.5803  0.1614  0.0290
18642SOL    HW161888   1.024   5.289   0.132  0.1573 -0.1530  1.2257
18642SOL    HW261889   0.915   5.386   0.171  0.7950  0.7134  0.8887
18643SOL     OW61890   8.886   5.401   7.373  0.2801  0.0243  0.2881
18643SOL    HW161891   8.932   5.408   7.290 -0.6893  0.7133 -0.2074
18643SOL    HW261892   8.864   5.491   7.397 -2.9493 -0.3696 -0.7584
18644SOL     OW61893   3.314   5.796   3.189 -0.2298  0.4048 -0.4290
18644SOL    HW161894   3.261   5.731   3.143 -1.1896 -0.6568  2.0130
18644SOL    HW261895   3.298   5.779   3.282  3.4503  0.8509  0.4413
18645SOL     OW61896   3.907   2.994   9.012  0.3605 -0.2742 -0.1760
18645SOL    HW161897   3.884   2.936   8.939 -1.9643  0.6858 -0.2925
18645SOL    HW261898   3.823   3.015   9.054  1.3783  1.1448  1.2759
18646SOL     OW61899   5.594   2.469   7.153  0.3599  0.8460 -0.2078
18646SOL    HW161900   5.635   2.511   7.229 -2.1036  0.5608  1.4223
18646SOL    HW261901   5.564   2.385   7.186 -0.6006  0.6164 -1.5787
18647SOL     OW61902   0.026   4.034   1.896  0.0368 -0.2431 -0.4564
18647SOL    HW161903  -0.047   4.038   1.958  1.1251 -1.3009  0.9489
18647SOL    HW261904   0.045   4.126   1.877  0.0072  0.1403  1.1982
18648SOL     OW61905   4.957   1.366   0.242  0.2345 -0.1202  0.0787
18648SOL    HW161906   4.968   1.351   0.336  2.4668 -2.8609 -0.5221
18648SOL    HW261907   5.045   1.386   0.210 -0.1254 -1.2307 -1.7248
18649SOL     OW61908   4.317   1.091   8.934  0.2567 -0.2002  0.0824
18649SOL    HW161909   4.366   1.048   9.005  1.9244  2.3224  0.5944
18649SOL    HW261910   4.381   1.101   8.864  0.1554  1.9195  0.2267
18650SOL     OW61911   5.167   4.105   5.909  0.0367  0.4153  0.1079
18650SOL    HW161912   5.154   4.144   5.823 -1.3294  0.6266  0.3953
18650SOL    HW261913   5.086   4.121   5.956  1.0384  0.9898  1.7201
18651SOL     OW61914   4.359   2.633   7.299 -0.5508 -0.7637  0.2766
18651SOL    HW161915   4.403   2.548   7.299 -1.9804 -1.5481  1.5834
18651SOL    HW261916   4.405   2.683   7.231  0.8716 -2.2702  0.0518
18652SOL     OW61917   5.470   0.622   9.069 -0.3693  0.2210  0.3414
18652SOL    HW161918   5.522   0.546   9.042 -0.5794  0.4948 -0.8749
18652SOL    HW261919   5.385   0.586   9.094 -0.5947  0.0790 -0.5928
18653SOL     OW61920   6.423   8.080   4.530 -0.0945 -0.0931  0.0566
18653SOL    HW161921   6.379   8.025   4.465 -0.1296 -0.6213  0.5157
18653SOL    HW261922   6.507   8.036   4.545 -0.5535 -0.6123  1.2000
18654SOL     OW61923   6.825   2.957   3.513 -0.3087 -0.2208  0.0209
18654SOL    HW161924   6.889   3.015   3.471  0.7987 -1.2847  0.1853
18654SOL    HW261925   6.788   3.010   3.584  0.8739  0.2233  0.3419
18655SOL     OW61926   5.260   4.015   2.165 -0.0679 -0.1907  0.0285
18655SOL    HW161927   5.269   3.926   2.131  2.3473  0.1894 -0.4988
18655SOL    HW261928   5.301   4.012   2.251 -1.4877  0.0657  0.7435
18656SOL     OW61929   3.523   6.329   7.696 -0.5783  0.6925 -0.2255
18656SOL    HW161930   3.447   6.278   7.724  0.5165 -1.3427 -0.7438
18656SOL    HW261931   3.542   6.387   7.769 -2.8082  1.5137 -0.2262
18657SOL     OW61932   1.897   8.058   2.720  0.1150 -0.3022 -0.6361
18657SOL    HW161933   1.947   8.036   2.642  1.1103  1.3123 -0.5183
18657SOL    HW261934   1.951   8.123   2.765 -1.4830  0.5092  0.2089
18658SOL     OW61935   8.400   1.275   8.193  0.1848 -0.2844  0.0012
18658SOL    HW161936   8.332   1.332   8.229 -1.2878 -2.0017  0.0868
18658SOL    HW261937   8.462   1.265   8.264  0.3110  0.9320  0.0894
18659SOL     OW61938   4.537   4.913   8.362 -0.1213  0.0555 -0.2391
18659SOL    HW161939   4.458   4.948   8.403  0.2342  2.3397 -1.3105
18659SOL    HW261940   4.514   4.904   8.269  0.5985 -0.1355 -0.4067
18660SOL     OW61941   4.659   5.768   2.538  0.7145  0.2186 -0.7295
18660SOL    HW161942   4.598   5.762   2.465 -0.2369 -2.0578  0.1694
18660SOL    HW261943   4.745   5.752   2.500  0.2231 -1.0303 -1.3451
18661SOL     OW61944   1.259   8.380   4.301  0.0633 -0.2322 -0.4155
18661SOL    HW161945   1.351   8.380   4.275  0.2245  0.2521  0.1408
18661SOL    HW261946   1.259   8.353   4.392 -0.0864  2.0768  0.3515
18662SOL     OW61947   8.941   3.592   1.544  0.1351  0.0616  0.7577
18662SOL    HW161948   9.030   3.607   1.577  0.0411  2.0721  0.2607
18662SOL    HW261949   8.953   3.544   1.462  0.6525 -0.8662  1.3583
18663SOL     OW61950   5.037   0.795   5.685 -0.6360  0.2997  0.2839
18663SOL    HW161951   5.061   0.843   5.765  1.4406 -1.0011  0.5277
18663SOL    HW261952   5.120   0.761   5.652 -1.7041 -0.8662 -1.3541
18664SOL     OW61953   7.667   3.705   6.098 -0.1546 -0.3008 -0.4242
18664SOL    HW161954   7.576   3.728   6.114 -0.1775 -1.6950  1.9902
18664SOL    HW261955   7.664   3.613   6.072  0.6022 -0.6694  0.7193
18665SOL     OW61956   2.235   0.976   8.567  0.4913  0.7223 -0.0160
18665SOL    HW161957   2.327   0.962   8.586  0.1696 -2.7574 -0.3045
18665SOL    HW261958   2.191   0.968   8.652  0.4044  2.1330  0.0875
18666SOL     OW61959   6.264   4.295   3.026  0.5195 -0.8262 -0.2953
18666SOL    HW161960   6.276   4.201   3.041  1.2695 -0.8651 -1.1193
18666SOL    HW261961   6.343   4.323   2.981  0.4774  0.2915  0.2821
18667SOL     OW61962   6.135   3.930   2.245 -0.1909  0.1648  0.0506
18667SOL    HW161963   6.195   3.877   2.299  1.1333  1.6719  0.1370
18667SOL    HW261964   6.087   3.983   2.308  0.1582  0.7229 -0.1486
18668SOL     OW61965   2.481   6.718   1.539 -0.1849  0.3023  0.5637
18668SOL    HW161966   2.576   6.730   1.540 -0.3653  1.9815  0.4436
18668SOL    HW261967   2.458   6.716   1.447 -0.1533 -1.4331  0.5607
18669SOL     OW61968   2.650   2.818   8.949  0.6453 -0.0023  0.7977
18669SOL    HW161969   2.693   2.755   9.007  1.8028  0.8755  0.9234
18669SOL    HW261970   2.702   2.814   8.868  0.3405  0.3450  0.5832
18670SOL     OW61971   1.735   1.795   1.322  0.8016 -0.1648  0.6067
18670SOL    HW161972   1.777   1.709   1.329 -1.1673 -1.0580  2.7152
18670SOL    HW261973   1.698   1.797   1.234  3.9264  0.1234 -0.8336
18671SOL     OW61974   0.737   5.579   7.460  0.1689 -0.4461  0.6185
18671SOL    HW161975   0.766   5.496   7.421  2.3512  0.3630  0.4190
18671SOL    HW261976   0.759   5.645   7.395  0.4766  0.5367  1.6949
18672SOL     OW61977   8.948   4.175   3.031 -0.0212 -0.4396 -0.7966
18672SOL    HW161978   9.038   4.142   3.031  0.4800  0.8573 -2.1008
18672SOL    HW261979   8.952   4.254   3.085 -0.9229 -1.6154  1.1255
18673SOL     OW61980   9.093   4.745   8.093 -0.0595  0.6771  0.6446
18673SOL    HW161981   9.047   4.791   8.023 -1.0672  0.8629  1.4050
18673SOL    HW261982   9.024   4.709   8.148  0.7005 -1.7894  0.0984
18674SOL     OW61983   1.304   3.742   1.094  0.0308  0.2232  0.4294
18674SOL    HW161984   1.318   3.809   1.162 -1.2892  0.9187  0.0397
18674SOL    HW261985   1.242   3.681   1.134  0.6640 -0.3852  0.5065
18675SOL     OW61986   8.703   6.642   4.510  0.0390  0.4610 -0.5933
18675SOL    HW161987   8.780   6.641   4.453  1.9641  1.6071  1.7916
18675SOL    HW261988   8.694   6.733   4.537 -1.0910  0.0379  0.5733
18676SOL     OW61989   0.552   5.545   4.532  0.1132  0.0404  0.2314
18676SOL    HW161990   0.535   5.629   4.575 -0.0202  1.0170 -1.6458
18676SOL    HW261991   0.602   5.495   4.597 -0.6963  1.1555  1.7849
18677SOL     OW61992   2.433   8.079   0.053 -0.6841  0.0645 -0.5765
18677SOL    HW161993   2.338   8.074   0.066 -0.7239  0.2189 -0.8038
18677SOL    HW261994   2.457   7.992   0.023 -0.7583  0.0333 -0.5479
18678SOL     OW61995   2.408   4.840   0.519  0.0409  0.3296  0.1889
18678SOL    HW161996   2.370   4.758   0.486  1.0736 -0.2257  0.3423
18678SOL    HW261997   2.332   4.896   0.535 -0.8737 -1.2911  2.0135
18679SOL     OW61998   7.190   1.166   8.933  0.1559  0.0509  0.3079
18679SOL    HW161999   7.265   1.127   8.978 -0.6267  2.2747  3.9098
18679SOL    HW262000   7.115   1.114   8.962 -0.0257 -0.7822 -1.5162
18680SOL     OW62001   2.873   8.118   9.075  0.0106  0.2253  0.3102
18680SOL    HW162002   2.904   8.198   9.034 -1.1543  0.9427  0.7964
18680SOL    HW262003   2.932   8.105   9.150  1.5051 -0.5396 -0.9284
18681SOL     OW62004   8.299   2.129   9.159  0.7839  0.6396  0.5944
18681SOL    HW162005   8.250   2.054   9.124  2.3977 -0.9802  1.6086
18681SOL    HW262006   8.242   2.204   9.145 -1.2762 -0.9064  0.2666
18682SOL     OW62007   6.802   1.523   1.966 -0.1119 -0.5794  0.6919
18682SOL    HW162008   6.773   1.452   1.910  1.0542  0.2997 -1.1281
18682SOL    HW262009   6.896   1.507   1.980  0.8085  1.7827 -1.8280
18683SOL     OW62010   1.205   4.949   7.109  0.3508 -0.2292 -0.3405
18683SOL    HW162011   1.150   4.882   7.148  0.3777 -0.7587 -1.1846
18683SOL    HW262012   1.208   4.927   7.016 -0.9422  1.8159 -0.9532
18684SOL     OW62013   8.428   6.421   5.373 -0.0263 -0.5823 -0.2603
18684SOL    HW162014   8.516   6.395   5.400  0.4006  1.7485  0.7842
18684SOL    HW262015   8.376   6.419   5.454 -0.9006 -1.6438 -0.8149
18685SOL     OW62016   2.550   1.329   5.196  0.3436 -0.0925 -0.0772
18685SOL    HW162017   2.481   1.264   5.184  0.2515 -0.2649  1.2090
18685SOL    HW262018   2.622   1.280   5.235 -0.3011  0.8161  2.4632
18686SOL     OW62019   0.614   8.353   0.172 -0.5321  0.7305 -0.3848
18686SOL    HW162020   0.562   8.364   0.092  0.5435  3.3442 -0.8417
18686SOL    HW262021   0.550   8.351   0.243 -1.4377 -0.3914 -1.1954
18687SOL     OW62022   5.062   3.116   8.517 -0.4028  0.0025 -0.5228
18687SOL    HW162023   5.060   3.211   8.521  1.1718  0.0329  0.8011
18687SOL    HW262024   5.061   3.095   8.423 -0.1608  1.3378 -0.8329
18688SOL     OW62025   6.593   5.088   5.199 -0.1857  0.1049  0.1277
18688SOL    HW162026   6.505   5.050   5.199 -0.2431  0.1607  1.6244
18688SOL    HW262027   6.580   5.181   5.184 -0.7943  0.7517  3.7251
18689SOL     OW62028   6.360   7.165   0.661 -0.0336  0.7422 -0.1827
18689SOL    HW162029   6.278   7.164   0.611  0.5010 -0.9494 -1.1031
18689SOL    HW262030   6.332   7.164   0.753 -1.1458 -2.7537 -0.4358
18690SOL     OW62031   4.569   6.999   8.564 -0.7403 -0.0906  0.0250
18690SOL    HW162032   4.579   6.965   8.653  1.2640 -0.9400 -0.4653
18690SOL    HW262033   4.491   6.955   8.530  0.0810 -1.9547  0.4456
18691SOL     OW62034   3.995   0.941   3.948 -0.0903  0.4468 -0.0040
18691SOL    HW162035   3.966   0.996   4.020  0.3104 -1.0737  1.3924
18691SOL    HW262036   3.915   0.917   3.901 -0.3767  1.2656  0.0559
18692SOL     OW62037   5.012   4.522   3.342  0.3260 -0.2936  0.4308
18692SOL    HW162038   4.919   4.544   3.344 -0.0063 -1.5229 -0.4201
18692SOL    HW262039   5.051   4.588   3.286  0.0273  0.3777  0.9884
18693SOL     OW62040   4.993   7.250   4.555  0.1013 -0.3382  0.3259
18693SOL    HW162041   5.081   7.249   4.593  0.7989  0.0472 -1.1869
18693SOL    HW262042   4.979   7.160   4.527  0.8991 -0.0144 -1.2591
18694SOL     OW62043   8.942   2.020   0.851 -0.0881 -0.9563  0.0812
18694SOL    HW162044   8.966   2.054   0.937  1.6081 -2.0796  0.1103
18694SOL    HW262045   8.849   1.998   0.859 -1.3402  3.4246  0.0541
18695SOL     OW62046   4.078   0.828   1.167  0.5776 -0.0044 -0.0561
18695SOL    HW162047   4.148   0.830   1.232  0.1268 -2.2151  0.5904
18695SOL    HW262048   4.123   0.841   1.083  1.8164 -1.4988  0.3248
18696SOL     OW62049   1.507   2.382   0.843  0.1267 -0.0347 -0.4488
18696SOL    HW162050   1.439   2.386   0.776 -0.3932  1.0031  0.1195
18696SOL    HW262051   1.476   2.440   0.912  0.9807 -0.5557  0.3968
18697SOL     OW62052   6.241   8.487   1.978  0.4323  0.0486  0.2435
18697SOL    HW162053   6.292   8.556   2.020 -0.0525  0.4120  0.2367
18697SOL    HW262054   6.250   8.504   1.885 -0.2381  0.5021  0.2595
18698SOL     OW62055   7.867   8.046   5.146  0.3219 -0.7471  0.1302
18698SOL    HW162056   7.892   8.053   5.054 -0.1886 -2.4547 -0.1678
18698SOL    HW262057   7.944   8.009   5.189  1.0073  1.1696  0.6592
18699SOL     OW62058   8.195   8.213   7.395  0.5947  0.3329  0.0675
18699SOL    HW162059   8.289   8.194   7.386  0.2080 -2.0893  0.5673
18699SOL    HW262060   8.155   8.129   7.414 -2.0365  0.8306 -2.5311
18700SOL     OW62061   1.808   8.598   0.020  0.0785  0.4779  0.0221
18700SOL    HW162062   1.897   8.586   0.053  1.4150  2.5372 -2.4210
18700SOL    HW262063   1.793   8.522  -0.037 -0.2763 -0.5164  1.4009
18701SOL     OW62064   7.017   8.372   9.036 -0.1358  0.3841 -0.4261
18701SOL    HW162065   7.010   8.422   9.118 -0.1564  0.8154 -0.6871
18701SOL    HW262066   6.931   8.333   9.024 -0.6881  1.7571 -1.1456
18702SOL     OW62067   7.925   1.603   7.475  0.2408  0.1418 -0.2213
18702SOL    HW162068   7.936   1.508   7.468 -2.6026 -0.2779 -0.3872
18702SOL    HW262069   7.841   1.613   7.520  0.4481  2.5955 -0.2763
18703SOL     OW62070   6.254   6.849   5.362  0.2423 -0.1080 -0.3662
18703SOL    HW162071   6.257   6.759   5.394 -0.2862  0.0188  0.0488
18703SOL    HW262072   6.244   6.841   5.267 -0.3545 -0.4950 -0.2775
18704SOL     OW62073   2.601   3.779   2.418 -0.2943  0.2655  0.4276
18704SOL    HW162074   2.621   3.862   2.463  0.2284  1.0876 -1.2216
18704SOL    HW262075   2.602   3.802   2.325 -0.2532 -1.5925 -0.0633
18705SOL     OW62076   0.310   0.158   8.164 -0.3641 -0.0071  0.4636
18705SOL    HW162077   0.359   0.106   8.099 -2.3272 -0.5476 -0.6610
18705SOL    HW262078   0.265   0.224   8.112 -1.6975 -0.2286  1.3059
18706SOL     OW62079   4.861   4.470   5.277  0.5565 -0.2267 -0.2962
18706SOL    HW162080   4.887   4.378   5.268  0.7270 -0.4469  1.9396
18706SOL    HW262081   4.916   4.504   5.346 -1.1779  0.8793  0.6179
18707SOL     OW62082   6.254   2.528   4.337  0.7731  0.1185  0.5908
18707SOL    HW162083   6.221   2.583   4.408 -0.7562 -1.2788  1.0123
18707SOL    HW262084   6.250   2.585   4.260 -0.1136  0.8075  1.1256
18708SOL     OW62085   2.934   8.194   1.304  0.5484  0.0681 -0.2657
18708SOL    HW162086   2.952   8.123   1.242 -0.5792  0.6497 -1.2995
18708SOL    HW262087   2.915   8.270   1.249  1.6188  1.1653  0.8211
18709SOL     OW62088   3.994   4.544   3.051 -0.6966 -0.3482  0.2411
18709SOL    HW162089   4.018   4.607   3.119 -2.2221  2.3421 -1.5024
18709SOL    HW262090   4.064   4.551   2.986 -0.8167 -0.5462  0.0894
18710SOL     OW62091   6.427   7.447   2.995 -0.3649 -0.8970  0.5001
18710SOL    HW162092   6.434   7.442   3.091 -0.2411 -0.3506  0.5246
18710SOL    HW262093   6.340   7.486   2.980 -0.3461 -0.8949  0.3959
18711SOL     OW62094   0.068   4.560   7.593 -0.0453 -0.2589  0.5199
18711SOL    HW162095  -0.009   4.617   7.590 -1.5218 -2.2265 -0.8540
18711SOL    HW262096   0.089   4.553   7.687 -0.9564  1.0071  0.8466
18712SOL     OW62097   6.181   2.012   9.042  0.2815 -0.2216 -0.2357
18712SOL    HW162098   6.234   2.083   9.007  0.8357  0.0142  1.0203
18712SOL    HW262099   6.225   1.932   9.012  0.6547 -0.0285 -0.2012
18713SOL     OW62100   7.996   7.233   1.718 -0.2014  0.2051 -0.0369
18713SOL    HW162101   8.072   7.185   1.750 -0.3691 -0.6021 -0.8146
18713SOL    HW262102   8.016   7.325   1.737  1.2208  0.0623 -0.7317
18714SOL     OW62103   4.152   0.176   6.345 -0.0909  0.2366 -0.6069
18714SOL    HW162104   4.200   0.178   6.428  1.0375 -0.8819 -1.1913
18714SOL    HW262105   4.196   0.108   6.294 -2.2310 -0.7515 -1.2490
18715SOL     OW62106   7.022   1.280   3.487 -0.0842  0.2138  0.2402
18715SOL    HW162107   7.068   1.358   3.518 -0.1067  1.1943 -2.0039
18715SOL    HW262108   6.943   1.276   3.541  0.3639  1.1961  1.0084
18716SOL     OW62109   2.439   2.229   3.792 -0.8880  0.0004  0.2634
18716SOL    HW162110   2.527   2.255   3.818 -0.9362  0.2742  0.1565
18716SOL    HW262111   2.430   2.261   3.702 -1.0354 -0.1750  0.2150
18717SOL     OW62112   6.399   4.153   8.394  0.5146 -0.1796  0.4553
18717SOL    HW162113   6.418   4.242   8.363  0.5204  0.2334  1.5819
18717SOL    HW262114   6.305   4.153   8.412  0.6469 -0.1456  1.1901
18718SOL     OW62115   1.728   2.753   7.396  0.0503 -0.1641 -0.4238
18718SOL    HW162116   1.727   2.659   7.378 -1.0388 -0.3787  0.7237
18718SOL    HW262117   1.638   2.776   7.416 -0.0042  1.4497 -2.1300
18719SOL     OW62118   8.593   3.832   5.059 -0.1719  0.2834  0.6601
18719SOL    HW162119   8.568   3.781   4.981 -0.2329  0.8786  0.2833
18719SOL    HW262120   8.510   3.858   5.098 -0.1599  1.0936  0.1798
18720SOL     OW62121   8.896   1.240   9.184 -0.4734 -0.3852  0.7199
18720SOL    HW162122   8.937   1.229   9.098  0.6729  1.2671  1.0058
18720SOL    HW262123   8.901   1.153   9.224  2.6956 -0.3667  0.6667
18721SOL     OW62124   8.857   1.382   5.918  0.6049 -0.3484  0.3057
18721SOL    HW162125   8.818   1.410   6.000 -0.7797 -1.4774  0.0866
18721SOL    HW262126   8.948   1.364   5.939  0.8244  1.4583  1.0696
18722SOL     OW62127   7.089   5.120   0.937  0.2712 -0.2614  0.1009
18722SOL    HW162128   7.036   5.093   1.011  2.2206 -2.6888  0.7663
18722SOL    HW262129   7.135   5.198   0.967  1.9702 -1.8828  2.0744
18723SOL     OW62130   0.770   3.325   0.015  0.0707 -0.0943 -0.3382
18723SOL    HW162131   0.839   3.347  -0.048 -0.0677 -0.7465 -0.7310
18723SOL    HW262132   0.734   3.409   0.042  1.1792  0.2733  0.0599
18724SOL     OW62133   5.747   3.223   7.960 -0.5916  0.0349 -0.1912
18724SOL    HW162134   5.691   3.280   8.013 -1.9605 -1.1884 -0.2615
18724SOL    HW262135   5.705   3.137   7.964  0.5310 -0.6095 -1.3958
18725SOL     OW62136   3.178   7.375   6.631 -0.1927 -0.0257  0.1264
18725SOL    HW162137   3.150   7.466   6.619  0.5773  0.3109  0.8367
18725SOL    HW262138   3.273   7.378   6.627 -0.1723 -0.9017 -0.4579
18726SOL     OW62139   0.856   3.139   1.699 -0.9290 -0.3240  0.0477
18726SOL    HW162140   0.858   3.224   1.655 -0.7176 -0.5282 -0.3365
18726SOL    HW262141   0.892   3.158   1.787 -0.4893 -0.0951 -0.1750
18727SOL     OW62142   3.216   8.940   8.528 -0.3349 -0.1314  0.3256
18727SOL    HW162143   3.173   8.866   8.571 -1.5376  1.9982  3.0745
18727SOL    HW262144   3.146   8.981   8.477  0.2002 -0.5418 -0.7686
18728SOL     OW62145   5.471   1.224   0.835 -0.3733 -0.6059  0.0386
18728SOL    HW162146   5.529   1.155   0.867 -1.5555 -1.2310  0.8925
18728SOL    HW262147   5.457   1.281   0.911  0.5466  0.5884 -0.6385
18729SOL     OW62148   8.496   7.022   0.191  0.3401 -0.4258 -0.3466
18729SOL    HW162149   8.558   7.063   0.251  0.9701  0.1999 -1.4017
18729SOL    HW262150   8.425   7.086   0.182 -0.5790 -1.2021  0.9768
18730SOL     OW62151   9.122   7.493   1.372  0.2931 -0.2714 -0.6668
18730SOL    HW162152   9.142   7.526   1.459 -1.8785 -0.5290 -0.0098
18730SOL    HW262153   9.174   7.547   1.313  1.2633  0.3742  0.7407
18731SOL     OW62154   5.562   0.284   8.278 -0.4333 -0.0726 -0.2243
18731SOL    HW162155   5.654   0.277   8.302 -0.7713 -0.4497  1.0300
18731SOL    HW262156   5.548   0.377   8.263 -0.3425  0.3054  1.7515
18732SOL     OW62157   8.401   7.975   0.007  0.4232  0.2857 -0.7023
18732SOL    HW162158   8.436   7.901   0.056  0.4620 -1.4186 -3.1061
18732SOL    HW262159   8.349   8.024   0.071  3.2078  0.2471  1.8400
18733SOL     OW62160   7.966   4.698   0.899  0.3027 -0.2528 -0.4262
18733SOL    HW162161   8.019   4.669   0.973 -0.6873  1.5600  1.0933
18733SOL    HW262162   8.015   4.670   0.822  2.5866 -0.1410  0.8829
18734SOL     OW62163   2.622   0.768   1.626  0.3452  0.2701  0.1252
18734SOL    HW162164   2.626   0.672   1.625  1.1793  0.2965  0.1519
18734SOL    HW262165   2.542   0.789   1.577 -1.4292 -0.4851  2.4998
18735SOL     OW62166   8.090   0.888   7.026 -0.1078 -0.3619  0.0156
18735SOL    HW162167   8.069   0.953   6.958  1.3363 -0.9367 -1.0352
18735SOL    HW262168   8.168   0.843   6.993 -1.0337 -2.6293  0.7171
18736SOL     OW62169   6.605   4.323   1.156  0.2450  0.3409  0.1161
18736SOL    HW162170   6.551   4.321   1.235 -1.0219 -0.9818 -0.7473
18736SOL    HW262171   6.688   4.362   1.185 -0.1480 -0.2075  2.1211
18737SOL     OW62172   7.306   6.102   6.191  0.4598 -0.3509  0.2663
18737SOL    HW162173   7.225   6.118   6.142  0.6158 -2.3106 -0.7463
18737SOL    HW262174   7.278   6.097   6.282 -0.2808  0.6151  0.1066
18738SOL     OW62175   4.162   0.108   6.075  0.1953 -0.0623 -0.0485
18738SOL    HW162176   4.199   0.019   6.078  0.8018  0.1487 -0.9740
18738SOL    HW262177   4.090   0.102   6.012 -0.7178 -0.2176  0.9613
18739SOL     OW62178   6.123   2.083   2.242 -0.5306  0.0067  0.0908
18739SOL    HW162179   6.058   2.153   2.245  0.0121  0.5021  0.8392
18739SOL    HW262180   6.174   2.101   2.163 -3.1633 -2.1699 -2.3237
18740SOL     OW62181   7.671   7.717   7.383 -0.1304 -0.0209  0.6620
18740SOL    HW162182   7.701   7.627   7.371 -0.7598  0.0521 -2.4194
18740SOL    HW262183   7.582   7.718   7.347 -0.1784  1.8038  0.7181
18741SOL     OW62184   6.927   7.809   5.000  0.2488 -0.4431 -0.0330
18741SOL    HW162185   6.911   7.843   4.912  0.7565  0.8226  0.3422
18741SOL    HW262186   6.901   7.881   5.058  2.5665 -0.1531  0.7439
18742SOL     OW62187   4.063   6.406   0.625  0.2533  0.1419  0.2275
18742SOL    HW162188   4.089   6.498   0.622 -3.4992  1.4038  0.8533
18742SOL    HW262189   3.968   6.408   0.619 -0.0236 -3.7151  0.8128
18743SOL     OW62190   5.040   4.303   4.730 -0.4095 -0.0421 -0.3473
18743SOL    HW162191   5.130   4.279   4.711 -0.5009  0.7712 -1.9535
18743SOL    HW262192   5.043   4.339   4.819  1.5243  3.1959 -1.5727
18744SOL     OW62193   7.877   5.245   5.464 -0.6500  0.4385  0.5665
18744SOL    HW162194   7.859   5.337   5.482 -2.0360  0.3832 -0.3975
18744SOL    HW262195   7.797   5.212   5.424  0.8567 -0.4209 -1.9575
18745SOL     OW62196   3.729   8.472   2.288  0.4277  0.2157  0.4275
18745SOL    HW162197   3.822   8.465   2.308  0.2653  0.6245  1.3830
18745SOL    HW262198   3.687   8.485   2.374 -0.3971  1.1803 -0.1087
18746SOL     OW62199   8.962   2.073   7.664 -0.0295 -0.5724  0.5054
18746SOL    HW162200   8.885   2.022   7.640 -0.7047 -0.2426  1.8583
18746SOL    HW262201   8.991   2.114   7.582 -3.2579  1.9711  0.4141
18747SOL     OW62202   2.216   7.528   1.941  0.3900 -0.2814  0.0210
18747SOL    HW162203   2.260   7.476   1.874 -0.4273 -2.0015  0.7810
18747SOL    HW262204   2.247   7.492   2.024  0.6303  1.1791  0.6087
18748SOL     OW62205   7.276   6.148   8.440  0.5536  0.0975  0.5586
18748SOL    HW162206   7.370   6.165   8.445  0.7485 -1.3126  2.6705
18748SOL    HW262207   7.241   6.177   8.524 -0.9572  0.6614 -0.2086
18749SOL     OW62208   8.830   5.565   3.414 -0.2891  0.1205 -0.2603
18749SOL    HW162209   8.876   5.643   3.443 -1.7633  0.2973  1.8039
18749SOL    HW262210   8.829   5.507   3.490 -0.8854 -1.1189 -1.1646
18750SOL     OW62211   0.915   8.836   8.870 -0.4558 -0.4057  0.1921
18750SOL    HW162212   0.856   8.762   8.886 -1.1384  0.1207  0.1676
18750SOL    HW262213   0.937   8.868   8.957 -1.3444  0.2626  0.1929
18751SOL     OW62214   9.112   5.156   0.441 -0.0328  0.7027  0.2532
18751SOL    HW162215   9.024   5.164   0.479 -0.2277 -0.2225  0.0136
18751SOL    HW262216   9.152   5.082   0.488 -0.0982 -0.1396 -0.9722
18752SOL     OW62217   8.002   9.199   3.907 -0.2104 -0.0579 -0.0033
18752SOL    HW162218   7.974   9.238   3.824 -0.7752 -0.7392 -0.1417
18752SOL    HW262219   8.029   9.274   3.961 -0.7570  0.4795 -0.4580
18753SOL     OW62220   6.446   9.021   1.398  0.3859 -0.8320  0.3719
18753SOL    HW162221   6.427   8.989   1.486  0.4617 -0.6316  0.4637
18753SOL    HW262222   6.509   8.959   1.362  1.7666  0.0630  1.1408
18754SOL     OW62223   3.231   6.392   5.836 -0.3570 -0.3610  0.4577
18754SOL    HW162224   3.289   6.316   5.834  2.2132  1.4557 -1.7831
18754SOL    HW262225   3.271   6.450   5.901 -0.0992  0.5619 -0.4991
18755SOL     OW62226   6.982   0.976   9.052  0.5700  0.0435 -0.3324
18755SOL    HW162227   6.962   0.969   9.145  0.6090 -1.1933 -0.4086
18755SOL    HW262228   6.897   0.976   9.008  0.5912 -1.3678 -0.4097
18756SOL     OW62229   9.111   1.907   2.803 -0.0425 -0.0209 -0.3412
18756SOL    HW162230   9.132   1.997   2.781  2.0969 -0.2328  0.6594
18756SOL    HW262231   9.140   1.856   2.727  1.8088 -0.1509  0.4047
18757SOL     OW62232   1.740   3.525   8.606 -1.0857  0.3954 -0.3184
18757SOL    HW162233   1.805   3.579   8.562 -0.6457 -1.0346 -1.4832
18757SOL    HW262234   1.790   3.475   8.671 -0.6989 -1.7435 -2.1596
18758SOL     OW62235   0.919   1.323   1.501  1.1125 -0.3674  0.1967
18758SOL    HW162236   0.984   1.385   1.531  1.5828  0.2499 -1.9302
18758SOL    HW262237   0.868   1.371   1.436  0.8207 -1.8969 -0.7498
18759SOL     OW62238   1.879   7.467   2.661  0.2086 -0.2406 -0.0744
18759SOL    HW162239   1.972   7.462   2.640 -0.1188  0.0476 -1.7913
18759SOL    HW262240   1.855   7.377   2.682  1.0622 -0.1535  1.3695
18760SOL     OW62241   4.554   4.351   3.458 -0.0754  0.0195 -0.5069
18760SOL    HW162242   4.574   4.272   3.508  1.4764 -0.6552 -2.1058
18760SOL    HW262243   4.550   4.322   3.367  0.1341  1.7154 -1.0902
18761SOL     OW62244   6.328   3.715   3.106 -0.2607  0.1998 -0.0978
18761SOL    HW162245   6.378   3.747   3.031 -2.2287  1.7239 -0.8604
18761SOL    HW262246   6.330   3.619   3.096  0.4207  0.3216 -1.4767
18762SOL     OW62247   4.716   1.816   1.869 -0.1267 -0.1840 -0.2009
18762SOL    HW162248   4.693   1.853   1.784  0.9444 -0.8184 -0.7908
18762SOL    HW262249   4.632   1.801   1.913 -0.6705  0.4985 -0.9958
18763SOL     OW62250   8.475   6.487   2.763 -0.0470 -0.0282 -0.2980
18763SOL    HW162251   8.405   6.500   2.699 -0.9235 -1.6223  0.2623
18763SOL    HW262252   8.444   6.414   2.818  2.2757 -1.1714 -0.3659
18764SOL     OW62253   2.554   6.880   8.706 -0.1577  0.3191  0.0542
18764SOL    HW162254   2.577   6.928   8.627 -0.0841 -0.6070 -0.4915
18764SOL    HW262255   2.540   6.949   8.772 -1.0023  1.1460 -0.9443
18765SOL     OW62256   6.530   2.700   4.975  0.5149 -0.3013  0.5535
18765SOL    HW162257   6.540   2.745   4.891  2.1522 -2.6371 -0.6353
18765SOL    HW262258   6.616   2.709   5.017  0.3147 -0.8175  1.0915
18766SOL     OW62259   3.058   8.505   4.941  0.5984  0.3102 -0.1486
18766SOL    HW162260   2.963   8.492   4.939  0.7198 -0.5602 -0.6294
18766SOL    HW262261   3.091   8.434   4.996  1.1078 -0.3519 -1.2726
18767SOL     OW62262   3.320   6.185   8.116 -0.3510  0.1750  0.3390
18767SOL    HW162263   3.309   6.129   8.039 -1.1461  0.7027  0.0582
18767SOL    HW262264   3.400   6.234   8.099 -0.2030 -0.1440  0.1166
18768SOL     OW62265   4.145   0.950   6.054 -0.4143  0.1504 -0.2145
18768SOL    HW162266   4.094   0.917   5.981 -3.1427  1.8959  0.7212
18768SOL    HW262267   4.174   1.037   6.026 -1.9028  1.0472  0.8345
18769SOL     OW62268   6.322   2.585   0.281 -0.4149  0.2249  0.6968
18769SOL    HW162269   6.337   2.639   0.359  1.4269 -1.1561  1.3678
18769SOL    HW262270   6.322   2.495   0.313 -0.7281 -0.3294 -0.7703
18770SOL     OW62271   1.306   0.674   7.417 -0.0693  0.0074  0.4411
18770SOL    HW162272   1.286   0.589   7.456 -0.2609  0.1887  0.7415
18770SOL    HW262273   1.369   0.714   7.477  0.8253 -0.3511 -0.2403
18771SOL     OW62274   1.749   2.202   5.560 -0.0296  0.2396  0.7313
18771SOL    HW162275   1.661   2.163   5.559 -0.2776  0.7672 -0.7920
18771SOL    HW262276   1.738   2.287   5.518  1.1112  0.5864  1.0944
18772SOL     OW62277   1.804   8.583   2.524  0.2492  0.3561  0.1415
18772SOL    HW162278   1.749   8.606   2.600 -1.2119 -1.5906 -0.2535
18772SOL    HW262279   1.872   8.527   2.560  1.0774  1.4618  0.3667
18773SOL     OW62280   6.811   1.485   7.427 -0.2834  0.4146  0.1297
18773SOL    HW162281   6.793   1.400   7.387  2.0470 -0.1385  0.1296
18773SOL    HW262282   6.826   1.544   7.353  0.9827  0.1069  0.1153
18774SOL     OW62283   0.837   3.185   6.491  0.2494  0.7042  0.3609
18774SOL    HW162284   0.875   3.178   6.579  0.8958  1.1239  0.1213
18774SOL    HW262285   0.744   3.169   6.504  0.2851  1.1285  1.1811
18775SOL     OW62286   2.397   8.779   8.825  0.2008  0.2334 -0.6091
18775SOL    HW162287   2.317   8.766   8.774 -1.6017 -0.7561  2.1652
18775SOL    HW262288   2.369   8.761   8.915  3.7629 -0.8797  0.4042
18776SOL     OW62289   1.856   6.754   4.936  0.1717  0.9080  0.5774
18776SOL    HW162290   1.857   6.816   5.010  0.3691  2.0741 -0.3718
18776SOL    HW262291   1.804   6.798   4.869 -0.1841 -0.2281  0.0825
18777SOL     OW62292   1.838   6.292   4.685  0.1135  0.2072 -0.6226
18777SOL    HW162293   1.884   6.210   4.667  0.6985  0.5871 -0.9013
18777SOL    HW262294   1.809   6.321   4.598  0.6703  0.7330 -0.6345
18778SOL     OW62295   8.502   3.221   0.633 -0.1875 -0.1491 -0.1021
18778SOL    HW162296   8.584   3.227   0.584  0.6455  0.6485  1.3094
18778SOL    HW262297   8.490   3.309   0.669 -1.0559 -0.5583  0.6493
18779SOL     OW62298   3.170   7.313   0.470 -0.3467  0.5895 -0.0961
18779SOL    HW162299   3.243   7.304   0.531 -0.3507  1.6820  0.0775
18779SOL    HW262300   3.093   7.327   0.525 -0.3299  1.7050 -0.3385
18780SOL     OW62301   6.023   4.707   4.433 -0.1950  0.3331 -0.1622
18780SOL    HW162302   6.118   4.720   4.427 -0.2750  1.2328  0.3476
18780SOL    HW262303   6.005   4.632   4.375  0.5537  1.4080 -1.8536
18781SOL     OW62304   7.185   1.997   1.475 -0.3059  0.4895  0.4051
18781SOL    HW162305   7.262   2.054   1.475  0.8135 -0.8862 -1.4930
18781SOL    HW262306   7.141   2.016   1.392  0.1647 -1.4224 -0.3322
18782SOL     OW62307   3.180   9.235   5.292 -0.5500  0.0883  0.2778
18782SOL    HW162308   3.121   9.194   5.355 -1.3173  0.3546 -0.2581
18782SOL    HW262309   3.268   9.216   5.326 -0.8840 -1.8013  0.1607
18783SOL     OW62310   1.950   2.716   1.651 -0.0632 -0.1871 -0.5021
18783SOL    HW162311   1.920   2.801   1.618 -1.6405 -1.3421 -2.2547
18783SOL    HW262312   1.984   2.671   1.574 -1.8435 -2.1509 -0.2432
18784SOL     OW62313   4.884   6.551   0.719 -0.0706  0.3130  0.4380
18784SOL    HW162314   4.894   6.464   0.757 -0.5855  0.6126  1.2748
18784SOL    HW262315   4.929   6.609   0.780 -0.3989  0.7328  0.2822
18785SOL     OW62316   3.110   0.493   4.905 -0.8925 -0.4543 -0.3558
18785SOL    HW162317   3.191   0.528   4.867  0.2277 -1.8153  0.6627
18785SOL    HW262318   3.075   0.435   4.838  0.4758 -1.9752  0.1833
18786SOL     OW62319   2.060   0.063   6.098 -0.0663  0.0607  0.3254
18786SOL    HW162320   1.979   0.103   6.128  0.7811  3.1286 -1.1341
18786SOL    HW262321   2.112   0.050   6.178 -0.6075  1.3634  0.9080
18787SOL     OW62322   1.112   6.261   4.655 -0.5100 -0.0250 -0.3140
18787SOL    HW162323   1.054   6.319   4.705  0.4975  1.1220 -0.4231
18787SOL    HW262324   1.173   6.226   4.720 -0.3494  0.0232 -0.4365
18788SOL     OW62325   1.266   1.910   8.912  0.1811 -0.5020 -0.1083
18788SOL    HW162326   1.181   1.953   8.902 -0.0810 -1.0097 -0.1019
18788SOL    HW262327   1.272   1.889   9.005 -0.5035 -2.0894 -0.3848
18789SOL     OW62328   7.746   5.320   4.126 -0.0499  0.2301  0.2313
18789SOL    HW162329   7.827   5.368   4.142 -0.0700  1.1874 -2.1406
18789SOL    HW262330   7.776   5.234   4.096  0.0975  0.3965 -0.1106
18790SOL     OW62331   3.699   6.509   4.620 -0.1604  0.5464  0.4245
18790SOL    HW162332   3.609   6.485   4.595 -0.4440  1.3133  0.6987
18790SOL    HW262333   3.747   6.426   4.614 -1.0538 -0.0498  1.0334
18791SOL     OW62334   6.003   8.160   6.957 -0.0631 -0.3424 -0.2878
18791SOL    HW162335   6.071   8.155   6.890 -0.7828 -0.4373 -1.0314
18791SOL    HW262336   5.944   8.229   6.926  0.0533  0.2023  0.6852
18792SOL     OW62337   6.307   6.621   1.536 -0.0466  0.1908 -0.3709
18792SOL    HW162338   6.267   6.697   1.577 -0.7547 -0.3389 -0.0591
18792SOL    HW262339   6.316   6.557   1.607  1.8782  0.4881 -0.3053
18793SOL     OW62340   4.032   2.465   0.162 -0.4004  0.2733  0.3543
18793SOL    HW162341   3.980   2.519   0.221 -0.5731 -1.0103  1.4427
18793SOL    HW262342   4.003   2.375   0.181 -0.6697 -0.1752 -1.9052
18794SOL     OW62343   0.533   2.206   4.246  0.3919 -0.2268 -0.0516
18794SOL    HW162344   0.620   2.244   4.240  0.9747 -1.6198 -1.0898
18794SOL    HW262345   0.507   2.191   4.155 -0.1648 -1.4351  0.2774
18795SOL     OW62346   5.976   2.674   4.871 -0.4470 -0.1954  0.3244
18795SOL    HW162347   5.932   2.590   4.886 -0.6331 -0.0162  0.7907
18795SOL    HW262348   6.055   2.670   4.925 -0.3959 -0.1139  0.2570
18796SOL     OW62349   6.423   1.260   8.052  0.3687 -0.1531  1.3562
18796SOL    HW162350   6.487   1.196   8.022 -0.2269 -0.4772  0.7820
18796SOL    HW262351   6.340   1.213   8.053 -0.3810  1.0287 -0.6489
18797SOL     OW62352   2.374   7.364   0.462  0.5237 -0.1380 -0.6126
18797SOL    HW162353   2.462   7.329   0.471  0.6575  0.5656  1.6397
18797SOL    HW262354   2.385   7.459   0.468 -0.3468 -0.0135 -0.7619
18798SOL     OW62355   2.195   8.005   1.792 -0.5541  0.4664  0.3156
18798SOL    HW162356   2.249   7.970   1.721  1.0656  0.9252  1.2761
18798SOL    HW262357   2.181   8.096   1.769 -0.9278  0.3493  0.0686
18799SOL     OW62358   3.852   5.156   3.928  0.0785 -0.0885 -0.1480
18799SOL    HW162359   3.855   5.251   3.945  1.0277 -0.2883  0.9477
18799SOL    HW262360   3.762   5.140   3.901 -0.1791  1.0860 -0.0758
18800SOL     OW62361   2.852   8.878   2.767 -0.1327  0.4170  0.1637
18800SOL    HW162362   2.869   8.950   2.828 -1.5419 -0.8105  2.1590
18800SOL    HW262363   2.883   8.800   2.814 -0.7835 -0.5214 -0.9225
18801SOL     OW62364   7.838   5.458   1.507 -0.0772  1.0704 -0.8440
18801SOL    HW162365   7.863   5.545   1.538 -0.4829  1.0941 -0.5725
18801SOL    HW262366   7.768   5.474   1.444 -1.5698  0.8536  0.6772
18802SOL     OW62367   5.517   5.298   1.455 -0.1835  0.1683 -0.3435
18802SOL    HW162368   5.547   5.352   1.381 -2.0756 -0.3966 -1.6154
18802SOL    HW262369   5.546   5.210   1.433  0.3049  0.1837  0.2255
18803SOL     OW62370   0.408   8.233   0.819 -0.4824 -0.1602  0.9126
18803SOL    HW162371   0.364   8.148   0.829 -1.2126  0.1384  0.3226
18803SOL    HW262372   0.456   8.225   0.736 -1.9359  0.5790 -0.0367
18804SOL     OW62373   4.405   0.699   0.381  0.0255  0.0886  0.1676
18804SOL    HW162374   4.310   0.697   0.381  0.0161 -1.1627 -1.1155
18804SOL    HW262375   4.431   0.622   0.329  1.6925  1.7523 -1.6392
18805SOL     OW62376   2.794   6.219   2.823  0.1533 -0.3243  0.4220
18805SOL    HW162377   2.855   6.268   2.878  0.1211 -0.7949  0.8853
18805SOL    HW262378   2.738   6.286   2.784  0.7551  0.0855  0.2500
18806SOL     OW62379   2.220   3.248   3.104 -0.1971 -0.0248  0.3287
18806SOL    HW162380   2.170   3.326   3.079 -1.0608 -1.1357 -1.6150
18806SOL    HW262381   2.178   3.218   3.185 -0.4445  0.9654  0.5900
18807SOL     OW62382   5.007   2.293   7.748  0.1341 -0.1090 -0.2457
18807SOL    HW162383   5.093   2.306   7.707 -0.7409  1.0264 -1.8507
18807SOL    HW262384   5.023   2.230   7.818  2.2329 -0.0750 -0.6249
18808SOL     OW62385   4.212   2.342   1.208 -0.4539  0.0099  0.0917
18808SOL    HW162386   4.229   2.391   1.128  0.1842 -0.6783 -0.1992
18808SOL    HW262387   4.281   2.370   1.269 -0.4851 -0.0418  0.1509
18809SOL     OW62388   3.624   1.282   5.247 -0.3466  0.2785 -0.5636
18809SOL    HW162389   3.654   1.359   5.295  0.1800  1.6343 -2.9101
18809SOL    HW262390   3.530   1.294   5.237 -0.2257  0.7806 -1.1524
18810SOL     OW62391   1.824   5.114   1.408 -0.4659 -0.2141 -0.1075
18810SOL    HW162392   1.835   5.047   1.341  0.7524 -1.9010  1.6661
18810SOL    HW262393   1.733   5.143   1.400 -1.3267 -2.7936 -0.3289
18811SOL     OW62394   8.953   2.548   2.840 -0.0568  0.4922  0.3274
18811SOL    HW162395   8.984   2.605   2.771 -0.5098 -0.1493 -0.4179
18811SOL    HW262396   9.024   2.547   2.904  0.2698  1.2638 -0.0196
18812SOL     OW62397   4.134   5.319   2.349  1.1835  0.1413  0.0117
18812SOL    HW162398   4.106   5.405   2.380 -0.7581 -0.7158  0.8278
18812SOL    HW262399   4.225   5.310   2.377  2.0464  2.6180 -1.6863
18813SOL     OW62400   7.779   2.958   5.142 -0.1186 -0.1416 -0.0217
18813SOL    HW162401   7.766   3.048   5.172 -0.2999  0.1469 -0.9441
18813SOL    HW262402   7.740   2.955   5.055 -1.8845 -1.6376  0.7578
18814SOL     OW62403   1.001   2.077   7.290  0.1992  0.1630  0.1980
18814SOL    HW162404   0.907   2.090   7.276 -0.0774  0.7013  2.2187
18814SOL    HW262405   1.008   2.051   7.382  1.9305 -1.1912 -0.2683
18815SOL     OW62406   2.394   8.585   0.490 -0.1585 -0.1865 -0.3947
18815SOL    HW162407   2.422   8.656   0.547 -0.8142  0.4244 -0.8141
18815SOL    HW262408   2.471   8.530   0.480  0.5334  0.7818 -0.5386
18816SOL     OW62409   4.099   4.561   0.587 -0.0854  0.4900  0.4531
18816SOL    HW162410   4.181   4.589   0.545  0.9048 -2.0582  0.4851
18816SOL    HW262411   4.057   4.504   0.521 -0.8943  0.2824  1.1340
18817SOL     OW62412   0.545   8.595   5.939 -0.2613  0.0814 -0.3958
18817SOL    HW162413   0.623   8.649   5.948 -1.3120  1.3685  1.7807
18817SOL    HW262414   0.478   8.656   5.906 -1.5459  0.3393  2.3952
18818SOL     OW62415   5.492   9.267   3.684  1.1452  0.4485  0.5430
18818SOL    HW162416   5.432   9.210   3.637  0.4156  1.8714 -0.3080
18818SOL    HW262417   5.535   9.209   3.747  1.0632 -1.1966 -0.8472
18819SOL     OW62418   0.982   3.143   9.027  0.3441 -0.2907 -0.1648
18819SOL    HW162419   1.017   3.063   9.066 -0.5660  0.5987  2.6939
18819SOL    HW262420   0.977   3.205   9.100 -1.2126  1.6261 -1.7917
18820SOL     OW62421   4.954   3.081   7.877  0.1084 -0.2158  0.3361
18820SOL    HW162422   4.861   3.058   7.869  0.3223 -1.1381  0.4260
18820SOL    HW262423   4.967   3.098   7.970  0.1128 -0.4544  0.3789
18821SOL     OW62424   4.081   2.976   1.518  0.1283  0.0801  0.0823
18821SOL    HW162425   4.082   2.967   1.423  1.5327 -1.2128  0.1908
18821SOL    HW262426   4.063   2.888   1.550 -0.4176  0.5228  1.0366
18822SOL     OW62427   2.994   1.298   1.222 -0.0771  0.3094 -0.1934
18822SOL    HW162428   3.038   1.234   1.277 -1.1722  0.0526  0.4225
18822SOL    HW262429   3.065   1.349   1.183  0.7774 -0.5999  0.1183
18823SOL     OW62430   9.087   6.935   7.924  0.6119  0.3627 -0.1141
18823SOL    HW162431   9.127   6.976   7.847 -0.3153 -1.0557 -1.4374
18823SOL    HW262432   9.020   6.997   7.952  0.5839  0.6608 -0.8148
18824SOL     OW62433   0.720   8.502   0.910  0.2085 -0.2009  0.3695
18824SOL    HW162434   0.809   8.469   0.898  1.0703  2.4039 -1.0848
18824SOL    HW262435   0.729   8.576   0.969 -1.0776 -0.2169  0.6047
18825SOL     OW62436   2.430   5.818   1.977 -0.8562  0.2528  0.2091
18825SOL    HW162437   2.448   5.812   1.883 -0.9275  3.6657 -0.1171
18825SOL    HW262438   2.337   5.797   1.984 -1.0539  0.7938 -0.6170
18826SOL     OW62439   5.535   5.840   6.091 -0.1048 -0.4648  0.3076
18826SOL    HW162440   5.593   5.800   6.155 -0.6679 -2.1281 -0.1719
18826SOL    HW262441   5.447   5.829   6.129 -0.1859  2.4746  1.2812
18827SOL     OW62442   1.947   3.558   2.257 -0.0520  0.0784  0.4141
18827SOL    HW162443   1.932   3.507   2.178  0.1489 -0.1615  0.5308
18827SOL    HW262444   2.041   3.550   2.274 -0.1399 -0.1171  0.8423
18828SOL     OW62445   1.863   2.971   3.498 -0.0805 -0.4810  0.6492
18828SOL    HW162446   1.857   3.046   3.556  1.1011 -0.3937  0.6943
18828SOL    HW262447   1.780   2.925   3.509 -1.2234  1.2880 -0.0551
18829SOL     OW62448   3.795   2.065   0.701  0.0852 -0.5758 -0.0051
18829SOL    HW162449   3.887   2.091   0.706  0.4215 -1.7995  0.4824
18829SOL    HW262450   3.779   2.018   0.783 -1.4653  1.0587  0.7158
18830SOL     OW62451   3.209   5.801   5.930 -0.5572  0.0339  0.2400
18830SOL    HW162452   3.253   5.821   6.012  1.1308  2.3451 -1.1186
18830SOL    HW262453   3.160   5.720   5.948  0.5788 -0.1121  3.1643
18831SOL     OW62454   8.824   6.459   6.255 -0.0277  0.0350 -0.2343
18831SOL    HW162455   8.842   6.368   6.231 -1.0855 -0.1003 -0.5739
18831SOL    HW262456   8.845   6.509   6.177  1.4797  0.2106  0.2619
18832SOL     OW62457   5.917   0.035   1.261 -0.1795  0.0088 -0.0916
18832SOL    HW162458   5.993  -0.020   1.247  0.7456  1.4802 -1.1825
18832SOL    HW262459   5.844  -0.014   1.224  0.6667 -0.3702 -1.2946
18833SOL     OW62460   0.156   0.427   8.898 -0.6500  0.0469  0.1807
18833SOL    HW162461   0.203   0.481   8.835 -2.2104  0.6532 -0.5168
18833SOL    HW262462   0.079   0.396   8.851  0.1211 -2.7944  0.5614
18834SOL     OW62463   8.309   1.451   7.985 -0.2566  0.9268  0.1515
18834SOL    HW162464   8.363   1.525   7.958  0.5182 -0.4378 -2.4028
18834SOL    HW262465   8.373   1.383   8.007 -0.7788 -0.5388 -2.3975
18835SOL     OW62466   3.549   2.099   2.286 -0.4518  0.6114 -0.3862
18835SOL    HW162467   3.614   2.093   2.216  1.4660  1.3626  1.2361
18835SOL    HW262468   3.494   2.174   2.263 -0.2053  0.5026 -1.3450
18836SOL     OW62469   3.909   3.831   7.514  0.2342  0.4250 -0.2573
18836SOL    HW162470   3.936   3.921   7.498  1.1606  0.5003  1.4940
18836SOL    HW262471   3.966   3.779   7.457  0.5399  0.8732 -0.3666
18837SOL     OW62472   6.504   0.732   8.570  0.1854  0.0886 -0.0480
18837SOL    HW162473   6.435   0.787   8.607  2.0934  1.7601  1.2543
18837SOL    HW262474   6.508   0.759   8.478 -0.4687  0.4158  0.0115
18838SOL     OW62475   7.266   8.171   3.055  0.1846  0.0009  0.5021
18838SOL    HW162476   7.261   8.234   2.983 -0.7588  0.0287  0.5686
18838SOL    HW262477   7.358   8.145   3.058  0.0598 -0.8746 -1.4689
18839SOL     OW62478   8.629   6.835   5.106 -0.2138  1.0355  0.1374
18839SOL    HW162479   8.650   6.871   5.020 -0.4017  2.0080  0.4845
18839SOL    HW262480   8.587   6.751   5.087  1.7125  0.2007 -0.6376
18840SOL     OW62481   7.313   3.395   8.993 -0.2307 -0.1476 -0.3961
18840SOL    HW162482   7.252   3.393   8.919 -0.2028 -0.0198 -0.4225
18840SOL    HW262483   7.356   3.480   8.986 -3.0704  1.6928  2.0459
18841SOL     OW62484   5.279   0.728   5.545  0.1486  0.2284  0.0894
18841SOL    HW162485   5.312   0.804   5.592  3.7474 -1.2640  0.2965
18841SOL    HW262486   5.318   0.735   5.458 -0.7142 -0.5920 -0.3804
18842SOL     OW62487   0.288   1.939   7.633 -0.0096  0.1645  0.0696
18842SOL    HW162488   0.321   1.931   7.543  0.5346  1.5864  0.1318
18842SOL    HW262489   0.194   1.956   7.622 -0.1564 -0.7428 -0.1847
18843SOL     OW62490   2.384   1.938   2.897 -0.1884  0.0921 -0.5278
18843SOL    HW162491   2.379   1.864   2.837 -0.4796 -0.4421  0.1327
18843SOL    HW262492   2.467   1.981   2.878  0.4395 -0.9875 -0.2661
18844SOL     OW62493   3.991   5.887   7.276  0.0270 -0.6154 -0.3463
18844SOL    HW162494   3.976   5.963   7.332  0.1084 -0.6956 -0.2147
18844SOL    HW262495   4.042   5.921   7.202  0.3108 -0.5980 -0.1436
18845SOL     OW62496   0.219   0.093   0.115  0.4076  0.0420 -0.2622
18845SOL    HW162497   0.195   0.035   0.042  0.6488 -2.2011  1.3534
18845SOL    HW262498   0.296   0.140   0.084  0.6454 -1.0379 -1.3845
18846SOL     OW62499   8.846   3.865   2.258  0.4045 -0.0474 -0.1080
18846SOL    HW162500   8.890   3.859   2.173  1.4293  1.5221  0.2736
18846SOL    HW262501   8.772   3.804   2.251  1.0894 -0.7555 -1.7245
18847SOL     OW62502   1.500   3.952   0.986 -0.1909  0.2603  0.3768
18847SOL    HW162503   1.551   3.926   1.062 -0.4332  0.4288  0.5988
18847SOL    HW262504   1.417   3.906   0.996 -0.3953  0.6402  0.4567
18848SOL     OW62505   4.184   2.595   7.647 -0.1294 -0.0341  0.5164
18848SOL    HW162506   4.230   2.676   7.626 -2.9131  2.1638  2.1924
18848SOL    HW262507   4.246   2.545   7.701  1.6965  0.8498 -0.6679
18849SOL     OW62508   8.370   2.525   6.647  0.4608  0.2790 -0.2262
18849SOL    HW162509   8.355   2.458   6.713  1.2479  0.9596  0.6692
18849SOL    HW262510   8.370   2.607   6.695  0.4164  0.8529 -1.1699
18850SOL     OW62511   1.324   9.200   1.880 -0.5210  0.0073  0.3303
18850SOL    HW162512   1.270   9.122   1.867 -0.6583 -0.2078  1.9845
18850SOL    HW262513   1.413   9.167   1.889 -0.7572 -0.1609  2.5434
18851SOL     OW62514   1.302   2.670   5.416 -0.0261 -0.2794 -0.5511
18851SOL    HW162515   1.270   2.743   5.363  0.0235  0.6338  0.6141
18851SOL    HW262516   1.383   2.642   5.372  0.0391  0.4802 -0.9363
18852SOL     OW62517   4.786   0.053   7.214 -0.1080 -0.2166  0.5486
18852SOL    HW162518   4.746   0.125   7.263 -1.1458  0.1126 -0.7476
18852SOL    HW262519   4.822  -0.004   7.282  0.5260  1.3855  1.6070
18853SOL     OW62520   4.643   5.141   5.077  0.1355 -0.1643  0.2412
18853SOL    HW162521   4.697   5.213   5.046 -0.1948  0.0011  0.0473
18853SOL    HW262522   4.555   5.177   5.082  0.1520 -0.2476  1.1886
18854SOL     OW62523   5.341   0.207   5.219  0.4380  0.1322 -0.3028
18854SOL    HW162524   5.247   0.191   5.214 -0.0596  2.8448 -1.1992
18854SOL    HW262525   5.379   0.121   5.240 -2.2008 -1.0239  0.1293
18855SOL     OW62526   2.028   8.101   1.987  0.1015  0.3912  0.2045
18855SOL    HW162527   1.981   8.022   2.012  0.4859  0.2541  0.5116
18855SOL    HW262528   2.087   8.072   1.916 -1.1124  0.8143 -1.0200
18856SOL     OW62529   7.821   2.093   8.547  0.8825 -0.2150 -0.0615
18856SOL    HW162530   7.778   2.014   8.580  1.5013 -0.5093  0.0587
18856SOL    HW262531   7.797   2.096   8.454 -0.4445  0.3368  0.2798
18857SOL     OW62532   7.452   5.058   1.756 -0.4626 -0.6026  0.3810
18857SOL    HW162533   7.388   5.025   1.693  0.9147 -1.0820 -0.8218
18857SOL    HW262534   7.443   5.000   1.832  0.1302 -2.1450 -0.6873
18858SOL     OW62535   1.668   4.184   5.138  0.2536 -0.1989  0.0529
18858SOL    HW162536   1.740   4.161   5.079  0.0380 -1.3473  0.2147
18858SOL    HW262537   1.653   4.277   5.122  1.3525 -0.0863 -0.4400
18859SOL     OW62538   9.318   1.017   4.218  0.0015 -0.5860 -0.1189
18859SOL    HW162539   9.318   1.025   4.123  1.5407  0.2301 -0.0902
18859SOL    HW262540   9.343   1.105   4.250 -2.0869 -0.3772  1.1201
18860SOL     OW62541   3.338   1.832   5.565  0.4196  0.2056  0.1145
18860SOL    HW162542   3.425   1.836   5.526 -0.5744  0.4983 -2.2256
18860SOL    HW262543   3.289   1.900   5.520 -1.2828 -0.5534  0.7498
18861SOL     OW62544   4.137   1.408   6.833  0.7026  0.4490 -0.1335
18861SOL    HW162545   4.179   1.415   6.747 -0.6937 -1.2191 -1.0169
18861SOL    HW262546   4.045   1.394   6.813  0.5079 -1.1143  1.5870
18862SOL     OW62547   7.690   4.619   5.109 -0.1220 -0.1386  0.0217
18862SOL    HW162548   7.633   4.677   5.060  0.2888  0.2525  0.0042
18862SOL    HW262549   7.753   4.677   5.152  0.3727 -0.5750 -0.1030
18863SOL     OW62550   3.007   8.113   5.684 -0.1810 -0.5638  0.4717
18863SOL    HW162551   3.081   8.132   5.741  0.2789 -1.9418  0.3636
18863SOL    HW262552   2.931   8.110   5.743 -0.0730  0.2867  0.6628
18864SOL     OW62553   5.102   1.696   4.924 -0.1233  0.2534 -0.1557
18864SOL    HW162554   5.137   1.608   4.917  0.8929  0.7217 -1.3232
18864SOL    HW262555   5.039   1.702   4.851  1.1669  1.0607 -1.2451
18865SOL     OW62556   6.900   5.004   7.948  0.0639  0.6037  0.3520
18865SOL    HW162557   6.848   4.934   7.908  1.0722  0.3342 -0.5520
18865SOL    HW262558   6.855   5.025   8.030 -1.2844  0.1802 -0.2541
18866SOL     OW62559   1.992   5.271   0.925  0.3296 -0.0767 -0.0879
18866SOL    HW162560   2.012   5.288   0.832  0.0954  0.9862  0.0418
18866SOL    HW262561   1.932   5.196   0.923  3.7612 -3.0972 -0.5167
18867SOL     OW62562   5.162   2.914   5.089 -0.1762  0.1157 -0.2203
18867SOL    HW162563   5.236   2.855   5.103 -1.3852 -0.7904  3.4956
18867SOL    HW262564   5.196   3.001   5.110  0.1698 -0.1068  0.1501
18868SOL     OW62565   2.287   8.764   3.120  0.2454 -0.2457 -0.0849
18868SOL    HW162566   2.366   8.806   3.154 -1.2609  0.6858  2.6137
18868SOL    HW262567   2.298   8.671   3.138  1.3690 -0.3753 -1.2748
18869SOL     OW62568   5.440   7.424   7.890  0.0636 -0.0712 -0.5355
18869SOL    HW162569   5.491   7.498   7.923 -1.3784  1.2424 -1.1149
18869SOL    HW262570   5.464   7.351   7.946  0.7950  1.0774  0.7015
18870SOL     OW62571   7.088   2.441   2.053 -0.5748 -0.2009 -0.8405
18870SOL    HW162572   7.012   2.496   2.034 -0.7391 -0.8867 -2.2999
18870SOL    HW262573   7.109   2.399   1.970  1.2620 -0.2173 -0.4259
18871SOL     OW62574   5.376   3.539   8.562  0.1594  0.1031 -0.2735
18871SOL    HW162575   5.414   3.461   8.603  0.0499  0.9087  1.4392
18871SOL    HW262576   5.446   3.604   8.562 -0.4004  0.7223  0.4031
18872SOL     OW62577   1.875   9.103   0.699 -0.3081  0.6564  0.2266
18872SOL    HW162578   1.840   9.165   0.635 -0.8065 -0.0714 -0.2272
18872SOL    HW262579   1.904   9.157   0.772  0.0785  1.4870 -0.5258
18873SOL     OW62580   9.168   4.767   7.499  0.8441 -0.2153 -0.6170
18873SOL    HW162581   9.185   4.784   7.592  1.0810 -0.6022 -0.5849
18873SOL    HW262582   9.152   4.672   7.495  0.6245 -0.1646 -0.9396
18874SOL     OW62583   5.076   8.613   9.171 -0.0850  0.0405  0.0905
18874SOL    HW162584   5.034   8.546   9.225  0.4624  1.0612  1.8438
18874SOL    HW262585   5.169   8.593   9.174 -0.1384 -0.6816 -1.6492
18875SOL     OW62586   9.222   4.222   6.371  0.1610 -0.2855  0.0066
18875SOL    HW162587   9.185   4.260   6.291  0.6509 -0.7047 -0.4297
18875SOL    HW262588   9.214   4.127   6.358  1.1872 -0.3799 -0.0109
18876SOL     OW62589   0.901   5.968   3.402 -0.3699  0.7850  0.1648
18876SOL    HW162590   0.980   5.973   3.455  0.3285 -2.6815 -0.3251
18876SOL    HW262591   0.931   5.984   3.312 -0.7877  2.1773  0.2372
18877SOL     OW62592   8.058   3.148   2.114  0.3942  0.1000 -0.3586
18877SOL    HW162593   8.024   3.140   2.025  1.2322  0.9540 -0.7824
18877SOL    HW262594   8.134   3.089   2.116  0.4984  0.2339 -0.2909
18878SOL     OW62595   8.945   8.072   3.110 -0.4254  0.5004  0.1734
18878SOL    HW162596   9.030   8.108   3.135  0.6095 -0.8502 -1.1888
18878SOL    HW262597   8.917   8.126   3.036 -0.2967  0.3603  0.0216
18879SOL     OW62598   2.644   8.698   3.022  0.4096 -0.0394 -0.6284
18879SOL    HW162599   2.688   8.739   3.096 -3.1684  0.6262  1.3211
18879SOL    HW262600   2.673   8.607   3.025  0.6883  0.0759  1.3183
18880SOL     OW62601   3.141   7.906   8.754 -0.2260 -0.3629 -0.5374
18880SOL    HW162602   3.200   7.878   8.824 -1.8698 -1.6035  0.4198
18880SOL    HW262603   3.146   8.002   8.757  1.3489 -0.4192 -0.1765
18881SOL     OW62604   6.755   3.604   8.584 -0.0015 -0.1437  0.7477
18881SOL    HW162605   6.718   3.548   8.652 -0.6471 -0.5899  0.0557
18881SOL    HW262606   6.709   3.687   8.593 -1.4610 -0.7736 -0.2745
18882SOL     OW62607   2.176   4.829   2.301  0.2397 -0.1108 -0.4028
18882SOL    HW162608   2.153   4.743   2.263 -0.9548 -0.1287  0.3095
18882SOL    HW262609   2.125   4.891   2.249  0.6085  0.1187 -0.4939
18883SOL     OW62610   3.809   0.041   8.847 -0.3588  0.2312  0.0918
18883SOL    HW162611   3.878   0.105   8.864  1.1467 -1.0978 -0.7103
18883SOL    HW262612   3.808   0.030   8.752  0.3355 -1.8324  0.2629
18884SOL     OW62613   0.874   0.963   9.202  0.3853 -0.4063 -0.2744
18884SOL    HW162614   0.939   0.985   9.269  0.0906  1.0927 -0.4262
18884SOL    HW262615   0.805   0.918   9.250  0.6527 -0.2809  0.2373
18885SOL     OW62616   1.341   3.440   6.887 -0.5327 -0.0791  0.0572
18885SOL    HW162617   1.315   3.444   6.979  0.3101 -0.2279  0.3171
18885SOL    HW262618   1.396   3.362   6.881  2.4126  1.8045  0.2688
18886SOL     OW62619   1.176   2.194   9.304 -0.1681  0.3377  0.3213
18886SOL    HW162620   1.084   2.208   9.328 -0.3555 -0.5047  0.1610
18886SOL    HW262621   1.226   2.242   9.369 -0.7318  1.7520 -0.2485
18887SOL     OW62622   5.675   0.115   8.588 -0.1215 -0.4703  0.5119
18887SOL    HW162623   5.759   0.160   8.590 -0.3444  0.1110 -1.2095
18887SOL    HW262624   5.660   0.088   8.678  2.3838 -1.5373  0.6882
18888SOL     OW62625   6.168   5.421   8.540  0.2740 -0.4292 -0.3235
18888SOL    HW162626   6.192   5.338   8.499 -0.8750  0.5094 -3.1525
18888SOL    HW262627   6.152   5.480   8.467 -1.4537  1.5916  1.5385
18889SOL     OW62628   8.223   0.781   6.771  0.1793 -0.3843 -0.2805
18889SOL    HW162629   8.175   0.759   6.691  0.8884  0.1593 -0.8664
18889SOL    HW262630   8.292   0.715   6.777 -0.5658 -1.1153  0.5163
18890SOL     OW62631   7.242   0.969   1.096 -0.1133  0.4180 -0.0756
18890SOL    HW162632   7.202   0.941   1.179  2.0148 -0.6175  0.6602
18890SOL    HW262633   7.323   1.014   1.122  1.4795 -1.4253 -1.6048
18891SOL     OW62634   5.595   3.104   5.809  0.1413 -0.1027 -0.7253
18891SOL    HW162635   5.648   3.107   5.729 -0.1454  0.2911 -0.9069
18891SOL    HW262636   5.653   3.134   5.878 -0.0591  1.0908 -1.0535
18892SOL     OW62637   2.434   8.492   2.868  0.5037  0.5089  0.1154
18892SOL    HW162638   2.349   8.523   2.900  0.4289 -0.4086  0.8842
18892SOL    HW262639   2.442   8.528   2.780 -1.6444 -1.0515 -0.8263
18893SOL     OW62640   7.053   9.012   4.838 -0.2148 -0.3205  0.0989
18893SOL    HW162641   6.975   9.067   4.839  0.5356  0.7727  0.2332
18893SOL    HW262642   7.048   8.962   4.920 -0.1550  0.6484  0.7064
18894SOL     OW62643   1.819   7.044   6.900 -0.0837 -0.5387 -0.1571
18894SOL    HW162644   1.907   7.043   6.938 -0.1513 -0.6232  0.0011
18894SOL    HW262645   1.813   6.962   6.851  0.0781 -0.3325 -0.5268
18895SOL     OW62646   1.095   7.968   1.356  0.2957 -0.2790 -0.4213
18895SOL    HW162647   1.067   7.884   1.319 -0.7180  0.5435 -1.6213
18895SOL    HW262648   1.021   8.026   1.340  0.3012  0.4433  1.8984
18896SOL     OW62649   6.419   7.276   6.068 -0.7139 -0.5083  0.4629
18896SOL    HW162650   6.369   7.248   5.991 -1.2663  1.0173  0.2441
18896SOL    HW262651   6.453   7.194   6.105 -0.4151 -1.2798 -1.4016
18897SOL     OW62652   3.324   8.664   8.817  0.3624  0.2270 -0.4587
18897SOL    HW162653   3.311   8.617   8.899  0.2348  0.7890 -0.1532
18897SOL    HW262654   3.412   8.639   8.789  0.4746  0.1729 -0.0651
18898SOL     OW62655   7.268   7.914   7.210 -0.3883  1.1533  0.2926
18898SOL    HW162656   7.182   7.932   7.173 -1.0194 -1.2709  0.4070
18898SOL    HW262657   7.257   7.926   7.304 -0.1540  2.2737  0.2019
18899SOL     OW62658   5.335   3.199   2.752 -0.1424  0.3863 -0.0849
18899SOL    HW162659   5.426   3.226   2.759  1.4229 -3.9365 -0.8656
18899SOL    HW262660   5.301   3.206   2.841  0.8358  2.1606  0.1905
18900SOL     OW62661   5.407   0.285   9.301 -0.1953 -0.3086 -0.0093
18900SOL    HW162662   5.373   0.327   9.222 -1.0455 -0.8614  0.0446
18900SOL    HW262663   5.474   0.225   9.269  2.4959  2.4133  0.0691
18901SOL     OW62664   0.585   6.348   2.523  0.1056 -0.1231  0.1403
18901SOL    HW162665   0.622   6.344   2.611 -0.9094 -0.6293  0.5497
18901SOL    HW262666   0.660   6.330   2.465  1.2839  2.3996  0.7416
18902SOL     OW62667   5.249   4.440   6.424  1.0420 -0.0925 -0.5990
18902SOL    HW162668   5.168   4.485   6.401  0.7122 -0.7581 -0.7390
18902SOL    HW262669   5.311   4.511   6.442 -0.6282  0.6145  3.5722
18903SOL     OW62670   8.077   0.553   4.413 -0.9629 -0.2303  0.3820
18903SOL    HW162671   8.020   0.560   4.489 -0.2832  1.3490  0.7852
18903SOL    HW262672   8.045   0.620   4.352 -0.3756 -0.2349  0.0511
18904SOL     OW62673   7.600   4.815   4.015 -0.6171  0.1966  0.1403
18904SOL    HW162674   7.663   4.743   4.026 -1.2500 -0.2391  1.0141
18904SOL    HW262675   7.587   4.849   4.103 -1.3657  0.4895 -0.0764
18905SOL     OW62676   5.562   4.868   4.390 -0.4732  0.2131  0.2829
18905SOL    HW162677   5.595   4.792   4.342 -0.9733  0.8521 -1.1209
18905SOL    HW262678   5.524   4.925   4.323 -2.2280  0.6285  1.5388
18906SOL     OW62679   3.198   2.939   8.104  0.7976  0.3376  0.0656
18906SOL    HW162680   3.217   2.846   8.117  1.0398  0.3150 -0.4406
18906SOL    HW262681   3.195   2.975   8.193  1.4492 -0.0052  0.2374
18907SOL     OW62682   3.340   7.052   2.993  0.7958 -0.0218 -0.5622
18907SOL    HW162683   3.277   7.069   3.063 -0.8569 -0.8371 -1.7733
18907SOL    HW262684   3.421   7.032   3.039 -0.2888 -0.8111  1.1362
18908SOL     OW62685   8.604   6.598   3.000 -0.2942 -0.0022  0.1265
18908SOL    HW162686   8.699   6.609   2.987 -0.2793  0.5012  0.6150
18908SOL    HW262687   8.570   6.577   2.913  0.1684  0.5515 -0.1971
18909SOL     OW62688   9.174   2.340   5.898  0.0257  0.1578 -0.2306
18909SOL    HW162689   9.156   2.365   5.989 -0.5912 -1.5033  0.1389
18909SOL    HW262690   9.253   2.286   5.903 -0.2510 -0.2871 -0.6250
18910SOL     OW62691   8.733   5.851   8.340  0.3808 -0.1735  0.1937
18910SOL    HW162692   8.802   5.857   8.274  1.7800  1.4978  1.6959
18910SOL    HW262693   8.655   5.888   8.297  0.4587 -1.7186 -1.3920
18911SOL     OW62694   7.867   6.682   7.878 -0.0566  0.0128 -0.0934
18911SOL    HW162695   7.807   6.687   7.953 -1.2303  3.2560 -1.0988
18911SOL    HW262696   7.951   6.658   7.916 -1.4387 -2.5815  1.6491
18912SOL     OW62697   2.709   3.514   6.721 -0.2179 -0.1150  0.8804
18912SOL    HW162698   2.804   3.521   6.712 -0.4076  0.5524 -1.3366
18912SOL    HW262699   2.676   3.536   6.634 -2.3346 -2.0473  1.1160
18913SOL     OW62700   8.897   3.721   4.356 -0.5035  0.3156 -0.1695
18913SOL    HW162701   8.832   3.651   4.359  0.2741 -0.3924  1.8129
18913SOL    HW262702   8.969   3.685   4.305 -0.1150 -0.3565  0.8258
18914SOL     OW62703   5.662   7.690   3.515 -0.1245  0.1205 -0.2451
18914SOL    HW162704   5.632   7.629   3.583 -4.0558  0.5964 -1.2635
18914SOL    HW262705   5.618   7.772   3.537  0.7652  1.0715 -1.8581
18915SOL     OW62706   3.725   0.965   0.366 -0.2225 -0.0631 -0.0858
18915SOL    HW162707   3.774   0.950   0.285 -0.6563  0.0985 -0.3838
18915SOL    HW262708   3.786   1.013   0.422 -0.3708  1.0302 -0.8303
18916SOL     OW62709   7.697   6.521   8.815 -0.1772  0.4022 -0.2968
18916SOL    HW162710   7.620   6.577   8.804 -0.4308  0.3609  1.0846
18916SOL    HW262711   7.680   6.471   8.894  0.8533 -0.3133 -0.5023
18917SOL     OW62712   1.664   1.821   4.316 -0.6258 -0.2996 -0.0828
18917SOL    HW162713   1.675   1.869   4.234 -2.3423 -0.8531 -0.6728
18917SOL    HW262714   1.611   1.879   4.371  0.8566  0.2492  0.8488
18918SOL     OW62715   0.342   9.262   7.682 -0.3842  0.1366  0.3311
18918SOL    HW162716   0.271   9.305   7.730 -0.0700  0.2012  0.7495
18918SOL    HW262717   0.313   9.171   7.672 -0.1304 -0.0611  1.3084
18919SOL     OW62718   8.941   5.006   7.480  0.3902 -0.0273 -0.0131
18919SOL    HW162719   8.990   4.957   7.545 -1.3896 -0.5874  0.9839
18919SOL    HW262720   8.881   4.942   7.441 -0.3093  0.8364 -0.4073
18920SOL     OW62721   6.466   6.466   8.394  0.4940 -0.0424 -0.1570
18920SOL    HW162722   6.547   6.499   8.431  2.0185 -2.7849 -0.7959
18920SOL    HW262723   6.480   6.465   8.300  0.2033 -1.6014 -0.2154
18921SOL     OW62724   9.008   2.587   5.112  0.0051 -0.4857 -0.1445
18921SOL    HW162725   8.965   2.518   5.162 -0.1417 -0.8510 -0.7594
18921SOL    HW262726   8.994   2.666   5.164 -0.3895 -0.8053  0.2484
18922SOL     OW62727   3.288   9.039   3.313  0.1630 -0.2857 -0.0570
18922SOL    HW162728   3.309   8.953   3.277  1.0579 -0.1059  0.0182
18922SOL    HW262729   3.365   9.064   3.363 -0.2203  0.4193  0.2023
18923SOL     OW62730   5.809   3.895   9.349 -0.0569 -0.2497 -0.5602
18923SOL    HW162731   5.714   3.889   9.354 -0.0170 -0.1560  0.7261
18923SOL    HW262732   5.831   3.975   9.397  0.6926 -0.5876 -0.3128
18924SOL     OW62733   2.908   0.178   5.508 -0.2151 -0.0325 -0.1953
18924SOL    HW162734   3.000   0.198   5.487 -0.2641 -1.2223 -1.7492
18924SOL    HW262735   2.862   0.192   5.425 -1.4886  0.7161  0.6176
18925SOL     OW62736   3.756   3.889   1.703  0.2583  0.1063  0.0437
18925SOL    HW162737   3.825   3.949   1.679 -0.0966  0.6516  0.3652
18925SOL    HW262738   3.707   3.934   1.772 -0.6766 -0.0841 -0.4726
18926SOL     OW62739   1.002   4.493   0.325 -0.4755  0.0150  0.5490
18926SOL    HW162740   1.017   4.526   0.413 -1.8614 -0.0429  0.8253
18926SOL    HW262741   0.914   4.523   0.302 -0.3126 -0.3487 -0.6398
18927SOL     OW62742   3.482   1.793   8.008  0.2497 -0.4901 -0.3776
18927SOL    HW162743   3.395   1.787   8.048  0.6503 -0.2201  0.5702
18927SOL    HW262744   3.535   1.839   8.074  1.5860 -2.2807 -0.1373
18928SOL     OW62745   4.661   3.625   2.750 -0.4279  0.2502  0.0378
18928SOL    HW162746   4.655   3.633   2.655 -0.5965  0.1438  0.0388
18928SOL    HW262747   4.692   3.710   2.779  0.3142  0.0591 -0.1742
18929SOL     OW62748   3.156   1.331   8.404  0.3103 -0.0712  0.4510
18929SOL    HW162749   3.170   1.374   8.489 -0.5722  2.6360 -0.6544
18929SOL    HW262750   3.097   1.258   8.424  0.2077  0.4270  2.1898
18930SOL     OW62751   8.038   6.477   5.837 -0.3768 -0.1090  0.1651
18930SOL    HW162752   8.121   6.460   5.791 -0.6179 -1.1146  0.0807
18930SOL    HW262753   7.973   6.483   5.766 -0.1817  2.1185  0.1148
18931SOL     OW62754   4.818   0.612   5.181 -0.4606 -0.7504  0.0986
18931SOL    HW162755   4.794   0.675   5.114 -1.5314 -1.1441  0.0993
18931SOL    HW262756   4.860   0.665   5.250 -0.8018 -0.1324 -0.1614
18932SOL     OW62757   9.241   6.801   2.431  0.0633  0.0876  0.4980
18932SOL    HW162758   9.223   6.790   2.524  2.8260  0.5023  1.1980
18932SOL    HW262759   9.225   6.715   2.392  2.5566 -1.2678  2.1573
18933SOL     OW62760   2.085   5.255   8.053  0.0466  0.0322  0.3207
18933SOL    HW162761   2.104   5.301   7.971  1.5143 -0.7329  0.2026
18933SOL    HW262762   2.027   5.183   8.027 -1.1967  0.9879  0.3109
18934SOL     OW62763   2.009   9.139   5.981  0.2412  0.6475 -0.2515
18934SOL    HW162764   1.975   9.228   5.973  1.3545  1.0848 -0.3683
18934SOL    HW262765   2.049   9.136   6.068  0.0640  0.2123 -0.1848
18935SOL     OW62766   6.438   2.845   4.492 -0.2076  0.4619  0.1898
18935SOL    HW162767   6.351   2.806   4.496  0.0506 -0.0639  1.1914
18935SOL    HW262768   6.467   2.832   4.402 -0.4766 -0.9195  0.2883
18936SOL     OW62769   8.202   3.182   6.053 -0.7202  0.6184  0.0428
18936SOL    HW162770   8.283   3.166   6.005 -2.3281 -0.3901 -2.5594
18936SOL    HW262771   8.220   3.261   6.104  1.7727  0.6099 -0.6663
18937SOL     OW62772   1.642   9.040   1.326 -0.5253  0.1645  0.3519
18937SOL    HW162773   1.722   9.082   1.293 -1.3741  1.1826 -0.4784
18937SOL    HW262774   1.575   9.064   1.263 -1.5868 -0.3319  1.2653
18938SOL     OW62775   8.611   3.468   9.154  0.2909  0.3550  0.1106
18938SOL    HW162776   8.620   3.554   9.196 -0.2888 -0.2522  1.5550
18938SOL    HW262777   8.541   3.480   9.090 -1.1086  0.5130  1.6226
18939SOL     OW62778   8.345   7.066   4.348 -0.0093 -0.2592 -0.0149
18939SOL    HW162779   8.356   6.972   4.331 -1.2841 -1.0776  3.0137
18939SOL    HW262780   8.422   7.106   4.308  1.3885 -2.7777 -0.0718
18940SOL     OW62781   9.068   6.591   0.392 -0.2302 -0.1848  0.2903
18940SOL    HW162782   9.151   6.620   0.353  0.4836 -1.7620  0.5688
18940SOL    HW262783   9.074   6.617   0.484 -0.8293  1.2698 -0.0527
18941SOL     OW62784   6.837   4.730   4.169 -0.0525 -0.7121  0.1129
18941SOL    HW162785   6.755   4.738   4.121  0.4767 -0.9188 -0.8465
18941SOL    HW262786   6.811   4.700   4.256 -0.9056 -1.7983 -0.4959
18942SOL     OW62787   7.504   0.740   6.417  0.6811  0.2010  0.1272
18942SOL    HW162788   7.526   0.702   6.503 -0.5886  0.9565  0.8178
18942SOL    HW262789   7.457   0.671   6.372  0.0091  0.3061  0.6516
18943SOL     OW62790   4.529   6.565   5.229  0.3276 -0.2898 -0.1335
18943SOL    HW162791   4.622   6.544   5.219  0.3783  0.1590 -0.6915
18943SOL    HW262792   4.483   6.486   5.201  0.5313 -0.1715 -0.8286
18944SOL     OW62793   0.913   2.484   6.597 -0.0368 -0.0592  0.2915
18944SOL    HW162794   0.997   2.527   6.611 -0.2208  0.0423  1.1560
18944SOL    HW262795   0.936   2.397   6.564  0.4411 -0.2317  1.0421
18945SOL     OW62796   5.742   5.593   5.343 -0.1262 -0.4256 -0.3882
18945SOL    HW162797   5.656   5.554   5.358 -0.6604  0.3849 -1.2496
18945SOL    HW262798   5.750   5.662   5.409 -0.0392 -0.6504 -0.1632
18946SOL     OW62799   3.174   5.226   2.435 -0.1886  0.0943  0.2364
18946SOL    HW162800   3.097   5.273   2.468  1.0420  1.5676  1.1817
18946SOL    HW262801   3.148   5.194   2.348 -2.2855 -0.6400  1.0863
18947SOL     OW62802   8.772   2.252   4.096  0.3901  0.4558 -0.0274
18947SOL    HW162803   8.770   2.282   4.186 -1.2769 -0.6130  0.3239
18947SOL    HW262804   8.860   2.276   4.065  1.2693  0.1793  2.0845
18948SOL     OW62805   8.601   3.495   2.055  0.4153 -0.4057  0.1264
18948SOL    HW162806   8.509   3.473   2.068  0.2137 -0.2189 -0.9241
18948SOL    HW262807   8.627   3.445   1.978  1.5283 -1.3846  1.0972
18949SOL     OW62808   8.045   5.209   7.796 -0.4566 -0.4201 -0.2192
18949SOL    HW162809   7.957   5.185   7.766 -0.4265  0.8532 -1.4197
18949SOL    HW262810   8.032   5.287   7.849 -0.0702 -0.3602 -0.2104
18950SOL     OW62811   7.452   4.385   1.080 -0.1539 -0.1941 -0.1764
18950SOL    HW162812   7.460   4.358   1.171  0.4966  0.7371  0.0582
18950SOL    HW262813   7.362   4.361   1.056 -0.1141 -1.0667  0.4852
18951SOL     OW62814   6.120   6.803   7.254  0.1396 -0.2177 -0.0614
18951SOL    HW162815   6.062   6.761   7.191 -1.7285  0.5801  1.0128
18951SOL    HW262816   6.110   6.751   7.334  0.8159  0.0094  0.1772
18952SOL     OW62817   1.100   1.533   8.527  0.0803 -0.1955 -0.2577
18952SOL    HW162818   1.192   1.510   8.545  0.3320  0.7637 -0.2302
18952SOL    HW262819   1.093   1.623   8.557 -1.3761 -0.8325  1.4396
18953SOL     OW62820   6.260   0.993   0.295  0.3054 -0.0109  0.3275
18953SOL    HW162821   6.238   0.908   0.334 -0.6985  0.6119  1.1686
18953SOL    HW262822   6.188   1.011   0.234  0.1448  0.5508  0.6762
18954SOL     OW62823   5.811   4.567   9.324  0.0309  0.2607  0.5198
18954SOL    HW162824   5.874   4.578   9.395 -1.0179  0.2998  1.4603
18954SOL    HW262825   5.824   4.645   9.270  0.7366  0.3051  0.7374
18955SOL     OW62826   1.436   6.307   6.948 -0.2506  0.1671 -0.0859
18955SOL    HW162827   1.474   6.221   6.966  1.1889  0.8725  0.4767
18955SOL    HW262828   1.508   6.368   6.964 -1.4186  1.5347  0.1775
18956SOL     OW62829   2.786   4.279   2.627 -0.1068  0.2572 -0.3246
18956SOL    HW162830   2.791   4.246   2.716 -2.5378  0.1994 -0.1355
18956SOL    HW262831   2.844   4.356   2.627 -0.6150  0.6980  1.5222
18957SOL     OW62832   6.206   7.639   3.175  0.1956 -0.7106  0.4391
18957SOL    HW162833   6.139   7.588   3.220  0.7439 -2.1414 -0.3071
18957SOL    HW262834   6.288   7.596   3.198  0.5370 -1.1227 -1.4359
18958SOL     OW62835   5.970   7.465   7.072  1.0651  0.1517 -0.2252
18958SOL    HW162836   5.958   7.530   7.003  0.7342 -0.0719 -0.3822
18958SOL    HW262837   5.907   7.490   7.140  1.4158  0.3923  0.0080
18959SOL     OW62838   2.248   1.877   1.730  0.1082  0.3094 -0.0986
18959SOL    HW162839   2.185   1.845   1.794 -1.3026  0.6925 -1.2467
18959SOL    HW262840   2.325   1.901   1.782  0.4689 -2.8762  1.0420
18960SOL     OW62841   3.403   8.017   2.822  0.9298 -0.2690  0.1648
18960SOL    HW162842   3.323   7.987   2.863  0.4735  0.3463 -0.2428
18960SOL    HW262843   3.473   7.968   2.865  0.3447 -0.7415  0.5893
18961SOL     OW62844   0.438   1.811   9.248 -0.3701  0.0808 -0.1750
18961SOL    HW162845   0.424   1.717   9.239  0.0241  0.0731 -0.6926
18961SOL    HW262846   0.444   1.825   9.343  0.4943 -0.5524 -0.1223
18962SOL     OW62847   8.136   5.662   2.947  0.8006 -0.2052  0.0025
18962SOL    HW162848   8.062   5.712   2.911 -1.0654 -2.4352  0.5519
18962SOL    HW262849   8.175   5.722   3.011  0.0115  1.3447 -0.8844
18963SOL     OW62850   4.134   6.811   2.147 -0.4394 -0.2688 -0.0142
18963SOL    HW162851   4.107   6.814   2.055 -1.0043 -2.1960  0.0598
18963SOL    HW262852   4.226   6.783   2.144 -0.5549 -0.6466  0.0323
18964SOL     OW62853   2.585   4.012   2.974 -0.6964 -0.6078 -0.2685
18964SOL    HW162854   2.625   4.094   3.004 -1.8113  0.5599 -1.8456
18964SOL    HW262855   2.492   4.022   2.995 -1.1532 -0.6316 -2.1588
18965SOL     OW62856   0.099   5.301   0.667  0.0135 -0.0722 -0.2689
18965SOL    HW162857   0.141   5.387   0.667  0.1121 -0.0458 -2.5864
18965SOL    HW262858   0.132   5.258   0.588 -1.7155 -1.3779 -0.3443
18966SOL     OW62859   0.891   8.740   1.892 -0.0177  0.2220 -0.2539
18966SOL    HW162860   0.822   8.692   1.847  0.0020  1.3708 -1.5737
18966SOL    HW262861   0.969   8.727   1.838  0.2539  0.7695 -0.0029
18967SOL     OW62862   3.446   7.694   6.891 -0.1258  0.1939 -0.1321
18967SOL    HW162863   3.508   7.621   6.885  0.9482  1.1772 -3.6357
18967SOL    HW262864   3.493   7.762   6.939 -0.2096 -0.5495  1.0317
18968SOL     OW62865   0.173   4.245   2.733 -0.9537  0.2604  0.2561
18968SOL    HW162866   0.085   4.279   2.747 -0.7365  0.3109  1.6249
18968SOL    HW262867   0.225   4.282   2.805 -0.6847 -2.8954  1.8336
18969SOL     OW62868   5.638   3.592   2.671 -0.5884 -0.0479 -0.0887
18969SOL    HW162869   5.564   3.648   2.696  0.2967  1.4980 -0.7706
18969SOL    HW262870   5.620   3.569   2.580 -0.4072  0.0630 -0.1541
18970SOL     OW62871   7.636   6.410   1.740 -0.8585  0.3607  0.9859
18970SOL    HW162872   7.556   6.365   1.713 -0.3260 -0.8342  1.3421
18970SOL    HW262873   7.667   6.361   1.816 -0.1880  1.2676  1.3164
18971SOL     OW62874   8.660   7.263   2.052 -0.4455 -0.1279 -0.0162
18971SOL    HW162875   8.654   7.356   2.072  0.1382  0.1301 -0.9927
18971SOL    HW262876   8.570   7.232   2.056 -0.8068  0.7493 -0.9077
18972SOL     OW62877   0.798   6.247   9.038 -0.0719 -0.5009 -0.3680
18972SOL    HW162878   0.775   6.163   8.998  1.7530 -1.2113 -0.0358
18972SOL    HW262879   0.753   6.247   9.122 -0.5632 -0.8835 -0.6297
18973SOL     OW62880   8.025   7.028   7.540  0.5210  0.3004  0.2943
18973SOL    HW162881   8.031   7.011   7.634 -1.6667 -3.1558 -0.0134
18973SOL    HW262882   8.068   6.953   7.499  0.5806  1.2516 -1.5066
18974SOL     OW62883   2.509   2.366   3.560 -0.2107 -0.0546  0.9962
18974SOL    HW162884   2.483   2.397   3.473  0.1732 -0.7726  0.6175
18974SOL    HW262885   2.567   2.434   3.593  3.0997 -1.6335 -1.0704
18975SOL     OW62886   8.035   4.384   1.155 -0.4194  0.3469 -0.2184
18975SOL    HW162887   8.086   4.329   1.215  1.7194  1.0104 -1.3206
18975SOL    HW262888   8.028   4.332   1.075 -2.3989 -0.1271  0.2086
18976SOL     OW62889   6.253   2.141   5.477  0.0506 -0.3659  0.6627
18976SOL    HW162890   6.300   2.062   5.503 -0.6045 -0.4865  1.5427
18976SOL    HW262891   6.321   2.209   5.470  0.5149 -0.8273  0.6482
18977SOL     OW62892   2.404   0.378   5.945 -0.0283 -0.3611 -0.1344
18977SOL    HW162893   2.329   0.323   5.922  0.7687 -3.0143  2.8619
18977SOL    HW262894   2.378   0.466   5.920 -1.4949 -1.9099 -5.0760
18978SOL     OW62895   9.084   4.161   7.735  0.1792 -0.1967 -0.0459
18978SOL    HW162896   9.176   4.136   7.749  0.5895  0.6217 -1.1497
18978SOL    HW262897   9.077   4.248   7.774  0.0027 -0.0514 -0.4028
18979SOL     OW62898   4.992   2.576   2.220  0.0387 -0.8750 -0.0472
18979SOL    HW162899   4.934   2.648   2.244 -1.1443 -2.4258  2.0895
18979SOL    HW262900   4.952   2.538   2.142  0.4337  0.4478 -0.9296
18980SOL     OW62901   7.971   0.936   2.277 -0.1277 -0.6955  0.8659
18980SOL    HW162902   7.926   0.852   2.287  0.7812 -1.3950 -0.5054
18980SOL    HW262903   7.947   0.965   2.189  0.1648  0.1266  1.0494
18981SOL     OW62904   9.187   4.049   3.098  0.3675 -0.1996 -0.1024
18981SOL    HW162905   9.244   4.124   3.083  0.4124  0.1084  1.4269
18981SOL    HW262906   9.246   3.976   3.115  0.3157 -0.2840 -0.2830
18982SOL     OW62907   5.721   1.360   1.865  0.0758 -0.6591  0.0783
18982SOL    HW162908   5.709   1.338   1.958  0.8594  1.3349  0.6954
18982SOL    HW262909   5.806   1.322   1.842  0.4668 -0.0775  0.5412
18983SOL     OW62910   0.056   0.771   3.943  0.0207 -0.3779  0.0327
18983SOL    HW162911   0.131   0.805   3.994  0.9412 -1.6234 -0.4541
18983SOL    HW262912  -0.004   0.845   3.938  1.0069  0.5184  0.8427
18984SOL     OW62913   4.028   6.390   6.866  0.0093 -0.4117 -0.4934
18984SOL    HW162914   4.122   6.386   6.853  0.2013 -1.6884  0.9551
18984SOL    HW262915   4.015   6.458   6.931 -0.1240  0.0631 -1.0086
18985SOL     OW62916   6.859   1.619   2.391  0.4863  0.0999 -0.0398
18985SOL    HW162917   6.796   1.578   2.331  2.5125 -0.8109 -1.6640
18985SOL    HW262918   6.902   1.545   2.434  2.4264  0.5426 -1.1249
18986SOL     OW62919   7.870   8.833   1.092  0.5263  0.5607  0.1166
18986SOL    HW162920   7.926   8.793   1.159 -0.8760 -1.7821  0.0232
18986SOL    HW262921   7.919   8.822   1.010  0.0697 -1.3989  0.0460
18987SOL     OW62922   0.146   5.956   2.757 -0.0007 -0.3905 -0.3050
18987SOL    HW162923   0.085   6.018   2.797 -1.0908 -0.5366 -1.6563
18987SOL    HW262924   0.213   6.011   2.717  0.4768 -0.2053  0.7252
18988SOL     OW62925   1.368   4.886   5.355  0.1200 -0.3184 -0.0866
18988SOL    HW162926   1.366   4.821   5.285 -0.5284  1.2047 -1.5659
18988SOL    HW262927   1.277   4.912   5.367  0.4783  1.3512 -0.6175
18989SOL     OW62928   4.114   3.881   2.050  0.6326 -0.3612  0.4518
18989SOL    HW162929   4.194   3.845   2.012 -0.5029 -1.4441 -1.0250
18989SOL    HW262930   4.063   3.805   2.076 -1.0163  0.1471 -1.0321
18990SOL     OW62931   0.329   8.438   3.896  0.2994 -0.0292  0.3143
18990SOL    HW162932   0.321   8.442   3.991  2.4884 -0.1342  0.5540
18990SOL    HW262933   0.283   8.357   3.872 -0.1869 -0.0575  1.2964
18991SOL     OW62934   8.599   4.620   6.602 -0.2527 -0.0796  0.4371
18991SOL    HW162935   8.583   4.619   6.508  0.3323  0.3876  0.3190
18991SOL    HW262936   8.530   4.676   6.637  1.3416  2.4317 -0.1378
18992SOL     OW62937   0.599   1.171   4.458 -0.0614 -0.2844  0.4538
18992SOL    HW162938   0.537   1.235   4.491 -0.2803  0.3336 -1.0547
18992SOL    HW262939   0.555   1.132   4.382  0.8078 -0.8800  0.2390
18993SOL     OW62940   3.030   2.662   7.690 -0.2123 -0.8632  0.3052
18993SOL    HW162941   3.063   2.664   7.780 -1.6156  3.3136  0.9382
18993SOL    HW262942   3.106   2.687   7.637  0.1389 -1.4143  0.5398
18994SOL     OW62943   3.502   5.731   1.378  0.2035 -0.3879 -0.0328
18994SOL    HW162944   3.574   5.679   1.413 -1.0350 -1.2486  1.3376
18994SOL    HW262945   3.518   5.819   1.414  0.6838 -0.5077  0.0649
18995SOL     OW62946   6.692   2.797   6.368  0.1160 -0.3934  0.0927
18995SOL    HW162947   6.678   2.807   6.462 -0.3173 -0.3494  0.0270
18995SOL    HW262948   6.782   2.767   6.359  0.9162  1.7555  0.4140
18996SOL     OW62949   6.447   6.098   0.020 -0.0385  0.6451  0.7784
18996SOL    HW162950   6.440   6.054  -0.065  1.5512 -0.3818  1.1306
18996SOL    HW262951   6.357   6.101   0.053 -0.3363 -1.6774  0.3654
18997SOL     OW62952   3.478   8.111   5.627 -0.3093  0.4362  0.1872
18997SOL    HW162953   3.429   8.059   5.691  0.6695 -2.5161 -1.2893
18997SOL    HW262954   3.487   8.197   5.668 -0.8013 -0.9310  3.4410
18998SOL     OW62955   1.240   1.468   7.900 -0.6434  0.1947  0.2993
18998SOL    HW162956   1.233   1.515   7.983 -0.5155  1.7604 -0.5328
18998SOL    HW262957   1.266   1.535   7.837 -2.2323 -0.6101 -1.2997
18999SOL     OW62958   7.459   6.621   0.897 -0.0750 -0.1592 -0.6039
18999SOL    HW162959   7.454   6.531   0.929 -0.2980  0.2473  0.5962
18999SOL    HW262960   7.531   6.621   0.835  0.4818 -0.9877  0.0123
19000SOL     OW62961   6.471   0.508   1.519 -0.5662 -0.2812  0.1017
19000SOL    HW162962   6.561   0.532   1.543 -0.2377 -2.3032  1.0866
19000SOL    HW262963   6.460   0.540   1.429  0.8103  0.7620  0.2729
19001SOL     OW62964   2.897   8.091   6.833  0.0067 -0.1461  0.4416
19001SOL    HW162965   2.833   8.025   6.860 -0.6291  0.3697  0.2203
19001SOL    HW262966   2.944   8.112   6.913  0.7880 -1.4727  0.3505
19002SOL     OW62967   8.746   1.277   1.897  0.4980  0.8208 -0.4102
19002SOL    HW162968   8.782   1.208   1.843  0.6214 -2.0407  2.9596
19002SOL    HW262969   8.822   1.314   1.943  0.0617  0.6699  0.4515
19003SOL     OW62970   6.148   3.625   7.017  0.6328 -0.6455  0.1799
19003SOL    HW162971   6.074   3.684   7.001 -0.2335 -1.6619  0.3173
19003SOL    HW262972   6.210   3.645   6.946  0.2513  0.2390  0.0773
19004SOL     OW62973   7.792   8.859   5.106  0.4772  0.1737 -0.0108
19004SOL    HW162974   7.741   8.790   5.064 -0.5360  1.1471 -0.4353
19004SOL    HW262975   7.726   8.917   5.144  1.2998  1.0038  0.1841
19005SOL     OW62976   8.112   0.553   1.206 -0.5721 -0.3240  0.3407
19005SOL    HW162977   8.122   0.577   1.299  0.2466 -1.0286  0.4443
19005SOL    HW262978   8.200   0.559   1.170 -0.5336 -2.0221  0.0915
19006SOL     OW62979   1.085   7.840   0.238  0.0203  0.3033 -0.3591
19006SOL    HW162980   1.067   7.813   0.148 -0.7879  0.8011 -0.3571
19006SOL    HW262981   1.174   7.874   0.236 -0.4792  1.6129 -1.2754
19007SOL     OW62982   2.992   1.731   6.031  0.4155  0.6200  0.7490
19007SOL    HW162983   3.063   1.667   6.029 -0.4571 -0.3777 -0.4689
19007SOL    HW262984   2.940   1.706   6.108  0.4863  0.3034  0.6979
19008SOL     OW62985   8.358   2.888   6.148  0.3527  0.1168  0.0562
19008SOL    HW162986   8.342   2.974   6.187 -0.6628 -0.0213 -0.0252
19008SOL    HW262987   8.287   2.833   6.181  1.7965 -1.1047  1.2993
19009SOL     OW62988   0.116   8.711   2.536  0.0225 -0.2195  0.3394
19009SOL    HW162989   0.026   8.741   2.547  0.0738  0.1174 -0.1257
19009SOL    HW262990   0.163   8.751   2.610  0.7350  3.5471 -1.8689
19010SOL     OW62991   8.367   1.030   4.680 -0.3212  0.4858  0.1371
19010SOL    HW162992   8.358   1.109   4.626 -3.1737  0.9223  1.0870
19010SOL    HW262993   8.317   0.963   4.634 -0.8393  0.2228  1.0579
19011SOL     OW62994   8.910   2.708   4.008 -0.0377 -0.1404 -0.1449
19011SOL    HW162995   8.969   2.695   4.082  0.2672 -0.1701 -0.3923
19011SOL    HW262996   8.842   2.641   4.020 -0.1229  0.0107  0.2377
19012SOL     OW62997   4.383   7.339   8.637  0.4512  0.2550  0.1515
19012SOL    HW162998   4.463   7.316   8.591  0.4746 -0.4535  0.5347
19012SOL    HW262999   4.337   7.256   8.650 -1.0459  0.7819 -1.3266
19013SOL     OW63000   4.340   5.714   8.771 -0.0660  0.3799  0.1832
19013SOL    HW163001   4.429   5.714   8.807 -1.2097  0.0281  3.2391
19013SOL    HW263002   4.332   5.630   8.726  0.1909 -0.9882  2.5806
19014SOL     OW63003   0.284   3.675   2.073  0.0807  0.5958  0.5611
19014SOL    HW163004   0.303   3.582   2.062  0.0727  0.6574  0.0154
19014SOL    HW263005   0.205   3.676   2.127  1.0846  0.3311  2.0968
19015SOL     OW63006   6.930   3.635   5.400  0.4475  0.1024  0.0838
19015SOL    HW163007   6.882   3.556   5.425  0.5864  0.1610  0.5547
19015SOL    HW263008   6.863   3.703   5.398  0.1188 -0.2276 -1.4354
19016SOL     OW63009   3.003   5.567   3.868 -0.3496 -0.8765  0.0350
19016SOL    HW163010   2.944   5.496   3.842  0.0987 -1.6355  1.0343
19016SOL    HW263011   2.946   5.642   3.883 -1.2330 -1.8680  2.0334
19017SOL     OW63012   3.462   3.446   2.867  0.3354  0.2804  0.0279
19017SOL    HW163013   3.375   3.486   2.869 -0.0921 -0.5958 -0.2096
19017SOL    HW263014   3.501   3.478   2.785  0.4306  1.0530  0.3703
19018SOL     OW63015   5.568   7.910   7.981 -0.7308 -0.1478 -0.7536
19018SOL    HW163016   5.544   7.999   8.006 -0.9501 -0.5292  0.4638
19018SOL    HW263017   5.488   7.872   7.946 -0.9553 -0.2467 -0.1401
19019SOL     OW63018   5.745   4.815   0.297 -0.6573  0.2874  0.5440
19019SOL    HW163019   5.698   4.790   0.376 -0.8348  1.0563  0.6873
19019SOL    HW263020   5.786   4.899   0.318  0.2956 -0.0859  0.2226
19020SOL     OW63021   0.369   5.446   2.779 -0.5304 -0.8449 -0.1786
19020SOL    HW163022   0.289   5.395   2.777 -0.6746 -0.6219 -0.1126
19020SOL    HW263023   0.363   5.499   2.858 -0.7194 -0.1895 -0.6253
19021SOL     OW63024   1.237   0.993   8.565  0.1995 -0.0589  0.0108
19021SOL    HW163025   1.161   1.049   8.547 -1.6733 -2.3347  0.1747
19021SOL    HW263026   1.250   0.944   8.484 -0.7598 -2.0567  0.9664
19022SOL     OW63027   9.182   2.563   3.702  0.1049 -0.1316  0.9548
19022SOL    HW163028   9.207   2.655   3.698 -0.1943  0.0442  2.5820
19022SOL    HW263029   9.182   2.542   3.795 -2.8174 -0.9193  0.8722
19023SOL     OW63030   3.911   6.722   2.788  0.0019  0.2086  0.2365
19023SOL    HW163031   3.834   6.685   2.830 -0.1319  0.7558  0.4860
19023SOL    HW263032   3.966   6.751   2.861  0.7021 -0.6828  0.0790
19024SOL     OW63033   6.054   9.046   5.259  0.5247 -0.4243  0.3150
19024SOL    HW163034   6.063   9.138   5.285  1.6204 -1.1019  2.5883
19024SOL    HW263035   6.111   9.037   5.183  0.1240  0.8319 -0.1654
19025SOL     OW63036   8.230   8.179   4.136 -0.4199 -0.4713 -0.0787
19025SOL    HW163037   8.162   8.246   4.142 -1.7671 -1.7655 -0.5498
19025SOL    HW263038   8.250   8.157   4.227 -1.8484 -1.2788  0.0510
19026SOL     OW63039   0.527   2.765   3.099  0.6767 -0.0173 -0.6394
19026SOL    HW163040   0.491   2.750   3.186 -0.9622 -0.1062 -1.3029
19026SOL    HW263041   0.604   2.708   3.095  0.8607  0.0834  0.7710
19027SOL     OW63042   5.426   3.722   4.291  0.1657  0.1377  0.0938
19027SOL    HW163043   5.397   3.741   4.202 -0.2835  2.2233  0.6394
19027SOL    HW263044   5.411   3.803   4.340  2.8703 -0.0596  1.4594
19028SOL     OW63045   1.704   9.054   3.964 -0.1954 -0.6057 -0.1806
19028SOL    HW163046   1.700   8.959   3.979 -1.5206 -0.4382  0.6427
19028SOL    HW263047   1.724   9.091   4.049  2.4410 -0.2080 -0.8650
19029SOL     OW63048   4.565   5.154   5.522  0.4561  0.2155  0.2357
19029SOL    HW163049   4.653   5.128   5.493 -0.7216 -1.5313 -2.1410
19029SOL    HW263050   4.525   5.072   5.550  0.0165  1.2264  2.7888
19030SOL     OW63051   7.878   6.994   2.623 -0.8084  0.3163 -0.6962
19030SOL    HW163052   7.934   6.945   2.562 -0.6480  0.0218 -0.3161
19030SOL    HW263053   7.837   6.926   2.677  1.9088  0.6738  2.0666
19031SOL     OW63054   9.347   6.595   8.329 -0.4452 -0.1172  0.2599
19031SOL    HW163055   9.275   6.537   8.352 -0.3547 -0.5208 -0.4522
19031SOL    HW263056   9.397   6.546   8.264 -0.7390  1.0019 -0.8551
19032SOL     OW63057   8.435   3.799   0.209  0.1764 -0.1822  0.4074
19032SOL    HW163058   8.353   3.755   0.189  0.2259  0.2284 -0.7921
19032SOL    HW263059   8.413   3.891   0.214  0.3434 -0.1828  1.4032
19033SOL     OW63060   4.610   3.904   0.413  0.3431  0.1180 -0.1269
19033SOL    HW163061   4.674   3.932   0.348  2.5150  0.6282  2.0731
19033SOL    HW263062   4.658   3.842   0.469 -2.4385 -3.1289 -0.9884
19034SOL     OW63063   6.639   4.221   8.595  0.1949  0.4774 -0.0672
19034SOL    HW163064   6.602   4.243   8.510  1.2633 -0.4327 -0.7939
19034SOL    HW263065   6.565   4.190   8.646 -0.2424 -0.2602 -1.1224
19035SOL     OW63066   9.291   0.021   6.004 -0.0599  0.3971 -0.1332
19035SOL    HW163067   9.377   0.011   6.046 -0.2008  1.4966  0.4552
19035SOL    HW263068   9.310   0.022   5.910  0.7237  1.7972  0.0160
19036SOL     OW63069   6.530   0.440   3.478 -0.4485 -0.1828  0.1076
19036SOL    HW163070   6.474   0.367   3.506 -0.3815  0.1259  1.1125
19036SOL    HW263071   6.618   0.402   3.474 -0.8371 -0.9788 -2.6684
19037SOL     OW63072   1.982   1.577   0.249 -0.3134 -0.4627 -0.0915
19037SOL    HW163073   2.005   1.522   0.324 -0.4569  1.0837  1.1376
19037SOL    HW263074   2.011   1.527   0.173 -0.5002 -2.2522  0.9575
19038SOL     OW63075   0.730   5.366   9.067 -0.1482 -0.4037  0.0526
19038SOL    HW163076   0.751   5.272   9.065  1.1157 -0.1337 -0.0740
19038SOL    HW263077   0.814   5.409   9.078 -0.7028  0.7378 -0.0458
19039SOL     OW63078   1.014   3.169   2.733  0.3028 -0.2227 -0.2605
19039SOL    HW163079   0.949   3.100   2.751 -0.4498  0.1919 -1.2777
19039SOL    HW263080   1.087   3.123   2.691 -0.0804 -0.4480 -0.6872
19040SOL     OW63081   0.409   2.294   3.140 -0.1494  0.3144 -0.2825
19040SOL    HW163082   0.380   2.307   3.231  1.4392 -1.4320  0.5537
19040SOL    HW263083   0.477   2.359   3.126  0.3803 -0.1290  0.1879
19041SOL     OW63084   2.702   2.324   5.378  0.3544  0.4598  0.4537
19041SOL    HW163085   2.683   2.265   5.305  1.2659 -1.0951  1.4264
19041SOL    HW263086   2.657   2.285   5.453  0.2152  1.5180  0.9356
19042SOL     OW63087   7.381   7.838   7.678 -0.1758 -0.3343  0.2487
19042SOL    HW163088   7.339   7.903   7.622  1.2602  2.8105  2.5399
19042SOL    HW263089   7.352   7.860   7.767  0.3968 -2.8771  1.1490
19043SOL     OW63090   6.019   5.763   2.318  0.1335  0.3398  0.6252
19043SOL    HW163091   5.985   5.678   2.291  0.2010  0.9180 -1.4458
19043SOL    HW263092   6.098   5.775   2.266  0.7984  1.1635  1.7780
19044SOL     OW63093   2.529   7.770   3.402  0.6304 -0.0428 -0.3985
19044SOL    HW163094   2.440   7.786   3.433  0.8494  1.5685 -0.5006
19044SOL    HW263095   2.572   7.725   3.475  0.3447  1.1808  0.5544
19045SOL     OW63096   1.625   0.335   0.357 -0.5956  0.1786  0.6098
19045SOL    HW163097   1.538   0.319   0.321 -0.5951  1.7072 -0.1628
19045SOL    HW263098   1.646   0.425   0.331  1.4068 -0.2978  0.3698
19046SOL     OW63099   3.215   1.643   5.072 -0.1139 -0.3533 -0.4483
19046SOL    HW163100   3.195   1.729   5.109 -1.8195 -0.0631 -1.8593
19046SOL    HW263101   3.156   1.583   5.118 -0.4453 -0.3996 -0.9257
19047SOL     OW63102   1.606   6.451   0.186  0.1805 -0.3856  0.0860
19047SOL    HW163103   1.596   6.496   0.103  0.2574 -0.5807 -0.0286
19047SOL    HW263104   1.540   6.382   0.185 -0.1469 -0.0838  0.3922
19048SOL     OW63105   5.206   3.790   6.457 -0.6045 -0.1634  0.2943
19048SOL    HW163106   5.167   3.868   6.417  1.3468 -0.3842 -2.3464
19048SOL    HW263107   5.144   3.720   6.437  0.2356 -0.2353 -2.4617
19049SOL     OW63108   7.558   1.981   6.837  0.2585 -0.2842 -0.0994
19049SOL    HW163109   7.465   1.989   6.856 -0.0127 -1.5385 -0.7762
19049SOL    HW263110   7.583   2.068   6.805 -1.1077 -0.3918 -1.6062
19050SOL     OW63111   8.519   0.281   7.192 -0.2104  0.1830  0.0742
19050SOL    HW163112   8.506   0.269   7.286  0.2073 -1.6279 -0.0750
19050SOL    HW263113   8.455   0.223   7.151  0.5101 -0.0339 -0.7599
19051SOL     OW63114   0.063   5.181   5.897 -0.0403  0.1156 -0.1629
19051SOL    HW163115   0.128   5.225   5.842 -2.1711  1.2294 -1.9753
19051SOL    HW263116  -0.005   5.247   5.910 -1.1208 -1.1995  1.0938
19052SOL     OW63117   0.266   6.440   4.497  0.1015  0.3063 -0.0046
19052SOL    HW163118   0.236   6.398   4.417  0.6549  0.1181 -0.1176
19052SOL    HW263119   0.188   6.483   4.533  0.3189  2.4913 -1.9116
19053SOL     OW63120   3.992   8.276   0.389 -0.2813 -0.6654 -0.1254
19053SOL    HW163121   3.928   8.345   0.370  0.9247  0.5070 -0.0713
19053SOL    HW263122   3.940   8.204   0.424 -1.5338  0.3665  0.2077
19054SOL     OW63123   3.928   8.122   0.866 -0.6224  0.0470  0.2124
19054SOL    HW163124   3.907   8.028   0.865 -0.1703 -0.0637 -1.2098
19054SOL    HW263125   3.854   8.162   0.911 -1.2192 -0.9100  0.1230
19055SOL     OW63126   6.107   7.927   1.122  0.4506 -0.0466  0.3433
19055SOL    HW163127   6.115   7.835   1.094  1.4791  0.3655 -0.8499
19055SOL    HW263128   6.090   7.923   1.216  2.8172 -1.4498  0.8018
19056SOL     OW63129   9.265   0.609   0.326 -0.0796 -0.7935  0.2657
19056SOL    HW163130   9.273   0.596   0.421  0.4580 -0.5622  0.2534
19056SOL    HW263131   9.329   0.548   0.289 -1.5019 -2.1889 -0.0407
19057SOL     OW63132   1.082   0.303   7.864  0.1743  0.2520 -0.9628
19057SOL    HW163133   1.093   0.371   7.930 -1.4293 -0.2960 -0.0815
19057SOL    HW263134   1.166   0.301   7.817  0.8884  1.5454  0.1934
19058SOL     OW63135   5.713   1.025   4.323  0.0567 -0.0565  0.5312
19058SOL    HW163136   5.684   0.942   4.286  1.3363 -0.7096  0.9254
19058SOL    HW263137   5.658   1.091   4.281 -0.1691 -0.9968 -0.6985
19059SOL     OW63138   4.563   6.289   6.872 -0.7182 -0.0839 -0.6292
19059SOL    HW163139   4.572   6.204   6.828  0.2341 -0.7634  0.7767
19059SOL    HW263140   4.646   6.333   6.854 -0.6375 -0.0471 -0.1676
19060SOL     OW63141   6.790   7.589   8.955 -0.3760 -0.2008 -0.0330
19060SOL    HW163142   6.802   7.513   8.899 -0.4012 -0.0710 -0.2153
19060SOL    HW263143   6.715   7.567   9.010  0.2425 -0.7205  0.6167
19061SOL     OW63144   1.089   5.128   3.998  0.2630  0.1636  0.4624
19061SOL    HW163145   1.140   5.048   4.010  0.8219  0.7547  2.5270
19061SOL    HW263146   1.019   5.104   3.938  0.8547 -1.6747  0.4593
19062SOL     OW63147   2.483   9.051   4.184  0.2754  0.2333  0.4592
19062SOL    HW163148   2.504   9.038   4.092 -0.0102 -3.4414  0.7555
19062SOL    HW263149   2.568   9.052   4.228  0.3624 -1.5074  0.4091
19063SOL     OW63150   0.080   0.179   7.345  0.2525  0.0514  0.1258
19063SOL    HW163151   0.075   0.263   7.300  1.6275  0.3760  0.5186
19063SOL    HW263152   0.151   0.191   7.409 -0.5194 -0.9307  1.2009
19064SOL     OW63153   2.530   7.919   1.268 -0.3986 -0.4071  0.3008
19064SOL    HW163154   2.485   7.862   1.206  0.1864  0.0265 -0.5353
19064SOL    HW263155   2.558   7.860   1.338 -2.9776 -0.5568  1.2865
19065SOL     OW63156   1.805   0.108   1.034 -0.1522 -0.0590 -0.5049
19065SOL    HW163157   1.891   0.151   1.041  0.2855 -1.0705  1.0076
19065SOL    HW263158   1.751   0.169   0.984  0.9256  1.4513  0.0963
19066SOL     OW63159   1.547   3.766   1.388 -0.1766 -0.5392 -0.1086
19066SOL    HW163160   1.496   3.846   1.369 -0.2405 -0.2892  1.0734
19066SOL    HW263161   1.625   3.798   1.433 -0.2067 -1.1521  0.3744
19067SOL     OW63162   8.641   4.585   3.116 -0.4312  0.2293 -0.0567
19067SOL    HW163163   8.620   4.652   3.181 -0.4754  0.7335 -0.5821
19067SOL    HW263164   8.640   4.503   3.165 -2.4269  0.3553  0.2065
19068SOL     OW63165   0.191   2.509   3.544  0.3113  0.4739 -0.4893
19068SOL    HW163166   0.182   2.584   3.484 -1.3762 -0.2286 -1.1755
19068SOL    HW263167   0.212   2.435   3.487 -3.1940 -0.6157 -0.6167
19069SOL     OW63168   7.521   8.753   5.317  0.1409 -0.6906 -0.1197
19069SOL    HW163169   7.508   8.729   5.226 -0.1627 -1.7395  0.1858
19069SOL    HW263170   7.494   8.845   5.322  1.0848 -0.3379 -1.2718
19070SOL     OW63171   4.209   8.543   6.019  0.2978  0.4118 -0.0372
19070SOL    HW163172   4.201   8.459   5.975 -1.3877 -0.2167  1.3421
19070SOL    HW263173   4.245   8.523   6.105 -0.1743  1.0667  0.3297
19071SOL     OW63174   3.217   6.538   7.965  0.2120  0.5080  0.8251
19071SOL    HW163175   3.123   6.547   7.948  0.4253  2.7024  0.4517
19071SOL    HW263176   3.222   6.500   8.053 -0.9774 -1.1625  0.2227
19072SOL     OW63177   0.720   7.441   0.266 -0.5597  0.0398 -0.5936
19072SOL    HW163178   0.807   7.402   0.273 -0.2163  0.7684 -0.7275
19072SOL    HW263179   0.694   7.425   0.175 -0.7673 -0.5878 -0.4271
19073SOL     OW63180   2.034   4.403   7.692 -0.5705 -0.8294 -0.2786
19073SOL    HW163181   2.092   4.344   7.740 -1.0474 -0.0054  1.3874
19073SOL    HW263182   2.009   4.470   7.756  0.6558  1.7420 -2.2736
19074SOL     OW63183   1.718   4.603   5.693 -0.3973 -0.5028  0.0882
19074SOL    HW163184   1.736   4.509   5.703  0.4316 -0.2495  1.1346
19074SOL    HW263185   1.754   4.642   5.772  1.1790  0.9747 -1.2867
19075SOL     OW63186   8.698   1.922   9.147 -0.2402  0.0975  0.0161
19075SOL    HW163187   8.667   1.855   9.085 -1.0300  0.2634  0.2220
19075SOL    HW263188   8.622   1.939   9.203  0.3920  0.1411  0.8609
19076SOL     OW63189   7.320   0.349   6.950  0.0821 -0.4358  0.2979
19076SOL    HW163190   7.291   0.309   7.032 -0.2580  0.0409  0.4160
19076SOL    HW263191   7.339   0.440   6.974 -1.7366  0.2098 -0.4943
19077SOL     OW63192   3.287   8.151   3.375 -0.9117  0.4213 -0.1753
19077SOL    HW163193   3.280   8.194   3.290 -0.4120  0.6312 -0.1166
19077SOL    HW263194   3.363   8.192   3.417 -1.0417  0.1926  0.2967
19078SOL     OW63195   4.198   2.017   8.844  0.2370  0.0625  0.4701
19078SOL    HW163196   4.247   1.944   8.806 -0.1184  0.9818 -1.9103
19078SOL    HW263197   4.262   2.087   8.853  0.1597  0.0773  0.9183
19079SOL     OW63198   7.885   5.073   6.934  0.0975 -0.9609 -0.0643
19079SOL    HW163199   7.869   5.115   7.019  1.5165  2.1796 -1.1652
19079SOL    HW263200   7.803   5.083   6.886 -0.0711 -0.8442  0.2449
19080SOL     OW63201   6.454   4.014   2.087  0.4297 -0.1834  0.2259
19080SOL    HW163202   6.451   3.919   2.086  1.5769 -0.2335  0.0227
19080SOL    HW263203   6.442   4.038   2.179  0.6587 -0.5452  0.3499
19081SOL     OW63204   3.861   7.539   7.273  0.1570  0.2758 -0.1415
19081SOL    HW163205   3.884   7.450   7.298  0.4446  0.4863  0.3766
19081SOL    HW263206   3.939   7.591   7.293  0.7646  0.3274 -2.4040
19082SOL     OW63207   7.767   0.481   4.939  0.1717 -0.0677  0.1142
19082SOL    HW163208   7.821   0.438   4.873 -1.3689  0.2282 -1.4154
19082SOL    HW263209   7.797   0.444   5.022 -0.2464 -3.2791 -1.0003
19083SOL     OW63210   2.485   1.269   6.486 -0.3641 -0.2038 -0.1250
19083SOL    HW163211   2.480   1.350   6.436 -0.1839 -1.1852 -1.8081
19083SOL    HW263212   2.499   1.298   6.577  0.7878  1.6146 -0.8182
19084SOL     OW63213   0.501   0.164   7.115 -0.0279  0.4375  0.0808
19084SOL    HW163214   0.429   0.110   7.147 -0.9630  0.8100 -1.2912
19084SOL    HW263215   0.485   0.251   7.153 -0.0959  0.4284  0.0728
19085SOL     OW63216   6.287   6.325   5.254  0.0910 -0.2879 -0.2588
19085SOL    HW163217   6.279   6.258   5.186  0.9501 -0.5238 -0.1370
19085SOL    HW263218   6.215   6.386   5.236 -0.5553 -1.1003 -0.5207
19086SOL     OW63219   0.699   3.576   3.782  0.0801 -0.9485  0.2910
19086SOL    HW163220   0.645   3.518   3.835 -0.2459  0.4649  1.5659
19086SOL    HW263221   0.751   3.517   3.727 -0.4671 -2.4238  1.2999
19087SOL     OW63222   6.089   5.098   0.655 -0.6379  0.4639 -0.6933
19087SOL    HW163223   6.159   5.036   0.632 -0.4019  0.0645  0.9642
19087SOL    HW263224   6.104   5.117   0.748 -2.5185  0.6600 -0.3978
19088SOL     OW63225   5.582   2.082   7.809 -0.0184 -0.3799 -0.5910
19088SOL    HW163226   5.621   2.022   7.746  0.0592 -0.6871 -0.2544
19088SOL    HW263227   5.655   2.109   7.865 -0.3634 -1.3444  0.3541
19089SOL     OW63228   2.411   4.390   7.540  0.6054  0.0106 -0.0389
19089SOL    HW163229   2.366   4.380   7.624  2.6003 -0.8062  0.9943
19089SOL    HW263230   2.472   4.316   7.536 -0.3277 -0.7140 -2.8382
19090SOL     OW63231   9.083   0.548   8.496  0.3937  0.2144 -0.8398
19090SOL    HW163232   9.139   0.502   8.434  2.0508  1.1394 -0.0657
19090SOL    HW263233   9.141   0.606   8.544 -0.5156 -1.4356  2.6016
19091SOL     OW63234   0.320   1.754   6.973  0.4954 -0.0269  0.1147
19091SOL    HW163235   0.292   1.827   7.027  1.8097  0.0461  0.7261
19091SOL    HW263236   0.238   1.708   6.950 -0.1835  0.6744  1.0837
19092SOL     OW63237   7.301   3.943   5.912 -0.1250 -0.4118 -0.0709
19092SOL    HW163238   7.220   3.966   5.867  0.1283 -0.3972 -0.5241
19092SOL    HW263239   7.285   3.855   5.946 -0.2795 -0.4728 -0.2966
19093SOL     OW63240   1.265   5.447   0.347 -0.1151  0.1475 -0.6494
19093SOL    HW163241   1.246   5.379   0.412 -1.0098  1.3958  0.4716
19093SOL    HW263242   1.199   5.434   0.279 -0.3793 -0.0205 -0.3638
19094SOL     OW63243   5.755   8.602   8.359 -0.4623 -0.2202 -0.4923
19094SOL    HW163244   5.772   8.521   8.310 -0.3425 -0.3860 -0.1781
19094SOL    HW263245   5.664   8.625   8.338  0.2843  1.0409 -2.7463
19095SOL     OW63246   7.358   2.660   8.994  0.2838  0.0647 -0.1199
19095SOL    HW163247   7.317   2.687   9.076 -2.7561 -0.8976 -1.1717
19095SOL    HW263248   7.378   2.742   8.949 -2.1408  0.6920 -0.2163
19096SOL     OW63249   0.629   6.232   9.255 -0.0354  0.2901  0.2135
19096SOL    HW163250   0.673   6.181   9.323  2.1700  1.0226 -0.5615
19096SOL    HW263251   0.618   6.319   9.293  0.9005  0.6080 -0.1924
19097SOL     OW63252   1.590   7.218   7.243  0.8705  0.0210  0.5081
19097SOL    HW163253   1.630   7.138   7.209 -0.6965 -0.1831 -1.0007
19097SOL    HW263254   1.601   7.283   7.173 -1.8360 -0.2099 -0.2513
19098SOL     OW63255   2.067   3.493   6.757 -0.0338 -0.1304  0.3676
19098SOL    HW163256   2.001   3.540   6.705  0.5573  2.3870  1.7139
19098SOL    HW263257   2.016   3.448   6.824 -0.5740 -0.7547 -0.4458
19099SOL     OW63258   6.960   2.574   0.193  0.2249 -0.2680 -0.6626
19099SOL    HW163259   7.036   2.633   0.192  1.0124 -1.2321 -1.9571
19099SOL    HW263260   6.929   2.574   0.102 -0.6630 -0.7104 -0.3678
19100SOL     OW63261   0.469   2.990   9.259  0.2193  0.7127 -0.2733
19100SOL    HW163262   0.391   3.043   9.244 -2.3754 -2.9167 -1.1357
19100SOL    HW263263   0.516   2.993   9.176 -2.2823 -1.5649 -1.9864
19101SOL     OW63264   8.945   6.351   4.228  0.6085 -0.4563 -0.2195
19101SOL    HW163265   9.028   6.305   4.232  1.8458  1.6470 -0.3760
19101SOL    HW263266   8.924   6.353   4.134  0.6352 -0.5179 -0.2273
19102SOL     OW63267   7.844   3.882   4.459 -0.4914 -0.2740  0.2246
19102SOL    HW163268   7.794   3.945   4.511 -0.6096  1.0639 -1.4007
19102SOL    HW263269   7.778   3.826   4.419 -0.3744 -1.6534  1.8563
19103SOL     OW63270   7.418   2.222   3.927  0.2374  0.2575  0.2716
19103SOL    HW163271   7.434   2.307   3.886  1.8732 -0.2173 -0.1515
19103SOL    HW263272   7.355   2.178   3.869 -0.4720  1.0843  0.3967
19104SOL     OW63273   4.609   3.433   8.136 -0.1958  0.3638 -0.3301
19104SOL    HW163274   4.540   3.463   8.195 -0.3017 -1.1256  0.3518
19104SOL    HW263275   4.664   3.376   8.190  2.0037  2.0448 -0.6894
19105SOL     OW63276   9.265   7.951   9.271  0.3770  0.0863 -0.2857
19105SOL    HW163277   9.284   7.874   9.326  2.7880  1.3121  0.7673
19105SOL    HW263278   9.172   7.968   9.285  0.2684 -1.3646  1.1597
19106SOL     OW63279   6.497   7.986   9.349  0.6386 -0.3015 -0.3553
19106SOL    HW163280   6.507   8.032   9.432 -0.9711 -1.3112  0.4389
19106SOL    HW263281   6.558   7.912   9.354 -0.8473 -1.5078  0.8215
19107SOL     OW63282   5.116   1.067   5.603  0.2212 -0.1176 -0.0025
19107SOL    HW163283   5.201   1.103   5.631  1.2866 -2.8697  0.6436
19107SOL    HW263284   5.113   0.980   5.643 -2.4519 -0.5371 -0.9402
19108SOL     OW63285   2.693   8.650   8.093 -0.3317  0.0499  0.0789
19108SOL    HW163286   2.716   8.736   8.058 -1.3310  0.8318  1.2674
19108SOL    HW263287   2.598   8.652   8.104 -0.2075 -0.5792  1.6531
19109SOL     OW63288   3.394   5.768   5.715  0.2332 -0.5024  0.1440
19109SOL    HW163289   3.449   5.845   5.727  0.9552 -0.9700 -0.1368
19109SOL    HW263290   3.322   5.780   5.778 -0.1158  0.8004 -0.4708
19110SOL     OW63291   1.732   5.386   1.980  0.2043 -0.5794  0.3951
19110SOL    HW163292   1.662   5.451   1.986  0.8018  0.0601  0.7166
19110SOL    HW263293   1.697   5.307   2.020 -0.7844 -0.6835 -0.6269
19111SOL     OW63294   7.517   8.410   3.534 -0.2090  0.6390  0.4123
19111SOL    HW163295   7.425   8.397   3.555 -0.0627 -0.1680  0.5529
19111SOL    HW263296   7.517   8.436   3.441 -0.4619 -0.9526 -0.0559
19112SOL     OW63297   6.842   4.385   2.566  0.6427 -0.3018 -0.2083
19112SOL    HW163298   6.905   4.453   2.543  0.4189 -0.1991 -0.5213
19112SOL    HW263299   6.795   4.420   2.642  1.6199 -0.7870  0.6488
19113SOL     OW63300   1.551   6.669   1.290 -0.3190 -0.2820 -0.0771
19113SOL    HW163301   1.615   6.598   1.298  0.5370  0.5347  0.5894
19113SOL    HW263302   1.597   6.738   1.242 -0.7331  0.2615  0.2862
19114SOL     OW63303   8.932   3.090   4.229 -0.0320 -0.0921 -0.2562
19114SOL    HW163304   8.879   3.169   4.217  0.9063  0.4717 -0.7974
19114SOL    HW263305   8.877   3.033   4.284  0.3731  2.0746  2.6376
19115SOL     OW63306   8.356   4.280   2.644  0.2667 -0.7090 -0.1960
19115SOL    HW163307   8.381   4.321   2.561  0.1236 -2.5235 -1.1926
19115SOL    HW263308   8.303   4.347   2.689  1.6203  0.8665 -0.8530
19116SOL     OW63309   6.646   9.240   0.540 -0.1198 -0.0746  0.2455
19116SOL    HW163310   6.733   9.205   0.557 -0.5474 -2.2102 -1.4936
19116SOL    HW263311   6.653   9.284   0.455 -0.9219 -1.2773 -0.4897
19117SOL     OW63312   6.888   2.361   4.647  0.3007  0.2842  0.9705
19117SOL    HW163313   6.957   2.413   4.605 -2.7521  2.7632 -1.4639
19117SOL    HW263314   6.839   2.424   4.699 -0.3822 -1.3604  2.4341
19118SOL     OW63315   7.371   6.886   7.499 -0.2180 -0.0480 -0.0002
19118SOL    HW163316   7.462   6.916   7.509 -0.6271  2.0197 -1.8832
19118SOL    HW263317   7.330   6.907   7.582  1.0375 -1.2137  0.9671
19119SOL     OW63318   7.818   9.062   6.734 -0.5813  0.0556  0.4821
19119SOL    HW163319   7.896   9.108   6.703  0.0313  0.7425  2.8195
19119SOL    HW263320   7.853   8.994   6.792 -1.6919  0.2417  1.4027
19120SOL     OW63321   2.824   1.974   0.920 -0.0782 -0.1260  0.4992
19120SOL    HW163322   2.911   1.981   0.960  0.0897 -1.0185  0.3139
19120SOL    HW263323   2.841   1.984   0.826 -0.2243  0.0232  0.4878
19121SOL     OW63324   1.111   5.737   5.102  0.4053  0.2312  0.0540
19121SOL    HW163325   1.154   5.823   5.097  1.2097  0.0343  2.4383
19121SOL    HW263326   1.125   5.708   5.192  0.9627 -2.8222 -0.8854
19122SOL     OW63327   2.145   3.382   7.057  0.2084 -0.6710 -0.0638
19122SOL    HW163328   2.183   3.449   7.113 -0.0513 -0.9506  0.4471
19122SOL    HW263329   2.215   3.361   6.994 -0.1836  1.1086 -1.1627
19123SOL     OW63330   0.830   6.929   3.666  0.1244 -0.7337 -0.0211
19123SOL    HW163331   0.804   7.007   3.617 -0.8507 -0.1172  1.4203
19123SOL    HW263332   0.862   6.869   3.599  1.1205  0.9627 -1.1535
19124SOL     OW63333   6.393   4.502   6.670  0.8440  0.2968  0.1418
19124SOL    HW163334   6.344   4.464   6.597  0.0335  2.3270 -0.4526
19124SOL    HW263335   6.485   4.491   6.646  0.8116 -3.2326  1.0905
19125SOL     OW63336   7.204   9.154   4.178  0.9175  0.4815  0.1666
19125SOL    HW163337   7.110   9.162   4.192  0.8075  0.0472 -0.3152
19125SOL    HW263338   7.243   9.186   4.259  0.2921 -2.6047  1.8342
19126SOL     OW63339   8.828   7.304   3.340  0.3762 -0.0798  0.0756
19126SOL    HW163340   8.758   7.320   3.278  1.7482 -0.5641 -1.6860
19126SOL    HW263341   8.867   7.390   3.356  1.1940 -0.1651 -1.2643
19127SOL     OW63342   4.068   0.017   1.839  0.3810  0.0157 -0.0256
19127SOL    HW163343   4.075   0.042   1.747  0.0068 -3.2955 -1.0732
19127SOL    HW263344   3.996  -0.046   1.842 -0.8797  1.3874  2.9246
19128SOL     OW63345   3.157   0.803   0.949  0.2184  0.2652  0.5428
19128SOL    HW163346   3.152   0.791   0.854 -1.7985 -2.4235  0.8865
19128SOL    HW263347   3.100   0.879   0.966  0.9926  1.0916 -0.3807
19129SOL     OW63348   6.672   1.955   2.659  0.0631  0.8172  0.5372
19129SOL    HW163349   6.706   1.961   2.748  1.5478  0.9624 -0.0117
19129SOL    HW263350   6.748   1.934   2.606 -1.2627 -2.1475 -0.3657
19130SOL     OW63351   7.986   1.057   6.852  0.1425 -0.4689 -0.1737
19130SOL    HW163352   7.962   1.043   6.760 -0.2898  2.5557 -0.6272
19130SOL    HW263353   7.902   1.068   6.897  0.1157 -5.1117  1.3739
19131SOL     OW63354   8.363   8.209   3.108  0.1353  0.1515  0.0619
19131SOL    HW163355   8.381   8.293   3.150  0.6729  0.0342  0.0803
19131SOL    HW263356   8.450   8.176   3.085  0.0487 -1.1022  1.4085
19132SOL     OW63357   0.491   2.698   9.174  0.2805  0.1935  0.0034
19132SOL    HW163358   0.463   2.712   9.264  0.7184 -0.1305  0.1972
19132SOL    HW263359   0.534   2.780   9.150  0.6771  0.0744  0.2922
19133SOL     OW63360   2.080   3.886   0.954  0.2706 -0.2548  0.0585
19133SOL    HW163361   2.056   3.976   0.979 -0.5142 -0.4554  0.0773
19133SOL    HW263362   1.996   3.840   0.953  0.6529 -0.9445 -0.1282
19134SOL     OW63363   3.861   5.827   3.646 -1.0460 -0.0088  0.1596
19134SOL    HW163364   3.777   5.816   3.692 -0.7587  0.1352  0.7183
19134SOL    HW263365   3.892   5.737   3.632  0.0060 -0.0617  2.3602
19135SOL     OW63366   2.337   6.117   2.844 -0.1661 -0.2535  0.2487
19135SOL    HW163367   2.397   6.143   2.773 -0.2158  1.2612  0.7289
19135SOL    HW263368   2.267   6.069   2.800 -0.1510  0.5923 -0.7357
19136SOL     OW63369   7.097   7.679   7.719  0.9039 -0.1072 -0.2631
19136SOL    HW163370   7.170   7.678   7.781  0.0872  1.1757  0.7763
19136SOL    HW263371   7.032   7.737   7.759 -0.3100 -0.4775 -1.5976
19137SOL     OW63372   7.009   8.164   5.126  0.3796 -0.1588 -0.2898
19137SOL    HW163373   6.967   8.087   5.165  0.6542  0.5304  1.4266
19137SOL    HW263374   7.098   8.136   5.105  1.3927  0.3572  2.8500
19138SOL     OW63375   2.194   3.653   8.150  0.1825 -0.2612  0.0242
19138SOL    HW163376   2.158   3.742   8.138 -0.6896 -0.3511  1.6792
19138SOL    HW263377   2.160   3.625   8.235  0.4599 -2.1904 -0.4538
19139SOL     OW63378   3.775   6.129   7.048  0.1060 -0.6616 -0.3718
19139SOL    HW163379   3.762   6.207   7.101  1.9354 -0.1985 -0.5289
19139SOL    HW263380   3.693   6.081   7.054 -1.0802  1.2874 -0.3121
19140SOL     OW63381   0.487   6.237   4.656  0.0613  0.0719 -0.2539
19140SOL    HW163382   0.524   6.249   4.743 -1.7775  2.0662  0.3359
19140SOL    HW263383   0.450   6.323   4.633  2.3311  0.3087 -3.9356
19141SOL     OW63384   0.880   3.211   8.530 -0.2773 -0.1767  0.1092
19141SOL    HW163385   0.833   3.162   8.463 -1.6157  2.0742 -0.7096
19141SOL    HW263386   0.814   3.232   8.596  0.8254 -1.5637  1.7531
19142SOL     OW63387   0.231   3.774   0.850 -0.2044 -0.0452 -0.2081
19142SOL    HW163388   0.231   3.691   0.802  0.4538  0.1225 -0.5070
19142SOL    HW263389   0.315   3.814   0.829  1.0438 -0.8724  2.6624
19143SOL     OW63390   6.278   2.691   1.895  0.1412 -0.2230 -0.5929
19143SOL    HW163391   6.232   2.763   1.852  0.2846 -0.0027 -0.3826
19143SOL    HW263392   6.367   2.694   1.859 -0.3348 -1.4545 -1.9637
19144SOL     OW63393   4.316   4.492   5.915 -0.2147 -0.2977 -0.0537
19144SOL    HW163394   4.311   4.563   5.978 -0.4903 -1.2417  1.0386
19144SOL    HW263395   4.239   4.504   5.858  1.4248  2.0663 -1.9380
19145SOL     OW63396   7.254   1.974   6.941  0.4767 -0.1483  0.1459
19145SOL    HW163397   7.203   1.964   6.861  0.2023 -0.1747  0.3196
19145SOL    HW263398   7.276   2.067   6.945  1.4906 -0.3456 -0.5528
19146SOL     OW63399   3.958   3.329   0.254 -0.1142 -0.0566 -0.2043
19146SOL    HW163400   3.869   3.362   0.240 -0.1705 -0.2679 -0.3435
19146SOL    HW263401   3.966   3.320   0.349 -1.0104 -2.1400 -0.2721
19147SOL     OW63402   6.268   8.747   7.115  0.2046 -0.2544 -0.2815
19147SOL    HW163403   6.194   8.711   7.066 -0.0249  0.1205 -0.2115
19147SOL    HW263404   6.340   8.687   7.097 -0.2689 -0.9536  0.1225
19148SOL     OW63405   6.278   8.335   4.571 -0.2884  0.3667 -0.0859
19148SOL    HW163406   6.309   8.246   4.556 -2.5993 -0.5219  0.0132
19148SOL    HW263407   6.357   8.387   4.581  1.1097 -1.8675  1.0361
19149SOL     OW63408   8.949   6.763   6.603 -0.3517 -0.2691  0.0160
19149SOL    HW163409   9.013   6.695   6.623 -2.0189 -1.4706  1.6933
19149SOL    HW263410   8.998   6.845   6.609  1.7684 -1.2435 -2.2785
19150SOL     OW63411   5.679   0.934   2.507  0.5827  0.4700  0.2716
19150SOL    HW163412   5.698   0.966   2.595 -0.1920 -0.1092  0.6529
19150SOL    HW263413   5.648   1.011   2.460  0.0350  0.5707  0.7915
19151SOL     OW63414   6.739   4.400   3.130 -0.2320 -0.5218 -0.1327
19151SOL    HW163415   6.832   4.387   3.115 -0.1478  2.5210 -3.2490
19151SOL    HW263416   6.733   4.421   3.223  1.8076 -2.7975  0.6281
19152SOL     OW63417   6.579   4.973   0.586 -0.3137  0.1207  0.1715
19152SOL    HW163418   6.484   4.970   0.580 -0.3496  0.6882  0.4425
19152SOL    HW263419   6.608   4.994   0.497 -0.4775  0.7095  0.2568
19153SOL     OW63420   0.456   3.274   1.742 -0.1949  0.2784  0.5588
19153SOL    HW163421   0.520   3.213   1.703  0.8343  1.5869  0.1432
19153SOL    HW263422   0.510   3.341   1.784 -1.2765 -0.1861  2.8771
19154SOL     OW63423   8.830   8.261   4.784 -0.2176  0.5132  0.9614
19154SOL    HW163424   8.916   8.299   4.762 -0.0757  0.3977  1.3081
19154SOL    HW263425   8.801   8.220   4.703  1.1482 -1.5222  1.4205
19155SOL     OW63426   1.985   2.600   2.182  0.0476  0.3297  0.2252
19155SOL    HW163427   1.912   2.646   2.222 -0.0039  0.4234  0.0286
19155SOL    HW263428   2.052   2.667   2.169  0.1652  0.2462  0.3956
19156SOL     OW63429   9.125   6.776   4.083  0.1614  0.4006  0.2595
19156SOL    HW163430   9.162   6.690   4.103  0.8232  0.8257  0.9170
19156SOL    HW263431   9.030   6.763   4.088  0.2468 -0.3303  0.1414
19157SOL     OW63432   0.199   1.174   7.295  0.1620 -0.0783  0.1098
19157SOL    HW163433   0.188   1.267   7.319 -1.0476 -0.6769  2.2002
19157SOL    HW263434   0.253   1.138   7.366 -1.2861 -1.4114  0.5978
19158SOL     OW63435   5.162   2.906   8.724  0.0801 -0.2547  0.1677
19158SOL    HW163436   5.256   2.904   8.703  0.3456  0.1849  1.2708
19158SOL    HW263437   5.122   2.951   8.649  0.7221 -0.5587 -0.3713
19159SOL     OW63438   3.147   3.600   2.351 -0.3015  0.3667 -0.2189
19159SOL    HW163439   3.063   3.618   2.308  0.6077 -0.6899 -2.6297
19159SOL    HW263440   3.197   3.680   2.341  0.2375 -0.1437 -2.1422
19160SOL     OW63441   4.184   3.818   5.966 -0.1660 -0.2920 -0.3835
19160SOL    HW163442   4.127   3.830   5.891 -2.3786  0.9157  1.3716
19160SOL    HW263443   4.253   3.883   5.955 -0.2527 -0.3853 -1.5211
19161SOL     OW63444   7.259   1.653   7.890 -0.0318 -0.0619 -0.9096
19161SOL    HW163445   7.309   1.732   7.909  1.3083 -0.8925 -0.8256
19161SOL    HW263446   7.313   1.582   7.924 -1.8279 -0.9455  0.2323
19162SOL     OW63447   7.776   9.310   0.105 -0.0410 -0.5387  0.0443
19162SOL    HW163448   7.779   9.227   0.056  0.9640 -0.3128 -0.3041
19162SOL    HW263449   7.862   9.316   0.146 -0.1857  0.2405  0.2437
19163SOL     OW63450   4.574   1.092   8.833  0.4888  0.0180 -0.4106
19163SOL    HW163451   4.666   1.065   8.829 -0.0021 -1.7454 -0.6716
19163SOL    HW263452   4.564   1.133   8.918  1.0440 -1.7626  0.5569
19164SOL     OW63453   0.288   8.887   7.043 -0.1949 -0.1826  0.1031
19164SOL    HW163454   0.220   8.846   7.095  1.1266  0.1382  2.2217
19164SOL    HW263455   0.262   8.979   7.037  0.2284  0.0495  1.3494
19165SOL     OW63456   4.527   6.110   6.030 -0.3070 -0.0032 -0.1104
19165SOL    HW163457   4.568   6.115   5.944 -2.1494  1.1607 -0.9645
19165SOL    HW263458   4.530   6.199   6.064  0.1180 -0.3887  0.9199
19166SOL     OW63459   8.157   4.033   8.643  0.3620  0.0150 -0.0405
19166SOL    HW163460   8.235   4.088   8.649  1.2847 -1.4299  1.9422
19166SOL    HW263461   8.185   3.956   8.594 -0.1044 -0.0600 -0.1972
19167SOL     OW63462   2.331   2.488   7.668 -0.5839 -0.8497  0.1742
19167SOL    HW163463   2.402   2.428   7.691  1.0384  0.7995 -0.3055
19167SOL    HW263464   2.269   2.481   7.741 -0.6112 -3.2800 -0.0082
19168SOL     OW63465   7.122   5.939   0.726 -0.0857 -0.1712  0.5524
19168SOL    HW163466   7.141   5.880   0.653  1.8279  1.2495 -0.1713
19168SOL    HW263467   7.037   5.976   0.704  0.1155 -0.3289 -0.5864
19169SOL     OW63468   5.707   4.114   6.696  0.6114 -0.3928  0.1909
19169SOL    HW163469   5.667   4.180   6.752  1.7420  0.1723  0.3613
19169SOL    HW263470   5.772   4.163   6.644  0.1028 -1.0316 -1.0758
19170SOL     OW63471   5.639   6.261   4.912 -0.2496 -0.0701 -0.0979
19170SOL    HW163472   5.608   6.242   5.001  0.9914 -1.4909  0.0819
19170SOL    HW263473   5.559   6.271   4.860 -1.0675 -2.4275  0.5693
19171SOL     OW63474   7.092   5.559   5.087  0.4071  0.9298  0.0768
19171SOL    HW163475   7.102   5.533   5.178 -0.5942 -0.7194 -0.2419
19171SOL    HW263476   7.020   5.622   5.087  1.2494  1.9034  0.5675
19172SOL     OW63477   0.034   8.287   4.799  0.1216  0.2122  0.3364
19172SOL    HW163478  -0.040   8.226   4.802  2.0327 -2.2449  0.3445
19172SOL    HW263479   0.081   8.271   4.881 -0.0319  2.8049  1.0381
19173SOL     OW63480   5.188   3.760   4.550  0.2478  0.4138  0.2673
19173SOL    HW163481   5.174   3.667   4.564  0.7269 -0.1759 -2.4998
19173SOL    HW263482   5.279   3.775   4.575  0.0318  0.2577  1.1677
19174SOL     OW63483   6.466   0.750   4.496  0.4160  0.3320 -0.1102
19174SOL    HW163484   6.411   0.685   4.540  0.7514 -1.4198 -2.1105
19174SOL    HW263485   6.442   0.833   4.537 -0.8964 -0.8619  1.7363
19175SOL     OW63486   6.038   7.049   1.087  0.0039  0.3187  0.2538
19175SOL    HW163487   5.971   7.094   1.036  1.0368  0.7135 -0.7937
19175SOL    HW263488   6.043   6.961   1.048 -0.0999  0.1973  0.5142
19176SOL     OW63489   8.557   8.589   8.537  0.0314 -0.5804  0.0647
19176SOL    HW163490   8.639   8.548   8.565  0.4057  0.2229  0.1814
19176SOL    HW263491   8.560   8.586   8.442 -0.2362 -1.3745  0.0744
19177SOL     OW63492   0.402   6.104   6.336  0.0502  0.0158  0.6650
19177SOL    HW163493   0.416   6.142   6.422 -1.8199  1.5463  0.3615
19177SOL    HW263494   0.479   6.049   6.321  0.3405 -0.4624  3.3681
19178SOL     OW63495   6.496   1.328   0.543  0.0537 -0.0410  0.1380
19178SOL    HW163496   6.422   1.384   0.519  0.5834  0.3429 -0.6503
19178SOL    HW263497   6.552   1.384   0.598 -0.4131 -0.4471  1.0460
19179SOL     OW63498   1.543   4.983   0.591 -0.3182  0.2817 -0.0914
19179SOL    HW163499   1.599   4.925   0.539 -0.9621 -0.4517  0.0123
19179SOL    HW263500   1.471   4.927   0.620 -0.1917  0.7590  1.2492
19180SOL     OW63501   0.696   4.829   5.302  0.5569 -0.0718  0.4850
19180SOL    HW163502   0.659   4.760   5.248 -0.2706  0.9371 -0.2857
19180SOL    HW263503   0.774   4.790   5.342  1.7962 -0.5807 -2.2302
19181SOL     OW63504   4.554   3.662   3.166  0.1243 -0.3163 -0.3981
19181SOL    HW163505   4.582   3.638   3.078  0.1648  0.2251 -0.5390
19181SOL    HW263506   4.459   3.652   3.165  0.1500 -0.5577 -0.4251
19182SOL     OW63507   4.186   1.865   6.033 -0.4838 -0.3158  0.0089
19182SOL    HW163508   4.099   1.889   6.065 -0.1546  0.8781  0.0516
19182SOL    HW263509   4.220   1.804   6.099 -2.1228 -2.5863 -1.1123
19183SOL     OW63510   6.741   6.543   8.457 -0.1570  0.3345 -0.2206
19183SOL    HW163511   6.820   6.564   8.508  0.1855 -0.2726 -0.4951
19183SOL    HW263512   6.759   6.579   8.370 -0.0127 -0.1550 -0.3947
19184SOL     OW63513   4.366   2.598   5.336 -0.7171  0.1615  0.1288
19184SOL    HW163514   4.378   2.503   5.336  0.5409  0.2994 -0.6603
19184SOL    HW263515   4.354   2.621   5.428 -1.8991 -0.8505  0.2519
19185SOL     OW63516   4.521   3.554   1.285 -0.1713  0.0739  0.6351
19185SOL    HW163517   4.596   3.522   1.336  2.0417  0.3026 -2.1945
19185SOL    HW263518   4.518   3.648   1.305  2.1341  0.6164 -1.2047
19186SOL     OW63519   4.348   0.008   5.646  0.1605  1.0529  0.9180
19186SOL    HW163520   4.254  -0.007   5.645  0.0064  1.9887  0.6196
19186SOL    HW263521   4.386  -0.079   5.656 -0.7178  0.6119  0.4845
19187SOL     OW63522   4.163   5.781   1.462 -0.1233 -0.1792 -0.0907
19187SOL    HW163523   4.114   5.719   1.516  0.5188 -1.2592 -0.7221
19187SOL    HW263524   4.232   5.729   1.422  0.2127  0.8764 -0.9314
19188SOL     OW63525   6.545   1.476   7.265  0.2008  0.2862 -0.0561
19188SOL    HW163526   6.618   1.414   7.262 -1.5747 -1.9656  0.5397
19188SOL    HW263527   6.526   1.486   7.358  0.5378  1.9481 -0.1208
19189SOL     OW63528   1.167   3.934   5.064  0.1460 -0.0174 -0.1255
19189SOL    HW163529   1.073   3.918   5.069  0.3264 -0.7700  1.4564
19189SOL    HW263530   1.207   3.849   5.083  1.1340  0.8658  1.9940
19190SOL     OW63531   2.800   3.201   7.446  0.2080 -0.3075  0.0618
19190SOL    HW163532   2.891   3.186   7.423  0.1270 -0.7749  0.0316
19190SOL    HW263533   2.800   3.209   7.541  0.4887  1.2350 -0.0453
19191SOL     OW63534   0.199   6.143   5.059  0.3268  0.4311  0.0150
19191SOL    HW163535   0.107   6.164   5.046  0.5532  1.2898 -0.2426
19191SOL    HW263536   0.204   6.048   5.048 -0.4634  0.4247 -0.3253
19192SOL     OW63537   0.269   9.349   2.823 -0.1231 -0.3865  0.0203
19192SOL    HW163538   0.228   9.265   2.846  0.5630 -0.9117 -0.6258
19192SOL    HW263539   0.220   9.379   2.747 -0.4155 -0.1499  0.2945
19193SOL     OW63540   0.342   6.257   2.668 -0.6138  0.4346 -0.1433
19193SOL    HW163541   0.369   6.212   2.748 -3.0179  0.0458  0.5269
19193SOL    HW263542   0.398   6.221   2.599  0.6605 -0.1283  1.1624
19194SOL     OW63543   2.720   6.515   7.622  0.2663  0.3395  0.4165
19194SOL    HW163544   2.794   6.458   7.644  1.2003  1.3630 -0.0144
19194SOL    HW263545   2.676   6.471   7.549  0.6591 -0.0921  0.4350
19195SOL     OW63546   3.596   5.068   4.578  0.1634 -0.5055  0.3469
19195SOL    HW163547   3.527   5.128   4.605 -0.1782 -0.6094 -0.2651
19195SOL    HW263548   3.620   5.096   4.489  2.9345  1.3382  1.5295
19196SOL     OW63549   6.154   5.356   5.862  0.2755 -0.5699  0.1923
19196SOL    HW163550   6.066   5.355   5.825 -0.1454 -1.1212  1.1602
19196SOL    HW263551   6.208   5.398   5.795 -0.7035 -0.2975 -0.4485
19197SOL     OW63552   9.341   6.510   7.963 -0.6486 -0.1425  0.2740
19197SOL    HW163553   9.246   6.522   7.973 -0.6134  1.5859 -0.9746
19197SOL    HW263554   9.377   6.598   7.974  0.6230 -0.4610 -1.0976
19198SOL     OW63555   1.874   3.907   3.673  0.1742  0.0449  0.4825
19198SOL    HW163556   1.924   3.920   3.593 -0.5341 -0.8874 -0.1274
19198SOL    HW263557   1.804   3.972   3.669  0.2049  0.0741  0.4146
19199SOL     OW63558   4.008   4.117   8.317 -0.0937  0.4145 -0.3243
19199SOL    HW163559   3.982   4.050   8.253  0.8256 -0.2513 -0.0172
19199SOL    HW263560   3.983   4.081   8.402  2.5141 -0.6465  0.0706
19200SOL     OW63561   5.596   8.186   1.862 -0.0644  0.2816 -0.3039
19200SOL    HW163562   5.568   8.210   1.774  0.3566  0.3404 -0.4223
19200SOL    HW263563   5.633   8.098   1.853 -0.3731  0.1298 -0.1147
19201SOL     OW63564   5.180   9.223   7.437  0.0563  0.0930  0.0433
19201SOL    HW163565   5.151   9.133   7.456 -0.2025  0.4759  1.6262
19201SOL    HW263566   5.230   9.249   7.515 -1.0468  1.8053  0.2338
19202SOL     OW63567   2.920   3.817   6.818 -0.2152 -0.4615 -0.3451
19202SOL    HW163568   2.988   3.872   6.856 -0.4438  0.0231 -0.6329
19202SOL    HW263569   2.946   3.805   6.727  1.6931 -3.6854  0.4369
19203SOL     OW63570   3.353   1.143   5.304  0.3612 -0.5371 -0.2718
19203SOL    HW163571   3.407   1.157   5.227  0.8924 -1.6517 -0.1254
19203SOL    HW263572   3.263   1.152   5.273  0.5762  2.6405 -0.2634
19204SOL     OW63573   3.939   6.657   4.821 -0.0742 -0.1708 -0.1550
19204SOL    HW163574   3.849   6.672   4.851 -0.1242 -0.7949  0.0179
19204SOL    HW263575   3.975   6.745   4.810 -1.1211  0.1256 -1.5318
19205SOL     OW63576   3.919   2.331   4.358  0.7010  0.3596 -0.2502
19205SOL    HW163577   3.965   2.359   4.438 -0.6381 -0.2319  0.7652
19205SOL    HW263578   3.975   2.262   4.322  0.8299 -0.0766  0.7413
19206SOL     OW63579   8.088   6.856   6.324  0.1107  0.2005 -0.3119
19206SOL    HW163580   8.030   6.912   6.271 -0.6239  0.4222  0.6887
19206SOL    HW263581   8.169   6.852   6.274  0.0786  1.9322 -0.5716
19207SOL     OW63582   7.457   6.314   6.063 -0.4543  0.2629 -0.0118
19207SOL    HW163583   7.411   6.234   6.091 -1.9368  1.3044  0.6845
19207SOL    HW263584   7.530   6.322   6.124 -2.1520  1.0949  2.0758
19208SOL     OW63585   7.114   7.107   0.010 -0.1922  0.7350 -0.4149
19208SOL    HW163586   7.066   7.071   0.085  0.0590 -0.2823 -0.7279
19208SOL    HW263587   7.078   7.195  -0.001  0.7615  1.4736  1.7789
19209SOL     OW63588   6.910   7.840   0.468  0.6331 -0.0269  0.4606
19209SOL    HW163589   6.948   7.885   0.543  0.8842  0.2556  0.1676
19209SOL    HW263590   6.817   7.865   0.469  0.3594 -1.0187  1.3970
19210SOL     OW63591   1.617   0.665   3.340 -0.3545  0.1121 -0.0783
19210SOL    HW163592   1.599   0.757   3.318 -1.6425 -0.1371 -0.1294
19210SOL    HW263593   1.601   0.660   3.434 -0.1738 -0.0435 -0.0548
19211SOL     OW63594   4.021   2.241   7.710 -0.2396  0.4781  0.3080
19211SOL    HW163595   3.977   2.324   7.693 -1.6896 -0.2779  0.2694
19211SOL    HW263596   4.023   2.235   7.806  2.7643  2.0133  0.4752
19212SOL     OW63597   4.743   4.887   1.075  0.4196  0.6677 -0.1713
19212SOL    HW163598   4.739   4.912   0.983 -0.0922 -0.5038 -0.4893
19212SOL    HW263599   4.654   4.904   1.109  0.3200  0.1655 -0.1647
19213SOL     OW63600   6.239   0.915   8.271  0.1686 -0.2362  0.4254
19213SOL    HW163601   6.330   0.900   8.293  0.2235 -0.0923  0.3041
19213SOL    HW263602   6.226   0.871   8.187 -0.2566 -1.4815  1.1278
19214SOL     OW63603   4.576   5.926   6.257  1.0602 -0.2030  0.0116
19214SOL    HW163604   4.579   5.837   6.221  2.3074 -0.2404  0.1696
19214SOL    HW263605   4.598   5.983   6.183  0.1791 -0.0127 -0.1099
19215SOL     OW63606   2.789   4.321   7.873  0.0678  0.0316  0.0394
19215SOL    HW163607   2.877   4.308   7.908  0.3404 -1.9931 -1.2199
19215SOL    HW263608   2.802   4.369   7.791 -0.3179  2.3306  1.2611
19216SOL     OW63609   1.646   5.299   6.163 -0.0971 -0.3327 -0.1330
19216SOL    HW163610   1.563   5.269   6.202 -0.3378  0.6923  0.1830
19216SOL    HW263611   1.703   5.223   6.167 -1.5401 -1.6158 -1.9445
19217SOL     OW63612   6.460   1.031   0.476 -0.7017 -0.0688  0.4758
19217SOL    HW163613   6.387   1.018   0.415 -1.0177  2.0914  0.3019
19217SOL    HW263614   6.535   1.045   0.419 -0.6290  0.0849  0.6101
19218SOL     OW63615   7.748   7.344   4.652  0.1601  0.3242  0.1747
19218SOL    HW163616   7.739   7.423   4.706  0.7062  0.0450  0.6832
19218SOL    HW263617   7.670   7.345   4.596 -1.2347 -0.1321  1.9677
19219SOL     OW63618   3.737   6.759   3.205  0.5636 -0.2791 -0.2119
19219SOL    HW163619   3.762   6.796   3.290  1.0328 -1.0582  0.0024
19219SOL    HW263620   3.817   6.763   3.153  0.9893 -2.0543  0.2126
19220SOL     OW63621   7.215   1.337   5.114 -0.0823 -0.5545  0.1026
19220SOL    HW163622   7.210   1.310   5.206  0.2202  0.9684  0.5893
19220SOL    HW263623   7.187   1.260   5.065 -1.4361 -1.0134  1.5235
19221SOL     OW63624   8.957   3.035   4.814 -0.0502  0.8240  0.5230
19221SOL    HW163625   8.972   3.104   4.879  2.1712  1.0311 -0.1300
19221SOL    HW263626   9.044   2.999   4.796 -0.8109 -0.3075 -1.1716
19222SOL     OW63627   5.412   7.428   7.635 -0.1573  0.7454  0.1473
19222SOL    HW163628   5.438   7.517   7.612  1.2633  0.1558 -0.6523
19222SOL    HW263629   5.432   7.421   7.729  2.8370  0.3182 -0.4167
19223SOL     OW63630   1.539   8.537   3.716 -0.0138  0.3529 -0.0813
19223SOL    HW163631   1.549   8.453   3.761  0.9694  0.6701  0.3336
19223SOL    HW263632   1.588   8.527   3.635  1.0190  0.8496  0.4546
19224SOL     OW63633   5.245   7.578   4.606 -0.0942  0.0207 -0.4940
19224SOL    HW163634   5.206   7.587   4.519 -0.4209  0.9264 -0.2696
19224SOL    HW263635   5.278   7.666   4.627 -2.4901  0.5806  1.4275
19225SOL     OW63636   5.976   3.171   1.952  0.5350  0.5250  0.7240
19225SOL    HW163637   6.042   3.163   2.021 -0.0172 -0.1741  1.1881
19225SOL    HW263638   5.894   3.145   1.994  0.3469 -0.9292 -0.4737
19226SOL     OW63639   8.086   4.341   7.626 -0.3121  0.5284  0.1210
19226SOL    HW163640   8.152   4.405   7.651  0.1844 -0.2616  0.8975
19226SOL    HW263641   8.022   4.342   7.697  0.6650 -1.1200  1.0999
19227SOL     OW63642   7.380   6.361   3.443  0.4817 -0.0776 -0.1817
19227SOL    HW163643   7.376   6.411   3.361 -1.9960  2.3451  1.2522
19227SOL    HW263644   7.446   6.407   3.496 -1.0516  1.1483  0.7454
19228SOL     OW63645   6.146   2.674   5.748  0.0999 -0.0930  0.2628
19228SOL    HW163646   6.191   2.667   5.832 -1.3029  0.3836  1.0983
19228SOL    HW263647   6.153   2.767   5.725 -0.8857  0.0989  0.6776
19229SOL     OW63648   3.860   2.476   3.266 -0.3091 -0.4021 -0.4106
19229SOL    HW163649   3.836   2.413   3.333  1.1756 -0.0601  0.4758
19229SOL    HW263650   3.923   2.431   3.211  0.7675  0.2906  0.2328
19230SOL     OW63651   5.451   8.118   8.072 -0.0646  0.6820 -0.2382
19230SOL    HW163652   5.454   8.103   8.167 -2.2269  0.8779 -0.0946
19230SOL    HW263653   5.416   8.206   8.063 -0.3033  0.4946 -1.2222
19231SOL     OW63654   7.286   6.846   8.513  0.2295 -0.4598 -0.2341
19231SOL    HW163655   7.212   6.828   8.456  0.3076  0.0617 -0.5060
19231SOL    HW263656   7.361   6.853   8.454 -0.0697  2.6316 -0.4289
19232SOL     OW63657   2.848   3.713   8.951 -0.2304  0.7617 -0.2283
19232SOL    HW163658   2.888   3.660   9.020 -2.8233  0.2533  0.9983
19232SOL    HW263659   2.871   3.667   8.870  0.4420 -0.2905  0.5241
19233SOL     OW63660   0.729   8.636   1.714 -0.8411  1.0315 -0.5136
19233SOL    HW163661   0.780   8.603   1.640 -0.9955 -0.9972  0.2186
19233SOL    HW263662   0.638   8.618   1.691 -0.8234 -0.8868  0.6675
19234SOL     OW63663   2.235   3.889   2.667  0.0033  0.3734 -0.1767
19234SOL    HW163664   2.180   3.935   2.732  0.2937  2.1525 -1.1240
19234SOL    HW263665   2.174   3.865   2.598 -0.4718 -2.3076  1.0563
19235SOL     OW63666   8.234   1.312   8.440 -0.1046  0.1521 -0.1065
19235SOL    HW163667   8.281   1.305   8.523  1.3254  0.7584 -0.8167
19235SOL    HW263668   8.214   1.406   8.431  0.9463  0.3158 -1.0311
19236SOL     OW63669   4.317   6.259   3.692  0.2359 -0.3790  0.3137
19236SOL    HW163670   4.259   6.214   3.630 -1.4495  0.4628  1.1922
19236SOL    HW263671   4.332   6.345   3.653 -1.2743  0.3547  1.2594
19237SOL     OW63672   4.511   4.490   7.349 -0.5244  0.0358 -0.1239
19237SOL    HW163673   4.570   4.555   7.388 -1.0970  0.1165  0.6398
19237SOL    HW263674   4.569   4.419   7.321 -0.1174 -0.2811  1.4181
19238SOL     OW63675   3.045   3.193   0.937  0.4313  0.5751 -0.3368
19238SOL    HW163676   3.021   3.283   0.957 -2.1364  0.3644 -2.0318
19238SOL    HW263677   3.089   3.162   1.015 -2.5279  1.9805  2.0919
19239SOL     OW63678   5.002   4.603   0.109 -0.1631 -0.3536  0.0810
19239SOL    HW163679   4.943   4.573   0.179 -1.1652 -0.2025 -0.6756
19239SOL    HW263680   4.980   4.548   0.034 -0.1965  0.5170 -0.5651
19240SOL     OW63681   3.430   0.762   1.248  0.2525 -0.3691 -0.3382
19240SOL    HW163682   3.519   0.751   1.281  0.4435 -0.4128 -0.8616
19240SOL    HW263683   3.379   0.694   1.292  0.1637  0.5695  1.0750
19241SOL     OW63684   7.244   5.647   7.700  0.0174 -0.9279 -0.4376
19241SOL    HW163685   7.177   5.613   7.760  1.0951 -2.1118  0.1509
19241SOL    HW263686   7.289   5.715   7.750 -0.2798 -0.6282 -0.5762
19242SOL     OW63687   7.187   2.007   4.256 -0.0692  0.1344 -1.0008
19242SOL    HW163688   7.281   2.015   4.273 -0.3401 -1.2575  1.7271
19242SOL    HW263689   7.177   1.920   4.217 -0.4603 -1.5424  2.4184
19243SOL     OW63690   1.987   5.941   3.850  0.4513 -0.3591  0.8677
19243SOL    HW163691   1.967   5.858   3.808 -1.4851  1.0828 -1.3073
19243SOL    HW263692   1.926   5.947   3.923 -1.9285  0.5892 -1.0780
19244SOL     OW63693   7.097   2.252   2.703  0.5433 -0.0174 -0.9665
19244SOL    HW163694   7.140   2.170   2.678  0.0145 -0.4683 -0.4256
19244SOL    HW263695   7.038   2.227   2.774  0.2912  0.8160 -0.8773
19245SOL     OW63696   9.035   2.762   0.697 -0.1111  0.3779 -0.1469
19245SOL    HW163697   9.114   2.715   0.671 -1.0716 -1.5901  0.2893
19245SOL    HW263698   8.998   2.709   0.768 -2.6619  0.3250 -1.4049
19246SOL     OW63699   2.887   8.268   3.227  0.5284  0.2266  0.5804
19246SOL    HW163700   2.847   8.186   3.256 -0.4084  0.4319 -0.0853
19246SOL    HW263701   2.814   8.331   3.228  0.7824  0.5708 -0.8479
19247SOL     OW63702   5.058   0.115   2.753 -0.5190  0.1079 -0.8286
19247SOL    HW163703   5.153   0.100   2.748 -0.1615  2.2357 -1.1709
19247SOL    HW263704   5.022   0.029   2.775  1.4288 -0.8857 -1.2599
19248SOL     OW63705   0.728   8.812   7.353 -0.1548  0.4010  0.6591
19248SOL    HW163706   0.640   8.851   7.348 -0.6086 -0.5858  0.6095
19248SOL    HW263707   0.727   8.742   7.287  0.1883 -0.5248  1.6014
19249SOL     OW63708   4.317   4.658   4.133  0.1208  0.1093 -0.0579
19249SOL    HW163709   4.249   4.724   4.139 -0.9058 -1.0466  2.6940
19249SOL    HW263710   4.278   4.588   4.080  0.1685  0.5192 -0.6421
19250SOL     OW63711   0.358   0.457   0.444  0.7085 -0.0667  0.6116
19250SOL    HW163712   0.380   0.455   0.351 -0.3629  1.8604  0.2514
19250SOL    HW263713   0.313   0.374   0.461 -1.9592  0.8470 -1.4132
19251SOL     OW63714   5.532   7.896   2.713  0.2644  0.5019  0.2521
19251SOL    HW163715   5.535   7.806   2.745 -1.2630  0.0808 -0.6369
19251SOL    HW263716   5.609   7.905   2.657 -0.0409 -0.5572 -0.3590
19252SOL     OW63717   5.206   8.526   3.200 -0.6908 -0.1707 -0.1837
19252SOL    HW163718   5.150   8.495   3.270 -0.1481 -0.1340  0.2747
19252SOL    HW263719   5.146   8.563   3.135 -1.1062  1.4823  1.0872
19253SOL     OW63720   6.856   2.535   7.124  0.4259  0.3453 -0.0184
19253SOL    HW163721   6.800   2.600   7.083  1.7919  1.6706  0.1354
19253SOL    HW263722   6.834   2.453   7.081 -1.2503  0.9189 -0.2983
19254SOL     OW63723   4.581   2.324   9.128 -0.2646 -0.6333  0.5445
19254SOL    HW163724   4.579   2.309   9.033 -0.6080 -1.4962  0.6862
19254SOL    HW263725   4.583   2.420   9.136  0.5636 -0.5543 -0.3423
19255SOL     OW63726   7.347   9.278   1.158 -0.4396 -0.0820  0.3548
19255SOL    HW163727   7.408   9.292   1.085  2.6521 -0.7113  2.6051
19255SOL    HW263728   7.377   9.197   1.199 -1.6221  0.5768  2.6907
19256SOL     OW63729   5.481   2.115   3.382 -0.0578 -0.1805  0.3152
19256SOL    HW163730   5.407   2.152   3.431 -1.3389 -2.5125  0.2843
19256SOL    HW263731   5.450   2.112   3.291  0.6782  0.2107  0.0461
19257SOL     OW63732   5.737   3.056   6.066  0.4873  0.0400  0.6143
19257SOL    HW163733   5.654   3.067   6.112  0.3638  0.7110  0.2414
19257SOL    HW263734   5.804   3.061   6.134  0.2107 -0.8879  0.9675
19258SOL     OW63735   1.453   2.393   9.090 -0.3551  0.2684  0.6213
19258SOL    HW163736   1.380   2.332   9.084 -0.7209  0.7402 -0.0009
19258SOL    HW263737   1.507   2.373   9.013 -0.7519  1.0548  0.1267
19259SOL     OW63738   8.536   4.491   5.592  0.1527  0.8978 -0.3038
19259SOL    HW163739   8.485   4.551   5.538  0.3809  1.7446  0.3939
19259SOL    HW263740   8.476   4.467   5.663 -0.5178 -1.0630 -1.4706
19260SOL     OW63741   0.733   1.185   0.433 -0.0364 -0.2924  0.7131
19260SOL    HW163742   0.702   1.108   0.385 -0.8315 -0.0828  0.8736
19260SOL    HW263743   0.811   1.155   0.480  0.3940 -0.6595 -0.2231
19261SOL     OW63744   5.862   3.936   7.860 -0.4055 -0.2204 -0.4494
19261SOL    HW163745   5.850   3.877   7.785 -0.0814  0.1080 -0.7705
19261SOL    HW263746   5.896   4.017   7.820  0.0585 -0.1481  0.0903
19262SOL     OW63747   5.440   4.139   5.555 -0.4974 -0.4976 -0.2502
19262SOL    HW163748   5.360   4.184   5.583  0.5774  0.0348  2.1858
19262SOL    HW263749   5.430   4.050   5.588  0.6986  0.0801  1.7942
19263SOL     OW63750   6.453   4.338   0.111 -0.3997 -0.6085 -0.2839
19263SOL    HW163751   6.525   4.314   0.052 -1.4730 -0.5971 -1.6472
19263SOL    HW263752   6.442   4.262   0.168 -0.4100 -1.2945 -1.1829
19264SOL     OW63753   7.971   2.128   6.452 -1.1484  0.5618  0.5544
19264SOL    HW163754   8.012   2.094   6.532 -1.2789  0.0907  0.4246
19264SOL    HW263755   7.945   2.050   6.404  0.3507  0.7707 -0.6954
19265SOL     OW63756   9.160   4.095   2.044  0.0306  0.2877  0.0226
19265SOL    HW163757   9.117   4.151   2.109 -0.5038  0.4760 -0.4872
19265SOL    HW263758   9.131   4.130   1.959 -0.0024 -0.5213 -0.3062
19266SOL     OW63759   9.366   5.705   8.182  0.7820  0.2411 -0.3585
19266SOL    HW163760   9.306   5.773   8.152  0.9386  0.1798 -0.8202
19266SOL    HW263761   9.406   5.742   8.261 -0.0825  0.1523  0.1268
19267SOL     OW63762   8.283   0.772   1.979 -0.5456  0.3200 -0.0413
19267SOL    HW163763   8.257   0.734   2.063 -0.9888  1.4369  0.3459
19267SOL    HW263764   8.200   0.791   1.934 -0.4122  2.3486  0.4854
19268SOL     OW63765   3.734   4.257   1.770  0.0576  0.3971  0.5257
19268SOL    HW163766   3.797   4.269   1.699 -0.4938 -0.4915 -0.1435
19268SOL    HW263767   3.651   4.240   1.725 -0.3073 -0.1519  1.3882
19269SOL     OW63768   2.296   3.544   7.209 -0.1255 -0.3795 -0.0563
19269SOL    HW163769   2.282   3.636   7.227  1.4171  0.0077 -0.7158
19269SOL    HW263770   2.342   3.510   7.285  0.6479 -0.2513 -0.4657
19270SOL     OW63771   4.941   6.766   2.020 -0.2474  0.1057 -0.2989
19270SOL    HW163772   5.017   6.820   2.044 -0.3631  0.1198  0.0341
19270SOL    HW263773   4.924   6.789   1.929 -0.8229  1.2678  0.0864
19271SOL     OW63774   3.522   7.129   8.660  0.5712  0.0213  0.2408
19271SOL    HW163775   3.577   7.051   8.656  0.2768 -0.2114  0.6220
19271SOL    HW263776   3.449   7.103   8.717 -1.0501 -0.3638 -1.8979
19272SOL     OW63777   1.816   4.428   3.234  0.3928  0.3528 -0.1557
19272SOL    HW163778   1.853   4.513   3.260 -1.0055  0.8891  0.1834
19272SOL    HW263779   1.724   4.434   3.260 -0.6695  0.1741 -3.4678
19273SOL     OW63780   4.868   2.887   6.076  0.3001 -0.1255 -0.1523
19273SOL    HW163781   4.885   2.836   5.997  1.2541  0.8129 -0.5854
19273SOL    HW263782   4.887   2.977   6.051 -1.1680  0.4429  0.6419
19274SOL     OW63783   5.214   2.383   2.929  0.3052  0.4340  0.4894
19274SOL    HW163784   5.235   2.303   2.880  0.4651  1.8952 -2.0259
19274SOL    HW263785   5.291   2.399   2.983  1.3977  0.2294 -0.9311
19275SOL     OW63786   0.229   3.854   3.268  0.1482  0.2022  0.1007
19275SOL    HW163787   0.258   3.794   3.336 -0.1204  0.1394  0.1607
19275SOL    HW263788   0.265   3.818   3.187 -0.2575 -0.2042  0.0976
19276SOL     OW63789   6.426   7.040   7.733  0.2465  0.1973 -0.1777
19276SOL    HW163790   6.428   7.036   7.638  1.2245  1.6977 -0.2502
19276SOL    HW263791   6.396   6.953   7.760  0.2968 -0.3663 -1.8295
19277SOL     OW63792   0.946   2.226   7.816 -0.0025 -0.1247 -0.0830
19277SOL    HW163793   0.974   2.138   7.793  0.6460  0.2489 -0.7721
19277SOL    HW263794   0.922   2.267   7.733  0.0907  0.4811  0.1801
19278SOL     OW63795   6.716   8.451   6.853  0.6248  0.5672 -0.8661
19278SOL    HW163796   6.634   8.459   6.902  0.7561 -0.4859 -0.4534
19278SOL    HW263797   6.768   8.527   6.880 -0.7416  2.0559 -2.2003
19279SOL     OW63798   7.880   2.525   5.104  0.4171 -0.2294  0.3144
19279SOL    HW163799   7.949   2.509   5.169  0.3570 -1.5915  0.0782
19279SOL    HW263800   7.906   2.606   5.061  0.7190  0.4401  1.6966
19280SOL     OW63801   6.487   6.715   2.082 -0.1668  0.2906  0.1548
19280SOL    HW163802   6.480   6.620   2.073 -1.0000  0.3513  0.1259
19280SOL    HW263803   6.443   6.735   2.165  1.4934  0.4826  1.0354
19281SOL     OW63804   3.437   4.131   7.973  0.6765  0.3232  0.2779
19281SOL    HW163805   3.528   4.111   7.955  1.0973  0.9396  1.5953
19281SOL    HW263806   3.433   4.227   7.974  0.1156  0.3030  0.7053
19282SOL     OW63807   1.778   7.491   6.883  0.2879  0.5093 -0.6308
19282SOL    HW163808   1.710   7.483   6.950  1.4596 -2.0968  0.3857
19282SOL    HW263809   1.793   7.585   6.875 -1.4065  0.9949  1.2009
19283SOL     OW63810   3.572   5.392   5.334 -0.2794  0.2340  0.9297
19283SOL    HW163811   3.618   5.466   5.373 -1.2030  1.2109  0.2036
19283SOL    HW263812   3.501   5.373   5.396 -0.4676  0.4167  0.7714
19284SOL     OW63813   1.897   1.287   4.856  0.4636 -0.5712 -0.2765
19284SOL    HW163814   1.951   1.362   4.831 -0.9736  1.2981  1.8665
19284SOL    HW263815   1.953   1.236   4.915  0.5788  0.2296  0.3097
19285SOL     OW63816   0.372   5.015   0.562 -0.0619  0.4569 -0.2736
19285SOL    HW163817   0.328   4.934   0.536 -1.4612  0.5990  1.4700
19285SOL    HW263818   0.457   4.986   0.596 -0.6272 -0.3183  0.5263
19286SOL     OW63819   0.784   1.904   3.113 -0.2575  0.0613 -0.0002
19286SOL    HW163820   0.794   1.978   3.173 -1.3291 -1.1073  1.7408
19286SOL    HW263821   0.784   1.827   3.170  0.7776 -1.2975 -1.7412
19287SOL     OW63822   9.209   2.482   5.372  0.2240  0.0317  0.2783
19287SOL    HW163823   9.141   2.548   5.365 -0.2385 -0.5295 -0.8638
19287SOL    HW263824   9.289   2.526   5.343 -0.1612 -0.0035 -0.8801
19288SOL     OW63825   6.900   6.074   6.393  0.4390 -0.1423  0.2772
19288SOL    HW163826   6.891   6.149   6.334 -0.3910 -1.0880 -0.8383
19288SOL    HW263827   6.825   6.082   6.452  0.6442  0.1893  0.4969
19289SOL     OW63828   7.017   8.055   2.116 -0.0444  0.2248  0.7170
19289SOL    HW163829   6.991   8.124   2.176 -0.3887  3.0827 -2.4200
19289SOL    HW263830   7.113   8.055   2.118 -0.0317 -0.9263  2.3883
19290SOL     OW63831   0.981   6.352   1.631 -0.3240  0.3561  0.4814
19290SOL    HW163832   1.038   6.423   1.661 -0.4166  0.4057  0.5416
19290SOL    HW263833   1.040   6.278   1.617 -0.2066  0.4880  0.2761
19291SOL     OW63834   1.309   1.199   0.573 -0.1952  0.2977  0.4019
19291SOL    HW163835   1.329   1.183   0.665 -0.1410 -1.6492  0.0763
19291SOL    HW263836   1.393   1.222   0.534 -0.1576  0.7750  0.7513
19292SOL     OW63837   0.768   8.083   0.760  0.2102 -0.8675  0.2036
19292SOL    HW163838   0.714   8.004   0.755  0.1685 -0.8117 -0.3061
19292SOL    HW263839   0.735   8.139   0.690  0.9952 -0.8776 -0.1863
19293SOL     OW63840   2.589   6.344   6.083  0.1149  0.2030 -0.1150
19293SOL    HW163841   2.525   6.368   6.016 -3.3350 -2.1458  2.0089
19293SOL    HW263842   2.607   6.426   6.129 -3.2417  0.7168  0.5688
19294SOL     OW63843   0.487   6.580   2.833 -0.3072 -0.8918  0.1740
19294SOL    HW163844   0.501   6.674   2.837  1.1733 -0.8218 -3.0402
19294SOL    HW263845   0.492   6.550   2.924  2.8693  1.6736  1.0211
19295SOL     OW63846   7.053   5.496   6.224 -0.0938  0.2423 -0.6195
19295SOL    HW163847   7.086   5.580   6.192 -0.3417  1.4268  2.0211
19295SOL    HW263848   7.081   5.492   6.315 -0.5107 -2.3591 -0.5286
19296SOL     OW63849   5.983   3.611   8.627 -0.0638  0.1605 -0.2405
19296SOL    HW163850   6.067   3.657   8.628  0.7668 -1.1957  2.5968
19296SOL    HW263851   5.917   3.681   8.624  1.1819  1.4446  0.8186
19297SOL     OW63852   8.145   6.798   1.034  0.1464  0.1136 -0.1557
19297SOL    HW163853   8.228   6.799   1.082  0.3715 -0.0072 -0.5340
19297SOL    HW263854   8.137   6.887   0.999  1.2242 -0.4411 -1.9616
19298SOL     OW63855   7.917   4.821   1.658  0.1960  0.2592 -0.3509
19298SOL    HW163856   7.952   4.864   1.737  0.1955 -1.1289  0.4492
19298SOL    HW263857   7.863   4.888   1.616  1.7661  1.6490 -0.2397
19299SOL     OW63858   0.816   8.453   8.645  0.1820 -0.4981  0.5445
19299SOL    HW163859   0.881   8.493   8.587 -0.4673  0.8352  0.7071
19299SOL    HW263860   0.852   8.366   8.664  1.5135 -0.1015 -0.0151
19300SOL     OW63861   9.306   6.466   2.533 -0.1531 -0.3010 -0.4327
19300SOL    HW163862   9.283   6.496   2.622 -1.1036  1.5731 -1.2433
19300SOL    HW263863   9.233   6.497   2.478  0.0645 -2.0504 -1.7752
19301SOL     OW63864   5.698   1.280   8.789  0.0340  0.6680 -0.0271
19301SOL    HW163865   5.696   1.186   8.774 -0.0003  0.6286  0.2218
19301SOL    HW263866   5.677   1.290   8.882  1.5186  0.8206  0.3194
19302SOL     OW63867   7.724   8.177   4.250  0.4135  0.5773 -0.0433
19302SOL    HW163868   7.735   8.255   4.304 -0.0221  0.2490  0.5432
19302SOL    HW263869   7.698   8.109   4.313 -0.7439  0.3448 -0.7497
19303SOL     OW63870   9.310   5.095   0.235  0.1630  0.2942 -0.0254
19303SOL    HW163871   9.257   5.162   0.191 -1.4173 -1.3592 -0.7702
19303SOL    HW263872   9.248   5.047   0.290  1.7934  1.2440  2.8916
19304SOL     OW63873   5.880   6.821   4.384  0.1709  0.1441  0.2000
19304SOL    HW163874   5.872   6.916   4.375 -1.6260 -0.0297 -0.4126
19304SOL    HW263875   5.847   6.786   4.301  0.2204 -1.0447  0.6559
19305SOL     OW63876   5.983   5.227   1.118  0.1872  0.7176  0.4373
19305SOL    HW163877   5.973   5.287   1.193 -0.7687 -0.0270  0.9292
19305SOL    HW263878   6.050   5.165   1.146 -0.3680  0.2681  0.8237
19306SOL     OW63879   3.622   1.363   9.359  0.0138 -0.9408  0.0427
19306SOL    HW163880   3.576   1.343   9.278  0.8512 -1.8624 -0.2200
19306SOL    HW263881   3.642   1.277   9.397  0.5083 -0.5362  0.7208
19307SOL     OW63882   4.077   4.120   7.999  0.1438 -0.0610  0.0612
19307SOL    HW163883   4.158   4.076   8.025  0.1871  0.6995  1.2782
19307SOL    HW263884   4.008   4.070   8.042  0.1832  0.9194  1.3235
19308SOL     OW63885   3.384   5.798   6.756  0.2168  0.2160  0.0487
19308SOL    HW163886   3.367   5.712   6.717  2.2346 -0.3116  0.1907
19308SOL    HW263887   3.361   5.788   6.848 -1.0460  0.3307 -0.2418
19309SOL     OW63888   2.842   2.890   6.395 -0.1331 -0.2614 -0.0159
19309SOL    HW163889   2.908   2.851   6.338 -0.4239  0.3646 -0.8096
19309SOL    HW263890   2.881   2.972   6.424  0.1871 -0.7790  1.0535
19310SOL     OW63891   4.302   2.405   7.809  0.1260 -0.2233  0.1381
19310SOL    HW163892   4.353   2.325   7.793  0.3431  0.0788 -0.7100
19310SOL    HW263893   4.223   2.374   7.854 -0.2915 -1.0578 -1.1217
19311SOL     OW63894   8.014   6.027   0.750 -0.1852  0.4691  0.5024
19311SOL    HW163895   8.014   6.036   0.654  0.7433 -0.9791  0.3307
19311SOL    HW263896   7.923   6.040   0.775 -0.9668 -1.7125 -0.8855
19312SOL     OW63897   1.815   8.379   9.188 -0.3974 -0.2696 -0.5239
19312SOL    HW163898   1.895   8.344   9.150 -0.1811  0.2015 -0.5067
19312SOL    HW263899   1.766   8.301   9.215  0.2454 -0.5480 -0.1297
19313SOL     OW63900   2.065   4.265   3.147 -0.1796  0.1396 -0.7885
19313SOL    HW163901   1.998   4.332   3.163 -0.0060  0.7166 -2.2976
19313SOL    HW263902   2.017   4.182   3.146 -0.7332  0.4585 -0.9421
19314SOL     OW63903   8.869   4.355   1.291 -0.1857 -0.0002  0.0143
19314SOL    HW163904   8.855   4.260   1.285  0.9637 -0.1917  0.0719
19314SOL    HW263905   8.907   4.379   1.206  0.7609  0.1653  0.4700
19315SOL     OW63906   6.064   0.900   5.265 -0.9008 -0.3689  0.1022
19315SOL    HW163907   6.136   0.870   5.321 -2.3284 -1.9407  1.2028
19315SOL    HW263908   6.023   0.970   5.315  1.3909  2.5365 -1.7253
19316SOL     OW63909   0.067   9.192   4.746  0.1175  0.4757  0.8384
19316SOL    HW163910   0.138   9.154   4.797 -0.5553 -2.0471  0.0535
19316SOL    HW263911   0.007   9.228   4.812  0.5117 -0.3671  1.6812
19317SOL     OW63912   6.162   0.559   2.948 -0.8718 -0.0492  0.7191
19317SOL    HW163913   6.155   0.613   3.026  0.0907 -0.7749  1.3368
19317SOL    HW263914   6.152   0.469   2.980  1.1097 -0.4733  0.2965
19318SOL     OW63915   7.341   8.516   2.167 -0.5281 -0.0567  0.2593
19318SOL    HW163916   7.333   8.441   2.225 -1.9711  0.1512  0.3632
19318SOL    HW263917   7.323   8.482   2.080  0.2714 -0.1076  0.1124
19319SOL     OW63918   2.492   8.483   1.775  0.2155  0.1140 -0.1031
19319SOL    HW163919   2.472   8.491   1.868  1.3239 -2.5140  0.4545
19319SOL    HW263920   2.407   8.474   1.732 -0.2504 -0.0269  0.8331
19320SOL     OW63921   7.665   5.351   7.310 -0.6659 -0.0622  0.7764
19320SOL    HW163922   7.579   5.340   7.270 -0.5730  2.1532 -0.1956
19320SOL    HW263923   7.648   5.388   7.396 -0.6916  0.3151  0.6095
19321SOL     OW63924   8.444   3.162   4.623 -0.1778 -0.1719  0.1098
19321SOL    HW163925   8.391   3.238   4.646  0.9875  0.9374 -0.6967
19321SOL    HW263926   8.501   3.147   4.698 -0.7135 -0.5418  0.4474
19322SOL     OW63927   6.241   0.219   1.223  0.0276  0.0698  0.4250
19322SOL    HW163928   6.300   0.144   1.215 -1.1349 -0.9644  1.1470
19322SOL    HW263929   6.192   0.220   1.141 -0.1151 -0.1037  0.5078
19323SOL     OW63930   3.440   1.501   4.791  0.5830  0.0954  0.3990
19323SOL    HW163931   3.461   1.594   4.779 -2.1234  1.2921  3.3022
19323SOL    HW263932   3.512   1.467   4.845  0.4070  1.2109  1.3772
19324SOL     OW63933   7.582   6.046   6.824  0.6197 -0.3319 -0.1612
19324SOL    HW163934   7.508   6.026   6.767  0.9595  2.5684 -1.7921
19324SOL    HW263935   7.647   6.086   6.766  3.0214 -1.6567  1.4435
19325SOL     OW63936   0.127   4.496   6.916  0.3176 -0.7916  0.0036
19325SOL    HW163937   0.187   4.570   6.916 -1.1975  0.4876 -0.1320
19325SOL    HW263938   0.055   4.523   6.973 -0.9298 -1.5581 -1.1385
19326SOL     OW63939   9.285   3.859   8.238  0.5326 -0.0247  0.0517
19326SOL    HW163940   9.265   3.765   8.236 -1.2678  0.3167  0.3369
19326SOL    HW263941   9.321   3.877   8.151  2.2726 -1.2270  0.4819
19327SOL     OW63942   0.884   0.785   6.873  0.0604 -0.5065  0.2650
19327SOL    HW163943   0.896   0.772   6.779 -3.5202  1.6420 -0.7108
19327SOL    HW263944   0.942   0.858   6.895  0.3664 -0.5334 -0.4333
19328SOL     OW63945   1.077   6.367   0.241 -0.0210 -0.0518 -0.3495
19328SOL    HW163946   1.015   6.305   0.279 -0.2367  0.3591 -0.0245
19328SOL    HW263947   1.163   6.330   0.262 -0.0480  1.1822  2.3841
19329SOL     OW63948   1.678   4.841   5.546  0.0262  0.1120 -0.0196
19329SOL    HW163949   1.686   4.755   5.587  1.3887  0.8815  1.4350
19329SOL    HW263950   1.664   4.901   5.619 -0.3568  1.1912 -0.9583
19330SOL     OW63951   7.945   0.654   2.585 -0.1311 -0.0531  0.0622
19330SOL    HW163952   7.879   0.622   2.647  0.7860 -2.1641  0.0393
19330SOL    HW263953   8.008   0.702   2.640 -1.2379  1.3143  0.1855
19331SOL     OW63954   0.589   7.504   4.689 -0.3210 -0.1598 -0.1297
19331SOL    HW163955   0.649   7.456   4.745  0.0694 -0.7753 -1.0389
19331SOL    HW263956   0.524   7.541   4.748  1.0371  0.6674  0.8966
19332SOL     OW63957   0.372   1.581   5.890  0.3677 -0.3269 -0.3573
19332SOL    HW163958   0.363   1.486   5.890 -0.2379 -0.2745 -0.5203
19332SOL    HW263959   0.430   1.600   5.964  3.3727 -1.0489 -2.3608
19333SOL     OW63960   5.898   7.548   3.570  0.8708  0.0436 -0.5988
19333SOL    HW163961   5.879   7.485   3.639  1.6161  0.3504 -0.1036
19333SOL    HW263962   5.819   7.602   3.565  0.3474 -0.7196 -0.8136
19334SOL     OW63963   7.548   5.529   2.564 -0.2115  0.2874  0.2366
19334SOL    HW163964   7.505   5.597   2.616  1.2131  2.0303 -0.7354
19334SOL    HW263965   7.495   5.522   2.485 -1.0982 -0.7090  0.9078
19335SOL     OW63966   3.746   6.207   1.874  0.3505 -0.7535  0.6093
19335SOL    HW163967   3.676   6.244   1.820  1.0869  0.0058  0.1506
19335SOL    HW263968   3.748   6.262   1.953  1.6857  0.4749 -0.2326
19336SOL     OW63969   0.421   7.402   7.958 -0.0849  0.4008 -0.0680
19336SOL    HW163970   0.449   7.380   7.869  1.9565 -0.3423  0.7101
19336SOL    HW263971   0.493   7.452   7.995 -0.3199 -0.4242  1.5884
19337SOL     OW63972   0.253   7.347   6.927 -0.0077  0.3828  0.6204
19337SOL    HW163973   0.348   7.336   6.932  0.0053  0.7441  1.4580
19337SOL    HW263974   0.219   7.294   6.999 -0.3649  0.9654  0.8966
19338SOL     OW63975   6.475   5.717   5.114  0.1844  0.1802  0.2980
19338SOL    HW163976   6.552   5.662   5.128  1.2320  1.4502 -0.2564
19338SOL    HW263977   6.498   5.772   5.040 -1.7080 -0.1504 -0.5941
19339SOL     OW63978   5.507   2.964   1.214 -0.2083  0.3611  0.0558
19339SOL    HW163979   5.524   2.907   1.139  1.1677  0.0183  0.5989
19339SOL    HW263980   5.557   3.043   1.195  0.5125  0.0971  0.8067
19340SOL     OW63981   6.681   5.928   7.381 -0.2366 -0.2165  0.0140
19340SOL    HW163982   6.709   5.930   7.289  0.0244 -0.4219  0.0869
19340SOL    HW263983   6.756   5.961   7.430 -1.5640  3.3469 -0.0821
19341SOL     OW63984   5.783   4.816   3.641  0.1303 -0.3902 -0.6830
19341SOL    HW163985   5.712   4.867   3.680  1.8595  0.1781  2.0175
19341SOL    HW263986   5.762   4.811   3.548 -4.1153 -1.4121  0.1524
19342SOL     OW63987   1.226   1.933   1.749  0.2903  0.0439 -0.9450
19342SOL    HW163988   1.256   1.870   1.814  0.5137 -0.2154 -1.2972
19342SOL    HW263989   1.131   1.940   1.763  0.0184 -1.4506 -1.8298
19343SOL     OW63990   0.079   7.534   5.559  0.3441  0.3685 -0.5531
19343SOL    HW163991   0.052   7.508   5.647 -1.0957  0.3793 -0.9644
19343SOL    HW263992   0.051   7.461   5.503  0.6906  0.6330 -1.0740
19344SOL     OW63993   3.026   6.951   2.435  0.0650 -0.6302 -0.4513
19344SOL    HW163994   3.107   6.904   2.455 -0.0310 -0.7832 -0.4239
19344SOL    HW263995   2.958   6.885   2.439 -0.6112  0.0698  2.9740
19345SOL     OW63996   6.509   2.139   4.138  0.9713 -0.4778  0.1829
19345SOL    HW163997   6.459   2.197   4.195 -0.2367 -0.7379 -0.5815
19345SOL    HW263998   6.600   2.149   4.167  0.4265 -0.4389  1.9838
19346SOL     OW63999   7.414   3.898   8.760 -0.5842 -0.4524 -0.4392
19346SOL    HW164000   7.357   3.952   8.815 -1.0729 -0.6076 -0.7834
19346SOL    HW264001   7.500   3.902   8.802 -0.3595  1.3867 -0.9852
19347SOL     OW64002   1.827   7.086   7.764  0.3436  0.5051  0.2734
19347SOL    HW164003   1.917   7.117   7.749  0.8090 -0.1823  1.4934
19347SOL    HW264004   1.772   7.160   7.739  1.2683  1.0523 -0.1940
19348SOL     OW64005   2.297   1.166   7.689 -0.1584 -0.1935  0.1385
19348SOL    HW164006   2.207   1.151   7.718  0.4211  0.5964  2.5076
19348SOL    HW264007   2.350   1.150   7.766  1.8225 -1.1009 -1.3358
19349SOL     OW64008   7.927   4.485   8.965  0.0840 -0.2702 -0.0993
19349SOL    HW164009   7.952   4.563   9.013 -2.5187  0.3159  0.4769
19349SOL    HW264010   7.902   4.517   8.878  0.3828 -0.6770 -0.3404
19350SOL     OW64011   1.721   4.775   4.939  0.1050 -0.0281  0.3962
19350SOL    HW164012   1.663   4.699   4.930 -0.0191  0.1712 -0.5966
19350SOL    HW264013   1.775   4.755   5.015  0.7085 -1.5467 -0.3937
19351SOL     OW64014   6.540   9.345   2.936 -0.0740 -0.3676  0.2799
19351SOL    HW164015   6.520   9.435   2.910 -2.5676 -0.1609  2.5872
19351SOL    HW264016   6.627   9.350   2.976 -0.3408  1.1067  0.7115
19352SOL     OW64017   3.157   4.561   7.609 -0.1941  0.2018 -0.0417
19352SOL    HW164018   3.202   4.586   7.690  0.2189 -0.8011  0.0502
19352SOL    HW264019   3.227   4.534   7.550 -0.2292  3.2966 -1.6840
19353SOL     OW64020   1.706   3.412   8.935 -0.4656  0.0126 -0.0981
19353SOL    HW164021   1.621   3.424   8.894  0.7467 -0.2300 -2.9725
19353SOL    HW264022   1.749   3.346   8.881  1.2381 -0.5445  1.8070
19354SOL     OW64023   3.236   5.616   6.353  0.4883  0.3562 -0.7515
19354SOL    HW164024   3.159   5.641   6.303 -1.5778 -0.3939  1.8205
19354SOL    HW264025   3.207   5.619   6.445  2.7124 -2.5088  0.1965
19355SOL     OW64026   2.696   1.193   9.274  0.2548 -0.2441  0.3041
19355SOL    HW164027   2.681   1.224   9.185 -0.2056 -1.4665 -0.0622
19355SOL    HW264028   2.656   1.260   9.330 -1.3112 -0.4831 -0.4725
19356SOL     OW64029   6.565   3.631   1.857  0.0917 -0.3579 -0.1018
19356SOL    HW164030   6.537   3.628   1.765  1.5456  0.0873 -0.5928
19356SOL    HW264031   6.652   3.672   1.854 -0.2865  0.6544  1.6029
19357SOL     OW64032   1.135   4.541   3.005  0.7284  0.4349 -0.0139
19357SOL    HW164033   1.128   4.588   2.922 -4.2313  0.5542  0.1957
19357SOL    HW264034   1.150   4.450   2.980  0.4448  0.6464 -0.9985
19358SOL     OW64035   7.485   8.495   5.427 -0.1835 -0.3372 -0.2760
19358SOL    HW164036   7.471   8.468   5.336  0.3546  1.1658 -0.8508
19358SOL    HW264037   7.510   8.587   5.420  1.4997 -0.6293  1.2767
19359SOL     OW64038   2.230   1.796   6.199 -0.1871  0.0737  0.0702
19359SOL    HW164039   2.173   1.846   6.140  1.8492 -0.1906 -2.3039
19359SOL    HW264040   2.182   1.715   6.215 -1.6354  0.9528  0.4144
19360SOL     OW64041   6.536   9.349   3.855 -0.0274  0.0973 -0.0987
19360SOL    HW164042   6.474   9.421   3.862 -1.1078 -0.9059  1.5614
19360SOL    HW264043   6.485   9.277   3.819  1.0623  0.1431 -1.8458
19361SOL     OW64044   5.892   0.422   3.227 -0.1227 -0.0080 -0.3424
19361SOL    HW164045   5.967   0.417   3.286 -0.5470  1.1672  0.3241
19361SOL    HW264046   5.831   0.481   3.270 -1.0894 -0.2922 -1.2660
19362SOL     OW64047   7.482   1.897   5.427 -0.7908  0.0123 -0.0740
19362SOL    HW164048   7.408   1.953   5.407 -2.4206 -1.5355  1.2690
19362SOL    HW264049   7.476   1.825   5.364 -0.3383 -0.0539 -0.0503
19363SOL     OW64050   0.153   5.106   6.528 -0.1883  0.8330  0.3597
19363SOL    HW164051   0.192   5.192   6.535 -0.4287  0.8921  1.1015
19363SOL    HW264052   0.210   5.058   6.468  1.9159  0.4359  2.5227
19364SOL     OW64053   5.989   6.639   7.842  0.2034 -0.2771  0.4452
19364SOL    HW164054   5.970   6.602   7.929  0.0627 -1.0847  0.0807
19364SOL    HW264055   5.924   6.708   7.831  0.0759 -0.3188  0.8843
19365SOL     OW64056   3.157   9.026   2.557  0.1951  0.3740 -0.0934
19365SOL    HW164057   3.167   9.008   2.463 -0.8110  1.5609 -0.4678
19365SOL    HW264058   3.246   9.041   2.589  0.6299 -0.8692 -0.6625
19366SOL     OW64059   3.458   1.878   1.173  0.3566  0.5194  0.6425
19366SOL    HW164060   3.534   1.839   1.130 -0.0777 -0.1137  0.4399
19366SOL    HW264061   3.401   1.804   1.193 -0.2080  0.9889  0.7938
19367SOL     OW64062   3.671   1.139   8.593 -0.2189 -0.1757  0.9169
19367SOL    HW164063   3.589   1.187   8.590  1.2376  2.4930  1.2176
19367SOL    HW264064   3.662   1.072   8.525 -2.1424  0.8907  0.0567
19368SOL     OW64065   4.854   1.657   0.518 -0.1382  0.6205  1.1895
19368SOL    HW164066   4.841   1.732   0.576  0.6323  0.5088  1.5113
19368SOL    HW264067   4.887   1.694   0.437 -2.3883  0.9157  0.3418
19369SOL     OW64068   0.582   5.641   4.204 -0.1546 -0.0220  0.1099
19369SOL    HW164069   0.625   5.614   4.123 -2.0113 -0.9921 -0.6079
19369SOL    HW264070   0.572   5.561   4.255  1.5361  0.6684  1.6199
19370SOL     OW64071   8.949   1.371   6.862  0.1302 -0.0008  1.0576
19370SOL    HW164072   8.923   1.298   6.806 -1.2483  0.3935  1.1385
19370SOL    HW264073   8.981   1.329   6.943 -0.3157 -0.5180  0.9700
19371SOL     OW64074   0.576   0.139   4.545  0.4635 -0.7255 -0.1171
19371SOL    HW164075   0.551   0.047   4.536  1.4679 -1.1336  1.0148
19371SOL    HW264076   0.633   0.141   4.622 -0.0431  0.9499  0.2494
19372SOL     OW64077   1.487   5.457   7.650 -0.3122  0.2264 -0.3362
19372SOL    HW164078   1.480   5.383   7.710 -2.1745 -0.8769 -1.8215
19372SOL    HW264079   1.401   5.463   7.609  0.2951  2.2119 -1.4475
19373SOL     OW64080   4.283   7.452   2.981 -0.0355  0.4286 -0.2537
19373SOL    HW164081   4.246   7.537   2.959 -0.2869  0.3317 -0.2040
19373SOL    HW264082   4.242   7.429   3.065 -1.4336 -0.6190 -1.1780
19374SOL     OW64083   6.345   7.576   5.231 -0.4970 -0.1395  0.5277
19374SOL    HW164084   6.410   7.575   5.161  1.4042  2.9169  2.0556
19374SOL    HW264085   6.302   7.661   5.222 -1.0175 -0.1789  2.3649
19375SOL     OW64086   1.628   1.145   1.859 -0.5714  0.1743  0.2997
19375SOL    HW164087   1.603   1.237   1.873 -1.5971 -0.2209  1.1981
19375SOL    HW264088   1.639   1.109   1.947  0.5248 -0.3917 -0.0545
19376SOL     OW64089   1.435   0.188   5.159 -0.1135 -0.1157 -0.0145
19376SOL    HW164090   1.491   0.207   5.234 -0.1858  1.3621 -0.3052
19376SOL    HW264091   1.496   0.166   5.088 -0.0047 -0.6262  0.2363
19377SOL     OW64092   7.480   2.421   9.032 -0.8933  0.2288 -0.5369
19377SOL    HW164093   7.419   2.494   9.023 -2.0383 -0.3606  1.7884
19377SOL    HW264094   7.530   2.441   9.110 -0.0399 -0.6808 -0.8321
19378SOL     OW64095   0.475   8.760   2.614 -0.0750  0.2061  0.1727
19378SOL    HW164096   0.406   8.784   2.677 -0.7055  2.1090 -1.1580
19378SOL    HW264097   0.478   8.833   2.553  0.2881 -1.6831 -2.2232
19379SOL     OW64098   5.390   7.870   0.515 -0.4188  0.7772  0.9685
19379SOL    HW164099   5.366   7.822   0.594 -1.9191  0.7246  0.5032
19379SOL    HW264100   5.468   7.919   0.541  1.0019 -1.5923  1.5636
19380SOL     OW64101   0.610   7.613   0.574 -0.1775  0.0712 -0.2992
19380SOL    HW164102   0.564   7.539   0.533 -0.1092 -1.8465  2.7397
19380SOL    HW264103   0.700   7.606   0.542  0.2018 -2.1895  1.0158
19381SOL     OW64104   6.490   6.827   5.925  0.7470  0.0885  0.5359
19381SOL    HW164105   6.584   6.840   5.940  0.7667  0.6532 -0.0320
19381SOL    HW264106   6.449   6.903   5.966  0.7250  1.0922 -1.2601
19382SOL     OW64107   4.306   8.480   6.269  0.3606 -0.8939  0.2533
19382SOL    HW164108   4.318   8.556   6.326 -0.1983 -0.3122 -0.3833
19382SOL    HW264109   4.238   8.428   6.312  2.3059 -2.2535  1.8884
19383SOL     OW64110   1.122   0.284   9.353 -0.0761  0.0847  0.0451
19383SOL    HW164111   1.084   0.271   9.440  1.3276 -0.6174  0.5916
19383SOL    HW264112   1.216   0.290   9.369  0.5071 -2.6045 -1.6286
19384SOL     OW64113   6.258   4.093   1.115 -0.1982  0.4984  0.3552
19384SOL    HW164114   6.314   4.096   1.193  1.1781  1.6291 -0.6099
19384SOL    HW264115   6.201   4.169   1.124  0.3105  0.9274  0.0397
19385SOL     OW64116   7.639   7.064   9.005  0.3567 -0.1559  0.3322
19385SOL    HW164117   7.657   7.146   8.959 -0.6844 -0.0998  0.0025
19385SOL    HW264118   7.550   7.040   8.979 -0.4372  0.0651  2.5899
19386SOL     OW64119   7.280   4.911   4.836  0.1179 -0.2170 -0.6061
19386SOL    HW164120   7.373   4.901   4.856  0.3986  0.3622 -1.5640
19386SOL    HW264121   7.248   4.973   4.903  0.6357  0.3148 -0.8450
19387SOL     OW64122   0.683   3.717   8.179  0.3331 -0.3462  0.4265
19387SOL    HW164123   0.610   3.655   8.168 -0.7862  0.8751  0.6894
19387SOL    HW264124   0.730   3.713   8.096 -1.5844  0.7305 -0.7868
19388SOL     OW64125   6.982   3.970   4.474 -0.2187  0.1489  0.3268
19388SOL    HW164126   6.987   4.048   4.528 -1.7906  0.1760  0.4814
19388SOL    HW264127   7.055   3.915   4.503  1.0172  1.5981  0.0900
19389SOL     OW64128   8.055   7.559   1.135  0.1745  0.5125 -0.3333
19389SOL    HW164129   7.970   7.531   1.167 -0.0142  2.8147  1.4337
19389SOL    HW264130   8.118   7.521   1.196  0.1108  1.6778  0.4856
19390SOL     OW64131   7.954   2.216   0.850  0.0534 -0.6774  0.1798
19390SOL    HW164132   8.020   2.150   0.872  0.6596  0.3917  1.7140
19390SOL    HW264133   7.944   2.209   0.755  2.7947 -0.4947 -0.1983
19391SOL     OW64134   4.519   8.397   7.481 -0.4560  0.0425  0.2879
19391SOL    HW164135   4.461   8.323   7.502 -0.5540 -0.1305 -0.5607
19391SOL    HW264136   4.480   8.436   7.403  0.3513  0.1669 -0.0601
19392SOL     OW64137   9.082   1.345   8.215  0.6054  0.0825 -0.0908
19392SOL    HW164138   9.071   1.383   8.127  1.1318  2.3267  0.7250
19392SOL    HW264139   9.054   1.415   8.274 -1.6594 -2.0485  1.5650
19393SOL     OW64140   8.690   8.542   2.602  0.0882  0.2245  0.0136
19393SOL    HW164141   8.698   8.504   2.689 -1.1760 -0.1112  0.0059
19393SOL    HW264142   8.692   8.466   2.542  2.3598  0.5383 -0.3920
19394SOL     OW64143   0.799   6.019   1.032  0.5071  0.7351 -0.1204
19394SOL    HW164144   0.724   6.001   0.976  1.4461 -0.1264 -1.1529
19394SOL    HW264145   0.779   6.102   1.074 -0.2895  1.3353 -1.6405
19395SOL     OW64146   4.004   8.406   6.177  0.5484  0.4330 -0.3261
19395SOL    HW164147   3.997   8.494   6.213  0.9020  0.3223  0.0179
19395SOL    HW264148   4.001   8.418   6.082 -0.8531  0.6842 -0.2768
19396SOL     OW64149   1.192   4.881   1.357  0.4651 -0.5678 -0.3414
19396SOL    HW164150   1.179   4.964   1.310 -2.0455  0.1740  1.4219
19396SOL    HW264151   1.155   4.815   1.298  0.7730 -0.2003 -0.9657
19397SOL     OW64152   7.434   7.263   5.624 -0.2575 -0.3201  0.1058
19397SOL    HW164153   7.504   7.213   5.666 -0.3513 -0.8119 -0.3156
19397SOL    HW264154   7.459   7.265   5.532 -0.3370  0.2763  0.0972
19398SOL     OW64155   0.618   3.843   3.910  0.4460 -0.2887  0.4110
19398SOL    HW164156   0.538   3.792   3.902 -0.2516  0.4864  1.9706
19398SOL    HW264157   0.653   3.848   3.821  0.1825 -2.8287  0.1060
19399SOL     OW64158   0.577   7.869   6.279 -0.1359  0.3964 -0.2317
19399SOL    HW164159   0.587   7.963   6.294 -1.2103  0.2972  1.2991
19399SOL    HW264160   0.570   7.831   6.366 -2.5572 -0.7393 -0.8399
19400SOL     OW64161   8.120   0.299   3.660 -0.1207 -0.2662 -0.5342
19400SOL    HW164162   8.086   0.375   3.613  0.2061  1.6366  2.0925
19400SOL    HW264163   8.043   0.261   3.703  0.2074  0.9481  1.2320
19401SOL     OW64164   1.264   3.939   4.619  0.4830  0.1431 -0.1661
19401SOL    HW164165   1.243   3.862   4.566  1.2952 -0.0337 -0.2441
19401SOL    HW264166   1.196   4.002   4.597 -1.3732 -1.2032  1.3584
19402SOL     OW64167   1.496   8.969   0.029 -0.5577  0.3167 -0.3995
19402SOL    HW164168   1.511   9.035  -0.039  0.7128 -0.5712 -1.0404
19402SOL    HW264169   1.566   8.906   0.016 -1.3426 -0.8150  0.6191
19403SOL     OW64170   1.574   4.186   4.834 -0.6056  0.1955 -0.1323
19403SOL    HW164171   1.592   4.270   4.876  1.1802 -0.0559 -0.3329
19403SOL    HW264172   1.495   4.154   4.878 -0.5474  1.3544  0.8667
19404SOL     OW64173   6.931   6.416   5.515 -0.1663 -0.2060  0.0189
19404SOL    HW164174   6.911   6.366   5.594 -2.1563 -0.9745 -0.8757
19404SOL    HW264175   6.886   6.500   5.527 -0.9071 -0.5174 -0.4664
19405SOL     OW64176   4.277   0.199   4.353 -0.4255 -0.2786 -0.0463
19405SOL    HW164177   4.317   0.164   4.433 -1.1269  1.1921  0.9945
19405SOL    HW264178   4.329   0.162   4.282  0.7324 -0.9807  1.1224
19406SOL     OW64179   2.538   9.154   8.894  0.5215  0.0978 -0.4970
19406SOL    HW164180   2.498   9.091   8.955  1.3236  0.0501 -0.0130
19406SOL    HW264181   2.588   9.213   8.950  0.9951  0.2595 -1.0829
19407SOL     OW64182   8.110   3.889   4.327  0.0618  0.3905  0.2817
19407SOL    HW164183   8.027   3.901   4.374 -0.4298  2.5146 -1.0028
19407SOL    HW264184   8.087   3.835   4.251 -0.4331  1.8837 -0.6709
19408SOL     OW64185   5.675   1.389   2.557 -0.3095 -0.1078 -0.2768
19408SOL    HW164186   5.748   1.333   2.531 -1.7090 -1.3947 -1.6867
19408SOL    HW264187   5.606   1.328   2.582 -1.8825  0.9261 -1.8590
19409SOL     OW64188   6.131   7.344   1.739  0.2510  0.1357  0.1429
19409SOL    HW164189   6.201   7.278   1.739 -0.7863 -1.0032 -0.3751
19409SOL    HW264190   6.088   7.332   1.823 -0.5311 -0.5351 -0.3327
19410SOL     OW64191   1.818   6.479   4.440  0.1911  0.2674 -0.4043
19410SOL    HW164192   1.778   6.522   4.515 -1.2359 -1.1580 -0.3017
19410SOL    HW264193   1.850   6.551   4.385  1.5398  1.3377  1.6741
19411SOL     OW64194   8.909   3.044   8.567  0.2956 -0.1510  0.3867
19411SOL    HW164195   8.925   2.952   8.546 -1.1351 -0.8418  2.1708
19411SOL    HW264196   8.867   3.079   8.488  1.0579 -0.9342 -0.3958
19412SOL     OW64197   8.274   9.331   4.247 -0.4706 -0.0282  0.4374
19412SOL    HW164198   8.208   9.343   4.315 -3.5304  0.1241 -2.3194
19412SOL    HW264199   8.255   9.245   4.210  1.9115 -0.6427  0.5068
19413SOL     OW64200   7.467   8.213   4.656  0.4624 -0.3566  0.1224
19413SOL    HW164201   7.418   8.240   4.578  0.6882 -0.2057  0.0308
19413SOL    HW264202   7.456   8.118   4.660 -2.0568 -0.0760  1.6002
19414SOL     OW64203   4.846   1.558   1.788  0.1390  0.3599  0.5826
19414SOL    HW164204   4.844   1.502   1.866  0.7789  2.4014  2.1403
19414SOL    HW264205   4.813   1.643   1.817 -0.7731  0.8758 -1.7020
19415SOL     OW64206   7.571   2.244   6.457  0.0187 -0.1774 -0.4383
19415SOL    HW164207   7.486   2.228   6.500 -0.0051  1.3378  0.1210
19415SOL    HW264208   7.635   2.200   6.514 -0.3962 -1.7736 -1.1344
19416SOL     OW64209   5.757   1.221   5.740  0.2084  0.0319  0.0009
19416SOL    HW164210   5.774   1.144   5.686  1.6440  1.0890 -1.1551
19416SOL    HW264211   5.748   1.293   5.677 -1.2761  0.8079  1.0376
19417SOL     OW64212   0.042   1.033   0.511 -0.1865 -0.2790  0.1047
19417SOL    HW164213   0.116   0.976   0.532 -1.0323 -1.8615 -1.0769
19417SOL    HW264214   0.027   1.083   0.591  2.0038 -0.0612  0.4488
19418SOL     OW64215   5.863   9.230   4.323  0.2923 -0.4181  0.7297
19418SOL    HW164216   5.824   9.317   4.336 -0.5166 -0.7262  0.4365
19418SOL    HW264217   5.951   9.248   4.291  0.9230  0.3093  2.7063
19419SOL     OW64218   8.364   8.265   5.918 -0.0049  0.3955  0.2406
19419SOL    HW164219   8.447   8.313   5.925  0.8789 -1.1167  0.7117
19419SOL    HW264220   8.319   8.305   5.844  1.4564  0.8354 -0.4500
19420SOL     OW64221   0.056   9.063   9.250  0.3467 -0.0326  0.3986
19420SOL    HW164222  -0.013   9.118   9.286  0.1686 -1.0080  1.6033
19420SOL    HW264223   0.030   9.047   9.159  0.1124  1.3680  0.2012
19421SOL     OW64224   7.060   5.531   4.790 -0.4372 -0.0419  0.3669
19421SOL    HW164225   7.150   5.547   4.762 -1.0499  0.5051 -1.4161
19421SOL    HW264226   7.064   5.533   4.885  1.4428 -0.0879  0.3275
19422SOL     OW64227   4.619   1.305   0.794 -0.3291  0.4190  0.0163
19422SOL    HW164228   4.565   1.369   0.747 -0.5749  0.8508  0.8652
19422SOL    HW264229   4.698   1.297   0.740 -0.5695  0.9541 -0.4329
19423SOL     OW64230   0.273   4.725   0.540 -0.2325 -0.2503 -0.1919
19423SOL    HW164231   0.283   4.654   0.476 -0.3245  0.1324 -0.6410
19423SOL    HW264232   0.186   4.761   0.523 -0.6868 -0.8155  0.8554
19424SOL     OW64233   0.296   3.595   2.957 -0.6838 -0.0180  0.2282
19424SOL    HW164234   0.246   3.672   2.930 -0.3191 -0.3196 -1.3726
19424SOL    HW264235   0.249   3.521   2.920  0.0780 -0.4190  0.0439
19425SOL     OW64236   7.432   0.629   2.216 -0.3703  0.6704 -0.6042
19425SOL    HW164237   7.526   0.611   2.217 -0.3859  0.5636 -0.9033
19425SOL    HW264238   7.425   0.723   2.228 -0.2609  0.5733  0.2978
19426SOL     OW64239   1.485   1.677   4.706  0.9685  0.1428 -0.3365
19426SOL    HW164240   1.497   1.636   4.621  0.8193  0.7484 -0.6522
19426SOL    HW264241   1.548   1.749   4.707 -0.4581  1.4553 -0.7921
19427SOL     OW64242   4.972   7.959   7.036 -0.1300 -0.0535  0.1466
19427SOL    HW164243   4.979   7.884   6.978 -2.5268  0.3165 -0.7479
19427SOL    HW264244   4.878   7.971   7.049  0.2515  0.7035  3.0789
19428SOL     OW64245   7.286   3.128   5.602 -0.4783  0.2417 -0.0134
19428SOL    HW164246   7.311   3.066   5.534  0.7184  2.1576 -1.4056
19428SOL    HW264247   7.368   3.169   5.629 -1.1672  0.8607  1.2466
19429SOL     OW64248   9.009   1.202   4.007  0.2262  0.1504  0.1308
19429SOL    HW164249   9.028   1.291   4.036  2.1301  1.0235 -3.2776
19429SOL    HW264250   8.929   1.210   3.955  1.1623  0.2628 -1.3737
19430SOL     OW64251   6.377   5.710   6.577  0.3081  0.5831  0.0314
19430SOL    HW164252   6.303   5.726   6.519  0.0248  0.4766  0.3623
19430SOL    HW264253   6.348   5.740   6.662  0.2970 -0.3191  0.3635
19431SOL     OW64254   7.757   3.114   2.676 -0.0641 -0.3016 -0.8126
19431SOL    HW164255   7.734   3.166   2.753  0.1180 -0.7480 -0.4503
19431SOL    HW264256   7.702   3.035   2.683  0.4637 -0.6722 -0.7512
19432SOL     OW64257   2.066   7.162   3.489  0.2729 -0.5763 -0.2823
19432SOL    HW164258   2.028   7.095   3.544 -0.1959  0.3150  0.4988
19432SOL    HW264259   2.056   7.129   3.399 -1.5579 -0.7436 -0.0374
19433SOL     OW64260   3.945   7.860   3.248  0.0615 -0.0744 -0.1013
19433SOL    HW164261   3.984   7.905   3.173  1.1020  1.6481  1.4117
19433SOL    HW264262   3.936   7.927   3.315 -0.4967 -1.6432  1.4688
19434SOL     OW64263   8.337   4.037   5.324  0.2717  0.2968 -0.0086
19434SOL    HW164264   8.299   4.123   5.337  2.0429  1.3811 -1.4397
19434SOL    HW264265   8.300   4.006   5.240 -1.9412 -1.3336  1.4503
19435SOL     OW64266   8.792   4.217   7.236  0.6697 -0.1670  0.0583
19435SOL    HW164267   8.867   4.240   7.290  2.0921 -0.6969 -1.6066
19435SOL    HW264268   8.798   4.275   7.160 -0.3018 -0.5854 -0.3634
19436SOL     OW64269   0.201   0.110   0.951  0.0559 -0.7738  0.1020
19436SOL    HW164270   0.145   0.035   0.969 -0.4433 -1.1646 -2.7344
19436SOL    HW264271   0.170   0.178   1.012 -0.5603 -2.2943  1.5660
19437SOL     OW64272   7.718   3.778   8.986 -0.2194 -0.3451 -0.0749
19437SOL    HW164273   7.742   3.840   9.056  1.1140 -0.7850 -0.1344
19437SOL    HW264274   7.723   3.830   8.906 -0.4239 -0.1963  0.0048
19438SOL     OW64275   8.374   1.116   9.194  0.4854 -0.5273  0.0914
19438SOL    HW164276   8.451   1.169   9.172  0.0051 -0.2328 -0.9349
19438SOL    HW264277   8.372   1.115   9.289  1.1690  0.3299  0.1267
19439SOL     OW64278   0.397   4.926   4.390  0.0834  0.1967  0.3887
19439SOL    HW164279   0.455   4.998   4.414  0.0194 -0.0871  1.4606
19439SOL    HW264280   0.316   4.968   4.362  0.0326  0.5444  1.0426
19440SOL     OW64281   4.611   8.061   1.806  0.1414  0.4803  0.1850
19440SOL    HW164282   4.681   8.014   1.761  2.0394 -0.2252  3.5101
19440SOL    HW264283   4.538   7.999   1.808  0.5583 -0.0507 -0.5406
19441SOL     OW64284   7.770   8.750   1.977 -0.1977  0.0743 -0.4266
19441SOL    HW164285   7.788   8.804   1.900 -1.1942 -1.5121 -1.8585
19441SOL    HW264286   7.846   8.692   1.985 -0.2939 -0.0688 -0.5249
19442SOL     OW64287   9.058   5.987   6.642 -0.5985  0.9208 -0.4833
19442SOL    HW164288   9.065   6.068   6.591 -0.1122  1.4677  0.4275
19442SOL    HW264289   9.133   5.990   6.702 -0.6541 -0.1452 -0.3382
19443SOL     OW64290   6.201   3.900   8.048  0.5028 -0.4723  0.5118
19443SOL    HW164291   6.135   3.837   8.020 -0.6674  0.7596  0.3612
19443SOL    HW264292   6.156   3.985   8.045  1.4402  0.1765  2.4959
19444SOL     OW64293   9.029   4.690   1.076  0.0063 -0.5262  0.2519
19444SOL    HW164294   9.094   4.619   1.071 -0.5665 -0.9840 -1.1745
19444SOL    HW264295   9.009   4.696   1.169  2.8033  0.3191  0.8986
19445SOL     OW64296   7.186   2.153   7.665  0.3635  0.3711  0.0074
19445SOL    HW164297   7.213   2.239   7.632  0.3220  0.5687  0.4827
19445SOL    HW264298   7.128   2.172   7.739 -0.5441 -0.0611 -0.5831
19446SOL     OW64299   9.337   6.668   4.329 -0.4089  0.1503 -0.0176
19446SOL    HW164300   9.428   6.678   4.357  0.1885  1.4750 -2.1664
19446SOL    HW264301   9.344   6.631   4.241 -1.7062  3.1667 -1.5342
19447SOL     OW64302   0.603   5.207   0.477 -0.0314  0.4480  0.1332
19447SOL    HW164303   0.600   5.118   0.512 -2.2518  0.3815 -0.0972
19447SOL    HW264304   0.551   5.203   0.396  0.6567  1.7489 -0.4065
19448SOL     OW64305   0.237   4.561   7.357  0.3700  0.1404  0.6969
19448SOL    HW164306   0.178   4.575   7.432 -0.3739  0.2089  0.1106
19448SOL    HW264307   0.296   4.491   7.386 -0.8175 -0.8342  0.8474
19449SOL     OW64308   0.264   2.348   5.549  0.2885 -0.4929  0.1098
19449SOL    HW164309   0.310   2.351   5.465 -0.9123 -0.6500 -0.5847
19449SOL    HW264310   0.179   2.308   5.528 -1.3833  2.4409  0.7430
19450SOL     OW64311   5.375   4.089   2.427 -0.0458 -0.8382  0.1193
19450SOL    HW164312   5.454   4.070   2.477 -0.1338  1.0836  1.0777
19450SOL    HW264313   5.305   4.046   2.475  0.0378 -0.0071  1.0211
19451SOL     OW64314   3.157   9.261   0.310  0.5655  0.2547 -0.0303
19451SOL    HW164315   3.229   9.323   0.304  1.1858 -0.3913  0.6076
19451SOL    HW264316   3.090   9.307   0.362  0.8633  0.5351  0.1092
19452SOL     OW64317   1.528   8.155   7.921  0.0554 -0.2917 -0.2037
19452SOL    HW164318   1.459   8.090   7.908 -0.5539  0.6679 -2.2731
19452SOL    HW264319   1.482   8.236   7.944  0.5899  0.0463 -0.2942
19453SOL     OW64320   0.759   5.776   7.259 -0.2226  0.4463 -0.2265
19453SOL    HW164321   0.847   5.759   7.227 -0.1696 -1.3967  0.7307
19453SOL    HW264322   0.760   5.867   7.286  1.0218  0.7812 -1.3093
19454SOL     OW64323   4.999   2.743   8.205 -0.1710 -0.8144  0.1574
19454SOL    HW164324   5.042   2.749   8.120 -1.4367 -1.2013 -0.5273
19454SOL    HW264325   5.050   2.678   8.253 -0.5078 -1.9696 -0.9840
19455SOL     OW64326   1.237   1.939   9.217  0.5903  0.2706 -0.2137
19455SOL    HW164327   1.161   1.884   9.236  1.0003 -0.4201 -0.5272
19455SOL    HW264328   1.218   2.022   9.261  0.1550 -0.2694  0.6533
19456SOL     OW64329   0.927   8.083   5.779 -0.7585 -0.3246  0.1457
19456SOL    HW164330   0.854   8.121   5.827 -1.7625  0.5690 -1.9841
19456SOL    HW264331   0.892   8.004   5.738  0.2673 -1.4503  1.3044
19457SOL     OW64332   7.712   2.911   3.483  0.2403 -0.0978 -0.2259
19457SOL    HW164333   7.786   2.892   3.425  1.4184  0.3696  1.0639
19457SOL    HW264334   7.705   2.835   3.540  0.4848  0.3447  0.4086
19458SOL     OW64335   5.924   2.629   6.582 -0.3082 -0.5656  0.8336
19458SOL    HW164336   5.882   2.714   6.593  1.0261  0.3861 -0.9143
19458SOL    HW264337   5.852   2.566   6.587 -1.5766  0.8013  0.4304
19459SOL     OW64338   4.840   3.161   4.372  0.6332 -0.1104 -0.4764
19459SOL    HW164339   4.829   3.074   4.410  2.0315  0.0391  0.3572
19459SOL    HW264340   4.798   3.220   4.436  3.1975  0.1653  1.1137
19460SOL     OW64341   4.102   5.862   5.533 -0.2395 -0.5106 -1.2333
19460SOL    HW164342   4.051   5.909   5.599 -0.8271 -1.0737 -1.2624
19460SOL    HW264343   4.133   5.929   5.474 -2.4867 -0.2532 -2.2491
19461SOL     OW64344   8.802   7.891   7.742  0.1359  0.3177  0.0739
19461SOL    HW164345   8.736   7.821   7.745  0.7901 -0.2931  0.9599
19461SOL    HW264346   8.818   7.912   7.834  0.2000  1.4164 -0.1740
19462SOL     OW64347   9.270   3.736   1.368 -0.5923 -0.1242 -0.2072
19462SOL    HW164348   9.237   3.821   1.394 -2.4143 -0.0040 -2.6278
19462SOL    HW264349   9.365   3.747   1.368 -0.7020  1.3084  1.2189
19463SOL     OW64350   6.391   7.851   7.175  0.3167  0.2671  0.0958
19463SOL    HW164351   6.351   7.926   7.219 -0.2259 -0.4585  0.8639
19463SOL    HW264352   6.459   7.890   7.119 -1.5894  1.5488 -1.4631
19464SOL     OW64353   3.032   6.622   4.734  0.2523 -0.7415  0.5050
19464SOL    HW164354   2.967   6.602   4.801  0.1923  0.4566  0.8199
19464SOL    HW264355   3.116   6.600   4.774  0.2589  0.4485  1.1817
19465SOL     OW64356   9.171   7.372   3.101 -0.0832 -0.5314  0.6973
19465SOL    HW164357   9.078   7.385   3.085  0.0330  0.7130  0.8822
19465SOL    HW264358   9.210   7.365   3.014 -0.3218 -0.8757  0.6162
19466SOL     OW64359   0.071   1.379   7.443 -0.5013 -0.3861  0.0544
19466SOL    HW164360   0.116   1.434   7.507 -0.1294 -0.8126  0.1676
19466SOL    HW264361   0.025   1.313   7.495  1.7679 -2.2570 -0.1233
19467SOL     OW64362   0.345   9.267   6.693 -0.0395 -0.0044  0.0479
19467SOL    HW164363   0.254   9.290   6.679 -0.6868 -0.7625  2.4526
19467SOL    HW264364   0.389   9.351   6.706 -0.5662  0.3217 -0.2468
19468SOL     OW64365   5.209   4.595   7.464 -0.0879  0.5577 -0.6415
19468SOL    HW164366   5.211   4.566   7.555 -0.1990 -0.9871 -1.1081
19468SOL    HW264367   5.286   4.652   7.456  0.5959 -0.2223  0.1263
19469SOL     OW64368   1.213   5.053   7.376 -0.2510  0.1047  0.5406
19469SOL    HW164369   1.212   5.075   7.282  0.6645  1.3050  0.7881
19469SOL    HW264370   1.294   5.005   7.388 -0.5509 -0.3730  0.6506
19470SOL     OW64371   4.278   3.111   2.787 -0.0246 -0.0318 -0.5878
19470SOL    HW164372   4.226   3.106   2.707 -0.3370 -0.9566 -0.3447
19470SOL    HW264373   4.257   3.196   2.825  0.6401  0.7156 -1.8265
19471SOL     OW64374   0.062   3.272   1.613 -0.2186  0.2597  0.0937
19471SOL    HW164375  -0.001   3.274   1.541  0.4468 -1.7772 -0.6187
19471SOL    HW264376   0.016   3.228   1.684 -0.1178  0.1794  0.1101
19472SOL     OW64377   2.961   1.695   2.879  0.3129 -0.1710  0.1049
19472SOL    HW164378   3.049   1.731   2.890  0.3590 -0.5147  0.9107
19472SOL    HW264379   2.920   1.753   2.815  0.9750  0.2611  0.0572
19473SOL     OW64380   8.394   6.185   0.418 -0.1920 -0.1778  0.0599
19473SOL    HW164381   8.356   6.265   0.454  1.6172  0.7198  0.0800
19473SOL    HW264382   8.375   6.118   0.484 -0.0670  0.6564  0.9577
19474SOL     OW64383   7.146   1.798   5.857  0.1149 -0.2257  0.0588
19474SOL    HW164384   7.129   1.891   5.841  0.1088 -0.1113  0.6991
19474SOL    HW264385   7.155   1.791   5.953  2.5225 -0.4717 -0.1184
19475SOL     OW64386   3.938   5.316   5.726 -0.2357 -0.5143 -0.3785
19475SOL    HW164387   3.980   5.318   5.812 -0.1862 -1.8654 -0.3521
19475SOL    HW264388   3.918   5.407   5.707  0.2255 -0.1427  0.8342
19476SOL     OW64389   3.707   8.752   2.825  0.4756 -0.5819  0.0098
19476SOL    HW164390   3.776   8.694   2.792  1.5422  0.6836 -0.0855
19476SOL    HW264391   3.746   8.794   2.902 -0.1616  0.2165 -0.0918
19477SOL     OW64392   5.469   1.954   2.430  0.2122  0.0696  0.1447
19477SOL    HW164393   5.421   2.023   2.384 -0.3460 -1.4705 -1.7543
19477SOL    HW264394   5.535   1.925   2.366  0.5586 -1.0022  0.9624
19478SOL     OW64395   5.908   6.739   1.805 -0.1053  0.7954  0.1535
19478SOL    HW164396   5.981   6.792   1.836  0.7250  0.9010 -1.8170
19478SOL    HW264397   5.830   6.790   1.826  0.5282  1.6801  0.4090
19479SOL     OW64398   0.250   5.906   2.391  0.3231 -0.6100  0.1318
19479SOL    HW164399   0.204   5.904   2.307  0.5257  1.7247 -0.0987
19479SOL    HW264400   0.210   5.835   2.441 -1.2694 -0.7271 -1.1932
19480SOL     OW64401   5.006   0.606   9.062 -0.2802 -0.3348 -0.6353
19480SOL    HW164402   4.997   0.678   8.999 -3.4188 -2.1234 -2.5013
19480SOL    HW264403   4.929   0.613   9.118  1.0393 -0.4294  1.2725
19481SOL     OW64404   5.335   8.917   3.781 -0.2538  0.6746 -0.4225
19481SOL    HW164405   5.421   8.901   3.818  0.1895 -2.1525 -2.3198
19481SOL    HW264406   5.346   8.997   3.728  0.6603  1.3688  0.7761
19482SOL     OW64407   3.604   4.329   5.646 -0.2395 -0.5369 -0.4048
19482SOL    HW164408   3.576   4.390   5.714  0.2423  0.2746 -0.9269
19482SOL    HW264409   3.522   4.302   5.604 -0.5714 -1.3019  0.6941
19483SOL     OW64410   5.980   6.282   7.811 -0.1102  0.2655  0.0340
19483SOL    HW164411   5.919   6.328   7.868 -0.4221  0.2378 -0.2745
19483SOL    HW264412   5.932   6.268   7.730  1.1043  2.4093 -1.1362
19484SOL     OW64413   4.096   0.696   7.294  0.5620 -0.2573 -0.1505
19484SOL    HW164414   4.108   0.712   7.201  0.2578 -3.3343 -0.8138
19484SOL    HW264415   4.021   0.637   7.299  0.6479 -0.2867  2.0688
19485SOL     OW64416   1.489   2.494   8.007  0.4574 -0.4673  0.3414
19485SOL    HW164417   1.395   2.485   7.991  0.6509  0.7598 -1.7474
19485SOL    HW264418   1.519   2.404   8.019 -0.7154 -1.0121 -0.5717
19486SOL     OW64419   7.253   8.407   2.655 -0.1369 -0.7411 -0.3000
19486SOL    HW164420   7.325   8.463   2.625 -0.2533 -1.0646 -1.1935
19486SOL    HW264421   7.256   8.414   2.751  0.8256 -0.4286 -0.3416
19487SOL     OW64422   3.376   8.119   2.425  0.4498 -0.3860 -0.2880
19487SOL    HW164423   3.464   8.155   2.435  0.1335  0.6280 -0.9729
19487SOL    HW264424   3.389   8.034   2.384  1.0734  0.0595 -1.0432
19488SOL     OW64425   7.225   8.849   1.794 -0.3833 -0.1027  0.2655
19488SOL    HW164426   7.305   8.886   1.832  0.6090 -0.9966 -0.8378
19488SOL    HW264427   7.214   8.897   1.711 -0.6288 -0.4108  0.1196
19489SOL     OW64428   8.584   6.589   6.400 -0.0633 -0.0480  0.3144
19489SOL    HW164429   8.649   6.520   6.387  0.5227  0.6832 -0.7635
19489SOL    HW264430   8.635   6.670   6.406 -0.8547  0.5676 -0.7919
19490SOL     OW64431   7.774   6.792   3.778 -0.1330  0.4378 -0.0832
19490SOL    HW164432   7.855   6.740   3.771 -0.6856 -0.4820  0.1411
19490SOL    HW264433   7.709   6.740   3.731 -0.6551  1.0371 -0.0270
19491SOL     OW64434   6.880   7.237   9.024 -0.3969  0.4433  0.3413
19491SOL    HW164435   6.786   7.231   9.042 -0.8241 -0.3618 -1.7652
19491SOL    HW264436   6.902   7.152   8.984  0.8899  1.1273 -0.4892
19492SOL     OW64437   9.235   7.695   3.996 -0.7757  0.2247 -1.1512
19492SOL    HW164438   9.163   7.634   3.979  0.4314 -1.0010 -2.0615
19492SOL    HW264439   9.287   7.652   4.065 -0.2358  0.4950 -1.3809
19493SOL     OW64440   7.086   0.011   8.086 -0.5813  0.2669 -0.0696
19493SOL    HW164441   7.019  -0.037   8.135 -0.4486 -0.3263 -0.4630
19493SOL    HW264442   7.115   0.080   8.146 -0.9085 -0.0243  0.4295
19494SOL     OW64443   0.733   9.329   1.034 -0.7818 -0.1237 -0.0221
19494SOL    HW164444   0.747   9.317   0.940 -0.6672 -0.4100  0.0295
19494SOL    HW264445   0.642   9.357   1.041 -0.8878 -0.4239 -0.1950
19495SOL     OW64446   2.241   5.921   1.742  0.5680  0.1982  0.5947
19495SOL    HW164447   2.253   5.844   1.685 -0.9148  1.6742 -1.8943
19495SOL    HW264448   2.220   5.884   1.828  1.3142 -2.1677 -0.1665
19496SOL     OW64449   7.476   3.969   4.320 -0.6035 -0.2731  0.7143
19496SOL    HW164450   7.547   3.931   4.268 -1.3164 -0.3596 -0.2236
19496SOL    HW264451   7.396   3.935   4.279 -1.1825 -0.3281  1.8673
19497SOL     OW64452   7.452   1.735   6.741 -0.4574  0.1461  0.0378
19497SOL    HW164453   7.493   1.819   6.761 -0.8482  0.8655 -1.9877
19497SOL    HW264454   7.416   1.746   6.653  0.5357 -2.5128 -0.8085
19498SOL     OW64455   6.526   6.592   6.122  0.0940  0.6424  0.1569
19498SOL    HW164456   6.505   6.649   6.048 -1.2593  1.1026  0.8542
19498SOL    HW264457   6.488   6.507   6.099 -1.6181  1.1590  0.8943
19499SOL     OW64458   1.346   8.374   4.817 -0.0291 -0.3032 -0.2039
19499SOL    HW164459   1.280   8.379   4.887  1.2193 -0.2606  1.0110
19499SOL    HW264460   1.393   8.293   4.834  0.2815 -0.3048 -1.0299
19500SOL     OW64461   4.978   7.218   0.480 -0.0542 -0.5512 -0.0127
19500SOL    HW164462   4.916   7.151   0.451  0.7043 -0.9421 -0.7485
19500SOL    HW264463   4.993   7.273   0.403 -1.3619  1.0577  0.8030
19501SOL     OW64464   3.418   0.556   7.394  0.3928 -0.3597  0.3226
19501SOL    HW164465   3.386   0.606   7.469 -2.9871 -1.4124 -0.2318
19501SOL    HW264466   3.359   0.481   7.388  2.1308 -1.6946 -1.8982
19502SOL     OW64467   6.944   0.561   6.313 -0.1592  0.1436  0.2588
19502SOL    HW164468   6.937   0.600   6.400 -1.8559 -0.7383  0.5536
19502SOL    HW264469   6.866   0.507   6.304  0.3549 -0.3806 -1.5314
19503SOL     OW64470   1.888   7.195   5.799 -0.3302  0.4327 -0.0460
19503SOL    HW164471   1.838   7.127   5.754  1.4344 -0.8851 -0.1375
19503SOL    HW264472   1.920   7.252   5.729  0.1047 -0.0128 -0.2210
19504SOL     OW64473   8.641   8.426   7.409  0.1140 -0.5772  0.0639
19504SOL    HW164474   8.693   8.463   7.338 -1.0239 -1.6680 -1.3932
19504SOL    HW264475   8.561   8.479   7.411 -0.3598 -1.2703 -0.2546
19505SOL     OW64476   9.023   4.958   1.767 -0.1223  0.5344 -0.2571
19505SOL    HW164477   9.066   5.044   1.768 -0.5186  0.7447  0.9839
19505SOL    HW264478   8.936   4.976   1.732 -0.8828  1.0264  1.7591
19506SOL     OW64479   0.338   0.038   2.091  0.0337  0.3907  0.3610
19506SOL    HW164480   0.370  -0.005   2.170 -1.8006  0.7614  1.3584
19506SOL    HW264481   0.322  -0.033   2.029  0.0939 -0.0489  0.8438
19507SOL     OW64482   5.641   0.285   6.190 -0.0202 -0.2522  0.1016
19507SOL    HW164483   5.576   0.347   6.223  0.5816  0.2082  0.4227
19507SOL    HW264484   5.706   0.339   6.145  0.5676 -0.6328  0.4808
19508SOL     OW64485   1.779   8.834   5.455  0.0950 -0.6010 -0.6001
19508SOL    HW164486   1.702   8.889   5.440  0.2120  0.2386  1.4683
19508SOL    HW264487   1.833   8.846   5.377 -0.5796  1.0686 -0.8487
19509SOL     OW64488   6.976   3.248   2.932 -0.2196 -0.0298 -0.1100
19509SOL    HW164489   7.040   3.299   2.982 -0.5024  0.2042  0.0146
19509SOL    HW264490   6.930   3.313   2.879 -1.8880  0.1209  1.4366
19510SOL     OW64491   0.701   3.212   2.864 -0.2530 -0.1755 -0.2348
19510SOL    HW164492   0.785   3.201   2.909 -0.1858 -1.8278 -0.6932
19510SOL    HW264493   0.638   3.167   2.921 -0.3432 -1.3300 -1.2050
19511SOL     OW64494   0.987   5.729   0.138 -0.0660  0.5439  0.4307
19511SOL    HW164495   0.907   5.741   0.087 -0.6702  0.7278  1.3922
19511SOL    HW264496   1.056   5.718   0.073 -0.8160  0.7709 -0.4184
19512SOL     OW64497   7.016   2.049   9.315 -0.4534 -0.5431 -0.0045
19512SOL    HW164498   7.090   2.022   9.369  0.0056 -1.9955 -1.2940
19512SOL    HW264499   6.963   2.104   9.373  1.2143 -0.1087  1.1816
19513SOL     OW64500   6.180   6.035   6.080  0.0877 -0.4976  0.5398
19513SOL    HW164501   6.137   5.954   6.053 -0.7674  0.4327 -1.0027
19513SOL    HW264502   6.210   6.075   5.999  2.3047 -0.2026  1.4177
19514SOL     OW64503   6.042   1.191   6.541  0.6975  0.1276  0.4764
19514SOL    HW164504   5.990   1.147   6.474  1.9734 -0.1723 -0.3545
19514SOL    HW264505   6.095   1.121   6.579  1.9159  0.7311 -0.0616
19515SOL     OW64506   8.263   5.835   4.785  0.1363  0.0155 -0.4061
19515SOL    HW164507   8.272   5.856   4.878 -0.0613  0.3082 -0.4502
19515SOL    HW264508   8.185   5.779   4.780 -0.2436  0.5428 -0.4722
19516SOL     OW64509   7.780   9.039   3.968  0.0430 -0.3895 -0.0227
19516SOL    HW164510   7.857   9.093   3.950  0.1889 -0.5664  0.0651
19516SOL    HW264511   7.786   8.967   3.905  2.6817 -3.2105  3.0587
19517SOL     OW64512   0.289   4.199   1.282  0.3839  0.4354  0.0517
19517SOL    HW164513   0.218   4.157   1.235  1.6494 -2.0833  0.2211
19517SOL    HW264514   0.300   4.283   1.238 -0.6460 -0.4169 -1.9890
19518SOL     OW64515   7.872   2.493   0.248 -0.4816 -0.0798 -0.1217
19518SOL    HW164516   7.934   2.471   0.178  2.2955  0.2928  2.0347
19518SOL    HW264517   7.884   2.424   0.313 -3.4805 -0.7892 -0.1853
19519SOL     OW64518   3.827   2.318   8.484 -0.2767  0.1673 -0.0089
19519SOL    HW164519   3.911   2.280   8.508 -1.4651 -2.9594 -0.2740
19519SOL    HW264520   3.835   2.411   8.505  3.0339 -0.1069  0.3949
19520SOL     OW64521   1.598   8.549   9.077  0.3605 -0.0991 -1.1224
19520SOL    HW164522   1.663   8.495   9.122 -1.3117 -1.3676 -0.0869
19520SOL    HW264523   1.642   8.580   8.998  2.8398  0.7869  0.5175
19521SOL     OW64524   8.192   6.026   5.878  0.4842 -0.3262 -0.0904
19521SOL    HW164525   8.270   6.080   5.891  1.3683 -1.1850 -1.5865
19521SOL    HW264526   8.119   6.087   5.882  1.4952  1.1776 -2.4692
19522SOL     OW64527   2.750   7.440   8.816  0.0481  0.0965  0.1430
19522SOL    HW164528   2.729   7.385   8.740 -2.2754  0.2983  0.5549
19522SOL    HW264529   2.665   7.457   8.857  1.1766  0.3539  2.5576
19523SOL     OW64530   2.149   0.820   5.456 -0.7211 -0.5603  0.0363
19523SOL    HW164531   2.159   0.908   5.420  2.4438  0.0533  1.9329
19523SOL    HW264532   2.203   0.765   5.400 -0.7216 -0.8094  0.2794
19524SOL     OW64533   7.294   8.059   1.774  0.2299 -0.1735  0.1982
19524SOL    HW164534   7.367   8.023   1.824  0.4888  1.1169  0.7949
19524SOL    HW264535   7.318   8.150   1.760 -0.6664 -0.0713 -0.7617
19525SOL     OW64536   2.726   1.386   0.527  0.5540  0.5473 -0.3192
19525SOL    HW164537   2.765   1.328   0.593  1.1914  1.3393  0.0125
19525SOL    HW264538   2.787   1.383   0.454  0.1922  0.2081 -0.6157
19526SOL     OW64539   8.588   2.271   3.445 -0.1779  0.0054  0.7602
19526SOL    HW164540   8.673   2.228   3.455 -1.3690 -2.8922 -0.4883
19526SOL    HW264541   8.584   2.296   3.353 -1.3206 -1.5199  0.3567
19527SOL     OW64542   0.122   5.242   7.374  0.1251  0.8733 -0.3381
19527SOL    HW164543   0.165   5.310   7.426 -0.9054  1.8637 -0.7233
19527SOL    HW264544   0.136   5.161   7.423  0.6346  1.5038  0.5838
19528SOL     OW64545   2.591   2.860   6.319  0.1978 -0.0834  0.1842
19528SOL    HW164546   2.572   2.952   6.339  0.5420 -0.5128  2.7592
19528SOL    HW264547   2.681   2.847   6.348  0.4125 -1.0903 -0.8402
19529SOL     OW64548   1.603   4.604   7.698 -0.0290 -0.0259 -0.2431
19529SOL    HW164549   1.620   4.559   7.781 -2.8265 -0.9132 -0.0404
19529SOL    HW264550   1.550   4.680   7.723 -1.5797 -0.7358 -1.2326
19530SOL     OW64551   4.274   4.210   0.407 -0.3551 -0.2928 -0.3225
19530SOL    HW164552   4.225   4.251   0.336  1.4539  0.4440 -1.1919
19530SOL    HW264553   4.364   4.239   0.394  0.0125  0.0113  2.3933
19531SOL     OW64554   4.080   2.201   5.746  0.3575 -0.2327 -0.0401
19531SOL    HW164555   4.129   2.179   5.825 -1.7461 -0.4723  1.2832
19531SOL    HW264556   4.032   2.281   5.769 -1.8074 -1.3657 -0.2935
19532SOL     OW64557   7.886   1.656   0.794  0.0716 -0.5036 -0.2375
19532SOL    HW164558   7.957   1.603   0.758  0.0919 -0.2900 -0.5162
19532SOL    HW264559   7.811   1.598   0.796 -0.5544  0.1013 -2.8153
19533SOL     OW64560   2.662   1.284   1.881  0.1366 -0.9407 -0.1469
19533SOL    HW164561   2.721   1.352   1.850 -0.9021 -0.6900 -1.6577
19533SOL    HW264562   2.720   1.212   1.908  1.1499 -0.3952 -0.8225
19534SOL     OW64563   2.200   0.782   9.098 -0.2815 -0.8053 -0.1112
19534SOL    HW164564   2.210   0.748   9.009 -0.7293 -0.1536 -0.4245
19534SOL    HW264565   2.108   0.809   9.103 -0.2005 -0.6204  0.4717
19535SOL     OW64566   8.981   0.090   6.852 -0.6744  0.3061 -0.1811
19535SOL    HW164567   8.940   0.061   6.771 -0.5821 -1.0109  0.2212
19535SOL    HW264568   9.008   0.009   6.896  0.7846  1.0652  0.3857
19536SOL     OW64569   0.701   1.004   1.122  0.2215 -0.3979 -0.0371
19536SOL    HW164570   0.746   1.076   1.078  0.9668 -1.8953 -1.8556
19536SOL    HW264571   0.695   1.032   1.213 -0.3873  2.3556 -0.8199
19537SOL     OW64572   5.081   6.012   8.603  0.1458 -0.2084  0.0813
19537SOL    HW164573   5.149   5.965   8.554  0.1849  0.8602 -0.9193
19537SOL    HW264574   5.117   6.021   8.691 -0.3575 -3.0762  0.6890
19538SOL     OW64575   1.187   9.132   9.070 -0.3097  0.0518  0.0512
19538SOL    HW164576   1.217   9.148   8.980 -0.0876  0.1554  0.1440
19538SOL    HW264577   1.145   9.214   9.096  0.6735  0.4324  0.4625
19539SOL     OW64578   1.766   1.217   7.805 -0.6636  0.0479 -0.0229
19539SOL    HW164579   1.746   1.214   7.898  0.8307  0.8811  0.3601
19539SOL    HW264580   1.860   1.196   7.800 -0.3651  1.4781 -1.1808
19540SOL     OW64581   7.898   1.820   4.957 -0.1926 -0.0051 -0.2212
19540SOL    HW164582   7.948   1.851   4.882 -1.9414  1.5146 -0.8389
19540SOL    HW264583   7.960   1.820   5.030  1.1803 -0.1764 -1.3614
19541SOL     OW64584   6.392   4.847   5.967 -0.9855  0.2421  0.2077
19541SOL    HW164585   6.456   4.780   5.946 -0.9662  0.6138 -0.9811
19541SOL    HW264586   6.312   4.799   5.986 -0.4588 -0.2074  1.3785
19542SOL     OW64587   6.518   2.911   4.057 -0.2454  0.1170  0.0326
19542SOL    HW164588   6.476   2.893   3.973 -0.4974  0.0664  0.1698
19542SOL    HW264589   6.488   2.998   4.081 -1.6143 -0.5713  0.9378
19543SOL     OW64590   2.860   6.734   2.464 -0.3609 -0.6954  0.3702
19543SOL    HW164591   2.850   6.682   2.544 -1.4049  0.1376  0.8115
19543SOL    HW264592   2.805   6.689   2.400 -0.7702 -0.4883  0.5736
19544SOL     OW64593   5.099   3.388   7.883  0.2460  0.0767  0.4933
19544SOL    HW164594   5.138   3.357   7.801  0.3855  1.7054 -0.0884
19544SOL    HW264595   5.134   3.330   7.950 -0.2957 -1.6443 -0.6422
19545SOL     OW64596   7.690   6.740   8.141  0.7550  0.1415 -0.1141
19545SOL    HW164597   7.699   6.647   8.118  1.2861 -0.3836  1.9498
19545SOL    HW264598   7.622   6.773   8.083  2.8223 -0.6426 -3.2766
19546SOL     OW64599   8.400   4.428   3.034 -0.1786  0.4082  0.1316
19546SOL    HW164600   8.437   4.346   3.067  0.6183 -0.2812 -2.2593
19546SOL    HW264601   8.475   4.486   3.026  0.3583 -0.5709 -3.5109
19547SOL     OW64602   6.053   6.432   6.816 -0.0292  0.0810  0.3393
19547SOL    HW164603   6.094   6.436   6.902  0.7319 -0.0451 -0.0112
19547SOL    HW264604   6.122   6.460   6.755 -0.5435  0.1310 -0.2324
19548SOL     OW64605   5.626   2.528   8.696 -0.0696  0.4095 -0.5053
19548SOL    HW164606   5.589   2.551   8.782 -0.8772  2.7030 -1.4068
19548SOL    HW264607   5.549   2.512   8.641  0.4420 -0.6260 -0.9529
19549SOL     OW64608   3.228   8.425   2.049 -0.5417 -0.2651  0.1584
19549SOL    HW164609   3.275   8.379   2.119 -1.0782 -1.3039 -0.1522
19549SOL    HW264610   3.231   8.517   2.076 -0.9756 -0.6591  1.7046
19550SOL     OW64611   4.209   0.704   4.861 -0.1613  0.2889  1.0103
19550SOL    HW164612   4.155   0.753   4.799 -0.2901  1.4535  2.0076
19550SOL    HW264613   4.293   0.694   4.818 -0.7784 -0.4943 -0.0717
19551SOL     OW64614   7.469   4.337   8.935  0.8851 -0.3448  0.1558
19551SOL    HW164615   7.439   4.427   8.943 -0.7545 -0.9301  0.9138
19551SOL    HW264616   7.564   4.342   8.950  0.7388  1.1710  0.7184
19552SOL     OW64617   6.529   2.712   6.052  0.0074  0.6511 -0.0654
19552SOL    HW164618   6.596   2.780   6.045  0.7723 -0.1557 -0.8924
19552SOL    HW264619   6.572   2.633   6.020 -1.2755  0.0589 -0.3875
19553SOL     OW64620   8.659   3.211   8.878 -0.7374 -0.4312 -1.1426
19553SOL    HW164621   8.678   3.303   8.861  0.0822 -0.6181 -1.2782
19553SOL    HW264622   8.592   3.213   8.946 -2.3598  0.3026 -2.6746
19554SOL     OW64623   5.643   3.372   1.863  0.2951  0.0462 -0.2354
19554SOL    HW164624   5.652   3.281   1.834 -1.9017 -0.7095  1.1294
19554SOL    HW264625   5.614   3.420   1.786  1.5318 -0.3828 -0.9843
19555SOL     OW64626   0.153   9.255   7.930  0.6144 -0.0708  0.8127
19555SOL    HW164627   0.166   9.174   7.882  2.5096  0.6739 -0.0198
19555SOL    HW264628   0.094   9.231   8.002  0.6950 -2.0347  0.2802
19556SOL     OW64629   3.758   5.713   1.725  0.3873 -0.1246 -0.7422
19556SOL    HW164630   3.810   5.685   1.800  0.2110 -1.9446 -1.2453
19556SOL    HW264631   3.768   5.808   1.722  1.8705 -0.2145  0.4865
19557SOL     OW64632   3.124   4.848   6.676 -0.3542 -0.0148 -0.5858
19557SOL    HW164633   3.184   4.838   6.601 -1.4815  0.4610 -1.5898
19557SOL    HW264634   3.116   4.943   6.688 -2.3790  0.0139 -1.7467
19558SOL     OW64635   2.318   8.878   3.388 -0.3097 -0.0776 -0.4732
19558SOL    HW164636   2.357   8.907   3.470 -0.0744 -1.4518 -0.0804
19558SOL    HW264637   2.377   8.911   3.320 -0.4903  1.0381 -0.1123
19559SOL     OW64638   6.169   3.121   2.488 -0.7647  0.0886 -0.1186
19559SOL    HW164639   6.258   3.087   2.485 -1.0152 -0.7551  1.0231
19559SOL    HW264640   6.146   3.119   2.581 -2.0072  0.2036 -0.4001
19560SOL     OW64641   6.756   5.065   0.769  0.0247 -0.2753  0.2604
19560SOL    HW164642   6.835   5.018   0.742  1.1212  1.5729  0.0500
19560SOL    HW264643   6.687   5.031   0.711  0.9081 -1.1017 -0.3362
19561SOL     OW64644   2.619   4.989   4.473  0.1613  0.1433 -0.0486
19561SOL    HW164645   2.533   4.994   4.514 -0.4510  1.3304 -1.3593
19561SOL    HW264646   2.664   5.068   4.503 -0.0346  0.6515 -1.0283
19562SOL     OW64647   5.183   1.891   3.860 -0.2151 -0.2515 -0.3368
19562SOL    HW164648   5.200   1.948   3.936  1.3574  0.0357 -0.8697
19562SOL    HW264649   5.203   1.946   3.784 -1.1212 -0.7504 -0.9511
19563SOL     OW64650   1.082   3.973   4.310 -0.4431 -0.6903  0.1980
19563SOL    HW164651   1.036   3.990   4.392  0.3081  0.7897  0.3580
19563SOL    HW264652   1.065   4.051   4.257  1.4160 -0.3227  0.0720
19564SOL     OW64653   8.329   6.290   9.314 -0.6277  0.5784  0.6487
19564SOL    HW164654   8.296   6.243   9.237 -1.9767 -0.4904  1.8324
19564SOL    HW264655   8.263   6.357   9.331 -1.6307 -0.7359  2.2595
19565SOL     OW64656   8.245   8.850   7.418 -0.5586 -0.2760  0.3307
19565SOL    HW164657   8.215   8.875   7.505 -2.3602  2.8538 -1.0502
19565SOL    HW264658   8.172   8.803   7.379  0.2067 -1.5848  0.3980
19566SOL     OW64659   4.844   1.048   5.798  0.0363 -0.6446  0.0720
19566SOL    HW164660   4.925   1.024   5.844  0.6427  1.9576  0.4789
19566SOL    HW264661   4.871   1.059   5.707 -0.2264 -1.3338 -0.0992
19567SOL     OW64662   2.861   5.729   4.081 -0.5468  0.3820  0.1699
19567SOL    HW164663   2.802   5.659   4.107 -0.2445  0.2372  0.4677
19567SOL    HW264664   2.848   5.797   4.146 -2.0942  1.3370 -1.0443
19568SOL     OW64665   0.149   5.192   0.055  0.0284  0.7657 -0.1427
19568SOL    HW164666   0.149   5.180  -0.040  1.3938  0.2224 -0.0982
19568SOL    HW264667   0.106   5.114   0.089  0.6922  0.3341 -0.2712
19569SOL     OW64668   0.205   6.124   6.165  0.2757  0.5814  0.3524
19569SOL    HW164669   0.280   6.104   6.222  0.0055 -0.3771  0.3889
19569SOL    HW264670   0.238   6.188   6.102  1.8392 -1.5889 -1.1607
19570SOL     OW64671   0.184   0.630   9.367 -0.0171  0.0433  0.1594
19570SOL    HW164672   0.153   0.673   9.287 -0.7889 -0.2198  0.3141
19570SOL    HW264673   0.264   0.678   9.389  1.3406 -1.1369 -1.8551
19571SOL     OW64674   4.860   1.005   2.284 -0.3995 -0.2790  0.1391
19571SOL    HW164675   4.912   1.085   2.279  0.6118 -0.9815 -3.1270
19571SOL    HW264676   4.797   1.012   2.212  0.5791 -2.8992 -1.1087
19572SOL     OW64677   7.886   9.266   6.959  0.0015 -0.5213 -0.7303
19572SOL    HW164678   7.864   9.221   6.877  0.9187 -1.1784 -0.6387
19572SOL    HW264679   7.830   9.343   6.960 -1.1111 -1.3035 -1.2385
19573SOL     OW64680   2.855   3.153   0.450 -0.1282 -0.3853  0.1496
19573SOL    HW164681   2.905   3.212   0.507 -1.8919  0.0226  1.3675
19573SOL    HW264682   2.770   3.196   0.441 -0.7070 -1.6747 -0.7682
19574SOL     OW64683   3.262   6.528   3.870  0.2057 -0.1293 -0.0272
19574SOL    HW164684   3.259   6.435   3.893  1.5879  0.0967  1.2245
19574SOL    HW264685   3.355   6.551   3.876  0.1925  0.8573 -2.3836
19575SOL     OW64686   6.422   1.801   9.191 -0.5068  0.6756  0.0930
19575SOL    HW164687   6.388   1.765   9.109  0.1752 -1.4917  0.6703
19575SOL    HW264688   6.348   1.845   9.231 -1.0612  1.0705 -1.2898
19576SOL     OW64689   0.678   8.987   7.681 -0.4513 -0.4289  0.2511
19576SOL    HW164690   0.711   8.899   7.663  0.4132  0.1167 -1.0467
19576SOL    HW264691   0.614   8.976   7.751 -1.5073 -2.2948 -0.9431
19577SOL     OW64692   8.215   5.181   1.119 -0.0905  0.5172 -0.0833
19577SOL    HW164693   8.272   5.229   1.060  1.5482 -0.9208  0.2440
19577SOL    HW264694   8.275   5.141   1.182 -1.6452  0.6004  1.5245
19578SOL     OW64695   7.928   2.414   4.737 -0.1437 -0.1633 -0.1934
19578SOL    HW164696   7.910   2.332   4.783  0.2322 -0.4491 -0.5492
19578SOL    HW264697   8.006   2.450   4.780 -0.4941  0.1702  0.1696
19579SOL     OW64698   2.541   4.192   6.284  0.0798 -0.4279 -0.4277
19579SOL    HW164699   2.616   4.197   6.344 -0.6432  2.0582  0.3664
19579SOL    HW264700   2.580   4.202   6.197  0.8294 -1.0764 -0.1861
19580SOL     OW64701   0.913   8.850   2.417  0.1065  0.1723  0.1492
19580SOL    HW164702   0.870   8.766   2.435  2.3755 -0.5922  2.8139
19580SOL    HW264703   0.855   8.915   2.457  0.0157 -0.5334  1.2152
19581SOL     OW64704   7.121   4.162   8.527  0.6905 -0.1349  0.1805
19581SOL    HW164705   7.062   4.088   8.540  0.6747 -0.8261 -3.1099
19581SOL    HW264706   7.159   4.177   8.614 -3.5774 -0.1746  2.3505
19582SOL     OW64707   1.600   7.900   3.896  0.1038  0.5344  0.7581
19582SOL    HW164708   1.609   7.993   3.920  0.2906  1.7224 -3.1285
19582SOL    HW264709   1.662   7.889   3.824  0.2304 -2.7434  1.2426
19583SOL     OW64710   1.193   0.189   4.435 -0.0522  0.0600  0.0625
19583SOL    HW164711   1.221   0.153   4.519 -1.3241  0.8964  0.8763
19583SOL    HW264712   1.270   0.183   4.379  1.0699  0.2878  1.5491
19584SOL     OW64713   7.664   2.015   2.133 -0.0627  0.5399  0.1110
19584SOL    HW164714   7.630   2.104   2.119 -1.0446  0.0209 -1.0237
19584SOL    HW264715   7.604   1.976   2.196  0.6050  0.7928  0.9216
19585SOL     OW64716   0.762   8.004   8.979  0.5870  0.2693 -0.3925
19585SOL    HW164717   0.723   8.081   8.937 -1.8027 -1.6744 -2.0500
19585SOL    HW264718   0.803   8.038   9.059 -0.4652  3.2159 -0.9918
19586SOL     OW64719   2.536   0.235   6.289  0.0929  0.8092 -0.1562
19586SOL    HW164720   2.614   0.241   6.345 -0.4648 -1.1802  0.9528
19586SOL    HW264721   2.483   0.310   6.315  0.0065  0.1267  1.8129
19587SOL     OW64722   2.991   4.922   1.730 -0.3475  0.5220  0.0241
19587SOL    HW164723   2.922   4.911   1.664 -1.3361  2.2759  0.6938
19587SOL    HW264724   2.991   5.016   1.749  2.4267  0.6193 -0.1254
19588SOL     OW64725   0.768   2.835   5.975 -0.0925 -0.2600 -0.0759
19588SOL    HW164726   0.733   2.793   5.895 -0.1554 -0.2150 -0.0724
19588SOL    HW264727   0.704   2.814   6.042  0.3258 -0.9168  0.1286
19589SOL     OW64728   1.910   9.256   1.322  0.3028 -0.4100 -0.4971
19589SOL    HW164729   1.881   9.218   1.239  0.1945 -0.8905 -0.2418
19589SOL    HW264730   2.005   9.257   1.316  0.2715  0.9849 -1.2559
19590SOL     OW64731   3.867   3.716   2.401 -0.4555  0.1075  1.1687
19590SOL    HW164732   3.808   3.789   2.382  1.0089  1.0354 -0.0842
19590SOL    HW264733   3.811   3.650   2.443 -2.6476  0.4127 -1.0374
19591SOL     OW64734   3.337   0.340   0.953 -0.2209 -0.2734 -0.6141
19591SOL    HW164735   3.324   0.251   0.920  1.0855 -0.1916 -1.4235
19591SOL    HW264736   3.249   0.372   0.971 -0.7085 -1.7573 -0.2040
19592SOL     OW64737   9.273   2.476   6.423 -0.3721  0.0261  0.0133
19592SOL    HW164738   9.354   2.432   6.397 -0.6783 -0.6526  0.1830
19592SOL    HW264739   9.226   2.411   6.475 -1.9874 -0.3695 -1.8219
19593SOL     OW64740   2.808   8.170   1.705 -0.4597  0.0451  0.2337
19593SOL    HW164741   2.847   8.098   1.655  4.4920  1.9448  0.7458
19593SOL    HW264742   2.769   8.129   1.781  1.3603 -2.2218  0.0400
19594SOL     OW64743   6.816   5.961   3.441  0.0658  0.1282  0.0858
19594SOL    HW164744   6.856   5.922   3.519  0.9763  0.8112 -0.0160
19594SOL    HW264745   6.742   6.011   3.475  0.5124  0.4956  0.5371
19595SOL     OW64746   1.898   7.994   8.277  0.1027 -0.2495  0.0606
19595SOL    HW164747   1.842   7.922   8.306 -0.3096  0.4717  1.0990
19595SOL    HW264748   1.927   8.036   8.358  0.0809  0.9464 -0.5390
19596SOL     OW64749   8.801   1.353   6.478 -0.4735 -0.2161  0.6341
19596SOL    HW164750   8.727   1.352   6.539 -0.6332  0.7541  0.4739
19596SOL    HW264751   8.798   1.440   6.438  0.9944 -0.0024  0.9129
19597SOL     OW64752   5.288   3.825   7.380  0.1797  0.1637 -0.3689
19597SOL    HW164753   5.251   3.754   7.433  0.7166  0.2860  0.1798
19597SOL    HW264754   5.281   3.902   7.436  1.5018  0.1354 -0.1327
19598SOL     OW64755   4.625   4.428   6.900  0.2048 -0.1936  0.6235
19598SOL    HW164756   4.561   4.492   6.869 -0.7415 -0.6864  1.4976
19598SOL    HW264757   4.604   4.417   6.993  0.3779 -1.7298  0.4995
19599SOL     OW64758   6.958   8.850   5.314 -0.5480  0.0960 -0.4868
19599SOL    HW164759   6.884   8.868   5.372 -0.8899 -1.0560 -0.5428
19599SOL    HW264760   7.035   8.865   5.368 -0.8252  0.7605 -0.2629
19600SOL     OW64761   5.442   1.167   5.728  0.6098 -0.4962  0.8736
19600SOL    HW164762   5.529   1.190   5.761  1.1743 -2.2125  0.6956
19600SOL    HW264763   5.392   1.248   5.736  2.4912  0.8549 -0.0124
19601SOL     OW64764   7.166   4.090   0.159  0.4180  0.2446 -0.1438
19601SOL    HW164765   7.105   4.042   0.102 -1.5985  1.3068  0.9896
19601SOL    HW264766   7.203   4.022   0.216 -2.8943 -0.0970  1.9081
19602SOL     OW64767   0.154   7.132   0.457  0.6743  0.3874 -0.0363
19602SOL    HW164768   0.073   7.127   0.509  1.0337  0.1020  0.4977
19602SOL    HW264769   0.180   7.224   0.463  2.2216 -0.1126  2.6444
19603SOL     OW64770   2.013   3.398   2.475  0.1730 -0.0407  0.0059
19603SOL    HW164771   1.946   3.410   2.408  0.2674 -0.4551 -0.1586
19603SOL    HW264772   2.093   3.432   2.436 -0.0828  1.2162  0.4895
19604SOL     OW64773   3.466   8.222   3.573 -0.0121 -0.1489 -0.0047
19604SOL    HW164774   3.473   8.140   3.623 -3.1201 -0.4995  0.0598
19604SOL    HW264775   3.418   8.281   3.631 -0.3977  0.7052 -1.1585
19605SOL     OW64776   4.458   9.230   1.410 -0.1829 -0.0642  0.6864
19605SOL    HW164777   4.418   9.163   1.466 -1.0836 -1.1948 -1.1962
19605SOL    HW264778   4.539   9.190   1.380 -0.6916 -0.3151 -0.3906
19606SOL     OW64779   5.400   3.439   7.646 -0.5445 -0.2370  0.2239
19606SOL    HW164780   5.494   3.422   7.648 -0.6543 -0.8045  1.4947
19606SOL    HW264781   5.360   3.359   7.678 -1.2365  1.2873  3.5363
19607SOL     OW64782   7.644   3.732   4.358 -0.2171  0.2474 -0.0756
19607SOL    HW164783   7.645   3.636   4.361  0.1777  0.2151 -0.9273
19607SOL    HW264784   7.556   3.756   4.388  0.5044 -0.2486  2.6889
19608SOL     OW64785   4.299   1.368   5.230 -0.0285  0.3788 -0.4270
19608SOL    HW164786   4.302   1.447   5.284  0.2347 -0.8364  1.4300
19608SOL    HW264787   4.390   1.352   5.205  0.0707  0.1060  0.0877
19609SOL     OW64788   6.279   3.182   6.397 -0.0929 -0.0063 -0.5080
19609SOL    HW164789   6.315   3.176   6.485  1.8353 -2.8226 -1.3416
19609SOL    HW264790   6.263   3.091   6.371 -1.5840  0.7788 -2.7068
19610SOL     OW64791   5.515   3.099   6.251  0.1765 -0.0751  0.2155
19610SOL    HW164792   5.442   3.098   6.312  0.4644 -0.4199  0.5583
19610SOL    HW264793   5.474   3.092   6.165 -0.2687  1.0633  0.3126
19611SOL     OW64794   4.654   4.654   6.448 -0.3661 -0.2372  0.2055
19611SOL    HW164795   4.574   4.604   6.466  0.1909 -0.5848  1.9155
19611SOL    HW264796   4.675   4.696   6.531  1.7386 -0.9155  0.0687
19612SOL     OW64797   6.639   2.771   1.524 -0.4183  0.3865  0.1258
19612SOL    HW164798   6.670   2.766   1.434  1.4399 -0.9605  0.7672
19612SOL    HW264799   6.693   2.840   1.564 -0.8831  0.6307  0.3395
19613SOL     OW64800   7.987   6.545   0.205  0.0555 -0.4435  0.3823
19613SOL    HW164801   7.897   6.569   0.182  0.6329 -0.9936 -2.9991
19613SOL    HW264802   8.034   6.628   0.212 -0.2795 -0.2315  0.0876
19614SOL     OW64803   5.765   5.900   1.740 -0.5800  0.1212 -0.5509
19614SOL    HW164804   5.700   5.836   1.711 -0.5060  0.9221 -2.6892
19614SOL    HW264805   5.719   5.954   1.804 -1.4226 -0.5089 -0.6098
19615SOL     OW64806   7.772   9.199   8.155 -0.3722  0.1215  0.1041
19615SOL    HW164807   7.738   9.169   8.240  1.1646 -0.5920  0.5026
19615SOL    HW264808   7.720   9.151   8.091 -0.0763 -1.0060  0.6889
19616SOL     OW64809   3.324   3.941   4.203 -0.1638 -0.3112  0.0474
19616SOL    HW164810   3.314   3.986   4.119  0.0115  0.7939  0.6083
19616SOL    HW264811   3.262   3.983   4.261  0.1641 -0.6389  0.6463
19617SOL     OW64812   8.238   4.863   2.802 -0.2646 -0.7122 -0.4642
19617SOL    HW164813   8.149   4.898   2.812 -0.0464 -0.2356 -0.1751
19617SOL    HW264814   8.277   4.870   2.889  0.3385 -0.1394 -0.7693
19618SOL     OW64815   7.568   5.780   4.759  0.1900  0.6477 -0.1650
19618SOL    HW164816   7.487   5.731   4.745  0.1460  0.6121  0.2125
19618SOL    HW264817   7.540   5.861   4.801  0.0533  1.8023 -2.3172
19619SOL     OW64818   6.829   8.521   1.310  0.4547  0.2407  0.2543
19619SOL    HW164819   6.836   8.617   1.314 -0.7493  0.4249 -1.3325
19619SOL    HW264820   6.917   8.492   1.285  0.6281  0.9918 -0.0474
19620SOL     OW64821   4.631   7.456   0.902  0.1636 -0.2551  0.1751
19620SOL    HW164822   4.656   7.545   0.877 -1.1594  0.0209 -0.2419
19620SOL    HW264823   4.651   7.451   0.995 -1.1618  1.0167  0.5629
19621SOL     OW64824   3.094   5.349   1.949 -0.1612  0.0677  0.2085
19621SOL    HW164825   3.186   5.327   1.959  0.2626  1.8378  0.6064
19621SOL    HW264826   3.063   5.361   2.039 -0.4347  0.7315  0.0330
19622SOL     OW64827   0.416   5.395   2.158 -0.6886 -0.3484  0.0787
19622SOL    HW164828   0.376   5.347   2.085 -1.6023  0.3041  0.1399
19622SOL    HW264829   0.445   5.478   2.119  2.7463 -1.6600 -0.5079
19623SOL     OW64830   0.095   7.841   1.521 -0.0895  0.5559 -0.1695
19623SOL    HW164831   0.034   7.773   1.549 -0.9281  1.2730 -0.1988
19623SOL    HW264832   0.173   7.827   1.574 -0.6267  0.1879  0.5344
19624SOL     OW64833   2.550   3.344   1.244  0.0946 -0.0971 -0.0873
19624SOL    HW164834   2.456   3.353   1.229  0.4236  2.6345 -0.8996
19624SOL    HW264835   2.567   3.250   1.233 -2.2976 -0.4565 -1.2166
19625SOL     OW64836   5.783   7.894   2.583  0.0624  0.8450 -0.2138
19625SOL    HW164837   5.812   7.803   2.588 -0.4874  0.7063  0.5484
19625SOL    HW264838   5.817   7.925   2.499 -1.4978 -0.6817 -1.4723
19626SOL     OW64839   3.472   0.593   4.778  0.2214 -0.1731 -0.2322
19626SOL    HW164840   3.543   0.538   4.744  0.0576 -1.4408  1.3644
19626SOL    HW264841   3.491   0.680   4.744  1.0962 -0.9837 -1.9582
19627SOL     OW64842   6.616   5.843   8.493 -0.5076  0.2474 -0.1746
19627SOL    HW164843   6.528   5.809   8.511 -0.3464  0.7210  1.7555
19627SOL    HW264844   6.612   5.935   8.520  0.8380  0.0098  0.9700
19628SOL     OW64845   6.569   8.780   7.614 -0.4833 -0.1680 -0.0602
19628SOL    HW164846   6.630   8.756   7.544 -0.8647 -1.1750 -0.0599
19628SOL    HW264847   6.549   8.698   7.658 -0.1091  0.4592  1.3700
19629SOL     OW64848   8.837   6.459   6.952 -0.4100  0.4143 -0.5396
19629SOL    HW164849   8.837   6.437   6.859  1.1840 -0.5655 -0.3524
19629SOL    HW264850   8.765   6.408   6.989  0.2278 -0.8192 -0.9266
19630SOL     OW64851   4.457   1.806   0.145 -0.0049 -0.4412  0.4912
19630SOL    HW164852   4.478   1.829   0.236  0.4762  0.3135  0.2060
19630SOL    HW264853   4.396   1.733   0.152 -0.3104 -0.1178  1.4328
19631SOL     OW64854   4.526   7.813   8.584 -0.0573  0.2030 -0.4913
19631SOL    HW164855   4.575   7.887   8.618  1.3119 -0.7959 -0.2019
19631SOL    HW264856   4.571   7.736   8.618 -1.6043 -0.7801 -0.5386
19632SOL     OW64857   4.266   7.445   8.071  0.1371  0.4088  0.0999
19632SOL    HW164858   4.197   7.499   8.111  0.1480 -0.2836  1.0907
19632SOL    HW264859   4.335   7.441   8.136  0.7670  0.3986 -0.5543
19633SOL     OW64860   1.953   8.995   9.213 -0.0250  0.4196 -0.7073
19633SOL    HW164861   2.023   8.936   9.188  0.2893  0.5859 -0.2327
19633SOL    HW264862   1.875   8.961   9.169  0.1064 -0.4698 -0.2720
19634SOL     OW64863   4.813   4.038   7.870  0.2496  0.4576 -0.2362
19634SOL    HW164864   4.745   3.998   7.815  0.6600 -0.5935 -0.0038
19634SOL    HW264865   4.889   3.981   7.858  0.0742 -0.3703  2.1571
19635SOL     OW64866   7.209   2.498   2.742 -0.3159  0.1570  0.1288
19635SOL    HW164867   7.157   2.575   2.718 -0.8064 -0.8309 -2.2915
19635SOL    HW264868   7.153   2.424   2.718  0.7372 -0.9476  0.9976
19636SOL     OW64869   6.992   1.402   7.032 -0.1707  1.1905  0.0461
19636SOL    HW164870   7.070   1.375   7.080 -1.0094 -0.5375  0.5011
19636SOL    HW264871   6.991   1.347   6.954 -0.5551  1.7244 -0.3326
19637SOL     OW64872   0.873   6.026   4.481  0.2323  0.0579  0.1170
19637SOL    HW164873   0.801   6.088   4.475  0.3914  0.1807 -0.6761
19637SOL    HW264874   0.838   5.953   4.532  0.2538  1.0818  1.6340
19638SOL     OW64875   6.452   7.954   5.896 -0.6179  0.7575 -0.5121
19638SOL    HW164876   6.430   7.886   5.832 -0.9400 -0.8195  1.1782
19638SOL    HW264877   6.542   7.935   5.921 -0.4838  1.3797 -0.5169
19639SOL     OW64878   0.442   5.603   3.786 -0.4386  0.1551 -0.3991
19639SOL    HW164879   0.518   5.546   3.780 -2.0061 -2.0032 -1.0361
19639SOL    HW264880   0.390   5.566   3.858 -1.8880  0.2025 -1.3671
19640SOL     OW64881   7.841   4.521   1.257  0.4023  0.2185 -0.3730
19640SOL    HW164882   7.895   4.456   1.213 -0.9811 -1.9714  0.9746
19640SOL    HW264883   7.899   4.560   1.323  0.8893 -0.6464 -0.2807
19641SOL     OW64884   3.466   4.859   3.995  0.2949  0.3366  0.3837
19641SOL    HW164885   3.398   4.882   4.059 -0.3064 -2.6229  0.9313
19641SOL    HW264886   3.418   4.845   3.913  0.2358 -1.3446  0.6727
19642SOL     OW64887   0.042   4.381   5.407  0.2606  0.1486  0.0965
19642SOL    HW164888   0.040   4.421   5.494  0.0350  1.3842 -0.4598
19642SOL    HW264889   0.002   4.446   5.349  1.2526 -0.2621 -1.0987
19643SOL     OW64890   8.445   1.677   7.962  0.0250 -0.0375  0.4943
19643SOL    HW164891   8.531   1.718   7.959 -0.1703  0.3931  0.7134
19643SOL    HW264892   8.385   1.749   7.983 -0.5334 -0.1173 -0.7689
19644SOL     OW64893   6.478   5.407   6.616 -0.4481  0.1902  0.1161
19644SOL    HW164894   6.487   5.397   6.711  1.4915 -0.7973 -0.1169
19644SOL    HW264895   6.395   5.453   6.605 -1.1503 -0.4076  2.2434
19645SOL     OW64896   0.843   8.058   1.989  0.7290 -0.2617  0.3052
19645SOL    HW164897   0.937   8.051   2.006  0.5261 -2.1408  0.9121
19645SOL    HW264898   0.809   8.103   2.066  0.8797 -1.5034  1.1259
19646SOL     OW64899   4.395   3.528   6.250 -0.2038  0.1558 -0.7374
19646SOL    HW164900   4.426   3.538   6.160  0.1242  1.6185 -0.4945
19646SOL    HW264901   4.299   3.526   6.242 -0.2839  2.2881 -1.0178
19647SOL     OW64902   5.563   8.778   8.150  0.5252  0.2103  0.3028
19647SOL    HW164903   5.643   8.819   8.118  1.2622 -0.8897  0.6836
19647SOL    HW264904   5.528   8.729   8.076  1.2549 -0.8676  0.6561
19648SOL     OW64905   7.301   6.231   0.201 -0.0620  0.3435 -0.1570
19648SOL    HW164906   7.225   6.193   0.156  0.7201 -0.8919 -0.4568
19648SOL    HW264907   7.376   6.186   0.164  0.6649 -0.3411  2.0341
19649SOL     OW64908   2.678   6.204   5.515 -0.0619 -1.1026 -0.3115
19649SOL    HW164909   2.687   6.297   5.492  0.1079 -0.8909  0.5750
19649SOL    HW264910   2.675   6.203   5.611 -0.2130 -2.0030 -0.3150
19650SOL     OW64911   5.827   3.524   5.591 -0.2817  0.4893  0.7214
19650SOL    HW164912   5.791   3.612   5.589 -0.6336  0.3427 -0.2969
19650SOL    HW264913   5.907   3.531   5.642  0.6789  1.7991 -0.8601
19651SOL     OW64914   5.386   5.531   5.045 -0.5975  0.6234  0.4190
19651SOL    HW164915   5.385   5.440   5.074 -0.0472  0.6902  0.6683
19651SOL    HW264916   5.383   5.526   4.949 -0.8933  0.3534  0.4425
19652SOL     OW64917   3.337   0.783   2.424 -0.1166 -0.1967 -0.1213
19652SOL    HW164918   3.361   0.715   2.360 -1.3465 -1.2444  0.4935
19652SOL    HW264919   3.291   0.735   2.493  1.2231  0.9135  1.5896
19653SOL     OW64920   5.838   7.338   8.041  0.2143  0.4411 -0.0198
19653SOL    HW164921   5.913   7.283   8.018 -1.7035 -1.8624 -1.1620
19653SOL    HW264922   5.820   7.389   7.962  0.8774  1.4301  0.4454
19654SOL     OW64923   8.893   1.760   6.611  0.5138  0.3611 -0.0418
19654SOL    HW164924   8.849   1.720   6.536  0.8383 -0.7782  0.3420
19654SOL    HW264925   8.828   1.759   6.681  0.9623 -0.8826  0.3878
19655SOL     OW64926   5.504   0.776   3.235  0.6196 -0.1463  0.5341
19655SOL    HW164927   5.433   0.805   3.178  0.7406 -1.6032 -0.3952
19655SOL    HW264928   5.583   0.795   3.185  0.7032 -2.0548 -0.1404
19656SOL     OW64929   8.630   5.609   1.700 -0.0324 -0.0079 -0.2990
19656SOL    HW164930   8.684   5.613   1.622 -0.4084 -3.0691 -0.8425
19656SOL    HW264931   8.591   5.521   1.699 -3.3122  1.2322  1.1958
19657SOL     OW64932   0.564   3.066   1.614  0.6428  0.5056 -0.3842
19657SOL    HW164933   0.656   3.081   1.634  0.5113  0.2859  0.4172
19657SOL    HW264934   0.564   3.012   1.535  1.2665 -2.0359  1.2723
19658SOL     OW64935   2.169   0.996   8.819 -0.0164 -1.2067  0.0891
19658SOL    HW164936   2.122   1.079   8.830 -0.7424 -1.5802 -0.1623
19658SOL    HW264937   2.242   1.002   8.880 -0.2571 -0.5237  0.3223
19659SOL     OW64938   0.891   5.345   5.966 -0.0156 -1.1844 -0.1226
19659SOL    HW164939   0.856   5.362   6.053  4.9603  1.7514  1.7343
19659SOL    HW264940   0.926   5.256   5.971  1.8936 -0.4104  1.7060
19660SOL     OW64941   0.159   2.089   6.823  0.2681  0.4563 -0.2574
19660SOL    HW164942   0.123   2.171   6.790 -0.0089 -0.1244 -1.4283
19660SOL    HW264943   0.108   2.021   6.780 -0.7087 -0.3548  2.0412
19661SOL     OW64944   8.594   3.783   5.735  0.2961 -0.4268  0.2030
19661SOL    HW164945   8.658   3.811   5.669  0.8033  0.4957  1.0497
19661SOL    HW264946   8.529   3.733   5.686  2.2104 -2.3279 -0.5376
19662SOL     OW64947   1.118   6.940   1.741  0.7680 -0.3704  0.3874
19662SOL    HW164948   1.068   6.875   1.791  1.4471  0.1771  1.8585
19662SOL    HW264949   1.079   6.939   1.654 -1.5037 -0.3278  1.3135
19663SOL     OW64950   1.249   3.170   7.821 -0.0837 -0.0869  0.0431
19663SOL    HW164951   1.273   3.197   7.910  0.7585 -1.1376  0.1510
19663SOL    HW264952   1.191   3.095   7.834  0.8923 -0.9250 -0.2871
19664SOL     OW64953   4.251   5.772   8.038  0.0501  0.4544  0.3922
19664SOL    HW164954   4.285   5.745   7.953 -3.0665  0.4721 -0.9614
19664SOL    HW264955   4.253   5.867   8.036 -1.0746  0.4723 -0.1392
19665SOL     OW64956   9.046   8.085   8.833 -0.1100  0.0300 -0.0456
19665SOL    HW164957   9.112   8.152   8.853  0.6066 -0.8455  0.5972
19665SOL    HW264958   9.091   8.023   8.777 -0.6729 -0.1027 -0.3547
19666SOL     OW64959   7.634   3.342   0.203  0.2809 -0.3766  0.2333
19666SOL    HW164960   7.659   3.268   0.258  0.3226  0.1558  0.9442
19666SOL    HW264961   7.685   3.416   0.238 -1.0664  0.3760  0.6761
19667SOL     OW64962   3.338   4.373   3.503  0.1566 -0.7350  0.1343
19667SOL    HW164963   3.387   4.357   3.422 -1.0498 -0.6062 -0.6490
19667SOL    HW264964   3.255   4.410   3.474 -0.3521 -0.8003  1.4371
19668SOL     OW64965   6.666   8.124   3.633  0.3437 -0.5877 -0.7614
19668SOL    HW164966   6.711   8.153   3.713  0.2819 -1.1215 -0.5334
19668SOL    HW264967   6.686   8.193   3.569 -1.2114  0.8687  0.2259
19669SOL     OW64968   6.399   2.554   5.168  0.0039 -0.6531 -0.0578
19669SOL    HW164969   6.431   2.574   5.080  1.2640 -1.2900  0.2260
19669SOL    HW264970   6.339   2.625   5.189  1.1515  0.5312 -0.6881
19670SOL     OW64971   0.549   3.606   2.665 -0.0067  0.5553  0.5481
19670SOL    HW164972   0.627   3.558   2.695 -0.9443 -1.3332  0.1457
19670SOL    HW264973   0.477   3.544   2.678 -1.1004  1.3528 -1.3156
19671SOL     OW64974   4.893   2.167   1.797 -0.3258  0.8361  0.4661
19671SOL    HW164975   4.881   2.111   1.720  1.3311  0.6188  0.3296
19671SOL    HW264976   4.869   2.255   1.766  1.0943  0.8957 -0.5879
19672SOL     OW64977   6.701   5.312   4.193  0.1107 -0.1434 -0.7396
19672SOL    HW164978   6.611   5.300   4.164  0.4024 -0.4793 -1.5519
19672SOL    HW264979   6.753   5.294   4.115  0.8370  0.9611 -0.5388
19673SOL     OW64980   1.328   4.506   9.312  0.5439 -0.4828  0.1663
19673SOL    HW164981   1.328   4.549   9.398  1.2856  1.5917 -0.7846
19673SOL    HW264982   1.365   4.572   9.253  0.4049 -1.9812 -1.6908
19674SOL     OW64983   5.998   1.844   3.074 -0.5451 -0.6219 -0.0866
19674SOL    HW164984   6.081   1.841   3.027 -0.8483 -2.0471 -0.5846
19674SOL    HW264985   6.010   1.785   3.148 -1.5204 -1.9755 -0.9426
19675SOL     OW64986   4.550   6.621   6.676  0.6559  0.3733  0.0935
19675SOL    HW164987   4.599   6.698   6.704  0.3518  0.2993  0.8668
19675SOL    HW264988   4.468   6.625   6.727 -0.0891  0.4331 -1.0788
19676SOL     OW64989   0.976   7.205   0.759 -0.3167 -0.2098 -0.4071
19676SOL    HW164990   0.921   7.151   0.815  0.6569  0.4922  1.3100
19676SOL    HW264991   0.968   7.293   0.797  1.3874  0.0322 -0.5555
19677SOL     OW64992   7.687   0.085   0.893 -0.5801 -0.0358 -0.2885
19677SOL    HW164993   7.638   0.003   0.900 -0.5646  0.0218  0.6506
19677SOL    HW264994   7.646   0.131   0.820 -0.6071 -0.8585 -0.8100
19678SOL     OW64995   8.206   5.844   3.126  0.3124 -0.2923  0.4112
19678SOL    HW164996   8.218   5.931   3.164 -0.5122  0.1097 -0.1958
19678SOL    HW264997   8.252   5.785   3.185  0.5897  0.5154  1.0249
19679SOL     OW64998   0.352   0.611   8.811  0.3187  0.8201 -0.0978
19679SOL    HW164999   0.441   0.577   8.825  0.6682  2.0416  0.7426
19679SOL    HW265000   0.362   0.676   8.742  0.0185  0.7380 -0.2197
19680SOL     OW65001   1.297   8.091   1.701 -0.4990 -0.4041  0.0281
19680SOL    HW165002   1.392   8.092   1.691 -0.1225  0.3002  2.8533
19680SOL    HW265003   1.272   8.000   1.683  0.7236 -0.6690 -0.4409
19681SOL     OW65004   0.390   6.916   7.350  0.5845  0.2482 -0.0862
19681SOL    HW165005   0.332   6.936   7.424  0.3160  1.1451 -0.5224
19681SOL    HW265006   0.476   6.901   7.391  0.4865  0.9473  0.4047
19682SOL     OW65007   3.726   0.355   7.487 -0.3613 -0.4377 -0.2300
19682SOL    HW165008   3.794   0.367   7.421 -0.5326  1.8050 -0.0505
19682SOL    HW265009   3.703   0.262   7.481  1.5852 -0.8965 -1.3724
19683SOL     OW65010   4.042   7.234   1.150 -0.1851  0.1025  0.5342
19683SOL    HW165011   4.060   7.161   1.090 -0.4828  0.5085 -0.0555
19683SOL    HW265012   3.947   7.240   1.155 -0.2617  2.1295 -1.5616
19684SOL     OW65013   0.440   4.070   4.002 -0.2383  0.1182 -0.0245
19684SOL    HW165014   0.370   4.065   3.937 -0.0491  0.5464 -0.2676
19684SOL    HW265015   0.504   4.005   3.974 -1.1635 -1.2752  0.9780
19685SOL     OW65016   8.711   9.056   2.313 -0.2499  0.0875 -0.2800
19685SOL    HW165017   8.767   9.047   2.390  1.0869  0.8945 -1.1181
19685SOL    HW265018   8.679   8.967   2.296  0.0543 -0.2293  0.7351
19686SOL     OW65019   0.836   2.076   3.616  0.2237  0.1683 -0.1033
19686SOL    HW165020   0.872   2.096   3.702  1.3519  0.7876 -0.6958
19686SOL    HW265021   0.913   2.062   3.561 -0.4889 -0.6682 -0.9118
19687SOL     OW65022   7.498   0.857   4.627 -0.3112  0.1273  0.1491
19687SOL    HW165023   7.452   0.836   4.546 -1.0728  0.8267  0.3937
19687SOL    HW265024   7.540   0.941   4.610  2.3113 -1.2340 -0.6527
19688SOL     OW65025   0.017   4.772   4.143  0.2657  0.6827 -0.4860
19688SOL    HW165026  -0.008   4.854   4.100  0.3709  1.4547  0.8632
19688SOL    HW265027  -0.007   4.703   4.081 -0.9379  1.6629 -1.1367
19689SOL     OW65028   2.967   7.889   2.300 -0.3509  0.1676 -0.1173
19689SOL    HW165029   2.941   7.981   2.294  0.3881  0.2925 -2.5769
19689SOL    HW265030   2.999   7.868   2.212  1.2665 -1.9296  0.9087
19690SOL     OW65031   0.922   3.538   3.152 -0.0964 -0.6549  0.1656
19690SOL    HW165032   1.014   3.536   3.177  0.8244  1.9684 -2.4323
19690SOL    HW265033   0.906   3.452   3.114  1.0344 -1.3992  1.2816
19691SOL     OW65034   3.494   6.056   7.394 -0.1558 -0.6506  0.0648
19691SOL    HW165035   3.470   6.147   7.378  2.7527  0.1516 -0.3020
19691SOL    HW265036   3.564   6.060   7.459 -0.2208 -2.6671  0.3357
19692SOL     OW65037   5.279   6.381   1.272  0.1829  0.3953 -0.2761
19692SOL    HW165038   5.356   6.401   1.219  0.0649 -0.3858 -0.7640
19692SOL    HW265039   5.222   6.332   1.213 -0.0702 -0.2529  0.4905
19693SOL     OW65040   0.948   2.530   2.435 -0.3031 -0.5325  0.1870
19693SOL    HW165041   0.917   2.604   2.382  0.3198 -0.2356  0.2306
19693SOL    HW265042   1.038   2.515   2.406 -0.3775 -1.1906  0.2745
19694SOL     OW65043   3.873   0.081   6.896 -0.0668 -0.3423  0.5351
19694SOL    HW165044   3.880   0.000   6.946 -1.2236 -0.6190  0.2826
19694SOL    HW265045   3.782   0.108   6.906  0.4496  1.2952  1.1496
19695SOL     OW65046   5.958   0.151   8.650  0.1643  0.3358 -0.0410
19695SOL    HW165047   5.989   0.236   8.622  0.5326 -0.3676 -1.9122
19695SOL    HW265048   6.013   0.088   8.603 -0.4470 -0.9334  0.8715
19696SOL     OW65049   5.386   4.189   4.983 -0.4309  0.4061  0.4707
19696SOL    HW165050   5.481   4.197   4.980 -0.5696  2.3551 -1.8518
19696SOL    HW265051   5.359   4.250   5.052 -0.0872  1.8777 -0.6513
19697SOL     OW65052   5.249   3.074   4.288 -0.4376  0.4244  0.3353
19697SOL    HW165053   5.289   3.085   4.375 -0.2778  0.6557  0.2359
19697SOL    HW265054   5.270   3.156   4.243  0.4982 -0.1680 -0.3280
19698SOL     OW65055   3.324   4.987   7.680  0.2417  0.1228  0.6091
19698SOL    HW165056   3.417   5.008   7.693  0.2639  1.5888 -1.4837
19698SOL    HW265057   3.278   5.069   7.699 -0.4124  0.0182 -0.4631
19699SOL     OW65058   4.271   7.511   4.219 -0.0316  0.2741 -0.0146
19699SOL    HW165059   4.278   7.488   4.126 -0.3247  0.4912 -0.0924
19699SOL    HW265060   4.254   7.605   4.220  0.5841  0.3860  0.2858
19700SOL     OW65061   5.099   2.151   5.503  0.2808  0.7174 -0.0444
19700SOL    HW165062   5.127   2.241   5.488  0.9023  0.5071 -0.1593
19700SOL    HW265063   5.180   2.101   5.511 -0.0417 -0.0405 -1.2211
19701SOL     OW65064   8.034   6.730   6.847 -0.1276  0.2131 -0.0998
19701SOL    HW165065   8.080   6.648   6.832  0.7804  0.6759  0.0324
19701SOL    HW265066   7.957   6.706   6.898 -0.1058 -0.6045 -0.4405
19702SOL     OW65067   0.116   0.837   6.979 -0.2712  0.2636 -0.1905
19702SOL    HW165068   0.173   0.776   6.931 -0.0700 -0.6014  1.0961
19702SOL    HW265069   0.175   0.880   7.041 -0.8858 -0.1182  0.6677
19703SOL     OW65070   5.144   3.337   3.840  0.0234 -0.3160 -0.5311
19703SOL    HW165071   5.061   3.337   3.887  0.6258 -0.0175  0.5566
19703SOL    HW265072   5.141   3.258   3.786 -0.6303 -0.7402  0.1104
19704SOL     OW65073   5.007   0.128   6.499 -0.0875  0.1081  0.2785
19704SOL    HW165074   4.973   0.140   6.588  0.8287 -0.3388  0.7015
19704SOL    HW265075   5.023   0.034   6.492  1.0484  0.2979  0.1009
19705SOL     OW65076   6.831   7.076   6.454  0.5350  0.4212 -0.0654
19705SOL    HW165077   6.833   7.051   6.546  2.7428  0.2265 -0.1157
19705SOL    HW265078   6.818   6.993   6.407 -1.6944  0.6436  0.0451
19706SOL     OW65079   3.592   7.515   2.971  0.4451 -0.0326  0.1622
19706SOL    HW165080   3.574   7.431   2.930 -0.6340 -0.7978  2.0816
19706SOL    HW265081   3.522   7.526   3.035  0.0943  2.7164 -0.5668
19707SOL     OW65082   5.755   8.657   0.758 -0.3552  0.0461  0.5059
19707SOL    HW165083   5.828   8.704   0.797 -1.9677  0.5788  3.0831
19707SOL    HW265084   5.735   8.586   0.819 -1.4251 -0.6696 -0.5975
19708SOL     OW65085   3.799   4.145   2.216  0.3201  0.4943 -0.3368
19708SOL    HW165086   3.868   4.169   2.279  0.7303 -1.1260 -0.1221
19708SOL    HW265087   3.757   4.068   2.255  0.6918 -0.6564 -2.0983
19709SOL     OW65088   1.692   4.309   6.904  0.6883  0.2633 -0.2557
19709SOL    HW165089   1.670   4.287   6.994  1.5599 -2.0251 -0.5507
19709SOL    HW265090   1.623   4.370   6.876  1.5869  2.8359  2.5818
19710SOL     OW65091   6.456   6.526   7.336  0.5170  0.1707  0.7107
19710SOL    HW165092   6.542   6.500   7.368  0.5499 -1.8198 -0.8273
19710SOL    HW265093   6.463   6.621   7.323  1.3770  0.5873  3.6753
19711SOL     OW65094   8.093   0.210   0.559  0.5705  0.0313 -0.3842
19711SOL    HW165095   7.999   0.189   0.559  0.3411  0.8794  1.2685
19711SOL    HW265096   8.127   0.165   0.637  1.3715  0.4650 -0.4733
19712SOL     OW65097   0.445   5.349   1.878 -0.0160 -0.1358 -0.2240
19712SOL    HW165098   0.462   5.257   1.897 -3.6453 -0.4579  2.3561
19712SOL    HW265099   0.432   5.352   1.783  0.7166 -2.1231 -0.4297
19713SOL     OW65100   4.694   1.972   3.226  0.6619 -0.0264 -0.0803
19713SOL    HW165101   4.656   1.942   3.144  0.6953  0.7332 -0.3812
19713SOL    HW265102   4.766   1.911   3.242 -2.1057 -3.1495  1.8360
19714SOL     OW65103   4.954   3.739   1.043 -0.0496 -0.3450 -0.4292
19714SOL    HW165104   4.921   3.649   1.053 -0.8245 -0.0210  0.0653
19714SOL    HW265105   4.882   3.785   1.001  1.5406 -0.6726 -3.7737
19715SOL     OW65106   4.658   8.997   1.407  0.0669 -0.1165  0.0095
19715SOL    HW165107   4.647   8.904   1.389  1.6864 -0.4994  0.7380
19715SOL    HW265108   4.687   9.035   1.324  1.6536 -0.7291  0.2464
19716SOL     OW65109   7.216   7.702   2.662 -0.3509 -0.2091  0.1985
19716SOL    HW165110   7.206   7.770   2.729  0.6732  0.7776 -0.6017
19716SOL    HW265111   7.181   7.741   2.582  0.7478 -0.3780 -0.3984
19717SOL     OW65112   2.255   2.949   6.799  0.0843 -0.2282  0.0035
19717SOL    HW165113   2.273   2.915   6.887  1.4011  1.2220  0.3460
19717SOL    HW265114   2.339   2.941   6.752  0.0669  1.1699 -0.3314
19718SOL     OW65115   6.675   0.969   0.746 -0.0164 -0.0468 -0.2544
19718SOL    HW165116   6.597   1.024   0.759 -0.4472 -0.7150  0.0470
19718SOL    HW265117   6.745   1.015   0.793  0.0226  1.0781 -1.3610
19719SOL     OW65118   3.770   1.121   8.305  0.0031  0.1277 -0.0393
19719SOL    HW165119   3.776   1.099   8.212  0.4534 -0.1548  0.0501
19719SOL    HW265120   3.780   1.036   8.350 -0.4624  0.2276  0.2581
19720SOL     OW65121   5.290   7.857   7.888 -0.0695  0.1899  0.1760
19720SOL    HW165122   5.222   7.791   7.876  1.1331 -0.9750 -0.5089
19720SOL    HW265123   5.294   7.870   7.983  0.3890 -1.5479  0.4373
19721SOL     OW65124   2.700   5.755   3.624 -0.1374  0.4539 -0.3126
19721SOL    HW165125   2.654   5.682   3.581 -0.3797  1.7187 -2.3410
19721SOL    HW265126   2.676   5.832   3.572  0.6485  1.8829  1.3652
19722SOL     OW65127   4.400   9.191   8.583 -0.3872  0.2865  0.0389
19722SOL    HW165128   4.334   9.134   8.544  1.5226 -1.0596 -1.4036
19722SOL    HW265129   4.430   9.246   8.512  2.0858 -1.1638 -0.1342
19723SOL     OW65130   0.014   6.083   5.786  0.0078 -0.4965  0.1346
19723SOL    HW165131  -0.014   6.173   5.803 -0.7603 -0.6447 -0.2978
19723SOL    HW265132   0.109   6.086   5.792  0.5439  1.5165 -4.7761
19724SOL     OW65133   3.713   5.513   3.713 -0.2557  0.7085  0.0805
19724SOL    HW165134   3.640   5.498   3.772  0.1809  1.8771  0.9632
19724SOL    HW265135   3.689   5.468   3.632 -0.7534 -1.1695  1.2038
19725SOL     OW65136   5.179   5.115   0.954 -0.5613 -0.0353 -0.1475
19725SOL    HW165137   5.191   5.048   0.887  1.5562 -0.2360  0.3462
19725SOL    HW265138   5.205   5.196   0.911 -2.0228  0.3109 -0.4076
19726SOL     OW65139   4.132   6.120   5.645 -0.2636 -0.1958 -0.4828
19726SOL    HW165140   4.098   6.137   5.733 -1.4260  0.0801 -0.9649
19726SOL    HW265141   4.075   6.171   5.587  0.7981  0.0340 -1.3673
19727SOL     OW65142   1.251   6.354   2.026 -0.6518  0.2258 -0.1210
19727SOL    HW165143   1.169   6.401   2.012 -0.2242  1.1372  0.3530
19727SOL    HW265144   1.239   6.310   2.111 -1.4277 -1.3907 -1.0079
19728SOL     OW65145   3.506   6.556   2.377  0.1777 -0.4041  0.1222
19728SOL    HW165146   3.490   6.530   2.468 -0.1304  0.2395  0.2529
19728SOL    HW265147   3.480   6.479   2.326 -0.6816 -0.3765  0.5083
19729SOL     OW65148   9.257   6.456   6.251 -0.0442 -0.3024 -0.0718
19729SOL    HW165149   9.325   6.476   6.187 -0.2118 -0.5521 -0.3277
19729SOL    HW265150   9.231   6.542   6.285  1.0993 -0.2515  0.7718
19730SOL     OW65151   8.922   5.783   5.073  0.1628 -0.0359 -0.5903
19730SOL    HW165152   8.840   5.762   5.117  0.3821  0.9596  0.3361
19730SOL    HW265153   8.896   5.812   4.986 -0.3658 -0.8721 -0.7284
19731SOL     OW65154   4.850   7.234   6.311  0.4039  0.6493  0.5750
19731SOL    HW165155   4.905   7.308   6.335 -0.7805  1.6350  0.3583
19731SOL    HW265156   4.773   7.242   6.368 -0.9751  1.1727 -1.2800
19732SOL     OW65157   0.608   9.092   1.599 -0.2530 -0.1314  0.4227
19732SOL    HW165158   0.687   9.037   1.601  1.6070  2.3660  1.0455
19732SOL    HW265159   0.642   9.182   1.594 -3.1312  0.9913 -0.7504
19733SOL     OW65160   2.425   3.871   8.753  0.2946 -0.1386 -0.2177
19733SOL    HW165161   2.450   3.963   8.742 -0.5607  0.2235  0.7301
19733SOL    HW265162   2.433   3.855   8.847  4.5936 -2.2954 -0.7135
19734SOL     OW65163   7.165   8.521   7.678  0.1463 -0.2405 -0.7125
19734SOL    HW165164   7.197   8.610   7.692 -0.9445  0.0014  0.4180
19734SOL    HW265165   7.218   8.467   7.737 -0.3609 -0.0749 -0.0892
19735SOL     OW65166   1.631   8.741   0.228 -0.1345  0.6700  0.1630
19735SOL    HW165167   1.669   8.677   0.168 -1.3068 -1.5863  1.7042
19735SOL    HW265168   1.537   8.727   0.223 -0.3751  1.7145  1.1726
19736SOL     OW65169   8.979   6.316   9.245 -0.3147  0.1578  0.0165
19736SOL    HW165170   8.936   6.234   9.268  0.9203 -0.1811  1.2448
19736SOL    HW265171   9.064   6.291   9.210  0.0784  0.9046  0.4008
19737SOL     OW65172   6.466   7.049   3.390  0.3013 -0.2396  0.2022
19737SOL    HW165173   6.417   7.125   3.356 -1.0009 -0.9897  0.3316
19737SOL    HW265174   6.513   7.016   3.313  0.4233  0.3657  0.0113
19738SOL     OW65175   9.317   8.315   8.292 -0.5529 -0.1419 -0.0638
19738SOL    HW165176   9.399   8.268   8.286  0.0925  0.9357 -0.0161
19738SOL    HW265177   9.307   8.334   8.386 -1.0372 -0.5694 -0.0232
19739SOL     OW65178   2.857   9.285   1.263  0.2007 -0.6952 -0.6372
19739SOL    HW165179   2.923   9.216   1.256  0.4295 -0.5305 -0.1338
19739SOL    HW265180   2.836   9.307   1.172  1.2770 -0.3304 -0.8107
19740SOL     OW65181   0.999   8.543   7.000 -0.0454  0.0228  0.3994
19740SOL    HW165182   0.960   8.523   6.915 -1.8410  0.8263  0.9791
19740SOL    HW265183   0.964   8.476   7.059  0.0466  0.3220  0.7976
19741SOL     OW65184   8.557   3.346   0.920  0.4074  0.2161 -0.4210
19741SOL    HW165185   8.627   3.307   0.868  1.9706 -0.2818  1.9007
19741SOL    HW265186   8.508   3.271   0.954  1.3351  0.3290  1.2869
19742SOL     OW65187   3.532   4.895   7.473  0.7570 -0.2876 -0.0206
19742SOL    HW165188   3.457   4.955   7.470  0.3373 -0.6642  1.6850
19742SOL    HW265189   3.536   4.868   7.565  1.7076 -1.9040 -0.5170
19743SOL     OW65190   4.962   2.543   4.453  0.1275 -0.6626  0.3692
19743SOL    HW165191   4.999   2.557   4.540  0.4406 -0.6507  0.2361
19743SOL    HW265192   4.868   2.545   4.466  0.1677 -1.3514  0.8265
19744SOL     OW65193   6.138   1.165   2.913 -0.8747  0.2369  0.0644
19744SOL    HW165194   6.154   1.238   2.972 -0.1338  0.1342  0.0055
19744SOL    HW265195   6.226   1.137   2.885 -1.1305 -0.8293  0.2846
19745SOL     OW65196   6.067   1.282   4.336 -0.6594  0.4490 -0.0817
19745SOL    HW165197   6.136   1.299   4.401 -0.5114 -1.5333  0.3432
19745SOL    HW265198   6.044   1.190   4.349  0.0746 -0.3753 -3.4635
19746SOL     OW65199   9.353   1.316   8.474 -0.4959 -0.3680  0.8241
19746SOL    HW165200   9.261   1.327   8.499 -0.5041  1.8329 -0.0204
19746SOL    HW265201   9.356   1.229   8.435 -2.6286  0.1658 -0.7384
19747SOL     OW65202   2.552   1.270   7.260  0.0269  0.9276 -0.0586
19747SOL    HW165203   2.517   1.188   7.224  0.4439  1.0753 -0.8100
19747SOL    HW265204   2.490   1.293   7.330  0.4882 -0.5903  0.9018
19748SOL     OW65205   3.603   2.209   1.618  0.0490 -0.2226  0.6213
19748SOL    HW165206   3.599   2.304   1.610  0.1766 -0.3811 -2.3179
19748SOL    HW265207   3.535   2.177   1.559  1.1657 -1.9651  0.2198
19749SOL     OW65208   0.973   0.008   7.613 -0.4221  0.2706 -0.2887
19749SOL    HW165209   0.975  -0.046   7.692 -0.8004  1.1705  0.3524
19749SOL    HW265210   0.964  -0.055   7.541 -1.4414 -0.4857  0.4709
19750SOL     OW65211   8.022   7.785   3.556 -0.4935  0.2944 -0.0253
19750SOL    HW165212   8.064   7.799   3.640  0.9830 -1.2511 -0.4615
19750SOL    HW265213   8.035   7.868   3.509 -0.3527  0.7742  0.8350
19751SOL     OW65214   7.877   4.832   7.254  0.1716 -0.1447 -0.0805
19751SOL    HW165215   7.855   4.875   7.336 -1.3122 -1.5039  0.2726
19751SOL    HW265216   7.794   4.822   7.208  0.9311  0.3382 -1.6563
19752SOL     OW65217   5.136   3.471   5.156 -0.7128  0.2337 -0.3406
19752SOL    HW165218   5.147   3.549   5.103 -1.5640 -0.5940 -1.7981
19752SOL    HW265219   5.084   3.500   5.231  1.2448  1.6072  0.5434
19753SOL     OW65220   6.856   0.262   8.314  0.6454 -0.2995 -0.7017
19753SOL    HW165221   6.949   0.243   8.332  0.1429 -1.7830  0.5340
19753SOL    HW265222   6.822   0.295   8.397  0.1377  0.5999 -1.2565
19754SOL     OW65223   7.580   0.930   2.010  0.1712 -0.0409  0.4923
19754SOL    HW165224   7.512   0.913   2.076  0.5853  0.3619  1.0285
19754SOL    HW265225   7.654   0.876   2.038  0.5660  0.6013  0.7110
19755SOL     OW65226   4.673   4.714   0.827  0.0333 -0.3331  0.0482
19755SOL    HW165227   4.614   4.743   0.897 -0.7250 -1.7360  0.0373
19755SOL    HW265228   4.643   4.762   0.750  0.0145  0.2290  0.3983
19756SOL     OW65229   8.701   8.068   1.795 -0.1025  0.3901 -0.0795
19756SOL    HW165230   8.608   8.073   1.775 -0.0074  0.3971 -0.5137
19756SOL    HW265231   8.710   8.113   1.879 -0.7331 -0.9297  0.7349
19757SOL     OW65232   4.679   7.636   3.856 -1.1033  0.3273  0.0176
19757SOL    HW165233   4.625   7.712   3.874  0.3414  2.6404 -3.9857
19757SOL    HW265234   4.690   7.636   3.761  1.2490 -3.3383  0.0525
19758SOL     OW65235   7.491   7.818   4.278  0.0878  0.0307  0.1586
19758SOL    HW165236   7.536   7.793   4.359 -0.7912  0.7077  0.8710
19758SOL    HW265237   7.475   7.735   4.234  0.0931 -0.4007  0.9399
19759SOL     OW65238   0.959   1.771   8.043  0.2472 -0.4212 -0.6889
19759SOL    HW165239   1.023   1.826   7.998 -0.7600  1.4427  0.0112
19759SOL    HW265240   0.967   1.795   8.135 -0.9526 -0.6744 -0.5008
19760SOL     OW65241   3.731   0.739   2.316 -0.1566  0.2351  0.2119
19760SOL    HW165242   3.649   0.691   2.302 -1.5213  1.8439  2.1496
19760SOL    HW265243   3.787   0.679   2.364 -0.8686 -0.3024  0.3801
19761SOL     OW65244   5.108   8.143   9.211  0.3653  0.3100 -0.1463
19761SOL    HW165245   5.093   8.124   9.118  0.5906  2.3157 -0.6365
19761SOL    HW265246   5.038   8.097   9.257 -0.4628  0.2710 -1.4105
19762SOL     OW65247   6.661   0.761   1.007  0.5223 -0.2716  0.3587
19762SOL    HW165248   6.723   0.726   1.070  0.2119 -0.8277  0.3697
19762SOL    HW265249   6.710   0.826   0.957  0.7485  0.2312  1.2224
19763SOL     OW65250   5.789   5.060   4.052  0.2174 -0.0625 -0.7830
19763SOL    HW165251   5.702   5.060   4.094 -0.0990  0.5655 -1.4043
19763SOL    HW265252   5.846   5.102   4.116 -0.0858  0.1486 -0.6478
19764SOL     OW65253   2.518   3.578   2.570 -0.4065  0.1754  0.0179
19764SOL    HW165254   2.423   3.571   2.580 -0.5304  2.6102  1.2169
19764SOL    HW265255   2.531   3.663   2.526  1.1692 -1.0139 -1.9992
19765SOL     OW65256   2.538   2.329   0.122  0.2435  0.1412 -0.5355
19765SOL    HW165257   2.583   2.310   0.040 -0.4777  1.0997 -1.1845
19765SOL    HW265258   2.571   2.415   0.149  0.9032 -0.4153  0.5013
19766SOL     OW65259   0.905   5.677   0.399  0.1899  0.1981  0.3283
19766SOL    HW165260   0.861   5.748   0.446  3.1756  1.4048  1.5058
19766SOL    HW265261   0.955   5.720   0.330  0.8860 -0.9187  0.1049
19767SOL     OW65262   0.103   4.023   6.128  0.5436  0.0675  0.3311
19767SOL    HW165263   0.149   4.102   6.100 -0.9944  1.8578  2.5286
19767SOL    HW265264   0.072   3.983   6.046  0.7614  2.1074 -0.8104
19768SOL     OW65265   9.043   6.399   3.847 -0.3985  0.6425  0.4148
19768SOL    HW165266   9.130   6.387   3.808 -0.1770  0.1013  1.0608
19768SOL    HW265267   9.004   6.470   3.796  0.4619  0.9677  0.1822
19769SOL     OW65268   4.929   0.181   2.078  0.1560 -0.5844  0.1995
19769SOL    HW165269   4.902   0.179   1.987 -0.9231  0.0240  0.4870
19769SOL    HW265270   5.025   0.180   2.075  0.1738  0.8729 -1.0021
19770SOL     OW65271   6.333   2.005   8.580 -0.2882  0.2942  0.3829
19770SOL    HW165272   6.426   1.998   8.600 -0.5607 -3.2115  0.9558
19770SOL    HW265273   6.328   1.997   8.485 -0.0157  0.8119  0.3206
19771SOL     OW65274   0.961   8.929   9.127 -0.2799 -0.0313  0.0618
19771SOL    HW165275   0.890   8.879   9.168  0.3270  0.0021  1.1902
19771SOL    HW265276   0.973   9.005   9.184 -0.6383  1.0033 -1.1941
19772SOL     OW65277   0.610   0.215   2.505  0.8538  0.0237 -0.1794
19772SOL    HW165278   0.572   0.143   2.556  1.2153  0.4365  0.6891
19772SOL    HW265279   0.538   0.277   2.495  1.1968  0.6976  1.2649
19773SOL     OW65280   0.766   8.542   0.450  0.0530 -0.6122  0.6764
19773SOL    HW165281   0.684   8.498   0.429  0.5369 -1.1456 -0.1336
19773SOL    HW265282   0.786   8.594   0.372  0.9794 -1.2425  0.4938
19774SOL     OW65283   5.603   1.629   2.700  0.0961  0.7493 -0.1948
19774SOL    HW165284   5.685   1.623   2.750  0.1070  0.8564 -0.1991
19774SOL    HW265285   5.613   1.565   2.630 -0.5670 -0.5480  0.8564
19775SOL     OW65286   7.660   4.117   3.028 -0.1619  0.0374 -0.8140
19775SOL    HW165287   7.644   4.205   2.993 -0.5211 -0.1376 -1.1060
19775SOL    HW265288   7.590   4.104   3.092  1.5627  1.0839  1.4200
19776SOL     OW65289   8.926   5.603   8.580 -0.3548  0.3869 -0.2272
19776SOL    HW165290   8.913   5.517   8.618  0.9424  0.7960  1.2347
19776SOL    HW265291   8.852   5.655   8.611  0.6900  0.7245  1.8709
19777SOL     OW65292   3.903   2.059   2.478  0.1525  0.0380 -0.1516
19777SOL    HW165293   3.947   2.119   2.417  0.5393 -1.2258 -1.1584
19777SOL    HW265294   3.959   2.059   2.556  1.2025 -0.4768 -0.8877
19778SOL     OW65295   0.040   5.844   8.415 -0.1932 -0.3461  0.0308
19778SOL    HW165296   0.092   5.920   8.443  0.9054 -1.1860  0.3418
19778SOL    HW265297  -0.030   5.839   8.480  2.1117 -2.0456  2.6134
19779SOL     OW65298   6.009   8.970   1.284 -0.2206  0.5684 -0.0371
19779SOL    HW165299   6.078   8.932   1.230  0.6201  1.8555  0.1003
19779SOL    HW265300   5.929   8.957   1.233  0.3934  0.7201 -1.0707
19780SOL     OW65301   1.499   4.801   1.801  0.1931  0.3853  0.5892
19780SOL    HW165302   1.562   4.854   1.850  0.3199  0.6343  0.1620
19780SOL    HW265303   1.485   4.850   1.720 -1.0314  0.6591  0.9419
19781SOL     OW65304   3.964   2.699   9.175 -0.1293  0.1636  0.0659
19781SOL    HW165305   3.926   2.746   9.249 -1.3493 -1.9674  0.8874
19781SOL    HW265306   4.014   2.765   9.127 -0.8491  2.0060  1.7378
19782SOL     OW65307   1.984   5.553   1.585 -0.4591  0.1226 -0.1726
19782SOL    HW165308   1.984   5.475   1.529  1.3972 -0.2527  0.2679
19782SOL    HW265309   1.895   5.587   1.579 -1.1139 -1.6098 -0.9635
19783SOL     OW65310   8.427   0.933   8.974  0.0735 -0.0733  0.7715
19783SOL    HW165311   8.510   0.886   8.959 -0.5447 -1.3275  1.1851
19783SOL    HW265312   8.417   0.935   9.069 -1.8569 -2.7338  0.7414
19784SOL     OW65313   6.986   4.258   7.531 -0.1125 -0.1722 -0.5427
19784SOL    HW165314   6.909   4.309   7.558  0.1465 -0.8737  1.7973
19784SOL    HW265315   6.949   4.180   7.489 -0.6486 -0.0016 -0.4033
19785SOL     OW65316   6.769   5.153   3.051 -0.0766  0.2712 -0.2669
19785SOL    HW165317   6.701   5.216   3.027  0.6377  0.9408 -0.5925
19785SOL    HW265318   6.841   5.208   3.083  0.3949 -0.4112 -0.1460
19786SOL     OW65319   3.399   6.044   5.147 -0.0773 -0.2086 -0.2577
19786SOL    HW165320   3.413   6.133   5.116  0.5935 -0.4022 -0.5412
19786SOL    HW265321   3.340   6.004   5.083 -0.1244 -0.0660 -0.3015
19787SOL     OW65322   8.623   0.163   1.331 -0.4172 -0.0093  0.3704
19787SOL    HW165323   8.572   0.097   1.285 -1.9776 -0.1456  2.1990
19787SOL    HW265324   8.561   0.232   1.353  0.3649  0.2871  1.8045
19788SOL     OW65325   5.856   4.810   7.795 -0.7385 -0.1963 -0.5169
19788SOL    HW165326   5.818   4.755   7.863 -2.4565  1.5760  0.0666
19788SOL    HW265327   5.876   4.750   7.724 -2.0858 -1.6434  0.2579
19789SOL     OW65328   5.433   5.655   9.243 -0.3616  0.1346  0.1940
19789SOL    HW165329   5.464   5.665   9.333 -0.3764  1.1811  0.0908
19789SOL    HW265330   5.421   5.744   9.211  2.3204 -0.0711 -1.7743
19790SOL     OW65331   3.932   3.487   8.856  0.4247  0.1637  0.0792
19790SOL    HW165332   3.933   3.399   8.818  2.9094  0.7031 -1.3485
19790SOL    HW265333   3.927   3.545   8.780 -1.8055  1.3283  1.0269
19791SOL     OW65334   0.263   7.611   6.083  0.4058 -0.0160 -0.1504
19791SOL    HW165335   0.170   7.632   6.090  0.2234 -0.9912  0.5650
19791SOL    HW265336   0.265   7.527   6.036  0.8464 -0.5334  0.7685
19792SOL     OW65337   0.855   8.043   8.075 -0.1232 -0.1631 -0.1927
19792SOL    HW165338   0.767   8.010   8.057 -0.4888  1.4590 -1.6582
19792SOL    HW265339   0.851   8.136   8.052  0.7725  1.0904  3.9257
19793SOL     OW65340   0.568   2.076   4.578  0.0615 -0.4171 -0.0779
19793SOL    HW165341   0.500   2.139   4.602 -1.6496 -1.2917 -2.2715
19793SOL    HW265342   0.520   1.998   4.550  1.9736 -1.2249 -1.3164
19794SOL     OW65343   8.266   6.403   0.488 -0.4887 -0.3610  0.1553
19794SOL    HW165344   8.262   6.498   0.478 -1.3335 -0.3918  0.1162
19794SOL    HW265345   8.226   6.387   0.573 -1.7699 -0.7814 -0.4969
19795SOL     OW65346   7.726   4.673   7.540  0.0365 -0.2670 -0.0449
19795SOL    HW165347   7.808   4.698   7.583 -0.3234  1.5679 -0.3288
19795SOL    HW265348   7.660   4.729   7.581 -0.9306 -1.0867 -0.4552
19796SOL     OW65349   7.522   1.445   0.072 -0.5428  0.0251 -0.3062
19796SOL    HW165350   7.575   1.514   0.033  0.0050  0.6043  1.3865
19796SOL    HW265351   7.444   1.440   0.016 -0.8938  2.4535 -0.1476
19797SOL     OW65352   4.905   1.940   7.564 -0.0457 -0.4188  0.3412
19797SOL    HW165353   4.988   1.947   7.612 -0.6314  1.3096  1.1793
19797SOL    HW265354   4.931   1.920   7.474  1.4401  2.0580  0.1444
19798SOL     OW65355   6.520   6.895   8.257 -0.8670 -0.8165 -0.2160
19798SOL    HW165356   6.560   6.904   8.343 -0.7437  2.6920 -0.5050
19798SOL    HW265357   6.428   6.873   8.275 -0.5581 -1.4216  0.7080
19799SOL     OW65358   2.839   7.328   1.025  0.2061  0.5530  0.3692
19799SOL    HW165359   2.841   7.410   1.074 -0.8611  1.0324 -0.3434
19799SOL    HW265360   2.779   7.346   0.952  0.1269 -0.7945  0.0864
19800SOL     OW65361   3.699   3.013   6.254 -1.0338  0.3956 -0.3629
19800SOL    HW165362   3.618   3.015   6.203 -1.2886 -0.8727 -0.0286
19800SOL    HW265363   3.750   2.942   6.216 -1.0893 -0.3609  0.9125
19801SOL     OW65364   8.781   3.694   6.540 -0.0719 -0.7032 -0.4360
19801SOL    HW165365   8.759   3.665   6.628 -1.2250  0.7808 -0.1981
19801SOL    HW265366   8.840   3.769   6.553 -0.1024 -0.5875 -0.9247
19802SOL     OW65367   5.803   5.052   7.190 -0.4443 -0.1059  0.0094
19802SOL    HW165368   5.770   4.990   7.255  0.3770  0.1046  0.6394
19802SOL    HW265369   5.897   5.033   7.185 -0.3104  0.6263 -0.3017
19803SOL     OW65370   0.834   4.187   3.989  0.3109 -0.5213 -0.0084
19803SOL    HW165371   0.770   4.225   3.929  0.2888 -1.4613 -0.6028
19803SOL    HW265372   0.781   4.140   4.054  0.3733 -1.2205 -0.4466
19804SOL     OW65373   8.152   7.959   0.565 -0.5369 -0.3202  0.7501
19804SOL    HW165374   8.182   8.045   0.594  1.0213 -1.1527  1.7652
19804SOL    HW265375   8.230   7.903   0.573 -0.9148 -1.3666 -1.9422
19805SOL     OW65376   1.739   8.125   5.290  0.7251 -1.1695 -0.1334
19805SOL    HW165377   1.647   8.122   5.313  0.4679  0.3593 -0.8397
19805SOL    HW265378   1.784   8.150   5.371  0.4754 -1.4847  0.1010
19806SOL     OW65379   0.757   6.252   0.659 -0.3813 -0.4224  0.5066
19806SOL    HW165380   0.812   6.243   0.581  0.0681  0.1223  0.7520
19806SOL    HW265381   0.808   6.308   0.718 -2.1030  2.0338 -0.1539
19807SOL     OW65382   0.051   2.899   8.890  0.5927 -1.2061 -0.1405
19807SOL    HW165383   0.060   2.954   8.968  1.0664 -2.2936  0.6008
19807SOL    HW265384   0.132   2.848   8.888  0.5374 -1.2681 -1.2993
19808SOL     OW65385   2.946   7.622   5.373  0.1785  0.1212  0.2942
19808SOL    HW165386   2.934   7.713   5.343  0.4521  0.9297  2.4732
19808SOL    HW265387   2.858   7.585   5.373 -0.1483  0.8736  0.8188
19809SOL     OW65388   4.091   4.066   5.657  0.0421 -0.2650  0.2428
19809SOL    HW165389   4.028   4.102   5.595 -0.2475 -1.3287 -0.0897
19809SOL    HW265390   4.176   4.087   5.618 -0.1007 -3.2443 -1.9761
19810SOL     OW65391   6.158   3.577   1.941  0.3613  0.5355  0.3723
19810SOL    HW165392   6.151   3.482   1.941 -2.3597  0.6353  1.8910
19810SOL    HW265393   6.213   3.598   2.016  1.9500  0.1912 -0.6466
19811SOL     OW65394   4.075   5.546   4.443  0.1051 -0.0528  0.0576
19811SOL    HW165395   4.036   5.616   4.390  0.8012  0.0710 -0.3125
19811SOL    HW265396   4.130   5.498   4.381 -0.2641 -0.8437  0.3449
19812SOL     OW65397   6.980   3.888   8.731  0.1804  0.0832  0.4734
19812SOL    HW165398   6.948   3.917   8.646  0.6322  0.0143  0.2782
19812SOL    HW265399   7.060   3.839   8.712  0.1941 -0.0754  0.9222
19813SOL     OW65400   5.915   7.585   1.921 -0.0133 -0.0681  0.3813
19813SOL    HW165401   5.821   7.587   1.939 -0.2566 -0.4183 -0.7554
19813SOL    HW265402   5.956   7.585   2.007 -1.0131  1.4041  0.8956
19814SOL     OW65403   5.205   2.192   5.182  0.3487 -0.2088  0.2603
19814SOL    HW165404   5.158   2.169   5.102  1.2372  2.7417 -1.2723
19814SOL    HW265405   5.154   2.263   5.220  0.4663 -0.9302  1.8505
19815SOL     OW65406   2.212   0.268   3.096  0.6278 -0.0384  0.0369
19815SOL    HW165407   2.250   0.264   3.008  0.1266  1.0723 -0.2424
19815SOL    HW265408   2.250   0.347   3.134  1.1632 -0.7351  0.9854
19816SOL     OW65409   2.373   4.602   0.867  0.2008 -0.0617 -0.2466
19816SOL    HW165410   2.462   4.605   0.831 -0.3984  0.3055 -1.7648
19816SOL    HW265411   2.375   4.664   0.940  1.4564 -0.8367  0.4078
19817SOL     OW65412   4.875   4.811   3.254 -0.3834  0.1775 -0.1116
19817SOL    HW165413   4.813   4.751   3.295 -0.7216  1.0899  0.7741
19817SOL    HW265414   4.924   4.849   3.327  0.4531  0.2991 -0.7184
19818SOL     OW65415   5.266   3.323   3.529 -0.0166 -0.6300  0.1438
19818SOL    HW165416   5.281   3.229   3.524  1.0795 -0.5529  1.3795
19818SOL    HW265417   5.305   3.349   3.613  2.5369  1.3792 -1.4783
19819SOL     OW65418   1.757   4.766   6.423  0.1836  0.3791  0.3213
19819SOL    HW165419   1.774   4.678   6.391 -1.8452  0.1845 -0.3341
19819SOL    HW265420   1.839   4.813   6.409  1.2430 -1.3362  0.5244
19820SOL     OW65421   1.485   0.358   8.886  0.4148 -0.1784 -0.0468
19820SOL    HW165422   1.479   0.278   8.834 -1.0747 -0.2404  0.1740
19820SOL    HW265423   1.469   0.429   8.824 -0.2621 -0.1878  0.1058
19821SOL     OW65424   1.046   1.631   1.892 -0.4410 -0.7237 -0.6465
19821SOL    HW165425   1.133   1.665   1.871 -0.0872  0.3540  2.1229
19821SOL    HW265426   1.059   1.579   1.972 -2.7099  2.1439  1.8295
19822SOL     OW65427   5.343   6.036   5.086  0.6605  0.4338 -0.1826
19822SOL    HW165428   5.422   6.090   5.095  1.4541 -0.8137  0.7578
19822SOL    HW265429   5.367   5.953   5.127 -1.6610  0.5551  1.6576
19823SOL     OW65430   2.175   9.134   4.528  0.1022  0.0125 -0.0091
19823SOL    HW165431   2.126   9.177   4.597 -1.1285  0.0118 -0.8562
19823SOL    HW265432   2.149   9.043   4.531 -2.6276  0.5515 -2.5601
19824SOL     OW65433   5.485   4.331   6.611 -0.4184  0.1714 -0.5331
19824SOL    HW165434   5.451   4.290   6.532  1.9276 -2.2232 -0.4313
19824SOL    HW265435   5.528   4.410   6.580  1.9146 -1.5498 -2.0281
19825SOL     OW65436   0.414   2.410   2.066  0.2883 -0.3515 -0.1364
19825SOL    HW165437   0.402   2.416   1.972 -1.9190  2.8232  0.1856
19825SOL    HW265438   0.327   2.386   2.100  0.2399  1.4653  1.1823
19826SOL     OW65439   8.360   5.426   8.856  0.5022  0.0029  0.3177
19826SOL    HW165440   8.421   5.353   8.843 -0.0399 -0.6771  1.4577
19826SOL    HW265441   8.280   5.399   8.811  1.0470  0.9546 -1.2932
19827SOL     OW65442   8.558   5.187   1.320  0.1866 -0.0178 -0.2412
19827SOL    HW165443   8.506   5.163   1.396  0.2376 -3.5021 -1.1585
19827SOL    HW265444   8.646   5.202   1.354 -0.1898  0.3002  0.6018
19828SOL     OW65445   8.861   0.714   6.303  0.2307 -0.0642  0.0758
19828SOL    HW165446   8.849   0.728   6.397 -1.3009 -3.2743  0.4910
19828SOL    HW265447   8.806   0.781   6.261 -0.4494  0.3132  1.5221
19829SOL     OW65448   0.827   9.069   6.239  0.5063  0.0204 -0.6407
19829SOL    HW165449   0.786   9.002   6.185 -1.2273 -0.8844  1.6110
19829SOL    HW265450   0.760   9.138   6.245  0.5784  0.0051  0.4764
19830SOL     OW65451   5.755   2.803   9.170  0.0410  0.3943 -0.5353
19830SOL    HW165452   5.828   2.781   9.228  0.3411 -1.3900 -1.5162
19830SOL    HW265453   5.707   2.721   9.160 -1.2938  1.2129 -1.0346
19831SOL     OW65454   0.775   9.111   8.946 -0.1270  0.6587  0.4244
19831SOL    HW165455   0.799   9.190   8.995  0.4866 -0.5984  2.2891
19831SOL    HW265456   0.854   9.057   8.949  0.3865  0.9832 -3.1288
19832SOL     OW65457   1.514   2.926   8.616 -0.9439 -0.2812  0.2460
19832SOL    HW165458   1.428   2.965   8.629 -1.0264  0.2074 -1.5826
19832SOL    HW265459   1.504   2.836   8.647 -2.4697 -0.5951 -1.0456
19833SOL     OW65460   3.370   3.996   8.271  0.8203  0.2262  0.2039
19833SOL    HW165461   3.411   4.074   8.307  1.3209 -0.1840  0.5382
19833SOL    HW265462   3.426   3.973   8.196  1.0849 -0.2100  0.5310
19834SOL     OW65463   4.835   0.583   0.909 -0.7474 -0.0722 -0.0821
19834SOL    HW165464   4.816   0.640   0.834  1.1879  0.4694 -0.2206
19834SOL    HW265465   4.888   0.513   0.872 -0.0893 -0.0068  0.7095
19835SOL     OW65466   3.552   0.915   2.132  0.6439  0.0381 -0.6483
19835SOL    HW165467   3.541   0.892   2.040  1.1499  0.7811 -0.8972
19835SOL    HW265468   3.633   0.872   2.159  1.7171  1.6257 -1.1764
19836SOL     OW65469   3.058   5.311   8.018  0.0412  0.1770  0.8818
19836SOL    HW165470   3.084   5.402   8.005 -1.2980  0.2981 -1.4596
19836SOL    HW265471   3.114   5.261   7.957 -2.0176 -0.0335 -0.9469
19837SOL     OW65472   5.253   3.540   2.480 -0.0579 -0.2850  0.8776
19837SOL    HW165473   5.294   3.454   2.472 -0.0368 -0.1022 -2.2403
19837SOL    HW265474   5.276   3.585   2.399 -2.1377  1.7343  1.3095
19838SOL     OW65475   1.962   6.177   9.165  0.2648  0.0743 -0.5072
19838SOL    HW165476   1.945   6.087   9.135  2.0544 -0.2170 -0.7712
19838SOL    HW265477   1.986   6.224   9.085  1.7076  0.1560 -0.0528
19839SOL     OW65478   9.056   1.381   0.560  0.2865  0.1429  0.1639
19839SOL    HW165479   9.060   1.474   0.584  1.2411 -0.1127  1.0821
19839SOL    HW265480   8.994   1.344   0.623 -0.9012  0.3307 -0.8667
19840SOL     OW65481   8.353   6.089   0.154 -0.1880  0.4159 -0.1093
19840SOL    HW165482   8.385   6.117   0.239  2.1689  0.8459 -1.0497
19840SOL    HW265483   8.350   6.170   0.102 -1.0134  0.0693 -0.6230
19841SOL     OW65484   4.607   7.596   8.333  0.5752  0.2171 -0.0997
19841SOL    HW165485   4.550   7.673   8.324  0.6880  0.2832 -0.2500
19841SOL    HW265486   4.546   7.522   8.333  0.4002  0.3445  0.8515
19842SOL     OW65487   8.740   5.471   6.469  0.2577  0.6192 -0.4084
19842SOL    HW165488   8.750   5.380   6.440 -0.8029  0.6182 -0.8005
19842SOL    HW265489   8.735   5.466   6.564  1.7458  0.4320 -0.3067
19843SOL     OW65490   5.356   5.741   8.135  0.3276  0.0604 -0.3038
19843SOL    HW165491   5.430   5.686   8.161  0.0925 -0.5549 -0.9181
19843SOL    HW265492   5.387   5.830   8.151  1.0534 -0.2033 -0.1742
19844SOL     OW65493   3.388   4.558   3.778  0.3627  0.2318 -0.5943
19844SOL    HW165494   3.378   4.518   3.691 -2.1206 -0.9242  0.1395
19844SOL    HW265495   3.299   4.569   3.809  1.0661  3.3847  0.6574
19845SOL     OW65496   9.212   9.198   3.151 -0.4087  0.3087 -0.4548
19845SOL    HW165497   9.205   9.104   3.167  0.5498  0.3428  0.2872
19845SOL    HW265498   9.272   9.205   3.077 -1.5548  0.3048 -1.4138
19846SOL     OW65499   7.214   2.614   1.270 -0.0680  0.0679 -0.2996
19846SOL    HW165500   7.263   2.692   1.295 -0.3836  0.0352  0.4443
19846SOL    HW265501   7.123   2.644   1.264  0.0166  0.1356 -1.6872
19847SOL     OW65502   0.851   5.232   0.563  0.4981 -0.2785 -0.2293
19847SOL    HW165503   0.762   5.229   0.530  0.9536  0.4511 -1.6094
19847SOL    HW265504   0.903   5.183   0.499  1.6361  2.4015 -1.5357
19848SOL     OW65505   1.379   0.315   0.230 -0.5653 -0.0764 -0.4392
19848SOL    HW165506   1.300   0.264   0.247 -0.1430 -0.4049  0.6525
19848SOL    HW265507   1.425   0.267   0.162 -0.8654 -0.3693 -0.4371
19849SOL     OW65508   6.584   1.073   5.390 -0.0998  0.5657  0.3434
19849SOL    HW165509   6.628   1.083   5.306  0.1241 -0.6013  0.3013
19849SOL    HW265510   6.540   1.156   5.404 -0.1185  0.7921 -0.9149
19850SOL     OW65511   7.314   6.304   4.539  0.8556 -1.0328  0.1640
19850SOL    HW165512   7.378   6.233   4.536  2.5018  0.3566  0.9418
19850SOL    HW265513   7.364   6.381   4.565 -0.8983  0.4173 -0.5465
19851SOL     OW65514   0.615   2.300   1.120  0.2408  0.3632 -0.2364
19851SOL    HW165515   0.682   2.232   1.110 -0.3570 -0.1767 -0.6317
19851SOL    HW265516   0.665   2.380   1.134  1.0111  0.1389 -1.4996
19852SOL     OW65517   5.637   8.041   3.525  0.2964 -0.3371  0.2640
19852SOL    HW165518   5.705   8.004   3.469  1.0894 -0.1445  1.0916
19852SOL    HW265519   5.568   8.068   3.464  0.3745 -1.7313 -0.4899
19853SOL     OW65520   1.120   2.369   8.689  0.2768 -0.0381 -0.4826
19853SOL    HW165521   1.059   2.304   8.656 -2.0491  1.3833  0.7523
19853SOL    HW265522   1.067   2.447   8.704  2.4022  1.3103  0.6708
19854SOL     OW65523   5.691   7.259   2.543 -0.4084  0.3111 -0.3632
19854SOL    HW165524   5.722   7.177   2.507  1.5077  0.9858 -0.3373
19854SOL    HW265525   5.637   7.233   2.618  0.6838 -0.9133  0.0276
19855SOL     OW65526   3.600   8.809   1.385  0.1989 -0.2654  0.4235
19855SOL    HW165527   3.588   8.791   1.479  0.0121 -0.4514  0.3657
19855SOL    HW265528   3.647   8.892   1.382 -1.8332  0.9520  0.6462
19856SOL     OW65529   1.210   0.605   6.694  0.4718 -0.0509 -0.0320
19856SOL    HW165530   1.223   0.646   6.779  2.9022 -0.6416 -0.0619
19856SOL    HW265531   1.185   0.514   6.714  0.4185 -0.0224  0.0319
19857SOL     OW65532   6.350   0.534   5.659  0.1526 -0.3243  0.4138
19857SOL    HW165533   6.277   0.517   5.600  0.4834  2.9084 -1.1333
19857SOL    HW265534   6.428   0.516   5.607  0.4420  1.7454  0.0666
19858SOL     OW65535   2.989   5.794   0.238 -0.0817  0.5760  0.0258
19858SOL    HW165536   3.016   5.726   0.177 -0.3532  1.8543 -1.6099
19858SOL    HW265537   2.906   5.763   0.274 -1.7102  1.2126 -2.8645
19859SOL     OW65538   3.611   0.535   9.362  0.0956 -0.4212 -0.4010
19859SOL    HW165539   3.526   0.503   9.394 -1.4299  2.0821 -1.6517
19859SOL    HW265540   3.601   0.541   9.267  1.5104  0.3622 -0.5327
19860SOL     OW65541   6.006   2.546   8.662  0.2330  0.2995 -0.0456
19860SOL    HW165542   5.984   2.630   8.703  0.2066  0.3412 -0.1468
19860SOL    HW265543   6.049   2.569   8.580  0.0808  0.2142 -0.1495
19861SOL     OW65544   3.099   4.274   3.990 -0.1033 -0.3955  0.4641
19861SOL    HW165545   3.005   4.259   4.003 -0.1234  0.1044  0.9336
19861SOL    HW265546   3.104   4.363   3.956  0.2805  0.1220  1.7952
19862SOL     OW65547   4.514   7.908   1.046 -0.0344  0.5095 -0.0022
19862SOL    HW165548   4.609   7.902   1.037  0.3251  1.4516  2.5623
19862SOL    HW265549   4.487   7.820   1.071  0.1801  0.3299 -0.3783
19863SOL     OW65550   3.874   1.034   5.717 -0.0330 -0.5686 -0.6530
19863SOL    HW165551   3.854   1.014   5.809 -1.2035  2.3018 -0.1894
19863SOL    HW265552   3.969   1.037   5.714  0.0144  0.4763  0.7925
19864SOL     OW65553   6.963   2.760   6.802 -0.5887  0.5452  0.2155
19864SOL    HW165554   6.879   2.746   6.845 -1.2124  1.0630 -0.7774
19864SOL    HW265555   6.940   2.797   6.717  0.5740 -0.6548 -0.6705
19865SOL     OW65556   5.262   6.728   6.949  0.2807 -0.2248 -0.1471
19865SOL    HW165557   5.297   6.668   6.883 -1.4218  0.1429 -1.4667
19865SOL    HW265558   5.264   6.814   6.907 -0.8166  0.0216  0.2551
19866SOL     OW65559   2.609   2.774   1.625  0.5195  0.0957 -0.8998
19866SOL    HW165560   2.630   2.823   1.545 -0.5259  1.2196 -0.5262
19866SOL    HW265561   2.545   2.829   1.670  2.1369  0.2030  1.4332
19867SOL     OW65562   1.568   1.485   8.099 -0.0503  0.3203 -0.3532
19867SOL    HW165563   1.618   1.518   8.174  0.1649 -2.8437  1.0566
19867SOL    HW265564   1.480   1.472   8.133 -0.6259  1.2166 -1.4345
19868SOL     OW65565   5.916   3.059   6.258  0.2749 -0.6194  0.2516
19868SOL    HW165566   5.901   3.053   6.352  1.3490  0.0386  0.4758
19868SOL    HW265567   5.995   3.112   6.249 -2.1163  3.1146 -1.1495
19869SOL     OW65568   3.234   4.371   6.250 -0.3586  0.4809 -0.3181
19869SOL    HW165569   3.309   4.330   6.292 -0.2364  0.6374 -0.3805
19869SOL    HW265570   3.181   4.299   6.218 -1.3488  0.2753  1.6323
19870SOL     OW65571   3.854   1.534   2.212 -0.0982 -0.0449  0.2564
19870SOL    HW165572   3.765   1.564   2.226  0.5558  1.6037  1.1996
19870SOL    HW265573   3.862   1.524   2.117 -0.4379  2.7964 -0.1692
19871SOL     OW65574   3.790   1.578   1.040  0.0654  0.3612 -0.8595
19871SOL    HW165575   3.816   1.491   1.071  0.6851  0.6305 -0.6117
19871SOL    HW265576   3.868   1.611   0.996 -0.0548  0.9398 -0.6375
19872SOL     OW65577   0.419   4.699   8.986 -0.2544  0.0169  0.2548
19872SOL    HW165578   0.456   4.654   8.909 -0.2497 -0.5516  0.5819
19872SOL    HW265579   0.369   4.771   8.949  1.0952  0.7543 -0.2072
19873SOL     OW65580   5.924   6.555   3.939  0.2612  0.6030  0.1879
19873SOL    HW165581   5.935   6.650   3.938  1.3882  0.4833 -0.2346
19873SOL    HW265582   5.917   6.531   3.847 -2.5286  0.5070  0.3437
19874SOL     OW65583   8.317   2.238   8.706  0.2389  0.4874 -0.6781
19874SOL    HW165584   8.406   2.227   8.739  0.3336  0.4928 -0.9273
19874SOL    HW265585   8.289   2.150   8.682  0.9694  0.7181 -2.6046
19875SOL     OW65586   7.518   6.195   8.558  0.6482 -0.6072  0.3346
19875SOL    HW165587   7.490   6.260   8.622  0.4455 -0.1017 -0.2543
19875SOL    HW265588   7.598   6.231   8.520  1.3626 -1.4150  1.0615
19876SOL     OW65589   0.040   3.363   6.085  0.4823 -0.6353  0.0309
19876SOL    HW165590   0.019   3.355   5.992 -1.1144  1.3500  0.1514
19876SOL    HW265591   0.131   3.336   6.091  1.5810  1.9850 -2.6329
19877SOL     OW65592   2.011   8.948   2.969  0.8018 -0.2283 -0.1022
19877SOL    HW165593   2.076   8.971   3.035 -0.3841  0.6423  0.8155
19877SOL    HW265594   1.927   8.968   3.011 -0.0050 -0.1855 -1.6819
19878SOL     OW65595   3.810   9.156   2.130 -0.7442 -0.4091  0.7563
19878SOL    HW165596   3.861   9.199   2.061 -1.0658  1.8545  1.8128
19878SOL    HW265597   3.875   9.115   2.186 -0.3873 -1.0067 -0.0720
19879SOL     OW65598   7.189   3.591   8.827  0.1769 -0.5036 -0.0706
19879SOL    HW165599   7.214   3.652   8.896  1.4534  0.7043 -1.5354
19879SOL    HW265600   7.124   3.534   8.868  0.8236  0.2144  2.0862
19880SOL     OW65601   8.477   7.649   0.834  0.1077  0.1262 -0.2702
19880SOL    HW165602   8.433   7.567   0.857 -0.0997  0.1636 -0.5298
19880SOL    HW265603   8.546   7.623   0.773 -1.2236  0.3701 -1.9311
19881SOL     OW65604   9.344   7.651   4.559  0.1954 -0.1210 -0.2470
19881SOL    HW165605   9.360   7.626   4.468  2.3513 -0.5433  0.1900
19881SOL    HW265606   9.362   7.572   4.609  1.1569  0.6589  0.6928
19882SOL     OW65607   1.320   1.688   7.734  0.4166 -0.2684  0.0004
19882SOL    HW165608   1.301   1.761   7.793  0.6037  0.7478 -1.1692
19882SOL    HW265609   1.408   1.660   7.760  1.5168  1.7344 -1.2991
19883SOL     OW65610   2.154   2.361   1.691  0.5393  0.0079  0.0372
19883SOL    HW165611   2.105   2.282   1.715 -0.5509  0.0163 -1.9707
19883SOL    HW265612   2.190   2.341   1.604 -0.2656  1.9233 -0.7779
19884SOL     OW65613   3.858   3.585   6.508  0.1747  0.4851  0.5377
19884SOL    HW165614   3.805   3.662   6.487 -0.4916  0.2838  1.4173
19884SOL    HW265615   3.901   3.608   6.591  0.3435  0.0916  0.5584
19885SOL     OW65616   9.030   1.153   5.614 -0.0677  0.1608  0.0052
19885SOL    HW165617   9.080   1.234   5.627 -0.9283  0.6223  0.5990
19885SOL    HW265618   9.010   1.123   5.702 -0.8507  0.0132 -0.2098
19886SOL     OW65619   3.325   6.034   6.703  0.1148 -0.0315  0.3648
19886SOL    HW165620   3.352   5.946   6.726  1.4896  0.9331  2.8116
19886SOL    HW265621   3.310   6.078   6.787 -0.3012  2.1158 -0.7468
19887SOL     OW65622   1.307   5.207   4.793 -0.1913  0.3678  0.0557
19887SOL    HW165623   1.383   5.156   4.767 -0.5632 -0.9437  1.3969
19887SOL    HW265624   1.251   5.209   4.716  0.6889  0.3991 -0.5946
19888SOL     OW65625   7.417   1.430   1.113  0.3136 -0.6155 -0.0771
19888SOL    HW165626   7.420   1.400   1.204 -0.8578  0.7729  0.4524
19888SOL    HW265627   7.389   1.521   1.119  1.6067 -0.0589 -1.7564
19889SOL     OW65628   3.110   3.815   1.784  0.0614 -0.6435  0.2041
19889SOL    HW165629   3.199   3.840   1.758  0.1320 -1.3795 -0.2918
19889SOL    HW265630   3.067   3.791   1.702 -0.1614 -1.6215  0.5882
19890SOL     OW65631   7.834   8.123   2.907  0.5773 -0.7719  0.0044
19890SOL    HW165632   7.743   8.104   2.928  1.1018 -2.9989  0.5359
19890SOL    HW265633   7.830   8.201   2.852 -1.6825 -1.1323 -0.4417
19891SOL     OW65634   5.090   0.770   5.113  0.1627  0.2672 -0.1201
19891SOL    HW165635   5.102   0.819   5.031  1.1493  0.4867  0.1500
19891SOL    HW265636   5.040   0.829   5.169 -1.5362 -0.3124 -0.9330
19892SOL     OW65637   1.803   1.917   5.682  0.0215  0.2364  0.0940
19892SOL    HW165638   1.741   1.989   5.699  0.7190  0.7423  0.5460
19892SOL    HW265639   1.888   1.953   5.705  0.4756 -0.5043 -0.3847
19893SOL     OW65640   1.685   6.895   4.773  0.5910 -0.2494 -0.2254
19893SOL    HW165641   1.654   6.819   4.725  2.0958 -0.8854 -0.2445
19893SOL    HW265642   1.605   6.940   4.802 -0.3437 -2.3875  0.6878
19894SOL     OW65643   3.204   0.127   5.685  0.5535 -0.1365 -0.5489
19894SOL    HW165644   3.181   0.152   5.775 -0.3769 -1.6081 -0.3489
19894SOL    HW265645   3.250   0.203   5.650  0.7520  0.5380  1.1080
19895SOL     OW65646   9.250   7.280   6.940 -0.2488  0.0091 -0.2417
19895SOL    HW165647   9.223   7.227   7.015  0.0199  0.5237  0.2279
19895SOL    HW265648   9.299   7.219   6.884  0.2630 -0.1923  0.4047
19896SOL     OW65649   6.078   0.183   1.424 -0.1429  0.4339  0.1445
19896SOL    HW165650   6.152   0.208   1.369  0.4285 -0.4581  0.4789
19896SOL    HW265651   6.022   0.130   1.367  0.2640 -0.1837  0.3123
19897SOL     OW65652   0.271   0.932   1.862 -0.1004  0.3054 -0.1085
19897SOL    HW165653   0.354   0.922   1.909 -0.8987 -0.4683  1.1848
19897SOL    HW265654   0.236   0.843   1.856 -1.1600  0.7028 -0.0145
19898SOL     OW65655   0.287   5.440   0.187  0.2005 -0.0735 -0.4250
19898SOL    HW165656   0.233   5.500   0.239 -0.0260  0.4945 -1.2741
19898SOL    HW265657   0.224   5.380   0.148  0.5001 -1.3901  1.0411
19899SOL     OW65658   2.399   6.292   0.938  0.6626  0.6264 -0.3058
19899SOL    HW165659   2.459   6.296   0.864 -2.6317  3.0544 -3.1865
19899SOL    HW265660   2.375   6.384   0.955 -0.1409 -0.0028  2.6308
19900SOL     OW65661   8.310   7.607   6.136 -0.4256 -0.8491 -0.2035
19900SOL    HW165662   8.265   7.535   6.091 -0.9602 -1.6040  1.4446
19900SOL    HW265663   8.318   7.576   6.227  0.3058  0.7396  0.2944
19901SOL     OW65664   7.864   8.561   7.244  0.0384 -0.0800 -0.2350
19901SOL    HW165665   7.781   8.608   7.239 -0.2877  0.0202  3.3526
19901SOL    HW265666   7.840   8.468   7.241  0.2414 -0.1057 -2.8284
19902SOL     OW65667   2.481   1.670   1.330 -0.2850  0.2362 -0.3656
19902SOL    HW165668   2.430   1.591   1.345 -1.7469  1.1039 -0.5873
19902SOL    HW265669   2.526   1.654   1.247  1.2432 -1.2378  0.6983
19903SOL     OW65670   1.739   3.167   3.639  0.2472  0.2963 -0.0934
19903SOL    HW165671   1.653   3.182   3.679  0.4177 -0.1819  0.4706
19903SOL    HW265672   1.750   3.240   3.578 -1.8077 -1.1520 -2.3799
19904SOL     OW65673   5.312   0.054   4.893  0.2363  0.8864  0.3576
19904SOL    HW165674   5.269   0.137   4.875  1.3453  1.4884  0.3790
19904SOL    HW265675   5.354   0.066   4.978 -0.3434 -0.0206  0.7861
19905SOL     OW65676   4.872   5.518   3.811  0.5283  0.1804 -0.2504
19905SOL    HW165677   4.777   5.511   3.811  0.5413 -0.0306 -0.1619
19905SOL    HW265678   4.890   5.611   3.807  0.3085  0.2835  0.7533
19906SOL     OW65679   5.574   1.552   8.340  0.4096 -0.3001  0.2805
19906SOL    HW165680   5.487   1.591   8.336  0.3160 -0.6091 -1.4059
19906SOL    HW265681   5.569   1.489   8.412 -0.1784  1.0032  1.4147
19907SOL     OW65682   5.674   1.974   2.228  0.1249  0.5831  0.5873
19907SOL    HW165683   5.713   2.062   2.230 -0.2897  0.8544 -1.3694
19907SOL    HW265684   5.654   1.959   2.135 -0.8878 -1.1092  1.0457
19908SOL     OW65685   5.605   3.845   4.723  0.0894  0.5289 -0.6125
19908SOL    HW165686   5.696   3.816   4.732  0.1055  0.3454 -1.3564
19908SOL    HW265687   5.568   3.788   4.656  0.3098  2.6210 -2.6311
19909SOL     OW65688   0.281   8.225   3.439 -0.3498  0.2348  0.2255
19909SOL    HW165689   0.267   8.305   3.387 -0.6814 -0.5204 -0.9005
19909SOL    HW265690   0.376   8.220   3.450 -0.2594  0.3488 -0.4330
19910SOL     OW65691   1.848   5.922   9.101  0.1560 -0.2524  0.4077
19910SOL    HW165692   1.829   5.829   9.093  1.4181 -0.4825 -0.0885
19910SOL    HW265693   1.785   5.954   9.165 -0.6805 -1.3220  0.1432
19911SOL     OW65694   0.956   8.842   1.181 -0.0470  0.1119 -0.0129
19911SOL    HW165695   1.028   8.885   1.134  1.2717 -0.7062  1.1811
19911SOL    HW265696   0.953   8.887   1.266  1.2681 -1.9874  1.2112
19912SOL     OW65697   2.335   3.841   2.960  0.2556 -0.3551 -0.0488
19912SOL    HW165698   2.297   3.823   3.046  1.0138 -0.3567  0.2975
19912SOL    HW265699   2.327   3.935   2.950  0.3949 -0.3221  0.1382
19913SOL     OW65700   8.308   0.409   6.773  0.0380  0.5230  0.1445
19913SOL    HW165701   8.403   0.408   6.784  0.0813 -1.0409 -0.0901
19913SOL    HW265702   8.285   0.317   6.762 -1.2865  1.0238 -1.7035
19914SOL     OW65703   8.091   1.088   3.663 -0.5065 -0.2300 -0.3269
19914SOL    HW165704   8.038   1.014   3.632  1.3635 -1.3345 -1.0234
19914SOL    HW265705   8.172   1.049   3.694 -0.0313  1.4229  0.6513
19915SOL     OW65706   8.312   5.957   1.312 -0.1048 -0.4303  0.8590
19915SOL    HW165707   8.240   6.016   1.292 -0.2399 -0.2989  1.7002
19915SOL    HW265708   8.357   5.998   1.386  0.1685 -1.0630  1.0494
19916SOL     OW65709   3.735   7.914   6.879 -0.5261  0.2193  0.0891
19916SOL    HW165710   3.806   7.855   6.903 -0.4658 -0.1098 -0.8521
19916SOL    HW265711   3.665   7.896   6.942  0.8037  1.7590  2.1342
19917SOL     OW65712   7.588   4.531   1.340 -0.0057  0.0228  0.3015
19917SOL    HW165713   7.546   4.592   1.280  0.6845  1.0997  0.8693
19917SOL    HW265714   7.680   4.530   1.314  0.2266  0.2035  1.0839
19918SOL     OW65715   8.765   6.605   1.092 -0.2797  0.6253 -0.3200
19918SOL    HW165716   8.830   6.647   1.036 -0.3220  0.0433 -0.8105
19918SOL    HW265717   8.738   6.527   1.044 -1.3447  0.8581 -0.1250
19919SOL     OW65718   9.245   8.128   1.155 -0.0846  0.3632 -0.6274
19919SOL    HW165719   9.171   8.141   1.214  0.8216 -1.1350  0.9281
19919SOL    HW265720   9.289   8.049   1.188  1.1936  0.1874 -2.5656
19920SOL     OW65721   7.559   7.304   0.102  0.7055  0.6327 -0.7368
19920SOL    HW165722   7.524   7.391   0.085 -1.9668 -0.7918 -3.2976
19920SOL    HW265723   7.569   7.264   0.016 -0.3637 -2.3778  0.3893
19921SOL     OW65724   7.283   3.765   4.219  0.0553 -0.1514 -0.1030
19921SOL    HW165725   7.325   3.688   4.181 -1.5169 -1.3285  0.4044
19921SOL    HW265726   7.223   3.729   4.285 -1.8467  1.3862 -0.9037
19922SOL     OW65727   6.695   0.605   2.581  0.4248 -0.7158 -0.4720
19922SOL    HW165728   6.756   0.559   2.524  1.4793 -2.1120  1.6367
19922SOL    HW265729   6.647   0.535   2.626 -1.1093  0.3346 -0.3938
19923SOL     OW65730   1.673   4.942   2.220  0.6143 -0.6390 -0.0187
19923SOL    HW165731   1.596   4.993   2.246  1.2025 -0.4583  1.4683
19923SOL    HW265732   1.740   5.007   2.201  0.5598 -0.8114 -0.8475
19924SOL     OW65733   8.292   7.497   2.616  0.0886  0.5304 -0.1932
19924SOL    HW165734   8.226   7.458   2.559  1.5850 -0.8850 -1.0334
19924SOL    HW265735   8.254   7.492   2.704 -0.4500 -1.3602 -0.4910
19925SOL     OW65736   3.428   9.293   1.050  0.2831 -0.2069  0.1051
19925SOL    HW165737   3.490   9.363   1.030 -0.2955  0.5632  0.9298
19925SOL    HW265738   3.419   9.295   1.145 -1.1394 -0.1496  0.0044
19926SOL     OW65739   4.374   0.262   6.053  0.6763  0.0299  0.1282
19926SOL    HW165740   4.289   0.224   6.073  0.4132  0.8054  0.5049
19926SOL    HW265741   4.418   0.271   6.138  0.8185  0.3606  0.0246
19927SOL     OW65742   2.988   7.898   7.823  0.3467  0.0330  0.0392
19927SOL    HW165743   3.037   7.829   7.868  1.0131  0.2040 -0.3940
19927SOL    HW265744   3.028   7.979   7.853  0.6797  0.1567 -0.6946
19928SOL     OW65745   0.921   7.860   2.865 -0.5952  0.6715  0.2681
19928SOL    HW165746   0.903   7.951   2.840  0.6315  0.6934 -0.6085
19928SOL    HW265747   0.851   7.810   2.822 -0.7171  1.1032 -0.0528
19929SOL     OW65748   0.904   2.428   5.976  0.4247 -0.0377 -0.9225
19929SOL    HW165749   0.895   2.409   6.069  0.2101  1.8578 -0.5167
19929SOL    HW265750   0.823   2.394   5.937 -0.7872  1.6097  0.0479
19930SOL     OW65751   1.185   7.383   6.720 -0.1478 -0.0902  0.3358
19930SOL    HW165752   1.102   7.392   6.766 -0.1298 -0.0327  0.3573
19930SOL    HW265753   1.165   7.329   6.643 -1.1757  3.3021 -2.0387
19931SOL     OW65754   7.291   5.475   3.445 -0.4172  0.1535  1.0301
19931SOL    HW165755   7.226   5.455   3.512 -1.7914 -0.5332 -0.4339
19931SOL    HW265756   7.256   5.551   3.399 -0.3663 -0.3965  0.0357
19932SOL     OW65757   8.859   4.942   0.001  0.2137  0.4065 -0.4015
19932SOL    HW165758   8.896   4.889  -0.069 -0.4277 -0.4161 -0.1191
19932SOL    HW265759   8.931   5.000   0.027  1.6039 -1.6869  0.6627
19933SOL     OW65760   3.842   2.307   8.148  0.3567 -0.4615 -0.4863
19933SOL    HW165761   3.805   2.385   8.107  1.5012 -0.2028 -1.0642
19933SOL    HW265762   3.771   2.273   8.203  0.0707  1.3783  0.3569
19934SOL     OW65763   3.611   7.534   2.061 -0.5014 -0.0948 -0.2309
19934SOL    HW165764   3.608   7.500   1.972 -0.7513 -1.9761  0.4352
19934SOL    HW265765   3.666   7.471   2.108 -0.5781  0.7164  0.9873
19935SOL     OW65766   6.513   0.708   6.265  0.4147 -0.2052  0.2297
19935SOL    HW165767   6.605   0.733   6.257  0.2373  0.1573 -0.8057
19935SOL    HW265768   6.471   0.781   6.311  1.1633 -1.6636  3.5635
19936SOL     OW65769   3.475   1.175   6.629  0.3631 -0.7347  0.9167
19936SOL    HW165770   3.500   1.101   6.574  1.7738  2.0458 -2.6056
19936SOL    HW265771   3.393   1.206   6.590  1.5256  1.4496  0.0038
19937SOL     OW65772   7.719   5.205   3.316  0.1033  0.2696 -0.3919
19937SOL    HW165773   7.744   5.258   3.391 -2.0416  1.9198 -0.7736
19937SOL    HW265774   7.626   5.186   3.329 -0.1131 -0.0979 -2.2035
19938SOL     OW65775   3.840   7.116   3.139  0.5624  0.1264  0.0800
19938SOL    HW165776   3.907   7.124   3.206  1.5923 -0.5012 -0.8445
19938SOL    HW265777   3.888   7.095   3.059 -0.7585 -0.6198 -0.5552
19939SOL     OW65778   9.370   6.632   3.231  0.9238  0.7208 -0.1389
19939SOL    HW165779   9.447   6.659   3.182  1.0665  0.9986  0.2327
19939SOL    HW265780   9.332   6.561   3.179  2.4671 -0.7119  0.5814
19940SOL     OW65781   6.619   3.232   7.102 -0.5615 -0.2654 -0.0103
19940SOL    HW165782   6.600   3.326   7.107 -0.0710 -0.2129  1.6052
19940SOL    HW265783   6.708   3.227   7.067 -0.9370 -0.1868 -0.9998
19941SOL     OW65784   0.875   9.364   4.496  0.6914 -0.4482 -0.2956
19941SOL    HW165785   0.818   9.416   4.552  0.8510 -0.9912  0.3900
19941SOL    HW265786   0.919   9.304   4.556  0.7700 -1.1296 -1.0193
19942SOL     OW65787   5.932   1.350   8.145 -0.1376  0.1565 -0.0155
19942SOL    HW165788   5.991   1.321   8.215 -0.5857 -0.0714  0.2783
19942SOL    HW265789   5.969   1.311   8.066 -1.1714 -1.9935  0.4679
19943SOL     OW65790   1.717   2.353   0.043 -0.4244  0.1284  0.0073
19943SOL    HW165791   1.645   2.407   0.013 -1.9654 -2.3806 -1.1198
19943SOL    HW265792   1.786   2.366  -0.023  0.1265  2.2830  0.9168
19944SOL     OW65793   4.447   5.746   1.310 -0.1398  0.2122 -0.1190
19944SOL    HW165794   4.488   5.831   1.291  0.3381 -0.4630 -2.5091
19944SOL    HW265795   4.498   5.711   1.383  0.5838  1.3574 -0.0412
19945SOL     OW65796   8.976   7.141   5.591 -0.5334  0.3294  0.4329
19945SOL    HW165797   9.021   7.145   5.506 -0.7879  2.1634  0.3462
19945SOL    HW265798   9.047   7.141   5.655 -0.3628 -0.0257  0.2508
19946SOL     OW65799   6.214   6.134   8.849 -0.2272 -0.0114  0.3335
19946SOL    HW165800   6.205   6.126   8.944  1.4042  0.8031  0.5859
19946SOL    HW265801   6.276   6.066   8.824  0.5416  0.7613  0.0843
19947SOL     OW65802   6.033   8.373   7.586  0.1940  0.4964  0.2503
19947SOL    HW165803   5.983   8.452   7.604  0.3758  0.5506  0.5225
19947SOL    HW265804   6.124   8.401   7.586  0.2574  0.2940  0.3169
19948SOL     OW65805   6.273   1.223   5.317 -0.6410  0.0491 -0.4669
19948SOL    HW165806   6.208   1.293   5.309  1.0745  1.4942 -2.7414
19948SOL    HW265807   6.247   1.159   5.252 -0.2548  0.2484 -0.8201
19949SOL     OW65808   7.283   1.435   4.678  0.0446 -0.5654 -0.7778
19949SOL    HW165809   7.187   1.444   4.679  0.2325  3.7673 -1.4692
19949SOL    HW265810   7.309   1.448   4.769  0.0289  0.6006 -0.9258
19950SOL     OW65811   2.459   1.777   5.190 -0.8767 -0.1667  0.1279
19950SOL    HW165812   2.505   1.791   5.273  1.2838 -0.0234 -1.0044
19950SOL    HW265813   2.460   1.863   5.148  0.4872 -0.7531 -1.1471
19951SOL     OW65814   8.556   7.429   6.953  0.3577  0.2797  0.4955
19951SOL    HW165815   8.507   7.504   6.987  1.1594  0.7579  0.5965
19951SOL    HW265816   8.530   7.424   6.861 -0.4378  0.0756  0.7170
19952SOL     OW65817   2.604   0.770   4.483  0.5025 -0.1355 -0.0038
19952SOL    HW165818   2.584   0.854   4.525  0.8086  0.6511 -1.3660
19952SOL    HW265819   2.698   0.760   4.494  0.6780  0.3559 -0.9626
19953SOL     OW65820   8.228   3.427   7.390 -0.1105 -0.0664  0.0644
19953SOL    HW165821   8.242   3.360   7.323  1.5311  2.0006 -1.8344
19953SOL    HW265822   8.151   3.475   7.360 -0.1595  0.0518  0.3793
19954SOL     OW65823   7.538   0.095   0.641  0.2249  0.9309 -0.4364
19954SOL    HW165824   7.513   0.173   0.591  0.2763  1.2305  0.0044
19954SOL    HW265825   7.495   0.023   0.594  0.9305  1.1093 -1.3850
19955SOL     OW65826   6.809   6.263   6.575 -0.4722 -0.0526 -0.1166
19955SOL    HW165827   6.902   6.267   6.598  0.0889 -1.1699 -2.0258
19955SOL    HW265828   6.789   6.350   6.542 -0.1151  0.1940  0.3007
19956SOL     OW65829   1.165   6.054   3.475  0.6430 -0.1726 -0.6138
19956SOL    HW165830   1.194   5.986   3.536 -2.3327 -3.7061 -2.7122
19956SOL    HW265831   1.233   6.055   3.407  1.3180 -0.1511  0.0525
19957SOL     OW65832   2.076   8.761   9.174 -0.6114 -0.0044  0.2096
19957SOL    HW165833   2.103   8.684   9.223 -2.2674 -0.8501 -0.1074
19957SOL    HW265834   2.003   8.730   9.120 -0.4638  1.4859 -0.9139
19958SOL     OW65835   8.433   5.557   0.147  0.1119  0.0253 -0.3778
19958SOL    HW165836   8.364   5.531   0.086  0.1042 -1.3751  0.1869
19958SOL    HW265837   8.439   5.484   0.209  0.7602  0.9948  0.7498
19959SOL     OW65838   1.686   3.295   7.538  0.2038 -0.8018  0.4702
19959SOL    HW165839   1.618   3.361   7.552  0.2202 -0.4983 -0.7287
19959SOL    HW265840   1.685   3.279   7.443  1.2505 -1.3901  0.5367
19960SOL     OW65841   3.348   2.252   0.211  0.2841  0.4683  0.0747
19960SOL    HW165842   3.302   2.238   0.127  1.8612  1.9202 -1.0812
19960SOL    HW265843   3.336   2.345   0.230  2.1514  0.7491  0.0659
19961SOL     OW65844   1.370   8.786   7.900  0.0668 -0.3157 -0.4277
19961SOL    HW165845   1.302   8.780   7.833  2.0547 -1.5300 -2.4978
19961SOL    HW265846   1.420   8.864   7.877  0.5090 -0.4977 -0.1076
19962SOL     OW65847   0.473   8.351   1.102  1.0013 -0.4143  0.1941
19962SOL    HW165848   0.477   8.351   1.007  0.3420  0.1487  0.1603
19962SOL    HW265849   0.380   8.358   1.123  1.0154 -1.8197  0.8869
19963SOL     OW65850   9.177   6.954   2.211 -0.0567  0.2257  0.3237
19963SOL    HW165851   9.229   6.914   2.281 -1.4919 -1.2853  0.5966
19963SOL    HW265852   9.102   6.896   2.202 -1.6327  2.2337 -0.1490
19964SOL     OW65853   0.103   8.056   6.729 -0.3473  0.3740  0.3920
19964SOL    HW165854   0.017   8.094   6.747 -0.4916  0.8078 -1.0652
19964SOL    HW265855   0.164   8.112   6.777 -0.8741 -0.1556  1.7356
19965SOL     OW65856   3.589   4.119   3.524  0.5624  0.2791 -0.1286
19965SOL    HW165857   3.681   4.109   3.500  0.0992 -2.8699 -1.1401
19965SOL    HW265858   3.542   4.115   3.441 -0.5798 -0.7710  0.5259
19966SOL     OW65859   0.537   5.457   2.555 -0.4116  0.3480  0.0091
19966SOL    HW165860   0.595   5.381   2.559  1.8379  1.9153 -0.8343
19966SOL    HW265861   0.479   5.447   2.630  2.5514 -0.1012  2.4178
19967SOL     OW65862   1.130   0.011   7.961  0.5479  0.5440  0.1467
19967SOL    HW165863   1.054   0.017   7.902  0.0004  2.8767  0.9845
19967SOL    HW265864   1.148   0.101   7.986  0.5618 -0.3371  3.8282
19968SOL     OW65865   6.065   5.095   7.264 -0.1605  0.2868 -0.3618
19968SOL    HW165866   6.075   5.186   7.290  0.1470  0.4629 -1.0597
19968SOL    HW265867   6.147   5.053   7.291 -0.8341 -0.0997  1.1675
19969SOL     OW65868   6.882   2.908   4.411  0.4634 -0.5863  0.1631
19969SOL    HW165869   6.864   2.908   4.505 -1.6450 -0.7468 -0.1862
19969SOL    HW265870   6.969   2.948   4.403 -0.3827  1.9192  2.0016
19970SOL     OW65871   2.129   6.978   2.674 -0.0626  0.0854  0.4745
19970SOL    HW165872   2.090   7.052   2.627 -0.3385 -0.6143 -0.4292
19970SOL    HW265873   2.213   6.964   2.630 -0.8419 -1.3356 -0.6601
19971SOL     OW65874   3.003   6.987   8.592  0.0060 -0.3770 -0.6074
19971SOL    HW165875   3.030   7.079   8.591 -1.4350  0.0637 -1.4739
19971SOL    HW265876   2.968   6.974   8.680  0.9913 -0.3636 -0.1943
19972SOL     OW65877   7.305   0.040   2.950  0.1949 -0.3981  0.2596
19972SOL    HW165878   7.210   0.037   2.936  0.0520 -2.1040  1.3421
19972SOL    HW265879   7.317   0.112   3.012 -0.2544  0.4622 -0.6134
19973SOL     OW65880   2.712   0.815   8.995 -0.0598  0.3284 -0.6397
19973SOL    HW165881   2.800   0.798   9.028 -1.0180 -0.2920  1.8794
19973SOL    HW265882   2.705   0.910   8.993  0.4769  0.3853 -0.1859
19974SOL     OW65883   6.856   0.110   7.127  0.0317  0.0271  0.1119
19974SOL    HW165884   6.919   0.141   7.192 -0.0105 -2.0561  1.2572
19974SOL    HW265885   6.898   0.034   7.087 -2.3644 -2.7905  2.4049
19975SOL     OW65886   6.425   7.611   3.980 -0.1910 -0.1159  0.0496
19975SOL    HW165887   6.369   7.663   3.921  1.1845 -0.5229 -1.7118
19975SOL    HW265888   6.511   7.613   3.939  0.6149 -1.2286  1.5932
19976SOL     OW65889   0.512   1.660   8.377  0.2376  0.6402 -0.4211
19976SOL    HW165890   0.543   1.692   8.462 -0.1351  1.4163 -0.5728
19976SOL    HW265891   0.582   1.683   8.317  1.0809 -1.0396 -0.1337
19977SOL     OW65892   1.030   5.733   7.195  0.4689 -0.4008  0.0828
19977SOL    HW165893   1.085   5.802   7.158  0.3548 -0.3599 -0.0098
19977SOL    HW265894   1.091   5.660   7.212  0.3135 -0.8958 -1.3628
19978SOL     OW65895   3.832   7.538   3.115  0.2927  0.8710 -0.0195
19978SOL    HW165896   3.774   7.494   3.052  0.0983 -0.2889  0.9296
19978SOL    HW265897   3.783   7.614   3.144 -1.6981 -1.0939  2.2106
19979SOL     OW65898   8.800   0.706   1.659  0.4648  0.0394 -0.2469
19979SOL    HW165899   8.824   0.675   1.746  3.7150  1.2370 -0.5594
19979SOL    HW265900   8.763   0.629   1.615  0.3524 -1.0258  1.6135
19980SOL     OW65901   9.114   7.705   4.893 -0.0376  0.1290 -0.1787
19980SOL    HW165902   9.121   7.767   4.821 -0.1207  0.7544  0.3454
19980SOL    HW265903   9.022   7.678   4.892 -0.1703  0.5623  0.0369
19981SOL     OW65904   0.203   3.576   8.063  0.5318  0.1487 -0.1735
19981SOL    HW165905   0.143   3.620   8.002  0.7845 -0.4754 -0.8992
19981SOL    HW265906   0.290   3.597   8.029  0.7353  1.0525  0.8768
19982SOL     OW65907   0.647   3.230   2.585 -0.2000  0.4286 -0.3849
19982SOL    HW165908   0.668   3.214   2.677 -1.8984 -2.0318 -0.3333
19982SOL    HW265909   0.732   3.248   2.544  0.9546 -0.9643  1.2237
19983SOL     OW65910   9.287   1.024   8.815 -0.1439 -0.3665  0.3019
19983SOL    HW165911   9.338   1.080   8.757 -1.0855 -1.1306 -1.3558
19983SOL    HW265912   9.349   0.957   8.844  0.4711  0.3221  0.5874
19984SOL     OW65913   6.209   2.361   5.200 -0.0666  0.2782 -0.3608
19984SOL    HW165914   6.283   2.416   5.175  1.2231 -0.8657  0.7665
19984SOL    HW265915   6.223   2.279   5.153  0.0138 -0.3418  0.7076
19985SOL     OW65916   6.741   5.182   4.913 -0.0460 -0.3074 -0.0607
19985SOL    HW165917   6.793   5.188   4.993  0.4885  0.8276 -0.4769
19985SOL    HW265918   6.659   5.225   4.934 -0.1215 -0.4990  0.0404
19986SOL     OW65919   3.763   3.823   7.782  0.1395  0.0104  0.6036
19986SOL    HW165920   3.836   3.855   7.730 -0.3547 -0.4075 -0.3721
19986SOL    HW265921   3.782   3.731   7.797  0.3565  0.1632  1.3164
19987SOL     OW65922   4.804   8.245   7.749 -0.5717  0.2101  0.1331
19987SOL    HW165923   4.844   8.298   7.818 -0.5815 -0.1278  0.3980
19987SOL    HW265924   4.710   8.251   7.765 -0.5500 -0.2897  0.4602
19988SOL     OW65925   7.871   1.927   3.756 -0.7712  0.2936 -0.4477
19988SOL    HW165926   7.794   1.977   3.785 -0.9300  0.0267 -0.4067
19988SOL    HW265927   7.875   1.852   3.815  0.6849  1.3302  0.8671
19989SOL     OW65928   0.832   4.370   8.175  0.0141  0.3874 -0.2309
19989SOL    HW165929   0.773   4.394   8.103  0.5114  0.4960 -0.6085
19989SOL    HW265930   0.906   4.429   8.165 -1.1599  2.4222  2.1039
19990SOL     OW65931   7.029   2.779   9.077  0.9044  0.0328  0.3370
19990SOL    HW165932   6.979   2.847   9.122 -1.9293 -1.7167  0.1025
19990SOL    HW265933   7.095   2.752   9.139  1.6589  2.4517  0.6973
19991SOL     OW65934   7.406   8.787   8.258 -0.5060  0.5011 -0.3287
19991SOL    HW165935   7.349   8.809   8.331 -0.0375  1.0290 -0.1110
19991SOL    HW265936   7.356   8.811   8.180 -0.5435  1.0804 -0.1335
19992SOL     OW65937   1.318   2.565   6.428  0.7163  0.4147 -0.1073
19992SOL    HW165938   1.304   2.481   6.385  0.3484  0.2350  0.3583
19992SOL    HW265939   1.239   2.580   6.479  2.1000 -0.5863  2.5106
19993SOL     OW65940   6.059   7.180   5.089  0.0783 -0.2050  0.2432
19993SOL    HW165941   6.072   7.264   5.132 -2.7717 -0.6507  2.2037
19993SOL    HW265942   5.999   7.199   5.017  0.6597 -0.3322 -0.2828
19994SOL     OW65943   9.326   4.547   5.939  0.4007 -0.0663 -0.1323
19994SOL    HW165944   9.369   4.501   6.012  0.3845 -0.2932 -0.2660
19994SOL    HW265945   9.233   4.526   5.949  0.3274  0.3831  0.1269
19995SOL     OW65946   3.415   7.342   9.131 -0.3586  0.0689 -0.2354
19995SOL    HW165947   3.458   7.338   9.217 -1.2452  1.2614  0.2910
19995SOL    HW265948   3.347   7.274   9.135  0.2701 -0.5764 -0.3885
19996SOL     OW65949   7.143   5.062   3.974  0.1425  0.7307 -0.1469
19996SOL    HW165950   7.202   5.138   3.976  2.0981 -0.6794 -0.6471
19996SOL    HW265951   7.077   5.081   4.041  0.6889  2.7428 -0.0950
19997SOL     OW65952   4.585   3.788   4.963  0.1747  0.6131 -0.0331
19997SOL    HW165953   4.602   3.694   4.956 -1.3799  0.2082  1.2915
19997SOL    HW265954   4.526   3.808   4.891  0.2280  0.5191 -0.1024
19998SOL     OW65955   8.161   2.065   5.544 -0.3732 -0.2681  0.6409
19998SOL    HW165956   8.180   2.159   5.536 -2.7043  0.2781  0.8763
19998SOL    HW265957   8.231   2.032   5.600  1.3758  0.9841 -0.6952
19999SOL     OW65958   4.785   1.280   2.983 -0.0252  0.1344 -0.7870
19999SOL    HW165959   4.836   1.199   2.990  2.0966  1.4854  0.6816
19999SOL    HW265960   4.829   1.331   2.915 -0.2069  0.7891 -0.4256
20000SOL     OW65961   5.864   8.566   6.298 -0.1440  0.2413 -0.2004
20000SOL    HW165962   5.829   8.477   6.301  2.3156 -0.8164 -0.7583
20000SOL    HW265963   5.874   8.591   6.389  0.0409 -0.4436 -0.0292
20001SOL     OW65964   7.689   7.058   5.993  0.0615  0.1649  0.0152
20001SOL    HW165965   7.670   7.101   6.077  0.4638 -2.6096  1.6389
20001SOL    HW265966   7.783   7.070   5.981 -0.0072  0.6248 -0.1165
20002SOL     OW65967   5.595   1.741   8.897  0.4791 -0.7308  0.1944
20002SOL    HW165968   5.557   1.714   8.981 -1.5730 -0.2385 -0.5214
20002SOL    HW265969   5.546   1.820   8.873  3.7183  1.5550  0.3901
20003SOL     OW65970   4.574   3.124   2.875 -0.0267  0.2237 -0.1053
20003SOL    HW165971   4.621   3.175   2.809 -0.9438  0.0377 -0.9298
20003SOL    HW265972   4.575   3.035   2.842 -0.0367  0.0276  0.4103
20004SOL     OW65973   0.853   7.945   4.868 -0.5150 -0.5304  0.0452
20004SOL    HW165974   0.879   7.899   4.948 -0.0366 -0.6889 -0.1994
20004SOL    HW265975   0.802   7.880   4.819 -0.6167 -0.5065  0.1202
20005SOL     OW65976   7.665   0.400   1.636  0.8891  0.8006  0.3309
20005SOL    HW165977   7.632   0.475   1.686 -0.3321  0.6048 -0.1569
20005SOL    HW265978   7.620   0.324   1.672 -0.6594  0.7431 -1.5679
20006SOL     OW65979   8.747   2.228   1.807  0.0654 -0.5652  0.3352
20006SOL    HW165980   8.725   2.153   1.862 -0.8647 -0.7929 -0.3222
20006SOL    HW265981   8.822   2.199   1.756 -0.7551 -1.3466 -0.4630
20007SOL     OW65982   2.118   7.716   1.769  0.1195 -0.0263 -0.6520
20007SOL    HW165983   2.181   7.667   1.821  1.8117  1.0630 -1.5967
20007SOL    HW265984   2.126   7.806   1.800 -2.2155 -0.0971  0.3621
20008SOL     OW65985   5.861   5.148   4.962 -0.4397  0.1648  0.2658
20008SOL    HW165986   5.798   5.185   5.023 -0.9841 -0.2234 -0.0513
20008SOL    HW265987   5.808   5.111   4.892  0.0610 -1.3908  0.6581
20009SOL     OW65988   6.679   1.604   8.397  0.3663 -0.2680  0.0529
20009SOL    HW165989   6.612   1.591   8.331  0.1415  1.5202 -0.1125
20009SOL    HW265990   6.644   1.671   8.455  2.1800  1.1141 -0.3411
20010SOL     OW65991   9.276   4.160   3.823  0.0430  0.1650 -0.2759
20010SOL    HW165992   9.180   4.156   3.820 -0.0581  0.9911  0.9688
20010SOL    HW265993   9.297   4.251   3.804  0.4422  0.4356  1.2824
20011SOL     OW65994   8.330   6.923   9.151  0.5095 -0.3310  0.5909
20011SOL    HW165995   8.244   6.912   9.190 -0.0424  1.0369 -0.1769
20011SOL    HW265996   8.347   6.840   9.106  0.2348 -1.1332  1.9133
20012SOL     OW65997   3.146   7.009   7.717  0.2144 -0.2180  0.1700
20012SOL    HW165998   3.198   7.045   7.645  0.3513  0.7636  0.7416
20012SOL    HW265999   3.080   7.076   7.735  0.0289 -0.5602  0.7886
20013SOL     OW66000   8.321   1.816   2.370  0.6465  0.1012 -1.2957
20013SOL    HW166001   8.285   1.891   2.325 -0.5284 -0.2073 -0.9029
20013SOL    HW266002   8.248   1.754   2.377  1.4050 -0.7903 -1.0070
20014SOL     OW66003   1.403   8.866   7.503 -0.1636 -0.9084 -0.2908
20014SOL    HW166004   1.408   8.954   7.541  0.3876 -1.1173  0.1361
20014SOL    HW266005   1.323   8.828   7.542 -0.0214 -0.8433  0.0746
20015SOL     OW66006   2.763   8.479   4.934  0.2084 -0.5932 -0.3443
20015SOL    HW166007   2.693   8.492   4.870  2.2280  1.1684 -2.3627
20015SOL    HW266008   2.723   8.502   5.018 -1.7101  0.0538 -1.3782
20016SOL     OW66009   1.796   7.978   6.559 -0.1252  0.1939  0.1862
20016SOL    HW166010   1.735   7.925   6.507 -1.0535  1.9708 -0.6206
20016SOL    HW266011   1.864   7.916   6.586  0.1941 -0.9195 -2.7867
20017SOL     OW66012   6.376   4.059   2.746 -0.2879  0.2233 -0.0985
20017SOL    HW166013   6.436   3.986   2.732 -1.2904 -0.4323 -1.2117
20017SOL    HW266014   6.428   4.137   2.726  0.8337 -0.1466  1.2349
20018SOL     OW66015   7.564   0.664   7.633  0.3281  0.0449  0.1855
20018SOL    HW166016   7.568   0.739   7.693  0.9613 -2.6130  3.7815
20018SOL    HW266017   7.473   0.662   7.604 -0.4911  0.5154  2.4767
20019SOL     OW66018   5.324   8.915   8.714 -0.1504  0.1203  0.1966
20019SOL    HW166019   5.370   8.831   8.719  0.3256  0.4665  2.8933
20019SOL    HW266020   5.375   8.967   8.652  1.3188 -0.5341  0.8254
20020SOL     OW66021   4.003   4.267   5.448  0.1322  0.3904  0.2978
20020SOL    HW166022   3.936   4.290   5.383 -0.7519 -1.2300  0.5881
20020SOL    HW266023   4.086   4.291   5.406 -0.4014 -0.7031 -1.4979
20021SOL     OW66024   1.691   6.437   1.394 -0.4433  0.2214  0.1516
20021SOL    HW166025   1.654   6.453   1.480  0.1853 -0.5083  0.5643
20021SOL    HW266026   1.781   6.469   1.400 -0.7694  1.3461 -0.6334
20022SOL     OW66027   2.537   8.402   5.948  0.1331 -0.4272  0.6338
20022SOL    HW166028   2.460   8.448   5.913 -0.5742 -1.0000  1.3857
20022SOL    HW266029   2.609   8.427   5.890 -0.4331  0.8556  0.4532
20023SOL     OW66030   6.160   3.665   0.560 -0.3097  0.2206  0.1157
20023SOL    HW166031   6.095   3.722   0.519 -1.1979 -0.4096  0.6016
20023SOL    HW266032   6.170   3.592   0.500 -0.2331  0.1937  0.1601
20024SOL     OW66033   7.627   6.025   1.574  0.7780  0.5280 -0.1336
20024SOL    HW166034   7.572   5.968   1.521 -0.4112  1.9902 -0.5123
20024SOL    HW266035   7.584   6.027   1.660  2.1705 -1.0569  0.6809
20025SOL     OW66036   9.261   0.989   0.886  0.3791  0.4431 -0.3374
20025SOL    HW166037   9.188   1.046   0.861 -0.9628  0.3178  2.8498
20025SOL    HW266038   9.230   0.900   0.867  0.4494  0.4803 -0.6369
20026SOL     OW66039   5.049   0.934   5.941 -0.1308  0.2784 -0.0684
20026SOL    HW166040   5.041   0.848   5.982 -0.4069  0.4824  0.3042
20026SOL    HW266041   5.070   0.994   6.013  1.3816  0.3233 -0.5041
20027SOL     OW66042   2.229   1.778   6.714  0.1979 -0.3151  0.7491
20027SOL    HW166043   2.299   1.732   6.668  0.7177  1.0270  0.1309
20027SOL    HW266044   2.177   1.709   6.754  1.3416 -1.3907  0.4487
20028SOL     OW66045   2.765   3.425   7.864  0.2929 -0.0566 -0.0629
20028SOL    HW166046   2.688   3.394   7.912  0.3194 -0.5106 -0.3094
20028SOL    HW266047   2.825   3.454   7.933 -0.3815  1.0022  0.1064
20029SOL     OW66048   3.934   1.544   5.024 -0.0246 -0.0513  0.2415
20029SOL    HW166049   3.990   1.468   5.044  0.8741 -0.0196 -1.8440
20029SOL    HW266050   3.890   1.564   5.106  0.6011 -2.1149  1.1466
20030SOL     OW66051   6.445   6.415   0.418  0.0250 -0.5926  0.0255
20030SOL    HW166052   6.452   6.437   0.325  0.4712 -0.7193  0.0273
20030SOL    HW266053   6.422   6.498   0.461  0.6341 -0.3527 -0.0992
20031SOL     OW66054   8.877   2.393   3.334  0.1968  0.1315 -0.2339
20031SOL    HW166055   8.965   2.361   3.317 -0.3293 -0.2090 -2.6456
20031SOL    HW266056   8.874   2.478   3.290 -1.2821 -0.8198 -2.1142
20032SOL     OW66057   6.567   7.667   4.451 -0.1030  0.0272 -0.5935
20032SOL    HW166058   6.621   7.623   4.516 -0.5116 -0.3025 -0.4698
20032SOL    HW266059   6.523   7.596   4.404 -0.2303  0.2814 -0.8641
20033SOL     OW66060   7.652   0.061   7.266  0.1411 -0.3791 -0.2140
20033SOL    HW166061   7.584  -0.004   7.249  0.4903 -0.3608 -1.8525
20033SOL    HW266062   7.617   0.115   7.337 -2.2250  0.5469 -1.9859
20034SOL     OW66063   6.729   1.311   7.717  0.2563 -0.1714  0.3107
20034SOL    HW166064   6.804   1.355   7.679  0.9528 -1.3466  0.2627
20034SOL    HW266065   6.756   1.292   7.807 -0.0202 -0.4882  0.3293
20035SOL     OW66066   0.168   7.994   7.567 -0.0934  0.2925  0.0734
20035SOL    HW166067   0.124   7.910   7.552  2.4641 -0.9787 -0.8379
20035SOL    HW266068   0.206   7.985   7.655 -0.9493  1.0856  0.5445
20036SOL     OW66069   0.735   5.011   0.277 -0.5025 -0.3529 -0.0408
20036SOL    HW166070   0.770   4.936   0.231 -0.1516 -0.5553  0.5405
20036SOL    HW266071   0.776   5.087   0.235  1.3374 -0.6085  1.1567
20037SOL     OW66072   5.007   2.394   1.226 -0.1067  0.5004 -0.2585
20037SOL    HW166073   5.041   2.483   1.211  1.3648 -0.0291 -0.1736
20037SOL    HW266074   4.928   2.408   1.278 -0.7344  1.8483 -1.5164
20038SOL     OW66075   6.825   7.812   8.822  0.3051 -0.1937 -0.2348
20038SOL    HW166076   6.785   7.768   8.747  2.8297 -2.4107 -0.4032
20038SOL    HW266077   6.834   7.744   8.888  2.4913  0.5102  0.2719
20039SOL     OW66078   5.464   4.870   9.123 -0.3728 -0.3656 -0.1845
20039SOL    HW166079   5.521   4.947   9.119 -0.4796 -0.2446  0.5060
20039SOL    HW266080   5.519   4.799   9.089  0.4033 -0.3604  0.9894
20040SOL     OW66081   0.294   2.419   1.807  0.4743  0.4707  0.3269
20040SOL    HW166082   0.292   2.502   1.759  0.6509  0.7312  0.7601
20040SOL    HW266083   0.205   2.385   1.799  0.7364  0.0532 -0.9590
20041SOL     OW66084   5.781   5.998   6.296  0.0350 -0.3164 -0.6848
20041SOL    HW166085   5.731   5.946   6.360 -0.4452  0.9516  0.0154
20041SOL    HW266086   5.830   5.933   6.245 -3.6689 -1.8551 -2.6759
20042SOL     OW66087   5.081   0.507   0.738  0.0696  0.0524 -0.1037
20042SOL    HW166088   5.152   0.468   0.790  0.1517 -0.2296 -0.4214
20042SOL    HW266089   5.056   0.438   0.677 -0.5415  0.1242  0.0654
20043SOL     OW66090   1.380   7.289   6.098 -0.6927  0.0573  0.1444
20043SOL    HW166091   1.473   7.276   6.118 -0.5383  0.5355 -0.2453
20043SOL    HW266092   1.380   7.336   6.014 -1.2806  0.2726  0.2619
20044SOL     OW66093   3.033   2.681   5.713  0.0742  0.0885  0.0646
20044SOL    HW166094   3.003   2.606   5.765  1.5981  0.4323  1.5099
20044SOL    HW266095   2.976   2.680   5.636 -1.4129 -1.2154  1.1043
20045SOL     OW66096   0.583   8.294   3.150  0.2329 -0.4551 -0.4887
20045SOL    HW166097   0.564   8.384   3.176  2.1183 -0.0790 -0.3054
20045SOL    HW266098   0.504   8.266   3.104 -1.1042  0.6560  1.0246
20046SOL     OW66099   6.995   2.650   5.958  0.2773  0.1583  0.7371
20046SOL    HW166100   6.997   2.635   5.863  1.9246 -2.1904  1.0611
20046SOL    HW266101   6.926   2.715   5.970 -1.3226 -0.8807 -1.8776
20047SOL     OW66102   0.958   8.040   3.285 -0.7535 -0.2906 -0.1111
20047SOL    HW166103   0.918   8.071   3.204  1.3782 -0.7309 -1.4200
20047SOL    HW266104   0.995   7.955   3.262  2.1145  0.6763  0.5427
20048SOL     OW66105   2.218   4.892   7.035  0.4028 -0.0594 -0.1002
20048SOL    HW166106   2.189   4.903   7.126  1.8537  0.6488  0.3069
20048SOL    HW266107   2.271   4.812   7.037  2.5530  1.3035  0.2717
20049SOL     OW66108   9.302   3.592   4.431  0.2961  0.2439  0.3950
20049SOL    HW166109   9.233   3.637   4.479  0.3501 -1.0302  1.7774
20049SOL    HW266110   9.337   3.529   4.494  1.2967 -0.5909 -0.9325
20050SOL     OW66111   8.000   1.860   5.535  0.1530  0.4123  0.5690
20050SOL    HW166112   8.043   1.938   5.568 -0.5743  0.9318  0.3130
20050SOL    HW266113   8.010   1.795   5.605  0.9517  0.6584  0.6862
20051SOL     OW66114   4.129   5.611   5.645 -0.3559  0.2615  0.3925
20051SOL    HW166115   4.178   5.564   5.577  0.2242 -0.0847  1.0395
20051SOL    HW266116   4.144   5.703   5.626  0.0284  0.1619  0.2140
20052SOL     OW66117   6.727   6.220   1.046 -0.0292 -0.0629  0.2518
20052SOL    HW166118   6.709   6.183   1.133  2.2455  0.3674  0.9825
20052SOL    HW266119   6.781   6.153   1.003  1.4363  0.9726  0.3870
20053SOL     OW66120   3.385   9.126   3.991  0.8189  0.1171 -0.1417
20053SOL    HW166121   3.401   9.064   4.062 -0.6353 -0.2634 -0.1166
20053SOL    HW266122   3.366   9.208   4.035  0.6239  0.0539 -0.1058
20054SOL     OW66123   7.976   2.823   0.061 -0.0811  0.7217 -0.0628
20054SOL    HW166124   7.906   2.886   0.048 -0.1621  0.3309 -1.9016
20054SOL    HW266125   8.055   2.869   0.032  0.6209  1.4183  2.6850
20055SOL     OW66126   2.908   6.952   8.198  0.9940 -0.1914  0.1087
20055SOL    HW166127   2.862   6.927   8.118  0.8405  0.6318 -0.0737
20055SOL    HW266128   2.999   6.926   8.183  0.6160 -1.8005  0.4611
20056SOL     OW66129   7.304   7.204   5.284  0.0025 -0.1294  0.2526
20056SOL    HW166130   7.276   7.176   5.196 -0.3092  0.1455  0.2610
20056SOL    HW266131   7.396   7.178   5.289  0.0091 -0.1926 -0.1385
20057SOL     OW66132   4.833   5.708   9.284 -0.3455  0.0456  0.2421
20057SOL    HW166133   4.881   5.659   9.217 -1.0508  0.1161 -0.3256
20057SOL    HW266134   4.826   5.647   9.358 -1.5599 -0.8777 -0.5980
20058SOL     OW66135   2.153   4.237   7.103 -0.0445 -0.5497 -0.7404
20058SOL    HW166136   2.236   4.203   7.139 -0.3616 -0.6117 -0.0446
20058SOL    HW266137   2.162   4.332   7.110  0.0726 -0.5503 -0.8982
20059SOL     OW66138   1.624   4.212   8.478  0.3372 -0.6513  0.0507
20059SOL    HW166139   1.587   4.240   8.561  0.9557 -1.6882  0.6887
20059SOL    HW266140   1.580   4.267   8.413 -0.0420  0.2805  1.0611
20060SOL     OW66141   8.829   8.775   8.362 -0.8635  0.6639 -0.0446
20060SOL    HW166142   8.752   8.743   8.314 -1.3797  1.2536  0.3663
20060SOL    HW266143   8.804   8.768   8.454  0.7061 -1.9448  0.2718
20061SOL     OW66144   9.008   4.322   0.809  0.2074 -0.2623 -0.4170
20061SOL    HW166145   9.050   4.258   0.865  0.0892  0.3971  0.4583
20061SOL    HW266146   8.946   4.272   0.756 -0.5350 -0.7638  0.8913
20062SOL     OW66147   7.663   1.960   6.004 -0.3418  0.0663 -0.4399
20062SOL    HW166148   7.715   1.945   5.925  0.4250  0.0234  0.0541
20062SOL    HW266149   7.687   2.048   6.032 -0.8661  0.2114 -0.4423
20063SOL     OW66150   1.501   8.009   2.093  0.5410  0.2194 -0.2588
20063SOL    HW166151   1.435   7.976   2.032 -0.3933  0.8759  0.3891
20063SOL    HW266152   1.581   7.962   2.067 -0.2468 -0.9026 -0.7817
20064SOL     OW66153   9.234   5.360   6.567 -0.0932 -0.0356  0.4466
20064SOL    HW166154   9.183   5.406   6.634  1.9661 -0.9379  2.7857
20064SOL    HW266155   9.193   5.274   6.561 -1.4085  0.6457 -0.8811
20065SOL     OW66156   9.225   1.680   4.450  0.1890  0.3860 -0.7881
20065SOL    HW166157   9.153   1.668   4.388  0.2748 -2.3850 -0.4755
20065SOL    HW266158   9.183   1.701   4.533 -0.2116 -0.0833 -0.8672
20066SOL     OW66159   1.987   7.537   9.201 -0.0029 -0.2567  0.1692
20066SOL    HW166160   1.931   7.513   9.128 -2.5168  1.3319  1.4277
20066SOL    HW266161   1.978   7.465   9.263  1.0086 -0.9444 -0.4616
20067SOL     OW66162   7.592   8.249   2.121  0.1121  0.0863  0.3844
20067SOL    HW166163   7.632   8.245   2.034  0.0720 -0.0749  0.3731
20067SOL    HW266164   7.641   8.184   2.172  1.2551  1.3360  0.9448
20068SOL     OW66165   0.185   3.110   2.444  0.1354 -0.3959  0.4319
20068SOL    HW166166   0.162   3.098   2.352  2.5490  1.1368 -0.4584
20068SOL    HW266167   0.205   3.021   2.475  0.0389 -0.8517 -0.7336
20069SOL     OW66168   8.652   5.910   5.489 -0.5700 -0.0592  0.0891
20069SOL    HW166169   8.582   5.940   5.430  0.2891  1.6217 -0.1388
20069SOL    HW266170   8.728   5.961   5.463  0.9131 -2.1841  0.0132
20070SOL     OW66171   2.961   7.715   3.946  0.2506 -0.5562 -0.0286
20070SOL    HW166172   2.955   7.653   3.873  1.6876  0.1139 -0.7544
20070SOL    HW266173   2.925   7.796   3.912 -1.4251 -0.8814  0.8540
20071SOL     OW66174   2.576   0.354   5.086  0.1479  0.4188  0.1245
20071SOL    HW166175   2.629   0.403   5.149  0.9429 -0.7502  0.4036
20071SOL    HW266176   2.558   0.271   5.129 -1.9823  0.7647  0.0543
20072SOL     OW66177   3.592   1.501   5.449 -0.4892  0.3908 -0.4167
20072SOL    HW166178   3.575   1.416   5.491  0.2244  0.8636  0.8780
20072SOL    HW266179   3.566   1.566   5.514  2.3445  1.1411  0.1125
20073SOL     OW66180   6.334   5.576   1.042 -0.2433  0.3527  0.3627
20073SOL    HW166181   6.286   5.563   0.960  1.1673 -1.2714 -0.2714
20073SOL    HW266182   6.272   5.621   1.099 -2.4465 -1.4016 -0.4777
20074SOL     OW66183   2.424   6.633   2.299 -0.1304 -0.1795 -0.0106
20074SOL    HW166184   2.427   6.684   2.379  0.2109 -0.2531  0.0243
20074SOL    HW266185   2.333   6.639   2.269 -0.2403 -0.0967  0.3443
20075SOL     OW66186   3.739   6.721   2.344  0.3534 -0.5156  0.7583
20075SOL    HW166187   3.825   6.694   2.375 -0.2746 -2.3442  1.0517
20075SOL    HW266188   3.678   6.668   2.395 -0.9652  0.7806  0.6013
20076SOL     OW66189   7.941   3.171   7.508  0.4812 -0.0130  0.0284
20076SOL    HW166190   8.014   3.158   7.569  0.7911  0.1503 -0.2982
20076SOL    HW266191   7.915   3.262   7.520 -0.7266 -0.4872  1.2750
20077SOL     OW66192   4.824   6.299   7.216 -0.0348  0.8215 -0.3677
20077SOL    HW166193   4.775   6.217   7.211  2.4930 -0.8874  0.4322
20077SOL    HW266194   4.858   6.312   7.127 -0.7665  1.2559 -0.5921
20078SOL     OW66195   0.446   2.169   6.747 -0.1995 -0.3349  0.6140
20078SOL    HW166196   0.464   2.090   6.697 -0.2625  0.8421 -1.3930
20078SOL    HW266197   0.359   2.155   6.784 -2.0899  0.2894 -3.1141
20079SOL     OW66198   9.365   2.584   1.524 -0.3033  0.1718 -0.0014
20079SOL    HW166199   9.292   2.646   1.518  0.1422  0.5855 -1.5594
20079SOL    HW266200   9.428   2.627   1.582 -0.9474  0.1587  0.7240
20080SOL     OW66201   7.801   2.182   4.810  0.3821 -0.4810  0.0115
20080SOL    HW166202   7.706   2.186   4.812  0.3813 -0.5613  1.2656
20080SOL    HW266203   7.821   2.103   4.760 -0.2096 -0.5517 -0.1192
20081SOL     OW66204   2.884   1.336   6.009  0.2994 -0.1717 -0.8816
20081SOL    HW166205   2.917   1.423   5.989  1.9089 -0.3543  0.6632
20081SOL    HW266206   2.962   1.280   6.008 -0.2728 -1.0623  0.7732
20082SOL     OW66207   5.590   1.848   1.969  0.0004  0.1013  0.5378
20082SOL    HW166208   5.660   1.869   1.907 -0.7703  0.7200 -0.1340
20082SOL    HW266209   5.530   1.792   1.921  0.4304 -1.1225  1.3695
20083SOL     OW66210   0.690   4.122   6.289 -0.0121 -0.8955 -0.1493
20083SOL    HW166211   0.760   4.065   6.257  1.9918 -0.2555  2.7460
20083SOL    HW266212   0.691   4.111   6.384 -0.7989  2.5085  0.3824
20084SOL     OW66213   4.730   1.489   0.099 -0.2472 -0.1507 -0.1610
20084SOL    HW166214   4.807   1.436   0.118  0.1305  0.2086 -0.6942
20084SOL    HW266215   4.657   1.426   0.102  0.0145 -0.4311  0.6574
20085SOL     OW66216   1.895   2.586   0.515  0.2719 -0.1143  0.3139
20085SOL    HW166217   1.802   2.571   0.530  0.1765  1.3694  1.4040
20085SOL    HW266218   1.900   2.671   0.473  1.1919  0.6224  1.8094
20086SOL     OW66219   5.235   5.583   3.927 -0.1950 -0.1798  0.1212
20086SOL    HW166220   5.158   5.548   3.971 -1.4639 -0.5876 -2.2661
20086SOL    HW266221   5.307   5.526   3.955 -0.9029 -0.3124  1.7393
20087SOL     OW66222   4.179   6.927   2.815  0.3562 -0.1952  0.2589
20087SOL    HW166223   4.274   6.923   2.822  0.5257  0.6547 -1.2245
20087SOL    HW266224   4.156   6.853   2.759  0.2945  0.3804 -0.4909
20088SOL     OW66225   0.402   6.897   8.801 -0.4780 -0.0248 -0.0427
20088SOL    HW166226   0.369   6.910   8.890  1.2290 -3.2976  1.2406
20088SOL    HW266227   0.385   6.805   8.782  1.7506 -0.1459 -1.9325
20089SOL     OW66228   0.505   8.585   3.499 -0.2427 -0.3467  0.1037
20089SOL    HW166229   0.434   8.543   3.451 -0.0738  0.1985 -0.6346
20089SOL    HW266230   0.462   8.630   3.572 -0.7988  0.8434 -0.9198
20090SOL     OW66231   7.004   6.174   2.614 -0.8944 -0.0696 -0.0577
20090SOL    HW166232   7.093   6.153   2.643 -0.0513  0.3677 -2.1323
20090SOL    HW266233   7.006   6.269   2.600 -1.2022 -0.2620 -1.5455
20091SOL     OW66234   0.223   1.178   3.233 -0.4003 -0.0083 -0.1055
20091SOL    HW166235   0.216   1.201   3.140  0.5782  2.3052  0.3093
20091SOL    HW266236   0.136   1.194   3.268 -0.7259 -0.7072 -0.5725
20092SOL     OW66237   6.541   5.063   7.410  0.0808 -0.5859  0.0083
20092SOL    HW166238   6.467   5.085   7.353  1.3638  2.9008 -0.5737
20092SOL    HW266239   6.617   5.066   7.353  0.8310 -3.8438  0.6494
20093SOL     OW66240   4.026   5.569   1.573 -0.3136  0.5750  0.1802
20093SOL    HW166241   4.027   5.499   1.508  1.3796  1.1484 -0.4704
20093SOL    HW266242   4.024   5.525   1.657 -0.0386 -0.2421 -0.2349
20094SOL     OW66243   6.371   4.448   5.544 -0.0575 -0.4660  0.3187
20094SOL    HW166244   6.445   4.508   5.543  0.3816 -1.0083 -0.1851
20094SOL    HW266245   6.335   4.457   5.632  1.1946 -0.9050  0.8988
20095SOL     OW66246   1.189   3.132   4.554  0.3619 -0.1883  0.2099
20095SOL    HW166247   1.229   3.171   4.476 -0.9144  0.6834 -0.0486
20095SOL    HW266248   1.120   3.194   4.578  0.1572 -0.8956  1.5170
20096SOL     OW66249   1.993   8.394   1.175 -0.1019  0.3611  0.6610
20096SOL    HW166250   1.941   8.320   1.205  0.0964  0.7331  2.0356
20096SOL    HW266251   2.083   8.361   1.173  0.0380  0.6337  1.6394
20097SOL     OW66252   4.567   7.719   1.477  0.8037  0.3138  0.4771
20097SOL    HW166253   4.553   7.699   1.569 -0.8526  0.7248  0.3344
20097SOL    HW266254   4.591   7.635   1.438  1.3533  0.1096  1.2385
20098SOL     OW66255   4.539   8.515   9.162 -0.1853 -0.2444  0.1186
20098SOL    HW166256   4.506   8.540   9.076 -0.2516 -0.0176  0.2093
20098SOL    HW266257   4.506   8.426   9.175  0.3686 -0.5249 -0.3665
20099SOL     OW66258   1.855   6.473   7.852 -0.0874 -0.0046 -0.8104
20099SOL    HW166259   1.845   6.411   7.779 -1.6350 -1.6070  0.6675
20099SOL    HW266260   1.767   6.510   7.864 -0.2268 -0.8386  1.0988
20100SOL     OW66261   6.953   4.754   6.139  0.1968 -0.5082  0.1963
20100SOL    HW166262   7.025   4.694   6.116 -0.3469 -1.6843  1.4283
20100SOL    HW266263   6.952   4.819   6.068  1.4113 -1.4141 -0.6910
20101SOL     OW66264   0.333   1.181   6.755  0.4184  0.0457 -0.1322
20101SOL    HW166265   0.261   1.118   6.757  0.5857 -0.1378  1.7872
20101SOL    HW266266   0.364   1.185   6.845  2.3400  0.6875 -0.7709
20102SOL     OW66267   7.741   4.595   1.012 -0.2746  0.5161  0.2076
20102SOL    HW166268   7.758   4.571   1.103  0.3052 -4.2295 -0.8669
20102SOL    HW266269   7.823   4.633   0.981 -0.4488  2.0856  1.5628
20103SOL     OW66270   6.673   2.743   5.673 -0.3287  0.5663  0.2510
20103SOL    HW166271   6.714   2.818   5.629  0.3306 -0.1214 -0.3360
20103SOL    HW266272   6.746   2.684   5.692 -0.5067  1.0034  2.6577
20104SOL     OW66273   1.189   6.981   4.739  0.0151 -0.2489 -0.1739
20104SOL    HW166274   1.130   6.908   4.757  1.6994 -1.9459 -1.1130
20104SOL    HW266275   1.271   6.957   4.783  0.8531  0.6839 -1.1652
20105SOL     OW66276   2.583   5.332   6.603 -0.0000  0.4876  0.2046
20105SOL    HW166277   2.598   5.427   6.596 -0.3780  0.7022  1.8940
20105SOL    HW266278   2.636   5.305   6.678  0.2015 -0.6685 -0.3439
20106SOL     OW66279   4.581   9.341   8.790  0.0650 -0.3003  0.5511
20106SOL    HW166280   4.568   9.433   8.766 -0.4511 -0.6585 -0.6416
20106SOL    HW266281   4.499   9.317   8.834  0.3264 -0.1160  1.1544
20107SOL     OW66282   2.155   6.935   8.857 -0.0113  0.2817 -0.2590
20107SOL    HW166283   2.114   7.002   8.803  1.1040  0.6930 -0.6255
20107SOL    HW266284   2.153   6.856   8.804 -1.3546 -0.0020  0.1850
20108SOL     OW66285   5.208   8.616   1.169 -0.0572  0.4516 -0.1165
20108SOL    HW166286   5.139   8.670   1.131  0.1574  0.4974 -0.4422
20108SOL    HW266287   5.234   8.557   1.099  0.8841  1.0594 -0.2953
20109SOL     OW66288   4.231   2.848   2.872  0.1777 -0.2605  0.3556
20109SOL    HW166289   4.265   2.936   2.853  0.2787 -0.3540  0.0963
20109SOL    HW266290   4.242   2.801   2.789  0.3283 -0.5810  0.5586
20110SOL     OW66291   8.394   5.306   8.506 -0.0137 -0.4253 -0.3815
20110SOL    HW166292   8.334   5.375   8.481 -0.2791 -1.0609 -1.5947
20110SOL    HW266293   8.338   5.237   8.542  0.0615 -0.7219 -0.8295
20111SOL     OW66294   4.655   3.449   9.346  0.0652 -0.0560 -0.1819
20111SOL    HW166295   4.591   3.519   9.337  0.2864  0.0116 -1.4252
20111SOL    HW266296   4.688   3.435   9.257  1.7903 -0.0854  0.4305
20112SOL     OW66297   1.555   4.984   0.885 -0.1812  0.0536 -0.1202
20112SOL    HW166298   1.551   4.975   0.790 -2.7635  1.3193 -0.2248
20112SOL    HW266299   1.466   5.009   0.910  1.1751  3.1169  2.2414
20113SOL     OW66300   6.765   9.165   7.356 -0.4656 -0.1412  0.1343
20113SOL    HW166301   6.689   9.135   7.406 -1.4552  1.5785 -0.2917
20113SOL    HW266302   6.730   9.225   7.291  0.8413 -1.8891 -2.3507
20114SOL     OW66303   6.015   6.757   0.072  0.5391 -0.3267  0.1847
20114SOL    HW166304   5.970   6.682   0.109  0.6335 -0.0801  0.8172
20114SOL    HW266305   6.090   6.771   0.130  0.4215  0.3571  0.1846
20115SOL     OW66306   7.915   5.997   5.778  0.2282 -0.5203  0.1439
20115SOL    HW166307   7.904   5.907   5.748 -0.2316 -0.4431  0.0797
20115SOL    HW266308   7.972   6.037   5.711  1.0891 -0.9730  0.5885
20116SOL     OW66309   2.913   0.212   6.144  0.4219  0.3776  0.3720
20116SOL    HW166310   2.846   0.264   6.099  0.4095 -0.0261 -0.0882
20116SOL    HW266311   2.891   0.220   6.236 -0.7365 -0.3817  0.1809
20117SOL     OW66312   3.166   2.882   1.330 -0.3628  0.0227 -0.0337
20117SOL    HW166313   3.172   2.862   1.423 -3.8327  0.7587  0.4928
20117SOL    HW266314   3.189   2.801   1.286  0.1156 -0.7153  1.5131
20118SOL     OW66315   4.762   1.774   0.092  0.6021 -0.0365  0.4366
20118SOL    HW166316   4.699   1.821   0.037 -0.2525  0.6664  1.9547
20118SOL    HW266317   4.737   1.682   0.083  0.8452 -0.0013 -0.7804
20119SOL     OW66318   0.626   9.300   4.376 -0.0743 -0.3462  0.7155
20119SOL    HW166319   0.608   9.223   4.430  2.0908  0.2559  2.4632
20119SOL    HW266320   0.719   9.318   4.391 -0.5973  2.8573  0.7343
20120SOL     OW66321   5.790   6.931   6.021  0.4178 -0.0721  0.2184
20120SOL    HW166322   5.833   6.884   6.092  2.1417  0.5842 -0.3334
20120SOL    HW266323   5.820   6.888   5.941 -0.6815 -0.1553 -0.1625
20121SOL     OW66324   1.278   5.097   1.160  0.0712  0.4436 -0.6792
20121SOL    HW166325   1.292   5.050   1.078  1.2530  2.4869 -1.7245
20121SOL    HW266326   1.241   5.181   1.134 -0.7051  0.6618  1.0049
20122SOL     OW66327   0.901   3.689   3.941  0.5204 -0.0607 -0.1308
20122SOL    HW166328   0.886   3.765   3.998  2.3153  0.8042 -0.7438
20122SOL    HW266329   0.816   3.674   3.900 -0.1420  0.9377  0.8064
20123SOL     OW66330   2.732   1.399   6.251  0.4040  0.8124  0.3169
20123SOL    HW166331   2.791   1.379   6.324  0.9888  2.6087  0.3928
20123SOL    HW266332   2.782   1.374   6.173 -0.2847 -1.2647  0.4602
20124SOL     OW66333   3.801   0.412   6.764 -0.3663 -0.4538  0.7305
20124SOL    HW166334   3.847   0.342   6.719  0.1720 -0.2582  0.9575
20124SOL    HW266335   3.859   0.488   6.754 -0.7133 -0.1657  0.8970
20125SOL     OW66336   9.128   2.366   6.874 -0.6686  0.0261  0.3702
20125SOL    HW166337   9.209   2.326   6.904  0.3588 -0.4964 -2.7478
20125SOL    HW266338   9.148   2.460   6.869  0.2851 -0.2397 -1.6777
20126SOL     OW66339   4.317   8.814   3.260 -0.4276  0.3333  0.2958
20126SOL    HW166340   4.407   8.811   3.291 -0.1279  0.0773 -0.5723
20126SOL    HW266341   4.266   8.841   3.337  0.3563  0.2873  0.8439
20127SOL     OW66342   1.606   4.895   7.788  0.5574 -0.0278 -0.1880
20127SOL    HW166343   1.520   4.863   7.762  1.1138 -1.2430 -0.5707
20127SOL    HW266344   1.603   4.895   7.884  0.4844 -1.0812 -0.1772
20128SOL     OW66345   4.645   8.872   7.609  0.1030 -0.1179  0.0289
20128SOL    HW166346   4.735   8.859   7.637 -0.0527  0.4207  0.8199
20128SOL    HW266347   4.631   8.966   7.615 -1.0853 -0.3570  1.8433
20129SOL     OW66348   1.552   0.976   2.654 -0.4266 -0.7440  0.1467
20129SOL    HW166349   1.503   0.989   2.573  1.4833  0.1039 -0.9402
20129SOL    HW266350   1.535   1.056   2.705 -0.1332 -0.4235 -0.2514
20130SOL     OW66351   0.496   3.282   4.367 -0.1657  0.5050 -0.0126
20130SOL    HW166352   0.562   3.223   4.404  0.3377  0.8091 -0.4151
20130SOL    HW266353   0.474   3.244   4.282  2.1759  2.3005 -1.5352
20131SOL     OW66354   6.936   8.172   1.345  0.2119  0.2151  0.4711
20131SOL    HW166355   6.910   8.135   1.260 -0.1749  1.3732  0.0523
20131SOL    HW266356   6.854   8.202   1.384  0.5367  0.9570  0.6107
20132SOL     OW66357   6.047   0.762   4.459  0.3758 -0.3844  0.2499
20132SOL    HW166358   6.004   0.677   4.459  1.5044 -0.9924  1.6732
20132SOL    HW266359   6.134   0.745   4.496  0.8942  1.2612 -0.1163
20133SOL     OW66360   1.347   8.650   2.089 -0.2584  0.0496  0.0094
20133SOL    HW166361   1.374   8.740   2.070 -0.7177  0.2476  0.2951
20133SOL    HW266362   1.420   8.597   2.057 -0.2650  0.4807 -0.7423
20134SOL     OW66363   7.194   4.293   1.543  0.6178  0.1551 -0.4908
20134SOL    HW166364   7.220   4.259   1.458  1.9402  1.3139 -0.5906
20134SOL    HW266365   7.122   4.353   1.524 -0.6467 -1.2987 -0.4883
20135SOL     OW66366   8.066   0.724   0.406  0.2023 -0.1086 -0.3174
20135SOL    HW166367   8.048   0.684   0.491 -1.2974  0.4053 -0.3714
20135SOL    HW266368   8.108   0.807   0.428  1.2110 -0.6506 -0.1390
20136SOL     OW66369   7.802   0.621   1.344 -0.1284 -0.5312  0.1828
20136SOL    HW166370   7.872   0.660   1.396  2.3523 -0.4115 -2.9586
20136SOL    HW266371   7.721   0.652   1.385  1.5886  0.0849  3.4185
20137SOL     OW66372   3.344   4.217   2.626  0.4087 -0.2362  0.1391
20137SOL    HW166373   3.266   4.162   2.615  0.7117 -0.6456  0.0047
20137SOL    HW266374   3.405   4.186   2.560 -0.1453  1.6317 -1.3316
20138SOL     OW66375   6.265   5.058   3.905 -0.2989  0.2538 -0.5260
20138SOL    HW166376   6.180   5.017   3.887  0.3229 -1.3685  0.0427
20138SOL    HW266377   6.251   5.106   3.987 -0.8537  0.5709 -0.8044
20139SOL     OW66378   4.680   7.771   7.233 -0.1442 -0.1226 -0.5101
20139SOL    HW166379   4.731   7.743   7.308 -0.8017 -0.2307 -0.0956
20139SOL    HW266380   4.600   7.719   7.237 -1.2424  1.5083  0.0810
20140SOL     OW66381   6.701   5.537   5.087 -0.0536 -0.3423  0.4649
20140SOL    HW166382   6.722   5.504   4.999  1.5641 -0.5021  0.8759
20140SOL    HW266383   6.777   5.590   5.111 -1.3354  1.3010  1.0073
20141SOL     OW66384   8.213   4.252   1.312  0.1965 -0.2142  0.5049
20141SOL    HW166385   8.282   4.259   1.246 -0.7634  1.4094 -0.3752
20141SOL    HW266386   8.202   4.158   1.324  3.5385 -0.5959  1.7667
20142SOL     OW66387   2.789   9.233   2.444 -0.6430 -0.1616  0.5055
20142SOL    HW166388   2.848   9.204   2.513  0.8149 -0.0416 -0.6570
20142SOL    HW266389   2.834   9.306   2.402 -1.0941 -0.7684 -1.1185
20143SOL     OW66390   3.062   0.239   2.474 -0.3906  0.1144  0.1100
20143SOL    HW166391   3.059   0.303   2.546 -0.3738  1.4780 -1.0542
20143SOL    HW266392   3.130   0.273   2.415  0.0028 -1.2904 -0.2790
20144SOL     OW66393   0.470   5.784   7.233 -0.4653  0.0647 -0.5127
20144SOL    HW166394   0.551   5.736   7.250  0.3021  1.0936 -1.1324
20144SOL    HW266395   0.488   5.834   7.153 -1.2659  1.2794  0.0380
20145SOL     OW66396   0.894   1.330   4.741  0.8358  0.9607 -0.3684
20145SOL    HW166397   0.948   1.385   4.798  0.5169  0.3927  0.4921
20145SOL    HW266398   0.857   1.391   4.677  1.0483  1.6280  0.1343
20146SOL     OW66399   6.250   7.781   3.814 -0.0071 -0.1868  0.5442
20146SOL    HW166400   6.169   7.767   3.862 -0.6619  0.2223 -0.4065
20146SOL    HW266401   6.227   7.845   3.746  1.0243 -0.3243  0.0428
20147SOL     OW66402   6.265   0.874   4.035  0.5352 -1.1079  0.6284
20147SOL    HW166403   6.250   0.963   4.006 -1.2252 -0.9034  1.9819
20147SOL    HW266404   6.357   0.871   4.059  0.7164  0.2114  0.1435
20148SOL     OW66405   7.404   4.002   4.617  0.3987  0.2149 -0.6726
20148SOL    HW166406   7.404   4.094   4.642 -2.5669  0.0841  0.1057
20148SOL    HW266407   7.382   4.002   4.524  0.4540  0.2821 -0.6859
20149SOL     OW66408   6.190   6.094   6.582  0.2274 -0.1028 -0.2589
20149SOL    HW166409   6.252   6.166   6.568  0.8343 -0.6283 -0.3234
20149SOL    HW266410   6.176   6.092   6.676  1.8961 -1.2497  0.0166
20150SOL     OW66411   5.830   1.451   1.582  0.1589  0.0260 -0.3038
20150SOL    HW166412   5.751   1.490   1.618  1.1424  1.2357  0.6429
20150SOL    HW266413   5.882   1.428   1.659  0.8365 -0.5363 -0.9122
20151SOL     OW66414   4.774   4.107   3.695 -0.2690 -0.3776  0.8954
20151SOL    HW166415   4.693   4.088   3.648 -0.0523 -0.8213  0.6943
20151SOL    HW266416   4.835   4.038   3.668 -0.5816 -1.5515  2.9422
20152SOL     OW66417   8.824   6.793   5.794 -0.1834  0.0490 -0.0363
20152SOL    HW166418   8.856   6.846   5.720  0.1783 -0.6391 -0.3769
20152SOL    HW266419   8.741   6.835   5.818 -0.6334 -0.0999 -1.2578
20153SOL     OW66420   2.157   2.701   0.240 -0.3582 -0.0495 -0.1973
20153SOL    HW166421   2.151   2.607   0.259 -1.1036  0.1517  0.5797
20153SOL    HW266422   2.119   2.710   0.152 -2.1338 -0.2196  0.5136
20154SOL     OW66423   2.268   7.492   7.019  0.1282  0.0014 -0.0263
20154SOL    HW166424   2.205   7.438   7.067  0.4255 -0.1045  0.2475
20154SOL    HW266425   2.249   7.476   6.927 -1.1342  0.9862  0.0329
20155SOL     OW66426   7.803   4.657   4.133 -0.6681 -0.3002 -0.5377
20155SOL    HW166427   7.775   4.566   4.124  0.0612 -0.6742  0.6922
20155SOL    HW266428   7.894   4.658   4.103 -0.5458 -0.0608 -0.1668
20156SOL     OW66429   7.143   1.838   6.149 -0.7988  0.3840 -0.5389
20156SOL    HW166430   7.218   1.894   6.128 -0.1480  0.0391  0.7721
20156SOL    HW266431   7.125   1.856   6.241  0.3653 -2.5521  0.3682
20157SOL     OW66432   7.584   1.985   7.102  0.1590  0.0422 -0.1277
20157SOL    HW166433   7.678   1.980   7.115  0.0112  0.1161  1.1589
20157SOL    HW266434   7.570   1.964   7.010  1.3834 -0.4929 -0.1990
20158SOL     OW66435   4.107   5.844   4.927 -0.1130  0.0523 -0.1059
20158SOL    HW166436   4.194   5.869   4.959 -0.3115  0.2604  0.2768
20158SOL    HW266437   4.076   5.922   4.881 -0.6474  0.4637  0.9106
20159SOL     OW66438   5.087   6.705   4.017  0.0267 -0.3083  0.1084
20159SOL    HW166439   5.107   6.614   4.037  2.4539  0.6074  2.4300
20159SOL    HW266440   5.035   6.736   4.091  0.0601  0.4332 -0.1607
20160SOL     OW66441   5.090   0.060   5.892  0.5359  0.3713  0.3351
20160SOL    HW166442   5.005   0.091   5.861  0.6335 -0.7278 -1.1545
20160SOL    HW266443   5.153   0.095   5.827  0.9177 -0.8474  0.0264
20161SOL     OW66444   8.482   5.183   1.870 -0.3965  0.0877 -0.0171
20161SOL    HW166445   8.551   5.207   1.932 -0.3098 -0.8033  0.2536
20161SOL    HW266446   8.401   5.210   1.913 -0.4627 -1.8452  1.2173
20162SOL     OW66447   6.362   3.638   8.999 -0.3705 -0.1419  0.0882
20162SOL    HW166448   6.302   3.564   8.996 -1.3436  0.6134  0.6306
20162SOL    HW266449   6.391   3.643   9.090 -0.1994  0.0563  0.0250
20163SOL     OW66450   6.680   4.829   5.782  0.2806  0.1192 -0.7561
20163SOL    HW166451   6.761   4.828   5.730  0.8293  2.8763 -0.1358
20163SOL    HW266452   6.677   4.917   5.819 -2.6426 -0.1571 -0.1027
20164SOL     OW66453   7.730   7.415   3.639 -0.6027 -0.0553  0.8634
20164SOL    HW166454   7.732   7.506   3.610  1.2442 -0.8565 -1.9933
20164SOL    HW266455   7.811   7.405   3.689  1.4755 -0.9297 -2.3139
20165SOL     OW66456   7.821   2.476   5.478 -0.0569  1.0404  0.1395
20165SOL    HW166457   7.743   2.422   5.468  0.2022  0.2248  2.0921
20165SOL    HW266458   7.803   2.555   5.426 -1.2853 -0.0123 -1.1032
20166SOL     OW66459   6.039   8.798   8.729 -0.4340  0.2787 -0.2875
20166SOL    HW166460   6.033   8.871   8.791 -3.0228 -0.4796  0.5043
20166SOL    HW266461   5.971   8.816   8.664 -0.8742 -1.2340 -0.2768
20167SOL     OW66462   6.562   0.866   9.079 -0.0002  0.5577  0.0348
20167SOL    HW166463   6.637   0.851   9.137 -0.6325 -2.1893  0.2716
20167SOL    HW266464   6.569   0.797   9.013 -0.9757  1.7808 -1.4086
20168SOL     OW66465   0.585   2.452   9.250 -0.2188 -0.0260  0.5265
20168SOL    HW166466   0.625   2.447   9.337 -0.4621 -2.1679  0.5787
20168SOL    HW266467   0.538   2.534   9.249 -1.5477 -0.6753  3.0383
20169SOL     OW66468   0.349   1.427   7.182 -0.0545  0.0505 -0.0441
20169SOL    HW166469   0.254   1.439   7.172 -0.1676  0.4132  1.2765
20169SOL    HW266470   0.381   1.515   7.202  0.4725 -0.1958  0.1906
20170SOL     OW66471   0.745   4.668   2.298  0.1021 -0.5517  0.5469
20170SOL    HW166472   0.654   4.655   2.323 -0.8342 -0.4582 -2.4262
20170SOL    HW266473   0.755   4.763   2.293  0.2249 -0.5686  0.4616
20171SOL     OW66474   7.530   3.042   3.143 -0.6538  0.0375 -0.2097
20171SOL    HW166475   7.597   3.102   3.175 -0.8303 -0.0098  0.2584
20171SOL    HW266476   7.451   3.066   3.192 -0.5447 -1.0768  0.5543
20172SOL     OW66477   8.832   7.907   8.842 -0.2215 -0.2108  0.6081
20172SOL    HW166478   8.894   7.837   8.824 -0.5012 -0.5321  0.8774
20172SOL    HW266479   8.884   7.987   8.843  0.2916 -0.5447  1.4663
20173SOL     OW66480   0.264   7.063   6.361  0.1628  0.3879 -0.2688
20173SOL    HW166481   0.304   7.132   6.309 -2.3156  1.4203 -0.9416
20173SOL    HW266482   0.262   6.987   6.302  1.1604  0.2932 -0.1920
20174SOL     OW66483   0.783   4.349   7.695 -0.1290  0.2005 -0.3573
20174SOL    HW166484   0.872   4.385   7.699 -0.1085  0.4828 -2.2273
20174SOL    HW266485   0.726   4.422   7.718 -0.0053  1.0837 -2.5644
20175SOL     OW66486   3.716   3.471   1.740 -0.0979 -0.0901  0.1502
20175SOL    HW166487   3.742   3.380   1.733  0.7134  0.1244  0.2724
20175SOL    HW266488   3.786   3.513   1.791 -0.2791  0.6662 -0.1997
20176SOL     OW66489   0.839   7.037   4.056 -0.4117  0.1151  0.3834
20176SOL    HW166490   0.908   6.976   4.029 -0.5130  0.2219 -0.1188
20176SOL    HW266491   0.883   7.096   4.118 -0.8337 -1.8086  2.6624
20177SOL     OW66492   7.496   8.738   8.873  0.3004  0.1624  0.1439
20177SOL    HW166493   7.553   8.815   8.867 -0.3312  0.5979 -0.4212
20177SOL    HW266494   7.489   8.721   8.966  1.1283  0.2732  0.2363
20178SOL     OW66495   5.287   3.096   3.008 -0.7291 -0.4215  0.6203
20178SOL    HW166496   5.343   3.142   3.070 -1.8629  0.3816  1.0742
20178SOL    HW266497   5.233   3.039   3.063 -2.0188  0.5881  0.4313
20179SOL     OW66498   7.309   6.968   7.756 -0.3591  0.5431 -0.3342
20179SOL    HW166499   7.222   6.939   7.785  0.8886 -1.7766  1.3749
20179SOL    HW266500   7.355   6.991   7.837  1.4182 -0.7035 -0.9417
20180SOL     OW66501   3.147   0.098   9.203  0.3512  0.0364  0.0875
20180SOL    HW166502   3.102   0.119   9.285  0.0216  1.1538 -0.3588
20180SOL    HW266503   3.129   0.172   9.146 -1.3286 -1.6766 -1.7913
20181SOL     OW66504   6.212   7.373   9.273 -0.2728  0.0560 -0.3076
20181SOL    HW166505   6.165   7.292   9.293  0.8063 -0.5722 -0.2465
20181SOL    HW266506   6.158   7.442   9.312 -1.5606 -0.5486 -0.9437
20182SOL     OW66507   0.080   8.167   7.349 -0.0949 -0.1820  0.2748
20182SOL    HW166508   0.082   8.115   7.429  1.0531 -0.3258  0.1640
20182SOL    HW266509   0.154   8.136   7.298  0.5877  1.4874  0.1708
20183SOL     OW66510   2.180   2.526   5.129 -0.4553  0.3718  0.5750
20183SOL    HW166511   2.200   2.567   5.045  1.0604  0.4913  0.9716
20183SOL    HW266512   2.226   2.579   5.194  1.0539 -1.5531  1.1591
20184SOL     OW66513   0.246   4.712   9.305  0.5985 -0.1421  0.2084
20184SOL    HW166514   0.337   4.741   9.304  0.5963 -0.0713  1.1135
20184SOL    HW266515   0.218   4.718   9.214  1.5780 -0.4348 -0.1253
20185SOL     OW66516   7.320   6.078   2.229  0.1375 -0.2015 -0.0130
20185SOL    HW166517   7.260   6.052   2.299  1.0128 -1.6650  0.2088
20185SOL    HW266518   7.277   6.049   2.149 -0.5788  0.9460 -0.0793
20186SOL     OW66519   7.324   3.028   7.527 -0.1897  0.3871  0.4236
20186SOL    HW166520   7.305   3.065   7.613  0.6613  0.1534  0.7295
20186SOL    HW266521   7.248   2.974   7.506  0.5783 -1.4895  2.1358
20187SOL     OW66522   7.007   4.782   2.792  0.2372  0.6464 -0.0592
20187SOL    HW166523   7.009   4.865   2.745  0.4346  0.5084 -0.2956
20187SOL    HW266524   7.042   4.803   2.879 -0.4838  0.9775  0.1604
20188SOL     OW66525   9.105   3.355   2.292 -0.2750  0.3743 -0.1148
20188SOL    HW166526   9.144   3.441   2.308 -0.4465  0.5493 -0.6228
20188SOL    HW266527   9.045   3.341   2.366  0.0741  0.5006  0.1909
20189SOL     OW66528   5.594   2.594   8.959 -0.4115  0.0619 -0.2612
20189SOL    HW166529   5.576   2.617   9.050 -0.0351  0.4696 -0.2851
20189SOL    HW266530   5.675   2.543   8.962 -1.9183 -2.4761 -0.0639
20190SOL     OW66531   2.197   4.517   5.979 -0.1430 -0.4240 -0.1279
20190SOL    HW166532   2.126   4.486   6.034  0.8414 -0.8594  0.9446
20190SOL    HW266533   2.261   4.553   6.041  0.1834  0.7675 -1.1202
20191SOL     OW66534   0.651   3.024   6.325 -0.1694  0.7428 -0.1121
20191SOL    HW166535   0.683   2.995   6.240 -2.0769  0.8514 -0.9307
20191SOL    HW266536   0.612   3.110   6.307 -0.9638  0.5821  0.7694
20192SOL     OW66537   6.773   2.293   7.016 -0.2342 -0.4341  0.3112
20192SOL    HW166538   6.771   2.200   7.038 -1.0214 -1.3822 -3.1104
20192SOL    HW266539   6.687   2.311   6.979  0.5570  1.1221 -0.9136
20193SOL     OW66540   5.109   7.953   0.224 -0.2280  0.3101  0.2063
20193SOL    HW166541   5.047   7.898   0.176  0.6055  0.5765 -1.2031
20193SOL    HW266542   5.176   7.891   0.256 -0.8131  0.1253  1.1185
20194SOL     OW66543   5.869   4.088   4.199  0.1762 -0.0717 -0.4555
20194SOL    HW166544   5.922   4.151   4.150  0.1185 -0.0695 -0.5157
20194SOL    HW266545   5.899   4.003   4.169 -1.3694 -0.0718 -2.1437
20195SOL     OW66546   6.788   3.849   3.446  0.0981  0.0339 -0.9146
20195SOL    HW166547   6.837   3.923   3.410 -2.0507  0.8011 -2.4709
20195SOL    HW266548   6.787   3.785   3.374 -3.4241  1.1721 -2.0441
20196SOL     OW66549   2.897   8.819   0.388  0.1585 -0.4728  0.1448
20196SOL    HW166550   2.870   8.808   0.296 -2.7657 -0.2602  0.8808
20196SOL    HW266551   2.845   8.755   0.436  1.2845 -0.2523  1.7362
20197SOL     OW66552   2.038   2.649   1.106 -0.3365 -0.8789  0.2918
20197SOL    HW166553   2.133   2.633   1.112  0.0663  0.8147 -0.8239
20197SOL    HW266554   2.014   2.616   1.020 -0.8280 -1.5233  0.6703
20198SOL     OW66555   6.209   8.986   1.724  0.2776 -0.9146 -0.3667
20198SOL    HW166556   6.250   9.032   1.651  0.7770 -1.2925 -0.3330
20198SOL    HW266557   6.153   9.052   1.766 -0.1775 -0.7559 -1.2095
20199SOL     OW66558   7.117   3.550   7.054  0.1366  0.0573  0.3592
20199SOL    HW166559   7.154   3.466   7.027 -0.5109 -0.9350  2.4045
20199SOL    HW266560   7.152   3.613   6.991  0.5207 -1.7501 -1.3056
20200SOL     OW66561   6.979   2.726   1.191 -0.2156 -0.1242 -0.2196
20200SOL    HW166562   6.935   2.797   1.238  1.6206  0.5224  0.6387
20200SOL    HW266563   7.010   2.767   1.110  0.1411 -0.1473 -0.0977
20201SOL     OW66564   3.341   7.739   6.285 -0.0031  0.5067 -0.0467
20201SOL    HW166565   3.406   7.780   6.341 -0.0875  1.0141 -0.3177
20201SOL    HW266566   3.256   7.769   6.319 -0.2281 -1.6702  1.5321
20202SOL     OW66567   1.347   8.514   0.910 -0.2414 -0.1361 -0.0636
20202SOL    HW166568   1.412   8.463   0.861  0.5242  0.7014  0.0523
20202SOL    HW266569   1.280   8.537   0.846  1.0841  1.5218 -0.9129
20203SOL     OW66570   7.015   0.796   1.612 -0.3574 -0.2851  0.7331
20203SOL    HW166571   6.966   0.808   1.530  1.0189  0.3879 -0.0246
20203SOL    HW266572   7.038   0.884   1.640 -1.9221 -0.3905  2.6165
20204SOL     OW66573   1.067   8.786   7.131  0.5697  0.1512 -0.2751
20204SOL    HW166574   1.151   8.750   7.103 -0.0639 -1.2699 -0.4577
20204SOL    HW266575   1.008   8.711   7.132 -0.6625  1.0832  0.0232
20205SOL     OW66576   3.739   4.322   2.918  0.2231  0.5857 -0.8052
20205SOL    HW166577   3.644   4.334   2.915  0.2872  1.2957 -0.2801
20205SOL    HW266578   3.765   4.357   3.003  1.1592  1.9810 -1.6235
20206SOL     OW66579   4.495   0.837   9.056 -0.2542  0.2176 -0.1634
20206SOL    HW166580   4.565   0.898   9.080  0.8627 -0.8158 -0.6691
20206SOL    HW266581   4.522   0.804   8.970 -1.5929  0.0986 -0.5553
20207SOL     OW66582   3.386   9.287   1.297 -0.6761  0.1061 -0.2050
20207SOL    HW166583   3.411   9.304   1.388 -0.1416  1.6975 -0.6184
20207SOL    HW266584   3.291   9.300   1.296 -0.6678  0.2093  0.1044
20208SOL     OW66585   4.320   5.246   5.606  0.3793 -0.3281  0.2346
20208SOL    HW166586   4.321   5.335   5.571  2.2735 -0.5097 -0.3007
20208SOL    HW266587   4.394   5.203   5.563 -0.5222 -2.1903  0.4382
20209SOL     OW66588   7.456   8.886   6.147 -0.4029 -0.1315 -0.0962
20209SOL    HW166589   7.454   8.918   6.056 -1.9999  1.9513  0.5851
20209SOL    HW266590   7.498   8.958   6.195  0.0295 -1.0362  0.8970
20210SOL     OW66591   7.504   9.173   7.304  0.6452 -0.5686  0.1710
20210SOL    HW166592   7.474   9.085   7.281  1.9600 -0.7209 -1.1243
20210SOL    HW266593   7.425   9.227   7.298  0.1529 -1.3549 -0.8002
20211SOL     OW66594   8.156   8.878   0.244  0.2045  0.2441 -0.1417
20211SOL    HW166595   8.092   8.808   0.255 -0.6478  1.0360  0.0015
20211SOL    HW266596   8.105   8.959   0.247  1.3178  0.9477  0.9219
20212SOL     OW66597   7.144   0.885   4.663 -0.1465  0.0436  0.6008
20212SOL    HW166598   7.224   0.843   4.693 -0.6733 -1.2654  0.2223
20212SOL    HW266599   7.170   0.929   4.581  0.1659 -0.4444  0.4338
20213SOL     OW66600   1.767   3.600   5.260 -0.6230 -0.4308 -0.2938
20213SOL    HW166601   1.819   3.663   5.310  0.2573 -2.5565  1.6319
20213SOL    HW266602   1.827   3.567   5.193 -1.2149  0.9821 -1.5937
20214SOL     OW66603   3.288   4.104   3.671  0.2949 -0.1755  0.1936
20214SOL    HW166604   3.277   4.029   3.613 -1.5224 -0.7911  1.2778
20214SOL    HW266605   3.358   4.155   3.630 -0.9774 -0.4940 -2.6603
20215SOL     OW66606   9.097   4.104   8.643  0.6138  0.2638  0.1291
20215SOL    HW166607   9.135   4.092   8.556  0.1689 -0.3848  0.0100
20215SOL    HW266608   9.005   4.078   8.633  0.5836  0.0670  0.8189
20216SOL     OW66609   5.578   0.480   2.157  0.4651  0.0700 -0.4392
20216SOL    HW166610   5.513   0.550   2.150 -0.9489 -0.7906  2.4149
20216SOL    HW266611   5.652   0.520   2.205 -0.5217 -0.3771  1.5796
20217SOL     OW66612   5.060   6.521   7.494  0.0871  0.2770 -0.0476
20217SOL    HW166613   5.056   6.611   7.528 -0.4013  0.0136  0.6149
20217SOL    HW266614   4.973   6.505   7.457 -0.4044 -0.4878  1.3569
20218SOL     OW66615   5.323   4.258   6.868 -0.0494  0.0898 -0.2207
20218SOL    HW166616   5.301   4.165   6.856 -0.7450  0.2800 -0.4879
20218SOL    HW266617   5.348   4.288   6.780 -0.7288  0.3738 -0.3272
20219SOL     OW66618   9.171   7.651   2.751  0.2816  0.1163  0.4927
20219SOL    HW166619   9.136   7.736   2.777 -1.8716 -0.7899  0.7234
20219SOL    HW266620   9.135   7.637   2.663  2.2814  0.2884 -0.4238
20220SOL     OW66621   7.935   0.181   3.819 -0.7102  0.2449  0.0662
20220SOL    HW166622   7.942   0.139   3.905 -0.7717 -1.4367 -0.7147
20220SOL    HW266623   7.841   0.186   3.802 -0.6992  0.6073  0.1117
20221SOL     OW66624   7.711   4.415   7.432 -0.0301 -0.3846  0.0137
20221SOL    HW166625   7.641   4.363   7.471 -0.2475  0.1900  0.4116
20221SOL    HW266626   7.699   4.502   7.469  2.5808 -0.8681  2.3111
20222SOL     OW66627   9.369   4.687   0.661 -0.2863  0.2514 -0.1437
20222SOL    HW166628   9.290   4.669   0.711 -0.4485  1.9558  0.2603
20222SOL    HW266629   9.338   4.706   0.573 -0.2848  0.3951 -0.1138
20223SOL     OW66630   8.831   6.985   6.099 -0.0538  0.8336  0.3589
20223SOL    HW166631   8.795   6.999   6.187 -0.6733  0.5002  0.1673
20223SOL    HW266632   8.755   6.956   6.047  0.4774  0.1920 -0.0765
20224SOL     OW66633   2.299   3.615   1.052 -0.5329 -0.7255 -0.1387
20224SOL    HW166634   2.267   3.546   0.995  0.5446 -0.9581 -0.4806
20224SOL    HW266635   2.373   3.652   1.005  0.5103 -1.0534  1.1972
20225SOL     OW66636   8.710   7.947   5.174  0.2106  0.5808 -0.6336
20225SOL    HW166637   8.781   7.979   5.120  1.2832 -0.1902  0.2656
20225SOL    HW266638   8.635   7.941   5.115  1.4186 -0.5672 -2.1397
20226SOL     OW66639   6.181   4.768   9.152 -0.1341 -0.1081  0.2701
20226SOL    HW166640   6.251   4.708   9.126  0.8414  0.6733  0.9875
20226SOL    HW266641   6.191   4.775   9.247 -0.9087  0.3626  0.3217
20227SOL     OW66642   4.359   6.878   9.271 -0.1724  0.1520 -0.2710
20227SOL    HW166643   4.376   6.825   9.193 -2.0591 -0.8802 -0.0219
20227SOL    HW266644   4.378   6.820   9.344  1.7094  1.1533  0.1189
20228SOL     OW66645   8.220   2.845   5.061 -0.2934 -0.0076  0.1472
20228SOL    HW166646   8.167   2.868   5.138  1.1373 -0.0775  1.1917
20228SOL    HW266647   8.299   2.805   5.097  1.4707  2.0325 -1.2113
20229SOL     OW66648   0.169   3.538   5.124  0.5414 -0.4133 -0.5993
20229SOL    HW166649   0.246   3.482   5.114 -0.9693 -2.7165 -0.0815
20229SOL    HW266650   0.185   3.586   5.205  1.9260  0.0266 -1.1048
20230SOL     OW66651   6.857   8.290   0.071  0.0691  0.0206 -0.3803
20230SOL    HW166652   6.880   8.202   0.040 -1.5409 -0.7526  0.5055
20230SOL    HW266653   6.775   8.310   0.027 -0.9862 -0.0765  1.4383
20231SOL     OW66654   3.519   3.100   7.827 -0.0827 -0.1126  0.1617
20231SOL    HW166655   3.592   3.161   7.814  0.5748 -0.3939  2.1779
20231SOL    HW266656   3.441   3.154   7.829  0.4154  0.5873  1.1561
20232SOL     OW66657   7.373   7.223   2.012  0.0965  0.3624 -0.0140
20232SOL    HW166658   7.322   7.242   2.091 -0.6146 -0.6940 -0.1971
20232SOL    HW266659   7.308   7.198   1.947  0.8712 -2.4237  0.1430
20233SOL     OW66660   3.571   7.808   2.930 -0.6422  0.0136 -0.5312
20233SOL    HW166661   3.586   7.715   2.911 -2.4362 -0.3855 -0.2063
20233SOL    HW266662   3.549   7.809   3.024  3.9360  1.4072  0.7783
20234SOL     OW66663   0.023   4.964   5.190  0.5030  0.6897  0.2033
20234SOL    HW166664  -0.024   5.047   5.199  0.0461  0.5467 -0.7303
20234SOL    HW266665   0.107   4.988   5.151  0.3832  0.7255 -0.0385
20235SOL     OW66666   3.151   6.133   1.422  0.0698 -0.3652 -0.3216
20235SOL    HW166667   3.070   6.093   1.454 -0.3949  0.4837 -0.4106
20235SOL    HW266668   3.210   6.132   1.497 -0.1315 -0.7089 -0.1677
20236SOL     OW66669   8.620   5.234   6.736  0.2142 -0.5231 -0.2208
20236SOL    HW166670   8.577   5.226   6.652  0.9170  0.8898 -0.7383
20236SOL    HW266671   8.678   5.157   6.741 -0.2619 -0.9204 -0.7451
20237SOL     OW66672   4.118   7.205   4.064 -0.8013 -0.1406  0.4496
20237SOL    HW166673   4.174   7.275   4.029 -1.6361  0.2394 -0.1653
20237SOL    HW266674   4.125   7.134   4.000  0.2592 -0.7380  1.2124
20238SOL     OW66675   4.041   4.140   0.901 -0.4896 -0.3260  0.4775
20238SOL    HW166676   4.023   4.106   0.989  0.0584  0.3075  0.8393
20238SOL    HW266677   4.127   4.181   0.908 -1.6139  2.2478  0.3981
20239SOL     OW66678   7.741   5.677   5.278  0.6156 -0.2288 -0.9108
20239SOL    HW166679   7.789   5.603   5.316  1.7533 -0.9013 -3.4491
20239SOL    HW266680   7.805   5.748   5.274 -0.1682  0.6126  0.4976
20240SOL     OW66681   0.739   8.636   7.158  0.2064 -0.2764  0.1226
20240SOL    HW166682   0.655   8.632   7.113 -0.2002  1.4460  0.6421
20240SOL    HW266683   0.767   8.545   7.166 -1.8144 -0.9212  0.3238
20241SOL     OW66684   6.913   4.126   6.644  0.2414  0.1058  0.1407
20241SOL    HW166685   6.830   4.081   6.653  1.0357 -1.4709 -0.0571
20241SOL    HW266686   6.939   4.147   6.734 -0.4095  0.7337  0.1938
20242SOL     OW66687   7.597   6.489   4.346  0.4260  0.1289  0.0837
20242SOL    HW166688   7.680   6.486   4.394  0.9834  0.4885 -0.8116
20242SOL    HW266689   7.621   6.467   4.256 -0.5558 -0.3380 -0.0713
20243SOL     OW66690   3.478   6.454   2.647 -0.0570 -0.3765 -0.4276
20243SOL    HW166691   3.566   6.419   2.659 -0.6586 -1.6090  0.7346
20243SOL    HW266692   3.423   6.376   2.634 -0.8982  0.4029 -1.8125
20244SOL     OW66693   0.959   0.642   6.587  0.6527 -0.0312 -0.3009
20244SOL    HW166694   0.943   0.736   6.585  1.0740  0.0611  0.3338
20244SOL    HW266695   1.048   0.633   6.623  0.6761 -0.6636 -0.4928
20245SOL     OW66696   6.646   4.627   6.394 -0.1045 -0.5377  0.2691
20245SOL    HW166697   6.552   4.616   6.384 -0.0372 -0.5312 -0.3932
20245SOL    HW266698   6.667   4.586   6.478 -0.4685 -1.8765 -0.2848
20246SOL     OW66699   0.767   0.394   0.055 -0.6766  0.1479 -0.4492
20246SOL    HW166700   0.727   0.342   0.124 -0.9817 -0.5903 -1.1673
20246SOL    HW266701   0.754   0.343  -0.025  1.4928  0.0029 -0.7529
20247SOL     OW66702   9.225   1.872   9.025 -0.0712 -0.6748 -0.0325
20247SOL    HW166703   9.130   1.879   9.037 -0.4142  0.0169 -2.6569
20247SOL    HW266704   9.238   1.782   8.993  0.3174 -1.1024  1.2618
20248SOL     OW66705   7.570   8.311   8.518  0.6046 -0.0951 -0.0427
20248SOL    HW166706   7.537   8.400   8.531  1.8909  0.6498 -1.5787
20248SOL    HW266707   7.507   8.255   8.563 -2.1072  1.3157 -1.8625
20249SOL     OW66708   7.731   7.807   1.889  0.1906  0.3532 -0.8877
20249SOL    HW166709   7.669   7.788   1.819  1.9588 -1.0650 -2.1370
20249SOL    HW266710   7.817   7.797   1.849  1.2698 -0.3686  1.4451
20250SOL     OW66711   6.629   5.459   6.394 -0.0703 -0.0606 -0.3279
20250SOL    HW166712   6.569   5.448   6.468  0.7181 -0.4681  0.2559
20250SOL    HW266713   6.659   5.370   6.374 -0.5372 -0.0040 -1.3766
20251SOL     OW66714   1.860   4.677   7.591  0.4424  0.0330 -0.1785
20251SOL    HW166715   1.826   4.756   7.548  2.5092  1.9215  1.4867
20251SOL    HW266716   1.781   4.625   7.610 -1.0238  1.8691 -0.8976
20252SOL     OW66717   6.188   7.651   8.432  0.3493  0.4498 -0.6550
20252SOL    HW166718   6.256   7.716   8.450  0.7484 -0.1221 -0.0117
20252SOL    HW266719   6.220   7.571   8.474 -1.6693  0.6847  1.5597
20253SOL     OW66720   8.831   3.965   4.201  0.5715 -0.0691  0.0859
20253SOL    HW166721   8.864   4.033   4.260  0.4549 -0.4270  0.5706
20253SOL    HW266722   8.829   3.886   4.255 -0.9654 -0.0893  0.0541
20254SOL     OW66723   2.128   9.170   4.236 -0.0400  0.6705 -0.1083
20254SOL    HW166724   2.102   9.088   4.195  1.0129  0.2044  0.1427
20254SOL    HW266725   2.188   9.145   4.306 -1.1579  1.5074  1.2103
20255SOL     OW66726   6.716   2.459   5.669 -0.0056 -0.1513 -0.5868
20255SOL    HW166727   6.738   2.400   5.597  0.6911  0.6517 -1.0460
20255SOL    HW266728   6.648   2.516   5.635 -0.7682 -0.7571 -0.1016
20256SOL     OW66729   0.197   8.103   4.544  0.6869 -0.1896  0.3730
20256SOL    HW166730   0.134   8.055   4.597  1.4088 -0.6173  0.8634
20256SOL    HW266731   0.282   8.072   4.574  1.1957  1.6244  0.9413
20257SOL     OW66732   7.966   8.201   3.217  0.3233 -0.0133  0.9607
20257SOL    HW166733   8.015   8.172   3.140 -0.2650 -1.8194  1.2028
20257SOL    HW266734   7.890   8.247   3.181  0.2782 -0.4617  0.4635
20258SOL     OW66735   3.371   8.750   9.134  0.2637 -0.1749 -0.2311
20258SOL    HW166736   3.423   8.829   9.124 -0.6023  0.3996 -0.2760
20258SOL    HW266737   3.435   8.681   9.154  1.0722  0.4230 -0.7266
20259SOL     OW66738   0.294   3.886   5.135 -0.6138 -0.1787 -0.2156
20259SOL    HW166739   0.201   3.903   5.119 -0.7293 -2.1729 -2.2113
20259SOL    HW266740   0.295   3.820   5.205 -0.7656 -0.6744 -0.6702
20260SOL     OW66741   4.063   3.296   1.906 -0.3430 -0.0646 -0.5237
20260SOL    HW166742   4.036   3.280   1.815  1.7327 -0.2056 -1.1676
20260SOL    HW266743   4.009   3.236   1.957 -0.1472 -1.5025 -1.8951
20261SOL     OW66744   8.242   3.359   6.255 -0.4107 -0.2281 -0.7811
20261SOL    HW166745   8.233   3.454   6.262 -1.0220 -0.2261 -1.5233
20261SOL    HW266746   8.262   3.330   6.345 -0.3252  0.5813 -0.5310
20262SOL     OW66747   0.541   4.085   6.565  0.2429  0.3473 -0.4856
20262SOL    HW166748   0.485   4.038   6.627 -0.1506  0.1211 -1.0032
20262SOL    HW266749   0.629   4.074   6.600 -0.0372  0.7942  0.4015
20263SOL     OW66750   1.639   5.812   2.155 -0.2356  0.3556  0.2458
20263SOL    HW166751   1.692   5.756   2.211 -0.9863 -0.1013  0.5238
20263SOL    HW266752   1.700   5.849   2.092  0.4010 -0.1706  0.5499
20264SOL     OW66753   4.900   4.650   4.440 -0.1341 -0.4485 -0.1587
20264SOL    HW166754   4.821   4.702   4.421 -0.2345 -0.6101 -0.1859
20264SOL    HW266755   4.964   4.714   4.469 -0.1126 -0.2479 -0.6376
20265SOL     OW66756   1.920   8.803   1.778 -0.1489 -0.5854  0.0054
20265SOL    HW166757   1.888   8.829   1.864 -0.7024 -0.7631 -0.1405
20265SOL    HW266758   1.842   8.771   1.732 -0.1479  0.8190 -1.0567
20266SOL     OW66759   8.577   5.842   6.194 -0.0374  0.7333  0.3295
20266SOL    HW166760   8.627   5.797   6.262 -0.1603  0.5577  0.3037
20266SOL    HW266761   8.630   5.832   6.115 -1.0117 -1.1178 -0.1330
20267SOL     OW66762   9.339   2.840   2.472 -0.0232  0.0366  0.5321
20267SOL    HW166763   9.335   2.841   2.567 -1.3351 -0.3864  0.5028
20267SOL    HW266764   9.280   2.911   2.445 -0.2257 -0.3152  0.0377
20268SOL     OW66765   4.760   2.497   5.289 -0.3614 -0.3528  0.7196
20268SOL    HW166766   4.688   2.558   5.309  0.1285 -0.1819  2.0279
20268SOL    HW266767   4.836   2.534   5.334  0.2126 -1.3226  0.5674
20269SOL     OW66768   5.901   2.171   5.765 -0.2341 -0.3604 -0.3247
20269SOL    HW166769   5.848   2.167   5.844  0.6036 -0.8842  0.2163
20269SOL    HW266770   5.855   2.235   5.709 -0.5698  0.3836  0.7687
20270SOL     OW66771   4.445   4.343   0.067 -0.2202 -0.5432 -0.4268
20270SOL    HW166772   4.481   4.431   0.075  2.0582 -1.3823 -0.7703
20270SOL    HW266773   4.351   4.356   0.057 -0.1527  1.7492  1.2867
20271SOL     OW66774   1.040   2.633   5.884  0.3587 -0.2059  0.4890
20271SOL    HW166775   1.027   2.619   5.790 -0.7804  2.0611  0.2224
20271SOL    HW266776   0.998   2.558   5.926  0.3493 -0.9449 -0.7870
20272SOL     OW66777   6.152   8.977   4.714 -0.3001  0.1497  0.2501
20272SOL    HW166778   6.243   8.983   4.745 -0.5553 -1.3333  1.3800
20272SOL    HW266779   6.150   8.898   4.661 -0.7294  0.7179 -0.5968
20273SOL     OW66780   0.795   3.788   3.131  0.1261 -0.1870 -0.2678
20273SOL    HW166781   0.841   3.832   3.059  1.2950 -0.8091  0.0722
20273SOL    HW266782   0.844   3.707   3.145  0.5868  0.3938  1.9060
20274SOL     OW66783   2.104   7.251   0.651 -0.0988  0.2277  0.1577
20274SOL    HW166784   2.045   7.290   0.586  0.3476  1.5851  0.5369
20274SOL    HW266785   2.188   7.294   0.636  0.4157 -0.5786  0.6319
20275SOL     OW66786   6.670   4.260   4.861 -0.2491  0.3867  0.0252
20275SOL    HW166787   6.633   4.174   4.882  1.4234 -0.5282 -0.5191
20275SOL    HW266788   6.692   4.254   4.768 -0.0978  1.4016 -0.0097
20276SOL     OW66789   3.934   6.720   6.217  0.4288 -0.4604 -0.0073
20276SOL    HW166790   3.961   6.660   6.286 -1.4928  0.2496  1.4545
20276SOL    HW266791   3.875   6.781   6.260 -1.6226 -0.5466 -2.4408
20277SOL     OW66792   4.205   6.814   7.095 -0.1234 -0.4746 -0.2965
20277SOL    HW166793   4.161   6.729   7.087  2.6302 -2.0787  0.2361
20277SOL    HW266794   4.229   6.820   7.187  0.6604  0.3653 -0.5409
20278SOL     OW66795   4.126   9.059   9.169  0.1328 -0.8561  0.2549
20278SOL    HW166796   4.207   9.032   9.212 -0.2306 -2.2225  0.1261
20278SOL    HW266797   4.135   9.154   9.159  1.4217 -0.8923  0.8372
20279SOL     OW66798   3.604   7.151   5.573 -0.5898  0.2841  0.0441
20279SOL    HW166799   3.616   7.077   5.633 -0.6526  1.5392  1.7005
20279SOL    HW266800   3.588   7.111   5.488 -3.0157 -1.7115  1.2770
20280SOL     OW66801   6.164   5.182   6.961  0.5822  0.2097  0.1832
20280SOL    HW166802   6.149   5.226   6.877 -0.3040 -0.4694 -0.0240
20280SOL    HW266803   6.183   5.253   7.022 -1.4879  0.9804  0.0037
20281SOL     OW66804   7.886   3.097   6.944  0.3172  0.2106  0.7469
20281SOL    HW166805   7.796   3.130   6.934  0.8919  1.3806 -0.9388
20281SOL    HW266806   7.888   3.017   6.892  0.4684  0.6563  0.0539
20282SOL     OW66807   0.127   7.859   9.116  1.2257  0.2749  0.0340
20282SOL    HW166808   0.044   7.888   9.153  1.4544 -1.0250  1.6751
20282SOL    HW266809   0.193   7.906   9.166  1.5050  0.4341 -0.4814
20283SOL     OW66810   5.451   2.237   5.022 -0.5818  0.0115 -0.4226
20283SOL    HW166811   5.381   2.173   5.034  0.6251 -1.2314  0.2349
20283SOL    HW266812   5.503   2.203   4.948 -0.0216  0.3100 -0.1757
20284SOL     OW66813   6.988   1.950   1.682  0.3661  0.1523  0.5383
20284SOL    HW166814   7.061   1.995   1.640  3.2426 -1.0018  3.8473
20284SOL    HW266815   6.967   2.005   1.758 -1.1011 -0.4094  0.5613
20285SOL     OW66816   8.812   5.542   5.960  0.0121 -0.2447  0.5579
20285SOL    HW166817   8.825   5.448   5.949  0.5918 -0.1324  0.2288
20285SOL    HW266818   8.899   5.575   5.985 -0.4870  0.0107  2.0390
20286SOL     OW66819   1.269   3.690   5.102 -0.0980  0.2316  0.0890
20286SOL    HW166820   1.242   3.598   5.106 -0.0920  0.0678 -2.2736
20286SOL    HW266821   1.356   3.691   5.143  1.3905 -1.5376 -2.6470
20287SOL     OW66822   6.078   6.422   2.944  0.2116  0.5550  0.0460
20287SOL    HW166823   6.079   6.399   2.851  1.2383 -0.0163  0.1764
20287SOL    HW266824   5.987   6.443   2.963 -0.4042 -1.3373 -0.6140
20288SOL     OW66825   9.195   8.156   3.650  0.0056  0.0298 -0.2205
20288SOL    HW166826   9.264   8.223   3.652 -0.4117  0.4723 -0.3722
20288SOL    HW266827   9.126   8.193   3.704  0.2770 -0.8513  0.7633
20289SOL     OW66828   1.863   5.720   3.782 -0.2142  0.1132  0.1916
20289SOL    HW166829   1.790   5.780   3.764  0.0860  0.2626 -0.5613
20289SOL    HW266830   1.835   5.637   3.745  0.2352  0.3174 -0.6238
20290SOL     OW66831   7.266   0.562   3.893  0.0325 -0.4532 -0.5599
20290SOL    HW166832   7.355   0.593   3.907  0.2284 -1.3441  0.2936
20290SOL    HW266833   7.241   0.597   3.808  0.7472  0.8106 -0.2618
20291SOL     OW66834   8.415   7.794   8.964  0.4438 -1.1128 -0.2766
20291SOL    HW166835   8.339   7.750   9.002  0.8254 -1.4397  0.1215
20291SOL    HW266836   8.414   7.881   9.004 -1.0843 -0.2410 -2.0719
20292SOL     OW66837   5.996   2.690   0.542 -0.1742  0.1054  0.0195
20292SOL    HW166838   5.959   2.644   0.466  0.2584  1.6551 -1.1865
20292SOL    HW266839   5.979   2.632   0.616 -1.7172 -0.9068 -1.0667
20293SOL     OW66840   6.707   3.702   6.425 -0.0287  0.6219  0.2783
20293SOL    HW166841   6.677   3.702   6.334  0.6295  0.9276  0.0552
20293SOL    HW266842   6.792   3.658   6.422 -0.2049  0.2313  0.8186
20294SOL     OW66843   1.487   9.053   0.701  1.0320  0.2095  0.5714
20294SOL    HW166844   1.506   9.034   0.609  1.0455  1.1337  0.3762
20294SOL    HW266845   1.391   9.062   0.705  0.9243 -0.9610  0.8758
20295SOL     OW66846   1.424   1.114   6.484  0.5402 -0.3373 -0.0588
20295SOL    HW166847   1.464   1.201   6.485  0.5403 -0.3379  0.4343
20295SOL    HW266848   1.497   1.055   6.503  0.0837 -0.2255  2.3978
20296SOL     OW66849   9.020   5.543   1.331  0.3639  0.0964  0.5213
20296SOL    HW166850   9.024   5.466   1.273  1.4666  0.8081 -0.4020
20296SOL    HW266851   9.020   5.506   1.419  0.6704 -0.9807  0.0955
20297SOL     OW66852   7.195   4.298   3.021 -0.4559 -0.2530  0.2316
20297SOL    HW166853   7.131   4.362   3.050 -0.4642  0.1353 -0.6174
20297SOL    HW266854   7.263   4.349   2.978 -1.6466 -0.9288 -2.6884
20298SOL     OW66855   1.185   3.663   6.363 -0.1744 -0.1638  0.5806
20298SOL    HW166856   1.244   3.587   6.356  0.8931  0.6132  0.8363
20298SOL    HW266857   1.231   3.724   6.421  0.4456  1.9352 -1.8988
20299SOL     OW66858   2.114   3.353   5.097  0.4309 -0.4461  0.4561
20299SOL    HW166859   2.122   3.288   5.027  0.5344  0.8904 -0.8036
20299SOL    HW266860   2.023   3.348   5.124 -0.8489  1.9701 -2.7955
20300SOL     OW66861   2.317   0.828   1.074  0.2781 -0.2320 -0.7753
20300SOL    HW166862   2.278   0.913   1.096  1.4755  0.5090 -1.4362
20300SOL    HW266863   2.411   0.842   1.082  0.4917 -1.5129 -0.8780
20301SOL     OW66864   9.316   3.144   4.761 -0.6084 -0.5675  0.0076
20301SOL    HW166865   9.283   3.084   4.695  1.2165 -0.9372 -0.6283
20301SOL    HW266866   9.314   3.094   4.843 -1.2925 -0.6760 -0.0677
20302SOL     OW66867   1.136   3.710   2.592  0.4390 -0.8061  0.6913
20302SOL    HW166868   1.121   3.743   2.504  2.9109 -1.3974 -0.0333
20302SOL    HW266869   1.103   3.779   2.649  0.6153  0.4990 -0.7234
20303SOL     OW66870   3.129   5.542   7.937 -0.1672 -0.1932  0.1267
20303SOL    HW166871   3.102   5.634   7.931  0.8478  0.1891  1.0471
20303SOL    HW266872   3.123   5.510   7.848 -0.4717  0.7898 -0.2255
20304SOL     OW66873   2.087   3.808   7.738 -0.2287 -0.0115 -0.1167
20304SOL    HW166874   1.998   3.787   7.709 -0.0448 -1.2073  0.1132
20304SOL    HW266875   2.078   3.830   7.830 -0.2665 -0.3059 -0.0497
20305SOL     OW66876   1.582   7.778   7.133 -0.1207 -0.4019 -0.0671
20305SOL    HW166877   1.576   7.846   7.066  0.9403  0.1569  0.3885
20305SOL    HW266878   1.645   7.811   7.196 -1.1025 -0.9234  1.2370
20306SOL     OW66879   8.857   8.305   7.760  0.3137  0.6747 -0.1353
20306SOL    HW166880   8.798   8.373   7.727 -0.1017  0.8772  0.9816
20306SOL    HW266881   8.894   8.343   7.839  1.2525  0.1839 -0.3317
20307SOL     OW66882   1.286   7.335   2.268 -0.2172  0.0805 -0.6789
20307SOL    HW166883   1.329   7.376   2.343  0.2252  0.3856 -1.0965
20307SOL    HW266884   1.341   7.359   2.193 -0.4684 -0.5074 -1.0519
20308SOL     OW66885   4.442   2.134   1.119  0.1736 -0.5098 -0.2944
20308SOL    HW166886   4.404   2.053   1.152 -0.2562 -0.4894 -0.7322
20308SOL    HW266887   4.518   2.106   1.069  2.4635 -0.4169  2.7858
20309SOL     OW66888   0.676   7.624   1.855  0.0294  0.3616 -0.5455
20309SOL    HW166889   0.634   7.697   1.899 -0.4704 -0.6304  0.6757
20309SOL    HW266890   0.770   7.644   1.858 -0.0706  0.7226  0.2022
20310SOL     OW66891   7.075   8.708   4.498 -0.4861 -0.1043 -0.2257
20310SOL    HW166892   7.109   8.702   4.587 -0.9006  1.4916  0.0683
20310SOL    HW266893   7.140   8.760   4.451 -0.8820  0.1217 -0.5251
20311SOL     OW66894   4.998   0.810   0.379  0.1649 -0.0182 -0.3642
20311SOL    HW166895   5.022   0.786   0.469 -1.5149  1.9462  0.7120
20311SOL    HW266896   4.931   0.747   0.354 -0.4464  0.3100  0.3838
20312SOL     OW66897   8.646   2.817   6.509  0.6642 -0.2571 -0.3872
20312SOL    HW166898   8.687   2.825   6.596 -1.5414 -0.7410  0.7625
20312SOL    HW266899   8.661   2.903   6.469  1.8981 -0.0826  0.3759
20313SOL     OW66900   8.083   7.249   6.404 -0.5263 -0.4842  0.7104
20313SOL    HW166901   8.004   7.216   6.446 -0.6507  1.2285  1.9298
20313SOL    HW266902   8.070   7.344   6.399  0.8520 -0.3117 -0.3720
20314SOL     OW66903   3.824   1.176   1.816  0.5537  0.3314  0.1428
20314SOL    HW166904   3.835   1.146   1.726 -0.1168  0.6861 -0.0582
20314SOL    HW266905   3.730   1.191   1.826  0.5869  0.0560  0.9771
20315SOL     OW66906   1.490   4.286   8.700  0.4795 -0.0728  0.1286
20315SOL    HW166907   1.534   4.310   8.781 -0.9119  2.4652  0.2381
20315SOL    HW266908   1.468   4.194   8.711  1.2708 -0.0655  2.1795
20316SOL     OW66909   6.362   8.234   3.024  0.2141  0.5199  0.1556
20316SOL    HW166910   6.365   8.157   3.081  2.2444  0.2643 -0.2298
20316SOL    HW266911   6.448   8.274   3.033  0.9495  0.0187 -3.2852
20317SOL     OW66912   3.579   4.568   6.751  0.4225  0.3218  0.0508
20317SOL    HW166913   3.598   4.576   6.658 -1.3685  0.5985 -0.3214
20317SOL    HW266914   3.563   4.658   6.780 -2.1240 -0.0248 -0.1082
20318SOL     OW66915   4.032   4.872   5.081 -1.5200  0.6330  0.8736
20318SOL    HW166916   3.977   4.905   5.152 -0.2961 -0.5476  2.4473
20318SOL    HW266917   4.090   4.808   5.123  0.3797  1.0833 -0.8692
20319SOL     OW66918   2.969   8.513   4.566 -0.1052 -0.6386 -0.9982
20319SOL    HW166919   3.038   8.480   4.622  1.3656 -0.6871 -2.7441
20319SOL    HW266920   3.001   8.599   4.537 -0.7479 -0.6809 -1.8739
20320SOL     OW66921   8.302   4.425   3.768  0.4756 -0.5481  0.6941
20320SOL    HW166922   8.366   4.357   3.750  1.5052  0.6908 -0.6066
20320SOL    HW266923   8.231   4.380   3.813  0.3965 -2.7899 -1.4598
20321SOL     OW66924   5.760   4.390   2.199 -0.1297  0.0462  0.2408
20321SOL    HW166925   5.724   4.438   2.273  0.2168 -0.0614  0.4807
20321SOL    HW266926   5.797   4.310   2.238 -1.0090 -0.5924 -0.1857
20322SOL     OW66927   5.380   7.363   3.249  0.1515  0.9592 -0.1274
20322SOL    HW166928   5.377   7.296   3.317 -0.0002  1.1371  0.0405
20322SOL    HW266929   5.446   7.425   3.280 -1.2694  2.0624  0.8083
20323SOL     OW66930   1.361   6.188   3.851  0.3090  0.1229  0.1282
20323SOL    HW166931   1.399   6.156   3.933 -0.6205  0.3208  0.6587
20323SOL    HW266932   1.289   6.245   3.879 -0.0179  0.1996 -0.8292
20324SOL     OW66933   6.138   0.481   6.561 -0.2189  1.1259 -0.1270
20324SOL    HW166934   6.136   0.572   6.592  0.9592  1.1095  0.0290
20324SOL    HW266935   6.143   0.429   6.641 -0.1882  0.9465 -0.2450
20325SOL     OW66936   0.994   7.351   0.315  0.1958 -0.3003 -0.3047
20325SOL    HW166937   0.996   7.297   0.394 -1.2483 -0.0309 -0.0496
20325SOL    HW266938   1.084   7.383   0.305  0.7863 -1.7258  0.2341
20326SOL     OW66939   5.081   9.186   1.291  0.1090 -0.5200 -0.5016
20326SOL    HW166940   5.117   9.145   1.369 -0.1532 -0.2616 -0.2448
20326SOL    HW266941   5.119   9.136   1.218  1.9753  0.4847 -0.2941
20327SOL     OW66942   4.002   6.284   3.198 -0.2179  0.6146  1.4484
20327SOL    HW166943   4.090   6.249   3.208 -0.5921 -0.8069  0.0464
20327SOL    HW266944   4.011   6.355   3.135 -0.2020 -0.2159  0.4844
20328SOL     OW66945   1.123   5.732   8.396 -0.2115 -0.1895  0.3919
20328SOL    HW166946   1.035   5.730   8.433  0.0238 -0.5742  0.9398
20328SOL    HW266947   1.131   5.819   8.357 -1.3031 -0.5992 -0.8179
20329SOL     OW66948   4.514   0.447   0.294  0.2800 -0.5229 -0.4795
20329SOL    HW166949   4.572   0.457   0.218 -1.1439  0.1380 -1.5252
20329SOL    HW266950   4.504   0.353   0.304  0.2838 -0.6220 -1.2849
20330SOL     OW66951   2.129   4.219   4.479  0.0435 -0.0257 -0.1293
20330SOL    HW166952   2.203   4.159   4.469  0.7914  0.9432 -0.6299
20330SOL    HW266953   2.112   4.220   4.573 -0.3922 -1.4810 -0.1750
20331SOL     OW66954   4.034   3.034   2.989  0.0978  0.8811 -0.4785
20331SOL    HW166955   4.073   3.105   2.939 -0.0441  1.1889 -0.1574
20331SOL    HW266956   4.089   2.958   2.970 -1.9916  0.0018 -4.0697
20332SOL     OW66957   7.035   6.707   2.452 -0.2237  0.1067 -0.8564
20332SOL    HW166958   7.101   6.646   2.419 -0.7117 -0.3499 -1.0085
20332SOL    HW266959   7.082   6.789   2.465  0.8403 -0.7337  0.9386
20333SOL     OW66960   3.750   2.587   5.991 -0.0599  0.2413  0.9850
20333SOL    HW166961   3.815   2.644   6.032 -1.1663  1.6258  0.9021
20333SOL    HW266962   3.666   2.630   6.009 -0.9388 -1.3548  0.8638
20334SOL     OW66963   6.876   5.654   0.377  0.0441 -0.1720  0.0120
20334SOL    HW166964   6.948   5.661   0.315 -0.5681  2.2004 -0.5617
20334SOL    HW266965   6.915   5.672   0.462  0.1672  1.3648 -0.3249
20335SOL     OW66966   6.695   1.446   1.117 -0.2098  0.1127  0.0429
20335SOL    HW166967   6.670   1.475   1.029 -0.4661 -0.8174 -0.2017
20335SOL    HW266968   6.756   1.513   1.148 -0.1868  0.4963 -0.8052
20336SOL     OW66969   0.549   8.682   2.860  0.5205 -0.2572  0.2871
20336SOL    HW166970   0.460   8.652   2.880 -0.4196  2.8660  1.4047
20336SOL    HW266971   0.551   8.687   2.765 -1.0237  0.8525  0.2723
20337SOL     OW66972   2.375   8.155   1.297  0.7856  0.3686 -0.2009
20337SOL    HW166973   2.293   8.116   1.326  1.2954  0.1325  0.9964
20337SOL    HW266974   2.434   8.080   1.285  0.4938  0.4170 -2.3042
20338SOL     OW66975   5.718   3.277   5.120  0.0551 -0.5352 -0.0289
20338SOL    HW166976   5.724   3.362   5.163  0.3367 -1.0097  0.9094
20338SOL    HW266977   5.689   3.297   5.031  1.9544  0.7185 -0.4430
20339SOL     OW66978   2.662   4.983   1.847  0.1311 -0.3433 -0.1119
20339SOL    HW166979   2.577   4.976   1.891 -0.4898 -3.0554 -1.4852
20339SOL    HW266980   2.726   4.990   1.918 -1.2020  1.8095  0.9380
20340SOL     OW66981   0.310   0.273   6.914 -0.0761  0.5769 -0.1649
20340SOL    HW166982   0.384   0.247   6.969 -0.6537 -1.7051 -0.3761
20340SOL    HW266983   0.349   0.296   6.830  0.5844  1.7740  0.4421
20341SOL     OW66984   8.874   3.424   3.915  0.0808 -0.0918  0.1339
20341SOL    HW166985   8.940   3.466   3.859 -1.0109  2.2116  0.4578
20341SOL    HW266986   8.860   3.338   3.875  1.2618  0.4446 -1.5583
20342SOL     OW66987   7.001   4.969   6.837 -0.7439  0.8307  0.2062
20342SOL    HW166988   6.998   5.054   6.881  1.6307  0.7047  0.7356
20342SOL    HW266989   7.086   4.932   6.862 -0.9000 -0.8639 -1.5529
20343SOL     OW66990   2.340   6.610   8.410 -0.5078  0.4239  0.3119
20343SOL    HW166991   2.286   6.578   8.338 -2.9285 -1.9415  2.8985
20343SOL    HW266992   2.343   6.705   8.399 -1.1468  0.1889 -2.5695
20344SOL     OW66993   6.377   5.934   5.707  0.1856  0.7247 -0.2504
20344SOL    HW166994   6.434   5.938   5.784  3.1038  1.2281 -2.2591
20344SOL    HW266995   6.374   5.842   5.684 -0.5457  0.5953  0.3361
20345SOL     OW66996   8.254   8.582   6.303  0.1699  0.0408 -0.2527
20345SOL    HW166997   8.304   8.505   6.278 -0.4050 -0.3912 -0.1005
20345SOL    HW266998   8.197   8.551   6.374  0.1935  0.6939  0.0540
20346SOL     OW66999   3.935   6.125   7.398 -0.4606  0.2356  0.4285
20346SOL    HW167000   3.987   6.199   7.367 -0.4981  0.5269  1.0495
20346SOL    HW267001   3.852   6.165   7.426  0.1892  0.2266  2.4928
20347SOL     OW67002   9.355   7.551   4.922 -0.0313  0.2345  0.2633
20347SOL    HW167003   9.274   7.602   4.919  0.6051  1.2360 -1.6909
20347SOL    HW267004   9.420   7.608   4.880  1.4665 -0.9381  0.9257
20348SOL     OW67005   6.972   9.284   5.375 -0.0027 -0.1765 -0.1146
20348SOL    HW167006   6.992   9.376   5.391 -1.6993  0.2055 -0.0757
20348SOL    HW267007   6.983   9.242   5.460  4.0602 -0.7378 -0.7192
20349SOL     OW67008   2.443   8.299   8.927  0.2920  0.1319  0.2627
20349SOL    HW167009   2.354   8.332   8.917 -0.1697 -1.2371 -0.3856
20349SOL    HW267010   2.478   8.346   9.002 -1.5924 -0.5611  1.6348
20350SOL     OW67011   8.274   3.487   2.606 -0.4835 -0.5471 -0.3782
20350SOL    HW167012   8.271   3.409   2.661  0.3922 -0.7317 -0.5648
20350SOL    HW267013   8.191   3.488   2.560 -1.4140 -0.1554  1.2420
20351SOL     OW67014   4.950   2.771   8.842 -0.0038  0.2241 -0.4343
20351SOL    HW167015   4.995   2.687   8.856 -0.5381  0.0525  0.2945
20351SOL    HW267016   5.020   2.831   8.814  0.9552  0.2948  1.8979
20352SOL     OW67017   0.936   6.050   4.189  0.1702 -0.5397 -0.1373
20352SOL    HW167018   0.908   6.043   4.280  0.6596 -0.4139  0.0248
20352SOL    HW267019   0.883   5.985   4.143  0.0385 -0.7187  0.2629
20353SOL     OW67020   2.350   0.496   3.201  0.1512  0.0228  0.4151
20353SOL    HW167021   2.445   0.489   3.191  0.1505 -1.2040  1.0524
20353SOL    HW267022   2.327   0.579   3.160  1.6931  1.0961  1.6385
20354SOL     OW67023   3.310   1.679   6.253  0.0720 -0.9965 -0.1178
20354SOL    HW167024   3.286   1.760   6.298  2.1920 -0.1208 -0.4566
20354SOL    HW267025   3.362   1.631   6.317 -1.0908 -2.0732  0.0436
20355SOL     OW67026   6.450   0.447   8.636  0.0658 -0.3031 -0.3653
20355SOL    HW167027   6.475   0.375   8.578 -1.1292 -0.5809 -0.5556
20355SOL    HW267028   6.457   0.525   8.580 -0.3787 -0.4853 -0.6826
20356SOL     OW67029   6.378   5.626   8.958 -0.6747  0.0454  0.5382
20356SOL    HW167030   6.368   5.707   8.908  1.4069 -0.8753 -1.5405
20356SOL    HW267031   6.446   5.646   9.023  0.2136 -0.1223 -0.3099
20357SOL     OW67032   5.742   0.862   7.861  0.6456  0.7009 -0.2957
20357SOL    HW167033   5.821   0.899   7.821  0.6152  0.2698 -0.7669
20357SOL    HW267034   5.725   0.918   7.937  0.3233  1.9376 -1.2446
20358SOL     OW67035   7.086   1.240   0.868  0.1925 -0.4631  0.1292
20358SOL    HW167036   7.100   1.163   0.812  0.7596  0.7847 -1.5277
20358SOL    HW267037   7.171   1.285   0.866 -0.4708  0.8015  0.1209
20359SOL     OW67038   8.741   1.782   8.525 -0.1367  0.0023  0.0309
20359SOL    HW167039   8.729   1.877   8.532  1.7597  0.3971 -1.0406
20359SOL    HW267040   8.811   1.762   8.588  0.5285 -0.4034 -0.8140
20360SOL     OW67041   1.477   0.419   0.689 -0.2051 -0.2158 -0.4160
20360SOL    HW167042   1.517   0.442   0.605 -0.3176 -0.1787 -0.4597
20360SOL    HW267043   1.450   0.503   0.727 -0.4272 -0.2554 -0.4806
20361SOL     OW67044   6.197   0.095   9.261  0.7176 -0.4579  0.5271
20361SOL    HW167045   6.126   0.035   9.281  0.1969 -0.0005  0.0563
20361SOL    HW267046   6.197   0.158   9.333  0.6275 -0.4456  0.5163
20362SOL     OW67047   0.815   3.209   6.082  0.5895  0.1377  0.1879
20362SOL    HW167048   0.727   3.207   6.120  0.6391 -1.0983  0.2718
20362SOL    HW267049   0.824   3.298   6.046 -0.7589  0.2174  0.0165
20363SOL     OW67050   2.123   6.981   7.482  0.4030  0.0616 -0.3491
20363SOL    HW167051   2.096   6.903   7.529 -0.3636  0.9527  0.7431
20363SOL    HW267052   2.216   6.967   7.462  1.2103  0.2553  2.8016
20364SOL     OW67053   0.530   1.005   6.146 -0.1247  0.7376 -0.1542
20364SOL    HW167054   0.588   0.997   6.071  0.1453  0.0753  0.1131
20364SOL    HW267055   0.445   0.976   6.114  0.2060 -0.5356  0.0304
20365SOL     OW67056   7.514   3.110   0.685  0.3632 -0.3763  0.2011
20365SOL    HW167057   7.467   3.173   0.629  1.4552 -0.5910 -1.0175
20365SOL    HW267058   7.507   3.146   0.773  0.2923  1.0554 -0.3606
20366SOL     OW67059   4.341   1.200   0.842 -0.6787  0.1979 -0.5310
20366SOL    HW167060   4.422   1.247   0.822 -0.9047  1.1011  0.5478
20366SOL    HW267061   4.294   1.197   0.759  1.0151 -1.5458 -1.5046
20367SOL     OW67062   9.156   2.219   1.419  0.4492 -0.0352  0.0463
20367SOL    HW167063   9.142   2.186   1.508  0.7790 -1.1971 -0.3095
20367SOL    HW267064   9.180   2.141   1.368  1.2397  0.7712 -0.8544
20368SOL     OW67065   1.234   2.486   7.884 -0.0650  0.4153 -0.4449
20368SOL    HW167066   1.205   2.553   7.822  0.2554  0.2511 -0.7756
20368SOL    HW267067   1.158   2.471   7.940 -0.6588 -0.0672 -1.3485
20369SOL     OW67068   6.580   3.802   7.841 -0.0730  1.0958 -0.1144
20369SOL    HW167069   6.638   3.763   7.907  0.9028  0.8305 -1.1117
20369SOL    HW267070   6.530   3.728   7.806 -0.4411  1.2065  0.1699
20370SOL     OW67071   6.394   3.608   4.087  0.4279 -0.1392 -0.5785
20370SOL    HW167072   6.372   3.601   4.180 -1.2020 -0.6525 -0.9761
20370SOL    HW267073   6.460   3.678   4.084  0.9610 -0.5207  1.0148
20371SOL     OW67074   2.693   8.028   2.155 -0.5978 -0.5345 -0.4059
20371SOL    HW167075   2.769   8.069   2.197  0.0773  0.4735 -2.4879
20371SOL    HW267076   2.626   8.097   2.153 -0.9376 -0.8532 -0.2146
20372SOL     OW67077   1.788   7.594   3.630 -0.1681 -0.2717 -0.1067
20372SOL    HW167078   1.817   7.510   3.594 -0.2089 -0.3803  0.1141
20372SOL    HW267079   1.839   7.660   3.582  0.3336 -0.4539  0.1703
20373SOL     OW67080   3.932   4.801   3.503  0.2469 -0.7391  0.7084
20373SOL    HW167081   3.952   4.718   3.547 -2.4297 -1.3295  1.0221
20373SOL    HW267082   3.837   4.811   3.515  0.3072  1.7664 -0.4017
20374SOL     OW67083   7.005   3.433   4.882  0.3228  0.0920 -0.3692
20374SOL    HW167084   6.983   3.485   4.959 -1.2899 -0.8802 -0.1437
20374SOL    HW267085   7.079   3.480   4.843 -0.6020  2.1689  0.1989
20375SOL     OW67086   2.567   2.685   2.939 -0.2320  0.0868  0.0546
20375SOL    HW167087   2.654   2.725   2.949 -0.7814  0.8753  2.5601
20375SOL    HW267088   2.548   2.693   2.846  1.3400  2.2062 -0.1815
20376SOL     OW67089   3.838   0.498   6.426 -0.5429  0.0976 -0.3430
20376SOL    HW167090   3.752   0.462   6.448 -0.1654 -2.0302 -2.0231
20376SOL    HW267091   3.900   0.443   6.473 -0.0351  0.0156 -1.0819
20377SOL     OW67092   8.926   3.312   3.457  0.1103  0.8083 -0.1432
20377SOL    HW167093   8.995   3.375   3.441  1.7029 -1.1575 -1.5229
20377SOL    HW267094   8.968   3.241   3.506 -1.0555 -0.1405 -0.4363
20378SOL     OW67095   1.388   4.877   4.840 -0.6317 -0.0096 -0.0457
20378SOL    HW167096   1.335   4.915   4.771  0.4834  0.2799 -0.7688
20378SOL    HW267097   1.459   4.939   4.853 -0.1298 -0.6708  0.4784
20379SOL     OW67098   2.448   6.079   1.127  0.3125 -0.0866 -0.3787
20379SOL    HW167099   2.521   6.024   1.097  1.6096  1.1553  0.3425
20379SOL    HW267100   2.433   6.139   1.054 -2.5987 -2.6478 -2.1018
20380SOL     OW67101   1.787   5.946   5.951 -0.4117 -0.0633 -0.5058
20380SOL    HW167102   1.821   5.909   5.870 -0.4301  0.7076 -0.8701
20380SOL    HW267103   1.726   6.014   5.923  0.2687  0.8490  0.1369
20381SOL     OW67104   3.753   0.842   7.305 -0.5043 -0.4825 -0.2407
20381SOL    HW167105   3.789   0.812   7.388 -0.5820 -0.0988 -0.0657
20381SOL    HW267106   3.733   0.762   7.257 -1.8482 -0.7451  0.7045
20382SOL     OW67107   5.860   1.605   3.830  0.6264 -0.0174 -0.6576
20382SOL    HW167108   5.859   1.690   3.787  0.1746 -1.0024 -2.7614
20382SOL    HW267109   5.942   1.564   3.802  1.1675 -0.0435  0.8832
20383SOL     OW67110   3.983   9.005   0.223 -0.2987  0.0759 -0.3794
20383SOL    HW167111   4.041   9.074   0.256 -1.1784  1.1568 -0.9806
20383SOL    HW267112   3.923   8.987   0.295 -0.4311  0.3855 -0.4069
20384SOL     OW67113   0.615   5.965   4.152 -0.2358 -0.0457  0.1896
20384SOL    HW167114   0.562   5.953   4.074  0.4777 -1.7848 -0.0916
20384SOL    HW267115   0.613   5.879   4.195  1.3472  0.1719  0.7860
20385SOL     OW67116   5.554   3.729   0.682  0.2923 -0.3741  0.1287
20385SOL    HW167117   5.585   3.702   0.595  0.2910 -0.0375  0.0231
20385SOL    HW267118   5.459   3.725   0.676  0.2322  1.3746 -0.4502
20386SOL     OW67119   5.640   2.159   4.076  0.5461  0.7557 -0.0021
20386SOL    HW167120   5.592   2.202   4.146 -0.9990  0.9572 -1.1355
20386SOL    HW267121   5.615   2.206   3.997  0.7072 -0.6870 -0.9553
20387SOL     OW67122   6.043   8.434   0.850 -0.3657 -0.7281 -0.4074
20387SOL    HW167123   6.104   8.401   0.915 -0.1136  0.2081 -0.1578
20387SOL    HW267124   5.975   8.366   0.844 -1.4024 -0.0549  2.2028
20388SOL     OW67125   7.826   3.759   0.183  0.3024 -0.5982  0.5912
20388SOL    HW167126   7.736   3.762   0.151  0.4420 -1.1542  0.1322
20388SOL    HW267127   7.873   3.821   0.128 -0.0770  0.8192  1.7938
20389SOL     OW67128   3.084   8.695   8.717  0.3612 -0.0205 -0.3637
20389SOL    HW167129   3.036   8.759   8.770 -0.4911 -0.1600 -0.9451
20389SOL    HW267130   3.169   8.689   8.759  0.7453  2.0716 -0.7356
20390SOL     OW67131   6.837   2.064   8.682  0.2673 -0.3314  0.7409
20390SOL    HW167132   6.784   2.041   8.759  0.9679  2.4623  2.1954
20390SOL    HW267133   6.927   2.062   8.713  0.7495 -1.1409 -0.6189
20391SOL     OW67134   8.954   6.843   3.408  0.4181 -0.4964  0.0214
20391SOL    HW167135   9.015   6.866   3.338  0.4700  3.4152  1.1020
20391SOL    HW267136   9.010   6.824   3.483  0.3330 -0.4879  0.0868
20392SOL     OW67137   3.318   6.320   5.402  0.4259  0.3081 -0.6460
20392SOL    HW167138   3.385   6.254   5.385  0.8109  0.8809 -1.3384
20392SOL    HW267139   3.366   6.396   5.434  0.1950  0.9810 -1.8579
20393SOL     OW67140   7.706   8.637   0.976  0.0406 -0.3172  0.0182
20393SOL    HW167141   7.756   8.718   0.961  1.2815 -1.3934 -2.2100
20393SOL    HW267142   7.757   8.589   1.041 -0.7005  0.6343  1.3496
20394SOL     OW67143   5.638   8.387   0.202 -0.4650  0.1424 -0.2846
20394SOL    HW167144   5.547   8.415   0.191 -0.5758  1.0454  2.2802
20394SOL    HW267145   5.638   8.333   0.280  1.1655 -0.0481 -0.3756
20395SOL     OW67146   5.586   1.097   0.299  0.2468 -0.7296 -0.1313
20395SOL    HW167147   5.507   1.146   0.323  1.1954  0.1977  1.2787
20395SOL    HW267148   5.646   1.164   0.266  0.9058 -1.2225  0.0500
20396SOL     OW67149   5.362   7.658   2.309  0.2387  0.3404  0.6636
20396SOL    HW167150   5.387   7.587   2.250 -1.4152 -1.2182  1.7390
20396SOL    HW267151   5.445   7.694   2.340  1.1180 -0.4394 -0.6928
20397SOL     OW67152   9.336   6.826   0.511  0.3203  0.4516  0.1929
20397SOL    HW167153   9.311   6.811   0.419 -0.2672  0.4956  0.3378
20397SOL    HW267154   9.377   6.744   0.538  1.9117  0.9729 -0.5556
20398SOL     OW67155   8.226   1.153   4.864  0.2807  0.0397  0.2504
20398SOL    HW167156   8.249   1.091   4.794 -1.1696  0.9169 -1.0725
20398SOL    HW267157   8.307   1.166   4.913  1.2137 -0.9984 -0.9610
20399SOL     OW67158   8.491   8.948   3.855  0.0485 -1.0453 -0.3918
20399SOL    HW167159   8.505   9.008   3.781 -0.6362 -1.5605 -0.9605
20399SOL    HW267160   8.447   8.872   3.816 -0.3523 -1.3182  0.5607
20400SOL     OW67161   1.711   4.487   2.598 -0.1227 -0.7811  0.0478
20400SOL    HW167162   1.676   4.552   2.659 -1.4683 -2.0092  0.6424
20400SOL    HW267163   1.806   4.498   2.604 -0.3004  0.7056  0.5829
20401SOL     OW67164   2.266   0.590   1.711 -0.1067 -0.2018 -0.2464
20401SOL    HW167165   2.355   0.579   1.677 -0.6872 -2.2785 -1.2892
20401SOL    HW267166   2.212   0.598   1.632 -0.9974 -0.6016  0.3156
20402SOL     OW67167   2.867   1.372   0.291 -0.0307  0.1697 -0.2981
20402SOL    HW167168   2.881   1.300   0.230 -0.0461  0.4100 -0.5855
20402SOL    HW267169   2.950   1.381   0.337  0.3643  0.7488 -1.0975
20403SOL     OW67170   4.016   5.011   8.408  0.2594 -0.0516  0.2841
20403SOL    HW167171   3.980   5.007   8.497  2.0818 -0.3439  1.0605
20403SOL    HW267172   3.995   5.100   8.378 -1.2425 -0.2784  0.6001
20404SOL     OW67173   2.100   6.241   7.857  0.2495 -0.0025 -0.4481
20404SOL    HW167174   2.116   6.153   7.892  0.4558  0.7743  1.5325
20404SOL    HW267175   2.024   6.229   7.799  1.3112 -1.7585 -1.6072
20405SOL     OW67176   1.208   4.321   4.126  0.3562  0.1982  0.1000
20405SOL    HW167177   1.165   4.258   4.069  0.4350 -1.1907  1.5159
20405SOL    HW267178   1.155   4.322   4.205  1.2210  0.7597  0.6943
20406SOL     OW67179   6.917   4.065   7.314  0.5004 -0.0377 -0.4652
20406SOL    HW167180   6.905   3.996   7.249  0.6531 -0.2792 -0.2362
20406SOL    HW267181   6.958   4.137   7.265  3.3579 -1.2686 -0.0423
20407SOL     OW67182   7.020   3.694   6.155  0.4087  0.3675 -0.0200
20407SOL    HW167183   6.980   3.612   6.125 -0.7293  0.5041  1.0523
20407SOL    HW267184   7.094   3.707   6.096 -1.4334  0.4020 -2.5056
20408SOL     OW67185   0.573   0.403   1.590  0.7675 -0.0947  0.3544
20408SOL    HW167186   0.512   0.474   1.610  1.4208 -0.0160  2.3090
20408SOL    HW267187   0.524   0.323   1.608  0.1672 -0.1708 -1.4432
20409SOL     OW67188   3.190   3.296   8.812  0.2080 -0.2833  0.3124
20409SOL    HW167189   3.121   3.240   8.777 -0.1357  0.7245 -0.6805
20409SOL    HW267190   3.169   3.303   8.906 -0.6836 -0.4884  0.1404
20410SOL     OW67191   4.361   4.634   3.765 -0.2844  0.7366 -0.0750
20410SOL    HW167192   4.302   4.635   3.840  1.3387  2.1517  1.2793
20410SOL    HW267193   4.417   4.710   3.778  1.5858 -0.3177 -1.4803
20411SOL     OW67194   4.883   5.151   6.144 -0.4856 -0.4140 -0.0931
20411SOL    HW167195   4.849   5.117   6.227 -1.7829 -0.8946 -0.7829
20411SOL    HW267196   4.826   5.113   6.078 -0.9887  1.8329 -1.0518
20412SOL     OW67197   3.562   5.902   8.222 -0.9526  0.2281  0.9428
20412SOL    HW167198   3.595   5.849   8.295  1.7448  1.8136  1.0006
20412SOL    HW267199   3.508   5.970   8.264  1.4931  1.8171  1.6904
20413SOL     OW67200   1.732   5.098   6.623 -0.1044  0.1265  0.0362
20413SOL    HW167201   1.705   5.173   6.570 -1.5323  1.0470  1.9002
20413SOL    HW267202   1.818   5.122   6.656  0.8713 -0.5289 -1.9010
20414SOL     OW67203   1.288   3.779   4.011 -0.4523 -0.7982 -0.1171
20414SOL    HW167204   1.216   3.814   3.958 -0.5579 -0.6444  0.1272
20414SOL    HW267205   1.265   3.802   4.101  1.5271  2.2977 -0.2613
20415SOL     OW67206   8.904   0.938   1.582  0.3048 -0.1513  0.6570
20415SOL    HW167207   8.843   0.864   1.583 -1.1452  0.8405 -2.5365
20415SOL    HW267208   8.981   0.905   1.534  0.2037 -0.0090  0.3907
20416SOL     OW67209   2.878   5.645   7.070  0.1086 -0.4718  0.5889
20416SOL    HW167210   2.788   5.671   7.089  0.5055  0.8302  0.7871
20416SOL    HW267211   2.929   5.682   7.141  0.7267 -1.9234  0.9419
20417SOL     OW67212   5.453   6.004   8.169  0.0919 -0.5818 -0.5151
20417SOL    HW167213   5.495   6.008   8.255  0.0593 -2.0424 -0.4138
20417SOL    HW267214   5.525   6.004   8.107  0.1240  0.1490 -0.4923
20418SOL     OW67215   4.774   4.442   2.604  0.0939  0.0419 -0.1994
20418SOL    HW167216   4.740   4.508   2.664 -0.3877 -0.7309  0.4141
20418SOL    HW267217   4.861   4.473   2.580  0.9585 -0.3610  2.1507
20419SOL     OW67218   4.470   5.728   8.445 -0.0758  0.2260 -0.3870
20419SOL    HW167219   4.467   5.633   8.434  2.7121 -0.3259  2.1506
20419SOL    HW267220   4.503   5.761   8.362  0.0795 -1.1863 -0.9154
20420SOL     OW67221   0.019   4.709   5.309 -0.1148 -0.2694  0.0865
20420SOL    HW167222   0.046   4.647   5.241  0.2048 -1.0488  0.9077
20420SOL    HW267223   0.031   4.795   5.269 -1.3463 -0.7407 -1.3563
20421SOL     OW67224   7.174   3.973   1.217  0.3223 -0.1577  0.3513
20421SOL    HW167225   7.237   3.901   1.229  0.5789 -0.3222 -1.5981
20421SOL    HW267226   7.170   3.985   1.122 -0.3701  1.8493  0.5935
20422SOL     OW67227   7.823   0.258   3.486  0.6286  0.1854  0.6333
20422SOL    HW167228   7.735   0.290   3.503  0.8386  1.3193 -0.2880
20422SOL    HW267229   7.841   0.283   3.395  2.1285  0.5317  0.9928
20423SOL     OW67230   5.896   7.668   1.163 -0.5687 -0.5089  0.2971
20423SOL    HW167231   5.980   7.655   1.119 -0.7293 -2.3463  0.4741
20423SOL    HW267232   5.839   7.705   1.096 -0.0345 -0.6186 -0.2240
20424SOL     OW67233   6.141   8.594   3.662  0.2874 -0.5145 -0.5856
20424SOL    HW167234   6.090   8.667   3.624  1.4255 -0.0122 -1.2065
20424SOL    HW267235   6.080   8.520   3.662 -1.4426  0.7899  1.5516
20425SOL     OW67236   7.934   4.791   5.504 -0.7135  0.2068  0.7948
20425SOL    HW167237   7.979   4.809   5.587  1.2744  1.5357 -0.4821
20425SOL    HW267238   7.968   4.706   5.477 -0.3778  0.3642  0.7213
20426SOL     OW67239   3.143   3.936   6.934 -0.0361  0.8758 -0.0582
20426SOL    HW167240   3.164   3.877   7.006 -1.9893 -0.4729 -0.5346
20426SOL    HW267241   3.107   4.014   6.976 -1.0513  0.1471  0.4471
20427SOL     OW67242   2.485   0.919   5.597 -0.0288  0.0173  0.0688
20427SOL    HW167243   2.498   0.838   5.547  1.5244  0.0438  0.3672
20427SOL    HW267244   2.513   0.896   5.686  0.4027  0.8711  0.1573
20428SOL     OW67245   2.183   5.010   4.099  0.2948 -0.8273  0.2297
20428SOL    HW167246   2.165   5.052   4.183 -0.4192 -0.8031  0.0707
20428SOL    HW267247   2.097   4.996   4.060  0.5935 -1.2740 -0.2889
20429SOL     OW67248   7.303   8.713   5.151  0.3851  0.0513 -0.0377
20429SOL    HW167249   7.268   8.667   5.075 -2.3738  0.2953  0.9564
20429SOL    HW267250   7.334   8.797   5.116  0.5799 -0.4543 -1.1024
20430SOL     OW67251   5.402   7.725   5.781  0.0840  0.5051 -0.0679
20430SOL    HW167252   5.441   7.760   5.861  0.5522 -1.6286  0.6996
20430SOL    HW267253   5.332   7.666   5.812  0.1884 -0.2441 -1.2079
20431SOL     OW67254   7.262   2.124   1.899  0.3566  0.8038 -0.7175
20431SOL    HW167255   7.281   2.126   1.993 -0.5379  0.6682 -0.5235
20431SOL    HW267256   7.167   2.114   1.894  0.4049  0.7175 -1.6401
20432SOL     OW67257   0.598   0.631   7.368 -0.5773  0.0737  0.1427
20432SOL    HW167258   0.651   0.696   7.414 -1.2918  0.4122  0.5007
20432SOL    HW267259   0.662   0.565   7.339  0.3345  1.5226 -1.2986
20433SOL     OW67260   4.046   2.769   8.493 -0.8053  0.0825  0.1763
20433SOL    HW167261   4.017   2.861   8.488  0.2581  0.3619 -1.1958
20433SOL    HW267262   4.112   2.761   8.425  1.9240 -0.7016  2.7335
20434SOL     OW67263   1.234   7.721   7.388 -0.0153 -0.5435 -0.0712
20434SOL    HW167264   1.271   7.809   7.384 -1.2112 -0.0750 -1.7014
20434SOL    HW267265   1.297   7.671   7.439  1.6517  0.7956 -0.7366
20435SOL     OW67266   3.877   4.027   4.694  0.1563  0.3158  0.0222
20435SOL    HW167267   3.910   4.102   4.745  1.7060 -0.4302  0.1649
20435SOL    HW267268   3.853   4.065   4.610  1.1913  0.9593 -0.0073
20436SOL     OW67269   1.026   2.497   9.251 -0.0158 -0.3268 -0.1443
20436SOL    HW167270   0.999   2.426   9.310  2.0011  0.0850  1.3793
20436SOL    HW267271   0.957   2.563   9.262  0.9063  0.2988  2.8749
20437SOL     OW67272   7.652   1.074   6.379  0.9926  0.1480 -0.0114
20437SOL    HW167273   7.621   1.152   6.333 -0.2805  0.6975  1.6876
20437SOL    HW267274   7.574   1.019   6.389  1.5666 -0.6580  0.1598
20438SOL     OW67275   7.518   3.457   6.870  0.2894  0.1661  0.6513
20438SOL    HW167276   7.480   3.538   6.836 -1.4879 -1.3801 -1.3575
20438SOL    HW267277   7.590   3.437   6.810  1.5603  0.8617  1.8975
20439SOL     OW67278   8.292   7.302   7.864  0.0587 -0.1378  0.3553
20439SOL    HW167279   8.263   7.215   7.890 -1.7751  0.5644  0.8462
20439SOL    HW267280   8.250   7.316   7.779  1.2970 -0.1640 -0.2792
20440SOL     OW67281   9.100   5.115   6.499  0.5406 -0.5851 -0.0905
20440SOL    HW167282   9.023   5.078   6.544  0.8130 -0.1380  0.7741
20440SOL    HW267283   9.114   5.057   6.424 -2.2722  0.8657 -1.8671
20441SOL     OW67284   3.586   7.811   2.071  0.5036  0.2397  0.1072
20441SOL    HW167285   3.548   7.848   1.992  1.5796  1.6000  0.1927
20441SOL    HW267286   3.552   7.721   2.074 -0.7500  0.6375 -1.0658
20442SOL     OW67287   8.178   2.196   7.639 -0.1479 -0.0107 -0.0140
20442SOL    HW167288   8.182   2.127   7.572 -2.0849  0.3558 -0.5630
20442SOL    HW267289   8.250   2.255   7.616 -0.4480 -0.1653 -1.4860
20443SOL     OW67290   2.732   3.801   5.363 -0.0897  0.1641 -0.0833
20443SOL    HW167291   2.655   3.746   5.351 -0.3911  0.4834  0.3517
20443SOL    HW267292   2.724   3.869   5.297  0.3492 -0.3764 -0.7059
20444SOL     OW67293   3.462   2.107   4.875  0.7380  0.2222 -0.3538
20444SOL    HW167294   3.539   2.096   4.930  0.6697 -0.1980 -0.3372
20444SOL    HW267295   3.388   2.081   4.931  0.7590 -1.1862 -0.9397
20445SOL     OW67296   0.834   8.907   4.800  0.0883 -0.7291  0.2380
20445SOL    HW167297   0.809   8.934   4.889 -2.2645 -0.0707 -0.5511
20445SOL    HW267298   0.781   8.830   4.783  0.8864 -1.1431 -0.4454
20446SOL     OW67299   4.041   4.782   2.340 -0.2512 -0.3297 -0.0357
20446SOL    HW167300   4.062   4.869   2.304 -0.9799 -0.3668 -0.5637
20446SOL    HW267301   4.126   4.739   2.347  0.0720  0.2593 -0.2107
20447SOL     OW67302   0.552   7.347   2.633  0.3213 -0.3640 -0.0820
20447SOL    HW167303   0.578   7.270   2.582 -1.5788 -2.8092  2.3423
20447SOL    HW267304   0.559   7.318   2.724 -3.0390  1.4012  0.8615
20448SOL     OW67305   0.438   0.196   0.511 -0.2122  0.2411  0.0755
20448SOL    HW167306   0.501   0.184   0.582  0.1899 -0.7836 -0.4315
20448SOL    HW267307   0.377   0.122   0.522 -0.9138  0.8244  0.1373
20449SOL     OW67308   5.578   5.108   8.993  0.5221 -0.3730  0.4062
20449SOL    HW167309   5.658   5.158   9.010  0.7755 -0.7738  0.3956
20449SOL    HW267310   5.565   5.115   8.899  1.1041 -1.1484  0.2636
20450SOL     OW67311   4.552   4.078   0.163 -0.0094 -0.2008  0.2329
20450SOL    HW167312   4.501   4.155   0.138 -0.1777 -0.0998  0.8600
20450SOL    HW267313   4.632   4.114   0.201 -0.7606 -0.2584  2.0021
20451SOL     OW67314   6.695   6.763   3.373  0.4442 -0.6677 -0.2972
20451SOL    HW167315   6.648   6.756   3.456  1.4064 -0.5726  0.2684
20451SOL    HW267316   6.626   6.777   3.308 -0.3966 -1.5645  0.3681
20452SOL     OW67317   1.632   4.468   4.240  0.0486 -0.6571 -0.2096
20452SOL    HW167318   1.565   4.420   4.192 -0.1943  0.8158 -1.4470
20452SOL    HW267319   1.615   4.449   4.332 -1.5042 -1.0168 -0.5516
20453SOL     OW67320   5.346   1.895   1.514  0.1456 -0.4309 -0.0356
20453SOL    HW167321   5.414   1.950   1.553 -0.8961  0.7041  0.2471
20453SOL    HW267322   5.376   1.806   1.530  0.1008 -0.0295  2.8431
20454SOL     OW67323   2.061   4.041   8.800  0.5514  0.2479 -0.2600
20454SOL    HW167324   2.143   4.089   8.789  0.8292 -0.0661  0.3529
20454SOL    HW267325   1.999   4.085   8.743  0.5914  1.8174  0.8423
20455SOL     OW67326   9.345   9.237   8.156  0.2261 -0.2188  0.5631
20455SOL    HW167327   9.271   9.295   8.173 -0.9870 -1.8376  1.0763
20455SOL    HW267328   9.382   9.220   8.243  0.8927  0.1489  0.3620
20456SOL     OW67329   5.372   0.998   2.843 -0.3126 -0.3484  0.0488
20456SOL    HW167330   5.391   0.926   2.783 -1.6985  0.1126 -0.9847
20456SOL    HW267331   5.296   1.042   2.805  1.6168  2.8865 -0.4848
20457SOL     OW67332   6.715   2.265   5.463 -0.1186  0.4211 -0.2255
20457SOL    HW167333   6.629   2.306   5.453 -0.3746 -0.1525 -0.3816
20457SOL    HW267334   6.738   2.235   5.375 -0.9297 -1.7490  0.2606
20458SOL     OW67335   0.615   5.766   0.444  0.7070 -0.0232  0.0814
20458SOL    HW167336   0.587   5.676   0.426 -1.0241  0.2804  1.0423
20458SOL    HW267337   0.557   5.796   0.515  1.4038  1.7673 -0.0451
20459SOL     OW67338   6.785   6.324   1.781 -0.1996 -0.0294 -0.3753
20459SOL    HW167339   6.727   6.324   1.705  1.3362 -0.0058 -1.6031
20459SOL    HW267340   6.815   6.415   1.788 -0.3437 -0.0284  0.2798
20460SOL     OW67341   2.938   2.251   2.158  0.0483  0.1369  0.0036
20460SOL    HW167342   2.977   2.306   2.227  0.0076  1.1083 -0.7289
20460SOL    HW267343   2.947   2.303   2.078 -0.1899 -0.8459 -0.6772
20461SOL     OW67344   7.390   7.714   1.729 -0.2389  0.3569  0.3409
20461SOL    HW167345   7.391   7.653   1.803  1.7459  0.3069  0.3263
20461SOL    HW267346   7.304   7.755   1.733 -1.0848 -1.3986  1.2181
20462SOL     OW67347   0.445   5.851   3.679  0.0243  0.3576  0.1085
20462SOL    HW167348   0.412   5.776   3.729 -0.7275  0.4844 -0.1714
20462SOL    HW267349   0.443   5.821   3.588  0.3613  0.4880  0.0591
20463SOL     OW67350   9.152   6.598   4.550  0.2563  0.1162  0.0291
20463SOL    HW167351   9.167   6.602   4.456 -1.3517  0.1061 -0.2663
20463SOL    HW267352   9.091   6.669   4.568 -0.1922 -0.4583  0.9002
20464SOL     OW67353   3.879   6.226   6.270 -0.0442 -0.1681  0.1183
20464SOL    HW167354   3.814   6.229   6.199  0.2889 -2.6623 -0.3709
20464SOL    HW267355   3.826   6.219   6.350 -0.3921 -0.4887 -0.1370
20465SOL     OW67356   4.669   6.580   8.344 -0.6764  0.3682  0.2366
20465SOL    HW167357   4.700   6.507   8.292  2.1501  0.7466  1.1998
20465SOL    HW267358   4.574   6.571   8.345 -0.4487 -3.2830  0.3440
20466SOL     OW67359   3.261   7.715   1.051  0.6435 -0.2901  0.6113
20466SOL    HW167360   3.217   7.631   1.058  0.6377 -0.3486 -0.0270
20466SOL    HW267361   3.334   7.709   1.113  1.3505 -1.2277 -0.2819
20467SOL     OW67362   4.730   1.067   6.112 -0.3843  0.4540 -0.1446
20467SOL    HW167363   4.744   0.973   6.106 -1.5390  0.2717 -0.2862
20467SOL    HW267364   4.666   1.087   6.044  0.7124  1.5494 -0.8930
20468SOL     OW67365   0.993   7.348   2.200 -0.0746  0.0800  0.2650
20468SOL    HW167366   1.017   7.428   2.246  1.2587  1.0687 -1.9608
20468SOL    HW267367   1.074   7.297   2.197 -0.0581  0.1251 -1.0141
20469SOL     OW67368   8.339   4.758   7.368  0.0047  0.0433 -0.3878
20469SOL    HW167369   8.410   4.820   7.388  0.5987 -0.7173 -0.1012
20469SOL    HW267370   8.292   4.799   7.296 -0.6727  1.6645  0.9029
20470SOL     OW67371   6.865   6.808   1.345 -0.2028  0.3386  0.2952
20470SOL    HW167372   6.781   6.779   1.382  2.0845 -2.9254  3.5715
20470SOL    HW267373   6.907   6.857   1.416  1.2715  0.5992 -0.7141
20471SOL     OW67374   0.070   6.140   8.393 -0.1362  0.2017  0.2803
20471SOL    HW167375   0.043   6.129   8.484  0.7930 -1.8548  0.3486
20471SOL    HW267376  -0.007   6.179   8.350 -1.5968 -1.3015  1.3861
20472SOL     OW67377   3.002   4.146   7.130  0.2256  0.6844  0.0417
20472SOL    HW167378   3.050   4.228   7.125  2.4813 -0.5071  0.4378
20472SOL    HW267379   3.026   4.109   7.215 -0.5153 -0.4997 -0.2305
20473SOL     OW67380   6.685   2.007   2.227  0.0491 -0.1505  0.3372
20473SOL    HW167381   6.656   2.013   2.136 -0.1390 -2.8705  0.1356
20473SOL    HW267382   6.757   2.070   2.234  0.4799 -0.3224 -1.8751
20474SOL     OW67383   0.602   8.739   9.259 -0.4007 -0.0676 -0.6422
20474SOL    HW167384   0.635   8.697   9.338 -1.3778  1.3821  0.5971
20474SOL    HW267385   0.513   8.705   9.249 -0.1858 -0.4517 -1.2845
20475SOL     OW67386   2.320   3.645   7.653  0.4996 -0.5628  0.6208
20475SOL    HW167387   2.346   3.635   7.744  1.2200  2.5501  0.9008
20475SOL    HW267388   2.283   3.733   7.648 -0.5283 -1.0331 -1.8954
20476SOL     OW67389   0.396   6.979   0.342 -0.1202  0.4093 -0.0127
20476SOL    HW167390   0.448   7.042   0.290  0.2155 -0.0985 -0.3035
20476SOL    HW267391   0.310   7.020   0.350  0.1696  1.0291  0.0275
20477SOL     OW67392   1.968   6.049   5.656 -0.0455  0.2067 -0.5257
20477SOL    HW167393   1.936   6.133   5.690  1.0754  0.6465 -0.5252
20477SOL    HW267394   2.049   6.071   5.610 -1.0098 -0.5124 -2.7056
20478SOL     OW67395   5.135   1.048   2.725 -0.3745 -0.1435 -0.1266
20478SOL    HW167396   5.119   0.960   2.693  0.8857 -0.2886 -0.3652
20478SOL    HW267397   5.097   1.106   2.658  0.8935 -0.4672 -1.1490
20479SOL     OW67398   5.286   7.470   0.381 -0.4925  0.4317  0.0842
20479SOL    HW167399   5.205   7.505   0.344 -0.4551  0.5538  0.1173
20479SOL    HW267400   5.303   7.390   0.331 -1.6431 -0.6399  1.3024
20480SOL     OW67401   7.735   4.797   6.653 -0.4674  0.1707 -0.3522
20480SOL    HW167402   7.776   4.743   6.586 -1.2053 -0.6681 -0.1571
20480SOL    HW267403   7.739   4.886   6.619  3.4948  0.5548  0.6229
20481SOL     OW67404   2.776   3.207   0.883 -0.3601 -0.4913  0.3504
20481SOL    HW167405   2.761   3.120   0.920  1.3938 -0.6692  0.7534
20481SOL    HW267406   2.863   3.201   0.843 -0.0536  1.1724  0.6905
20482SOL     OW67407   2.614   0.409   7.786  0.0673  0.0646 -0.2794
20482SOL    HW167408   2.521   0.414   7.805 -0.2677  1.3329 -2.0424
20482SOL    HW267409   2.652   0.485   7.830  0.4494 -0.9162  1.1583
20483SOL     OW67410   7.580   6.884   4.764  0.1418  0.3864 -0.3375
20483SOL    HW167411   7.573   6.862   4.857  0.8805  0.3906 -0.2747
20483SOL    HW267412   7.647   6.953   4.761  1.1003 -0.5531 -1.0056
20484SOL     OW67413   2.178   1.367   0.265  0.0106  0.2679 -0.3017
20484SOL    HW167414   2.202   1.282   0.302 -0.3080  0.4717  0.4047
20484SOL    HW267415   2.215   1.431   0.326  0.7953  0.6604 -1.1688
20485SOL     OW67416   3.050   2.421   3.305  0.5627  0.4358  0.3833
20485SOL    HW167417   2.973   2.429   3.361  0.2730 -0.3333  0.1004
20485SOL    HW267418   3.082   2.511   3.296 -0.2425  0.7505  0.5762
20486SOL     OW67419   6.591   6.595   3.856  0.1855 -0.6059  0.2781
20486SOL    HW167420   6.579   6.503   3.833 -1.4275 -0.1761 -0.7359
20486SOL    HW267421   6.683   6.602   3.880  0.1724 -2.6300  1.1118
20487SOL     OW67422   4.966   0.777   1.040  0.3335 -0.3032 -0.0097
20487SOL    HW167423   5.003   0.745   1.123  0.5942  0.2465  0.0906
20487SOL    HW267424   4.931   0.699   0.997 -1.9883 -0.3321  1.6969
20488SOL     OW67425   8.906   6.746   8.447  0.1864 -0.2301 -0.1972
20488SOL    HW167426   8.879   6.827   8.490 -0.1557  0.0593 -0.9472
20488SOL    HW267427   8.978   6.713   8.501  0.7377  0.8984 -0.2255
20489SOL     OW67428   5.054   0.699   6.050  0.2772  0.3036 -0.3588
20489SOL    HW167429   5.092   0.648   5.979  1.6091 -1.1038  1.2544
20489SOL    HW267430   5.085   0.656   6.130  1.2407  3.4697  1.1465
20490SOL     OW67431   1.759   6.619   8.571 -0.2509  0.3650 -0.1103
20490SOL    HW167432   1.836   6.565   8.554 -0.1408  0.6305 -0.4643
20490SOL    HW267433   1.693   6.588   8.510 -0.1107  0.7833 -0.4841
20491SOL     OW67434   5.683   4.124   5.339 -0.0384  0.0425 -0.1127
20491SOL    HW167435   5.598   4.152   5.374 -0.7826 -1.9164 -0.2288
20491SOL    HW267436   5.729   4.206   5.319 -0.6964  1.2127  2.6855
20492SOL     OW67437   6.709   8.421   1.540  0.1943  0.1943 -0.4250
20492SOL    HW167438   6.739   8.465   1.461  4.1409 -0.8784  0.2263
20492SOL    HW267439   6.752   8.468   1.611 -1.4506 -0.2527  0.9208
20493SOL     OW67440   4.970   4.665   7.680  0.1697 -0.5179  0.2095
20493SOL    HW167441   5.043   4.663   7.741 -0.8706  2.3877  1.7142
20493SOL    HW267442   4.922   4.584   7.697  2.3036 -1.9009  0.0120
20494SOL     OW67443   8.574   7.336   5.565  0.0035 -0.4831 -0.5642
20494SOL    HW167444   8.667   7.328   5.587  0.0916  0.1579 -0.6761
20494SOL    HW267445   8.573   7.366   5.474 -0.3386 -1.9108 -1.0530
20495SOL     OW67446   3.471   1.565   3.903 -0.4588  0.3277 -0.0027
20495SOL    HW167447   3.412   1.625   3.948  0.1598  0.7678  0.2199
20495SOL    HW267448   3.554   1.611   3.897  0.2910 -0.8354  0.9504
20496SOL     OW67449   8.362   7.927   2.719 -0.0098 -0.4490  0.4736
20496SOL    HW167450   8.381   7.871   2.644 -0.7050  1.9271 -1.6407
20496SOL    HW267451   8.266   7.934   2.719  0.0659  0.7708  0.6012
20497SOL     OW67452   5.071   6.614   5.137 -0.0537 -0.4481  0.4633
20497SOL    HW167453   5.088   6.685   5.199  1.2288 -1.5586  1.4431
20497SOL    HW267454   5.021   6.549   5.187 -0.8131 -0.4424 -0.2811
20498SOL     OW67455   6.551   1.744   0.527  0.2638 -0.0935  0.7165
20498SOL    HW167456   6.633   1.703   0.556  1.0920  0.5105 -0.6259
20498SOL    HW267457   6.492   1.671   0.510  0.4896 -0.5357  1.7816
20499SOL     OW67458   4.632   4.078   7.608 -0.6877  0.1491  0.2493
20499SOL    HW167459   4.557   4.069   7.548 -1.5095 -2.8275  1.5377
20499SOL    HW267460   4.665   3.989   7.618  0.6210  0.8312  2.7455
20500SOL     OW67461   9.308   7.054   7.610  0.0626  0.0446 -0.3125
20500SOL    HW167462   9.303   7.031   7.517 -0.8987  0.5903 -0.4168
20500SOL    HW267463   9.295   6.971   7.655 -1.7514  0.0683 -0.6870
20501SOL     OW67464   5.218   5.008   4.404  0.2075  0.0436 -0.0159
20501SOL    HW167465   5.161   5.060   4.348  1.1937  1.7559  0.4997
20501SOL    HW267466   5.282   4.969   4.344 -0.2902 -0.2459 -0.3629
20502SOL     OW67467   0.061   7.940   4.720  0.2745  0.4970  0.4061
20502SOL    HW167468   0.001   7.941   4.794  0.5021 -0.4972  0.6253
20502SOL    HW267469   0.140   7.983   4.752 -0.7015  2.9179 -0.2608
20503SOL     OW67470   7.437   1.884   8.149  0.1275 -0.1294  0.3695
20503SOL    HW167471   7.434   1.978   8.133  1.4104 -0.2708 -0.9373
20503SOL    HW267472   7.346   1.859   8.166 -0.3279  1.2237  0.0523
20504SOL     OW67473   3.306   3.476   7.295 -0.5343 -0.1473  0.4348
20504SOL    HW167474   3.269   3.554   7.336  0.6077  0.5511  0.1726
20504SOL    HW267475   3.242   3.452   7.228 -0.2742  1.3760 -0.4063
20505SOL     OW67476   9.082   0.075   9.115  0.2010  0.0203  0.6855
20505SOL    HW167477   9.088   0.001   9.054 -1.5514 -1.0501  1.7230
20505SOL    HW267478   9.050   0.148   9.063  0.0386 -0.5004  0.0482
20506SOL     OW67479   6.270   2.432   3.183 -0.4404  0.1526 -0.2725
20506SOL    HW167480   6.207   2.496   3.150  0.0099 -0.5440 -2.7050
20506SOL    HW267481   6.236   2.348   3.152  1.3418 -0.2869 -1.1541
20507SOL     OW67482   8.665   4.216   3.577 -0.0172  0.6671 -0.4266
20507SOL    HW167483   8.600   4.149   3.599  0.9478  0.7476  3.3477
20507SOL    HW267484   8.746   4.167   3.565  0.5338  0.9764  1.6095
20508SOL     OW67485   4.357   2.365   0.027 -0.2984  0.4060 -0.1220
20508SOL    HW167486   4.325   2.454   0.044 -0.7132  0.0558  1.0871
20508SOL    HW267487   4.290   2.308   0.064  0.5702 -0.3919  0.2792
20509SOL     OW67488   6.968   8.964   0.542  0.6118  0.2869  0.3036
20509SOL    HW167489   6.878   8.937   0.524 -0.1715  2.3383  0.7858
20509SOL    HW267490   7.008   8.976   0.456  0.4094 -0.5390  0.0879
20510SOL     OW67491   5.206   8.000   8.372  0.3116 -0.2985 -0.1738
20510SOL    HW167492   5.181   7.979   8.462 -1.9628 -0.4276 -0.7692
20510SOL    HW267493   5.123   8.007   8.325  1.4264  0.0392 -2.2224
20511SOL     OW67494   0.949   5.893   8.797 -0.1491  0.2157 -0.2244
20511SOL    HW167495   1.029   5.844   8.783  0.1906  1.1213 -1.7849
20511SOL    HW267496   0.958   5.932   8.884  0.8865 -0.0752 -0.1974
20512SOL     OW67497   6.204   5.683   5.121 -0.9821 -0.2927  0.0005
20512SOL    HW167498   6.298   5.701   5.123 -0.8147 -1.1628  0.7905
20512SOL    HW267499   6.165   5.754   5.173 -0.9333  0.8510 -1.4581
20513SOL     OW67500   8.710   1.948   5.271  0.0917  0.0970  0.4018
20513SOL    HW167501   8.788   1.918   5.318  0.7151  0.0316 -0.6279
20513SOL    HW267502   8.723   1.917   5.181  0.7377  3.2283 -0.7273
20514SOL     OW67503   0.070   2.590   2.509 -0.2011 -0.2816  0.3207
20514SOL    HW167504   0.022   2.673   2.505 -1.1253 -0.7147  1.6472
20514SOL    HW267505   0.106   2.579   2.421  1.2864  2.2736  0.5122
20515SOL     OW67506   6.878   7.070   5.182 -0.6672  0.2243  0.5909
20515SOL    HW167507   6.812   7.068   5.113  1.2374  0.0106 -1.3215
20515SOL    HW267508   6.915   7.159   5.177 -0.6766  0.2925  1.5379
20516SOL     OW67509   8.472   8.247   5.102 -0.4135  0.0360 -1.4846
20516SOL    HW167510   8.527   8.302   5.157 -0.9929 -0.9477  0.1335
20516SOL    HW267511   8.533   8.205   5.042  0.7370 -1.4210  0.5955
20517SOL     OW67512   2.598   1.910   5.951 -0.2215  0.0715 -0.3925
20517SOL    HW167513   2.673   1.945   5.902 -0.1521 -0.5629 -0.7478
20517SOL    HW267514   2.541   1.986   5.964  0.5259  0.5920 -0.0242
20518SOL     OW67515   9.019   0.813   2.954 -0.7961  0.0711  0.7273
20518SOL    HW167516   8.981   0.735   2.913 -0.1124 -0.2461  0.6745
20518SOL    HW267517   8.992   0.885   2.898 -0.5056 -0.2670  0.1396
20519SOL     OW67518   1.813   5.249   7.155 -0.0112 -0.1935  0.8956
20519SOL    HW167519   1.884   5.287   7.207  0.8255  0.0460 -0.3689
20519SOL    HW267520   1.765   5.325   7.121  1.7169 -0.1274 -1.7100
20520SOL     OW67521   0.757   7.685   4.177 -0.2255  0.3001  0.0114
20520SOL    HW167522   0.750   7.638   4.093  0.6333 -1.3367  0.8033
20520SOL    HW267523   0.793   7.770   4.153 -1.9051  0.6610 -1.4993
20521SOL     OW67524   0.310   2.315   9.148  0.0740 -0.3189  0.1038
20521SOL    HW167525   0.269   2.269   9.222  0.0304 -1.4646 -0.6152
20521SOL    HW267526   0.392   2.349   9.184  0.7669 -2.1320  0.3328
20522SOL     OW67527   6.714   4.944   0.314  0.1886 -0.0288 -0.1575
20522SOL    HW167528   6.702   4.867   0.259  0.8049 -1.2048  1.2724
20522SOL    HW267529   6.697   5.018   0.256 -2.4051 -1.2489 -1.1332
20523SOL     OW67530   5.821   0.129   6.444 -0.2915 -0.0862 -0.0323
20523SOL    HW167531   5.861   0.214   6.424  0.6619 -0.4537  0.2317
20523SOL    HW267532   5.735   0.150   6.480  0.1706  0.8064  0.5864
20524SOL     OW67533   9.225   0.386   2.496 -0.1533 -0.3128  0.7980
20524SOL    HW167534   9.208   0.354   2.407 -1.0202  0.1899  0.7727
20524SOL    HW267535   9.178   0.469   2.501 -0.0083 -0.2729  1.6884
20525SOL     OW67536   5.700   2.596   0.140  0.4170  0.2266 -0.2535
20525SOL    HW167537   5.662   2.678   0.108  0.1771 -0.0519 -0.6925
20525SOL    HW267538   5.633   2.560   0.198  0.5481  0.3696 -0.0121
20526SOL     OW67539   0.153   0.347   5.859  0.0290  0.2687  0.3060
20526SOL    HW167540   0.193   0.267   5.893 -0.7628  0.5072  1.8693
20526SOL    HW267541   0.214   0.417   5.884  0.6570  0.2117 -0.9491
20527SOL     OW67542   8.799   0.743   9.146 -0.0999 -0.1464  0.0044
20527SOL    HW167543   8.783   0.751   9.240 -0.1270 -0.2861  0.0128
20527SOL    HW267544   8.887   0.779   9.133 -0.6796  1.2361 -0.1388
20528SOL     OW67545   4.261   2.136   0.705  0.2741  0.3659  0.4333
20528SOL    HW167546   4.170   2.160   0.690  0.2372  1.0997  1.6751
20528SOL    HW267547   4.311   2.212   0.673  0.3400  0.7243  1.3617
20529SOL     OW67548   3.769   6.249   4.860  0.3853  0.7331  0.2642
20529SOL    HW167549   3.809   6.194   4.926 -0.8188 -1.8622 -1.0233
20529SOL    HW267550   3.680   6.265   4.892  0.3230  0.8581  0.0340
20530SOL     OW67551   0.908   8.069   9.275 -0.5768 -0.1121  0.2135
20530SOL    HW167552   0.978   8.007   9.296 -0.1186 -0.0019 -0.9331
20530SOL    HW267553   0.925   8.145   9.331 -0.5369 -0.5933  0.8650
20531SOL     OW67554   0.181   1.190   2.968  0.3780  0.3467 -0.4813
20531SOL    HW167555   0.192   1.097   2.945  0.6329  0.2026  0.1997
20531SOL    HW267556   0.090   1.209   2.944 -0.0269 -0.3872  0.3517
20532SOL     OW67557   2.645   0.529   2.650 -0.2326 -0.0389  0.3295
20532SOL    HW167558   2.671   0.485   2.569  1.0283  1.3771 -0.0999
20532SOL    HW267559   2.694   0.483   2.719 -0.4029 -0.5034  0.1449
20533SOL     OW67560   5.036   1.662   1.445  0.3316 -0.2423  0.4223
20533SOL    HW167561   5.043   1.681   1.538  1.0369  2.0482 -0.0284
20533SOL    HW267562   5.103   1.595   1.429  0.6227 -0.2068  1.4378
20534SOL     OW67563   4.678   7.995   8.273 -0.0721  0.3033 -0.1101
20534SOL    HW167564   4.638   8.062   8.329 -0.5874 -0.5112  0.5171
20534SOL    HW267565   4.668   8.030   8.185 -1.3901  0.5460  0.1004
20535SOL     OW67566   2.133   5.607   3.309  0.1762  0.2290 -0.1985
20535SOL    HW167567   2.059   5.613   3.370 -0.2975 -0.8330 -0.6476
20535SOL    HW267568   2.133   5.692   3.264 -1.2063 -0.0007 -0.6788
20536SOL     OW67569   3.082   9.212   6.751 -0.2846  0.0577 -0.2828
20536SOL    HW167570   2.998   9.186   6.713 -2.0549  0.4195  3.0168
20536SOL    HW267571   3.113   9.133   6.795 -1.1934  0.9700  2.1824
20537SOL     OW67572   5.930   7.853   7.635 -0.0945 -0.3580  0.0273
20537SOL    HW167573   5.911   7.790   7.704 -0.4825 -1.3946 -1.0037
20537SOL    HW267574   6.026   7.855   7.631 -0.0807 -1.0104 -0.0406
20538SOL     OW67575   2.479   9.245   6.763 -0.5253  0.5001 -0.4357
20538SOL    HW167576   2.555   9.187   6.759 -1.0020 -0.2702  1.0018
20538SOL    HW267577   2.436   9.234   6.678 -0.1322 -0.6001 -0.5098
20539SOL     OW67578   8.005   4.263   3.456  0.1184 -0.1599  0.5028
20539SOL    HW167579   8.098   4.282   3.451  0.2657 -1.0360 -0.2802
20539SOL    HW267580   7.965   4.346   3.481  0.9521  0.6122 -0.6228
20540SOL     OW67581   0.077   3.498   3.351  0.2920  0.2135 -0.2828
20540SOL    HW167582   0.165   3.463   3.368  1.0895  2.3995  0.5281
20540SOL    HW267583   0.054   3.464   3.265  1.0819 -1.9688  0.3071
20541SOL     OW67584   5.422   0.952   8.234  0.3843 -0.3840 -0.1433
20541SOL    HW167585   5.442   0.893   8.162  0.6297  1.3946 -1.6144
20541SOL    HW267586   5.336   0.924   8.265  0.4634 -1.4436 -0.8464
20542SOL     OW67587   1.534   6.869   2.790 -0.2940  0.3285 -0.1388
20542SOL    HW167588   1.447   6.906   2.775 -1.0673 -0.3536  2.2505
20542SOL    HW267589   1.578   6.932   2.846  0.5372  0.3492 -0.7967
20543SOL     OW67590   7.250   2.450   5.648  0.3421  0.2569  0.2581
20543SOL    HW167591   7.188   2.518   5.674 -0.3996  0.0366 -0.8660
20543SOL    HW267592   7.326   2.464   5.704 -0.0676  1.5746  0.5188
20544SOL     OW67593   3.595   0.278   8.342 -0.1239  0.1474  0.0504
20544SOL    HW167594   3.600   0.186   8.318 -0.9358  0.2659 -0.6388
20544SOL    HW267595   3.505   0.291   8.372  0.0671  0.6480  0.4248
20545SOL     OW67596   2.022   5.212   3.092 -0.5233  0.5558  0.0943
20545SOL    HW167597   1.976   5.148   3.146 -0.3242  0.3299 -0.0021
20545SOL    HW267598   1.960   5.235   3.023 -0.9089  1.1120  0.6213
20546SOL     OW67599   5.080   7.528   9.268  0.1384 -0.3854 -0.2544
20546SOL    HW167600   5.003   7.492   9.225 -0.0289  0.1184 -0.3793
20546SOL    HW267601   5.121   7.453   9.311 -0.8567 -0.5244  0.4823
20547SOL     OW67602   8.922   7.614   3.872 -0.3448  0.2158 -0.4882
20547SOL    HW167603   8.954   7.541   3.924  0.5583 -2.6023 -4.5406
20547SOL    HW267604   8.828   7.596   3.861 -1.0034  1.9455  1.6426
20548SOL     OW67605   4.316   3.337   1.848  0.6880 -0.0302 -0.0135
20548SOL    HW167606   4.227   3.330   1.882  0.6203  1.2419  0.0933
20548SOL    HW267607   4.314   3.290   1.765 -0.0091 -0.2369  0.1179
20549SOL     OW67608   1.902   6.597   1.747  0.4986  0.1829 -0.6106
20549SOL    HW167609   1.901   6.667   1.681  1.0700 -1.7981 -2.8746
20549SOL    HW267610   1.995   6.588   1.770  0.3089  0.8240  0.5075
20550SOL     OW67611   4.661   0.710   1.707 -0.0617  0.2444  0.4200
20550SOL    HW167612   4.670   0.752   1.622 -0.5445  0.7596  0.6161
20550SOL    HW267613   4.589   0.757   1.750 -0.0451 -0.2235  0.9805
20551SOL     OW67614   6.555   6.185   6.974  0.1063 -0.7842  0.4386
20551SOL    HW167615   6.510   6.105   7.001 -1.8405  0.1138  0.0263
20551SOL    HW267616   6.505   6.256   7.014  2.6075  0.2716  1.9857
20552SOL     OW67617   6.554   8.406   4.366  0.2613  1.0005  0.3158
20552SOL    HW167618   6.632   8.373   4.322  0.0714 -1.4773  1.6733
20552SOL    HW267619   6.482   8.357   4.326 -0.1360  0.3309  1.8098
20553SOL     OW67620   5.690   2.728   1.872 -0.0734  0.3631 -0.4610
20553SOL    HW167621   5.602   2.768   1.869 -0.3091 -0.2013 -1.5575
20553SOL    HW267622   5.741   2.779   1.808  0.0514 -0.0822 -0.7205
20554SOL     OW67623   0.295   6.163   7.255  0.2338 -0.1878 -0.6232
20554SOL    HW167624   0.232   6.210   7.200  1.4795  0.2545 -1.7174
20554SOL    HW267625   0.380   6.183   7.217  1.0600 -0.7247  0.8620
20555SOL     OW67626   5.537   4.654   6.785 -0.3257  0.7797  0.5287
20555SOL    HW167627   5.597   4.628   6.715 -0.2314  1.3642  0.3854
20555SOL    HW267628   5.590   4.708   6.844 -0.5322  0.7223  0.7703
20556SOL     OW67629   8.580   1.801   2.489  0.0014  0.5212  0.1760
20556SOL    HW167630   8.493   1.785   2.452  0.4214 -0.3246 -0.4669
20556SOL    HW267631   8.594   1.728   2.550  0.8098 -0.1130 -0.7413
20557SOL     OW67632   0.323   5.634   7.452  0.3950  0.2361  0.1208
20557SOL    HW167633   0.381   5.627   7.528 -0.9160 -0.1781  1.1378
20557SOL    HW267634   0.322   5.727   7.431 -1.6184  0.9284  2.6619
20558SOL     OW67635   0.185   8.147   8.162  0.0055  0.0629  0.4346
20558SOL    HW167636   0.133   8.071   8.138  1.1749 -0.8697  0.7536
20558SOL    HW267637   0.259   8.111   8.210  0.1555  1.4845  1.3126
20559SOL     OW67638   2.406   2.285   3.049  0.0545  0.0147  0.5850
20559SOL    HW167639   2.483   2.252   3.003  0.1788  0.6829  0.3068
20559SOL    HW267640   2.339   2.295   2.981 -0.3225 -0.6622  0.8403
20560SOL     OW67641   6.240   1.973   9.297  0.3161 -0.9951 -0.1252
20560SOL    HW167642   6.170   2.001   9.356  1.1426  0.2630  0.3106
20560SOL    HW267643   6.216   2.009   9.212  1.1645  0.8232  0.3467
20561SOL     OW67644   5.776   7.762   7.853  0.0191  0.3907  0.3718
20561SOL    HW167645   5.804   7.695   7.915  0.2841 -0.6478 -0.8332
20561SOL    HW267646   5.689   7.788   7.883 -0.0050 -0.3585  0.9703
20562SOL     OW67647   2.277   8.637   0.771  0.6689 -0.1945  0.2432
20562SOL    HW167648   2.351   8.690   0.741 -0.1932  0.4570 -0.8090
20562SOL    HW267649   2.255   8.672   0.857  0.9523  0.2709  0.1262
20563SOL     OW67650   8.546   7.128   8.902 -0.1403 -0.5363  0.1970
20563SOL    HW167651   8.557   7.222   8.888 -0.1560 -0.5788 -0.1265
20563SOL    HW267652   8.535   7.118   8.996 -0.9960 -0.1281  0.1421
20564SOL     OW67653   7.135   1.779   5.585 -0.2386 -0.1554 -0.2575
20564SOL    HW167654   7.119   1.873   5.574  2.1078  0.4142  0.6172
20564SOL    HW267655   7.118   1.763   5.678  0.4123 -0.3478 -0.1673
20565SOL     OW67656   2.664   9.024   6.894  0.0500  0.1648 -0.0737
20565SOL    HW167657   2.677   9.089   6.963  2.6655  1.0348 -1.2645
20565SOL    HW267658   2.734   8.960   6.907 -0.6602 -0.7864 -0.7194
20566SOL     OW67659   6.108   8.684   1.419  0.5372  0.2559 -0.1521
20566SOL    HW167660   6.141   8.601   1.383 -1.9186  0.1439 -2.4824
20566SOL    HW267661   6.100   8.742   1.343 -0.1416  1.7842  1.0297
20567SOL     OW67662   6.130   8.073   8.286 -0.2694  0.0902 -0.0594
20567SOL    HW167663   6.199   8.040   8.228  0.8365 -0.1358  1.3207
20567SOL    HW267664   6.165   8.155   8.320 -1.4944  0.9264 -0.7313
20568SOL     OW67665   2.344   6.170   9.196  0.0937 -0.1386  0.6917
20568SOL    HW167666   2.436   6.175   9.223 -0.1619  1.4660  1.3642
20568SOL    HW267667   2.296   6.219   9.263 -1.1501 -0.2183 -0.1085
20569SOL     OW67668   8.841   1.882   6.083 -0.8048 -0.5308  0.7651
20569SOL    HW167669   8.915   1.823   6.072 -0.6318  0.0977 -2.5712
20569SOL    HW267670   8.855   1.924   6.168  3.4132  0.4923 -0.2332
20570SOL     OW67671   2.450   7.230   8.782 -0.0070  1.0079  0.2165
20570SOL    HW167672   2.384   7.296   8.803 -1.3722  0.3779 -1.8029
20570SOL    HW267673   2.430   7.156   8.839 -1.1187  0.7954 -0.4330
20571SOL     OW67674   9.245   0.419   9.328 -0.0216 -0.7240 -0.0628
20571SOL    HW167675   9.260   0.507   9.292  0.5477 -0.8839 -0.2399
20571SOL    HW267676   9.298   0.362   9.272  1.2447 -0.9382  1.2777
20572SOL     OW67677   6.129   7.140   0.055  0.4146 -0.3727 -0.0188
20572SOL    HW167678   6.216   7.106   0.075  0.7725 -1.0162 -2.3024
20572SOL    HW267679   6.069   7.068   0.075  0.4177 -0.0387  1.2537
20573SOL     OW67680   8.231   0.164   5.110 -0.3555 -0.4847 -0.4283
20573SOL    HW167681   8.301   0.167   5.044  1.2328 -0.5701  1.1783
20573SOL    HW267682   8.274   0.191   5.191 -2.4005  0.2329  0.4746
20574SOL     OW67683   0.116   2.797   1.244  0.1993 -0.2590  0.3225
20574SOL    HW167684   0.100   2.831   1.332 -1.3709 -1.3862  0.5188
20574SOL    HW267685   0.083   2.865   1.185  0.9795  0.3694  0.6108
20575SOL     OW67686   1.292   2.523   5.803  0.1490  0.1573 -0.0627
20575SOL    HW167687   1.218   2.583   5.803  0.3189  0.3738  0.1963
20575SOL    HW267688   1.283   2.474   5.885 -0.3380 -0.6175 -0.5644
20576SOL     OW67689   0.848   9.161   1.220  0.3895 -0.1242  0.1246
20576SOL    HW167690   0.784   9.199   1.160  2.5855  3.0110 -0.4844
20576SOL    HW267691   0.919   9.130   1.164  1.3497  0.5109  0.9440
20577SOL     OW67692   3.963   2.660   2.799 -0.4656 -0.4104 -0.1755
20577SOL    HW167693   3.960   2.745   2.755 -0.3795 -1.0810 -1.5191
20577SOL    HW267694   3.926   2.677   2.886 -1.1323  0.8492 -0.6783
20578SOL     OW67695   5.099   6.691   5.863  0.0660 -0.0182 -0.0118
20578SOL    HW167696   5.020   6.744   5.872 -1.3481 -1.9492 -0.2799
20578SOL    HW267697   5.161   6.728   5.926 -1.6899  0.4364  1.5407
20579SOL     OW67698   0.003   0.468   5.386  0.4158 -0.2005  0.3595
20579SOL    HW167699  -0.088   0.472   5.355  0.6621  1.8134 -0.2477
20579SOL    HW267700   0.002   0.515   5.469  1.2873  2.0946 -0.8461
20580SOL     OW67701   3.533   1.216   1.067 -0.0456 -0.2036  0.2928
20580SOL    HW167702   3.626   1.229   1.052  0.5725 -2.8429  1.2263
20580SOL    HW267703   3.491   1.251   0.988  1.9198 -0.9093 -1.1736
20581SOL     OW67704   5.759   3.787   8.234 -0.4640 -0.5582  0.5652
20581SOL    HW167705   5.783   3.832   8.153  0.0187  0.8124  1.4300
20581SOL    HW267706   5.666   3.806   8.245 -0.4139 -0.3295  0.5915
20582SOL     OW67707   3.624   6.428   9.008  0.1220 -0.3354 -0.2019
20582SOL    HW167708   3.570   6.469   8.940 -1.5299 -0.8460  0.7579
20582SOL    HW267709   3.580   6.345   9.027  0.6387 -0.2652  1.3799
20583SOL     OW67710   2.645   4.193   2.289  0.0827  0.6448  0.4166
20583SOL    HW167711   2.626   4.178   2.196 -0.4086 -3.9248  1.0315
20583SOL    HW267712   2.740   4.199   2.294  0.2515 -1.0001 -0.2573
20584SOL     OW67713   9.299   0.362   6.096  0.1808 -0.2379 -0.1868
20584SOL    HW167714   9.299   0.342   6.190  1.1283  0.7635  0.0621
20584SOL    HW267715   9.385   0.332   6.066  0.7796  1.4003 -0.2371
20585SOL     OW67716   2.650   4.266   1.577  0.6619 -0.0120 -0.5718
20585SOL    HW167717   2.680   4.205   1.510 -1.4444  1.1769 -2.7304
20585SOL    HW267718   2.720   4.331   1.584  2.0147 -1.4812  0.2995
20586SOL     OW67719   1.313   4.904   2.476  0.4108  0.5981  0.0814
20586SOL    HW167720   1.226   4.944   2.469  0.4156  0.3657 -1.9246
20586SOL    HW267721   1.295   4.810   2.484  0.4826  0.6276  0.6612
20587SOL     OW67722   3.772   3.391   3.927 -0.1948 -0.2579  0.7230
20587SOL    HW167723   3.786   3.446   3.849 -1.2322 -0.5215  0.3454
20587SOL    HW267724   3.738   3.452   3.992 -1.2931 -0.4318  0.3212
20588SOL     OW67725   7.157   7.919   1.009 -0.1015 -0.2109 -0.1389
20588SOL    HW167726   7.078   7.936   1.060 -0.8940 -0.1158 -1.3512
20588SOL    HW267727   7.198   7.844   1.052 -0.3932  0.2559  0.9950
20589SOL     OW67728   6.452   3.833   2.921 -0.3205 -0.3003 -0.3745
20589SOL    HW167729   6.482   3.820   2.831 -2.5206 -0.3240 -1.1733
20589SOL    HW267730   6.531   3.854   2.970  1.2318 -2.1636 -1.9160
20590SOL     OW67731   3.140   2.903   6.913  0.0472  0.0814 -0.0638
20590SOL    HW167732   3.077   2.971   6.938 -0.0589 -0.2716  0.6362
20590SOL    HW267733   3.215   2.917   6.970  0.2699 -0.0209 -0.3266
20591SOL     OW67734   3.635   8.938   2.638 -0.2587  0.0669 -0.1143
20591SOL    HW167735   3.662   8.888   2.715  0.4500  0.2776 -0.2143
20591SOL    HW267736   3.718   8.964   2.597 -0.5005 -3.2374 -3.1054
20592SOL     OW67737   1.879   6.018   4.183 -0.0789  0.2992 -0.2146
20592SOL    HW167738   1.900   6.108   4.158 -0.4928  0.0806 -1.4718
20592SOL    HW267739   1.939   5.998   4.254  0.7799  1.2052 -0.6506
20593SOL     OW67740   4.997   3.050   6.291  0.6470  0.2592 -0.0853
20593SOL    HW167741   4.955   3.005   6.218  0.1022  0.3808  0.1453
20593SOL    HW267742   4.952   3.016   6.369  0.5198  0.8844  0.1213
20594SOL     OW67743   0.239   8.248   5.170  0.1168  0.6681 -0.1524
20594SOL    HW167744   0.188   8.324   5.143 -0.3106 -0.0690 -1.5462
20594SOL    HW267745   0.191   8.213   5.245 -0.4503  1.0014 -0.3496
20595SOL     OW67746   3.343   7.306   3.409  1.0931  0.0669  0.1784
20595SOL    HW167747   3.265   7.316   3.356  0.8051  1.1722  0.7850
20595SOL    HW267748   3.379   7.221   3.384  0.2794  0.0199 -0.8585
20596SOL     OW67749   3.433   8.323   2.189  0.1893 -0.0545 -0.7270
20596SOL    HW167750   3.516   8.371   2.178  0.2981 -0.0022  0.2664
20596SOL    HW267751   3.454   8.252   2.249 -0.4663 -0.1028 -0.5515
20597SOL     OW67752   7.439   6.587   8.968 -0.1945 -0.1143 -0.2558
20597SOL    HW167753   7.360   6.605   9.018  1.0340  1.0986  1.3888
20597SOL    HW267754   7.468   6.501   8.998 -0.4084 -0.1697 -0.2090
20598SOL     OW67755   2.786   0.924   0.719  0.0172 -0.2542 -0.1685
20598SOL    HW167756   2.859   0.869   0.749  0.3689 -0.0103 -0.5630
20598SOL    HW267757   2.708   0.882   0.754  0.4234  0.1304  1.2693
20599SOL     OW67758   1.405   9.212   3.143 -0.2495  0.0492  0.2599
20599SOL    HW167759   1.445   9.162   3.214  1.0946  1.7290  0.7397
20599SOL    HW267760   1.339   9.153   3.106  0.4816 -1.6246  1.5298
20600SOL     OW67761   2.512   6.177   2.636 -0.4174  0.1846 -0.1813
20600SOL    HW167762   2.516   6.135   2.550  1.6787 -0.6766  0.2610
20600SOL    HW267763   2.530   6.270   2.618  1.8844 -0.2619 -0.5778
20601SOL     OW67764   6.807   6.221   1.491 -0.3248 -0.0075  0.1812
20601SOL    HW167765   6.749   6.146   1.484  0.0868 -0.2135 -1.5452
20601SOL    HW267766   6.748   6.296   1.499 -0.7339 -0.5018  2.2370
20602SOL     OW67767   1.938   1.342   9.114 -0.5268  0.0230  0.0702
20602SOL    HW167768   2.006   1.291   9.068 -1.0674 -0.2215 -0.4671
20602SOL    HW267769   1.931   1.423   9.064 -0.2583  0.2786  0.4402
20603SOL     OW67770   4.806   4.793   3.718 -0.1426  0.2569 -0.2114
20603SOL    HW167771   4.815   4.700   3.694  0.3439  0.1878  0.2275
20603SOL    HW267772   4.739   4.826   3.659 -1.2906 -0.7020  0.5023
20604SOL     OW67773   4.963   5.374   1.364  0.2157  0.1662  0.1927
20604SOL    HW167774   4.942   5.319   1.288  0.1980  0.0768  0.2614
20604SOL    HW267775   5.030   5.325   1.412 -0.1004  0.0041  0.4783
20605SOL     OW67776   2.890   6.921   7.825  0.1860  0.4274  0.1842
20605SOL    HW167777   2.827   6.896   7.893  0.9037  1.1455  1.1446
20605SOL    HW267778   2.929   7.003   7.857 -0.1484  1.3196 -1.5634
20606SOL     OW67779   5.748   1.842   6.037 -0.0744  0.5572  0.3000
20606SOL    HW167780   5.823   1.893   6.005 -0.6149  1.6228  0.6803
20606SOL    HW267781   5.716   1.892   6.112 -0.7652 -0.2454  0.5493
20607SOL     OW67782   6.710   3.726   2.307 -0.0994 -0.1323  0.4137
20607SOL    HW167783   6.703   3.632   2.294 -1.0587  0.1974 -2.0885
20607SOL    HW267784   6.620   3.759   2.302 -0.0035  0.7901  3.1273
20608SOL     OW67785   2.998   8.707   2.915  0.0740 -0.3464 -0.1879
20608SOL    HW167786   3.005   8.712   3.010 -0.3170  0.7176 -0.1916
20608SOL    HW267787   2.948   8.627   2.898 -0.3632 -0.2352  0.5340
20609SOL     OW67788   1.843   6.541   8.206  0.0133 -0.3592  0.1273
20609SOL    HW167789   1.778   6.588   8.257  0.2412  0.2162 -0.1025
20609SOL    HW267790   1.896   6.610   8.165 -1.2013 -0.7368 -2.2838
20610SOL     OW67791   4.698   0.269   7.345 -0.0748  0.1339  0.3274
20610SOL    HW167792   4.772   0.326   7.363 -1.3068  2.1713 -0.6646
20610SOL    HW267793   4.668   0.239   7.430  1.1165  0.2847  0.8120
20611SOL     OW67794   6.319   2.198   1.451 -0.1097 -0.0201  0.2910
20611SOL    HW167795   6.248   2.238   1.502 -1.6064 -1.5219 -0.5098
20611SOL    HW267796   6.319   2.248   1.369 -1.3514 -1.0017 -0.3388
20612SOL     OW67797   1.603   3.955   6.910 -0.8993 -0.0455 -0.1112
20612SOL    HW167798   1.634   3.970   7.000 -1.1927 -0.4425  0.0569
20612SOL    HW267799   1.669   3.998   6.855 -0.0609 -0.8331  0.2471
20613SOL     OW67800   7.406   1.412   6.525 -0.2169 -0.2505  0.1373
20613SOL    HW167801   7.376   1.351   6.593  1.5976  0.2832  1.4827
20613SOL    HW267802   7.348   1.487   6.534 -1.0345 -0.8443 -0.0223
20614SOL     OW67803   0.441   7.596   1.701 -0.1641  0.1149  0.0869
20614SOL    HW167804   0.517   7.600   1.758 -0.1862 -0.2955  0.1457
20614SOL    HW267805   0.478   7.590   1.612 -0.1186  1.7530 -0.0454
20615SOL     OW67806   2.567   7.145   6.001 -0.6158  0.2811 -0.1275
20615SOL    HW167807   2.635   7.199   6.041 -1.1780  0.6943  0.2963
20615SOL    HW267808   2.501   7.135   6.069  0.4221 -2.7580  0.5573
20616SOL     OW67809   6.628   8.926   0.896 -0.5310 -0.2046  0.0631
20616SOL    HW167810   6.720   8.947   0.914 -0.4754 -1.2357  1.1240
20616SOL    HW267811   6.625   8.830   0.896 -1.8070 -0.1881  1.1773
20617SOL     OW67812   3.703   6.579   7.606  0.0141  0.4227 -0.0862
20617SOL    HW167813   3.649   6.505   7.580 -0.0899  0.5277 -0.1697
20617SOL    HW267814   3.792   6.544   7.613  0.6020  0.9678 -3.2934
20618SOL     OW67815   9.255   7.437   2.030 -0.8083 -0.1101  0.2885
20618SOL    HW167816   9.190   7.470   1.968 -0.4956 -1.3744 -0.7618
20618SOL    HW267817   9.333   7.489   2.014 -0.7887 -0.3071 -0.2599
20619SOL     OW67818   7.807   8.176   6.944 -0.8894 -0.1290  0.1501
20619SOL    HW167819   7.770   8.126   6.872  0.8256 -1.4245  0.0934
20619SOL    HW267820   7.890   8.132   6.964  0.0263  1.8574  1.0527
20620SOL     OW67821   1.568   7.321   1.887  0.2336 -0.0176 -0.4080
20620SOL    HW167822   1.555   7.300   1.795  0.9142  0.6919 -0.6850
20620SOL    HW267823   1.663   7.328   1.897  0.2301 -1.1146  0.5953
20621SOL     OW67824   4.746   8.917   0.533 -0.0270  0.1899 -0.3612
20621SOL    HW167825   4.690   8.978   0.582 -0.9829 -1.3233  0.5261
20621SOL    HW267826   4.700   8.903   0.450 -0.2440  0.0539 -0.2210
20622SOL     OW67827   5.413   9.296   2.198 -0.2697  0.0016  0.0451
20622SOL    HW167828   5.434   9.244   2.120  0.1394  0.4809 -0.1716
20622SOL    HW267829   5.498   9.321   2.234 -0.4579  0.4410  0.1934
20623SOL     OW67830   0.710   1.206   4.915  0.9601  0.3506  0.8968
20623SOL    HW167831   0.789   1.222   4.863  0.7738 -0.8168  0.2254
20623SOL    HW267832   0.638   1.231   4.857  0.8054  1.1885  1.4242
20624SOL     OW67833   7.371   5.862   9.233 -0.0131  0.0037 -0.3495
20624SOL    HW167834   7.351   5.813   9.154  2.8821 -0.4308 -0.9302
20624SOL    HW267835   7.374   5.954   9.204 -1.5940  0.1528 -0.1104
20625SOL     OW67836   9.266   7.306   1.690  0.4613  0.5743 -0.6976
20625SOL    HW167837   9.173   7.283   1.687  0.7160 -0.5691 -0.3079
20625SOL    HW267838   9.270   7.396   1.658 -0.5736 -0.0039 -2.5882
20626SOL     OW67839   1.536   5.551   6.266 -0.7357  0.6023 -0.4994
20626SOL    HW167840   1.529   5.622   6.202  0.8166  1.4209  0.1780
20626SOL    HW267841   1.583   5.481   6.219 -1.1034  0.5356 -0.7688
20627SOL     OW67842   6.275   0.749   5.065  0.0061 -0.2123  0.3364
20627SOL    HW167843   6.320   0.817   5.016 -1.1986  1.3685  1.2958
20627SOL    HW267844   6.201   0.724   5.010  0.1995 -0.4448  0.1775
20628SOL     OW67845   9.268   7.695   3.004 -0.3261 -0.2932  0.1188
20628SOL    HW167846   9.186   7.732   3.035  0.4306  1.2770  0.3246
20628SOL    HW267847   9.248   7.661   2.917 -1.6187 -1.6192  0.8743
20629SOL     OW67848   6.750   0.394   6.356 -0.6297 -0.2991 -0.0011
20629SOL    HW167849   6.808   0.319   6.371  0.9293  0.8509 -0.0625
20629SOL    HW267850   6.696   0.398   6.435  0.0468 -0.8181  0.5024
20630SOL     OW67851   7.241   6.678   2.831  0.4505  0.3236  0.2088
20630SOL    HW167852   7.302   6.717   2.768  0.7941  0.2290  0.4772
20630SOL    HW267853   7.248   6.733   2.909  0.4785  0.0916  0.3720
20631SOL     OW67854   1.292   4.277   3.798  0.2911  0.2451  0.0249
20631SOL    HW167855   1.244   4.263   3.717  1.5360  2.7275 -1.2405
20631SOL    HW267856   1.249   4.219   3.862 -0.4088 -2.1438 -2.4467
20632SOL     OW67857   8.346   7.456   2.127  0.1532  0.0731 -0.5514
20632SOL    HW167858   8.301   7.455   2.211 -1.0866  3.3201 -1.0294
20632SOL    HW267859   8.439   7.468   2.149  0.0271 -0.5491  0.3496
20633SOL     OW67860   2.642   8.787   5.771  0.2830  0.1243 -0.6992
20633SOL    HW167861   2.723   8.837   5.778  0.5468 -0.3396 -0.4229
20633SOL    HW267862   2.589   8.818   5.844  0.5108 -0.1141 -0.4307
20634SOL     OW67863   8.145   3.952   9.132  0.0507 -0.1244 -0.1823
20634SOL    HW167864   8.115   3.948   9.041  1.1054 -0.5149 -0.5298
20634SOL    HW267865   8.076   3.907   9.182 -0.0249 -0.8688 -0.9319
20635SOL     OW67866   2.686   5.786   0.282  0.2401 -0.6608  0.1130
20635SOL    HW167867   2.612   5.835   0.248  0.2911 -1.8351 -1.8152
20635SOL    HW267868   2.661   5.765   0.372 -1.6901 -0.8656 -0.4222
20636SOL     OW67869   1.722   6.160   3.895 -0.0326  0.3510 -0.4461
20636SOL    HW167870   1.670   6.238   3.916 -0.8361 -0.6565  1.5593
20636SOL    HW267871   1.791   6.159   3.962 -0.0599 -0.6752 -0.4284
20637SOL     OW67872   1.816   2.294   8.687 -0.0390  0.9934  0.0354
20637SOL    HW167873   1.770   2.272   8.606  0.4696 -0.0592  0.0211
20637SOL    HW267874   1.852   2.382   8.671  1.3360  0.2109 -1.4786
20638SOL     OW67875   7.241   4.962   7.431 -0.4525 -0.2283 -0.0727
20638SOL    HW167876   7.241   4.947   7.337  2.1947  1.2191 -0.3827
20638SOL    HW267877   7.326   5.003   7.449 -0.5878 -1.0830  3.0451
20639SOL     OW67878   3.637   2.625   1.587  1.0069  0.1935  0.4445
20639SOL    HW167879   3.555   2.596   1.628  0.7439  0.4771  0.1279
20639SOL    HW267880   3.672   2.690   1.648  0.9546  0.1311  0.5422
20640SOL     OW67881   8.874   5.580   6.959  0.5397 -0.0858 -0.0218
20640SOL    HW167882   8.897   5.512   7.022  0.7089 -0.7172 -0.7443
20640SOL    HW267883   8.948   5.641   6.962  1.0501 -0.6757 -0.3694
20641SOL     OW67884   1.746   8.630   8.837  0.0929  0.6274  0.5129
20641SOL    HW167885   1.751   8.662   8.747  0.7580  2.0108  1.0180
20641SOL    HW267886   1.736   8.535   8.828  4.1518  0.1800 -1.0298
20642SOL     OW67887   7.790   4.450   5.528  0.3133  0.3200 -0.5901
20642SOL    HW167888   7.756   4.433   5.440 -1.2813 -1.2500  0.2390
20642SOL    HW267889   7.882   4.471   5.515 -0.2962  1.9881 -2.7689
20643SOL     OW67890   9.342   5.746   2.686 -0.3219  0.0727 -0.3612
20643SOL    HW167891   9.407   5.690   2.644 -0.1628  0.4129 -0.5678
20643SOL    HW267892   9.392   5.817   2.726 -0.4639 -0.2578  0.4384
20644SOL     OW67893   3.371   2.759   7.169  0.0649 -0.1772  0.4114
20644SOL    HW167894   3.397   2.747   7.260  2.6208  0.6417 -0.1265
20644SOL    HW267895   3.340   2.849   7.164  1.3058  0.2529  0.2132
20645SOL     OW67896   4.223   5.034   1.802 -0.2336  0.2117  0.6822
20645SOL    HW167897   4.190   4.944   1.810  0.6715  0.0111  2.6230
20645SOL    HW267898   4.145   5.089   1.815 -0.6719 -0.2638  0.1413
20646SOL     OW67899   7.750   8.470   3.673 -0.0659 -0.3208 -0.3524
20646SOL    HW167900   7.667   8.449   3.629 -0.6364 -1.2619  1.1326
20646SOL    HW267901   7.766   8.397   3.733  1.1798  0.4702  0.3300
20647SOL     OW67902   6.432   5.654   2.371 -0.1969  0.3842 -0.5333
20647SOL    HW167903   6.516   5.608   2.373  0.2292  1.1588  0.6659
20647SOL    HW267904   6.367   5.586   2.356  0.7032 -0.0905 -2.6405
20648SOL     OW67905   2.316   7.622   3.219 -0.1140  0.3888  0.1899
20648SOL    HW167906   2.322   7.611   3.124 -2.1993  0.6113 -0.0044
20648SOL    HW267907   2.407   7.620   3.249  0.7614  2.4800 -2.0353
20649SOL     OW67908   2.565   4.319   4.445  0.1100 -0.1464  0.2563
20649SOL    HW167909   2.634   4.326   4.378 -1.4549  1.0917 -1.3264
20649SOL    HW267910   2.543   4.409   4.466 -0.3062 -0.5354  1.5300
20650SOL     OW67911   3.021   0.674   7.341  0.1278 -0.4207  0.0024
20650SOL    HW167912   2.969   0.614   7.393 -0.5118 -0.4422 -0.6519
20650SOL    HW267913   3.006   0.647   7.250 -0.8647  1.2494 -0.3688
20651SOL     OW67914   2.987   3.094   6.765 -0.0358 -0.7357  0.0849
20651SOL    HW167915   2.897   3.088   6.797 -0.4770  1.6099 -0.5024
20651SOL    HW267916   2.979   3.132   6.678  1.5751  2.7974  1.2633
20652SOL     OW67917   4.492   4.410   2.143 -0.3630 -0.0742  0.1904
20652SOL    HW167918   4.516   4.466   2.217  1.0545  0.1200 -0.3933
20652SOL    HW267919   4.513   4.462   2.066 -1.6855 -0.3309 -0.3810
20653SOL     OW67920   0.163   1.200   4.345  0.3828  0.4191 -0.5244
20653SOL    HW167921   0.128   1.267   4.286  0.1660 -0.7357 -1.7346
20653SOL    HW267922   0.257   1.198   4.326  0.1166 -0.8801 -1.8236
20654SOL     OW67923   7.283   6.726   6.701 -0.0354  0.2922 -0.1044
20654SOL    HW167924   7.290   6.820   6.717 -0.2572  0.5806 -1.5367
20654SOL    HW267925   7.372   6.699   6.678  0.1202  0.0501  0.7642
20655SOL     OW67926   6.714   3.720   3.677 -0.3769 -0.0604 -0.1806
20655SOL    HW167927   6.734   3.778   3.604  0.2749 -0.0467  0.0005
20655SOL    HW267928   6.672   3.644   3.638 -0.5198  0.1846 -0.5046
20656SOL     OW67929   5.545   5.284   6.286  0.1001 -0.2654 -0.4539
20656SOL    HW167930   5.590   5.219   6.231 -0.3784 -0.8683 -0.1490
20656SOL    HW267931   5.515   5.234   6.362 -0.0200  0.3828 -0.0666
20657SOL     OW67932   6.153   3.791   2.821 -0.4799 -0.6839 -0.6578
20657SOL    HW167933   6.109   3.839   2.891 -0.1853 -1.2291 -0.0935
20657SOL    HW267934   6.246   3.810   2.834 -0.3840 -1.1757 -0.5997
20658SOL     OW67935   3.825   9.096   5.205 -0.2050 -0.1251  0.3188
20658SOL    HW167936   3.860   9.093   5.116 -0.1028 -2.3570  0.3734
20658SOL    HW267937   3.764   9.169   5.204 -0.5952 -0.4028 -1.7533
20659SOL     OW67938   0.959   1.339   7.312  0.7558  0.1703  0.3133
20659SOL    HW167939   0.930   1.429   7.324  0.4007  0.0595  0.2828
20659SOL    HW267940   0.884   1.294   7.274  0.9091 -0.1553  0.3923
20660SOL     OW67941   5.484   4.235   9.245  0.9511 -0.3350 -0.2448
20660SOL    HW167942   5.573   4.255   9.274  1.5024  0.4048 -2.2711
20660SOL    HW267943   5.461   4.308   9.188 -1.3293 -0.0581  0.9147
20661SOL     OW67944   0.433   7.781   0.925  0.2555  0.5025 -0.0835
20661SOL    HW167945   0.361   7.724   0.897 -0.3527  1.5209 -0.6353
20661SOL    HW267946   0.444   7.761   1.018 -2.5138  2.1332  0.7120
20662SOL     OW67947   1.370   3.774   0.265 -0.5392 -0.4795 -0.0664
20662SOL    HW167948   1.392   3.803   0.354  0.4297  1.8241 -0.9685
20662SOL    HW267949   1.362   3.856   0.216 -0.5496 -1.7281 -2.2303
20663SOL     OW67950   5.118   5.677   0.255 -0.1047  0.0279 -0.2452
20663SOL    HW167951   5.112   5.685   0.160  1.7793  0.6237 -0.3513
20663SOL    HW267952   5.051   5.737   0.288 -1.0426 -0.4815 -1.1780
20664SOL     OW67953   1.845   8.735   3.616  0.4227 -0.2392  0.2722
20664SOL    HW167954   1.830   8.699   3.703  0.1066 -0.0703  0.2874
20664SOL    HW267955   1.905   8.673   3.574  1.0412 -0.0189  0.8112
20665SOL     OW67956   3.882   9.068   4.900 -0.0966  0.0604 -0.2217
20665SOL    HW167957   3.847   8.988   4.860 -2.0722  0.2032  1.0710
20665SOL    HW267958   3.853   9.138   4.843  1.4777 -0.0886 -1.2546
20666SOL     OW67959   0.774   8.765   6.023 -0.5536 -0.0061  0.4953
20666SOL    HW167960   0.849   8.706   6.022  0.7439  1.4854  2.6422
20666SOL    HW267961   0.773   8.805   5.936 -0.7043 -2.1579 -0.5620
20667SOL     OW67962   8.531   7.288   3.388  0.3961 -0.0495  0.9421
20667SOL    HW167963   8.437   7.289   3.369  0.2648  2.8925  1.3588
20667SOL    HW267964   8.572   7.326   3.310  0.9674  1.0237  1.7405
20668SOL     OW67965   1.320   7.713   7.125 -0.3937  0.2816  0.7622
20668SOL    HW167966   1.414   7.732   7.129 -0.3916  0.1086  1.7667
20668SOL    HW267967   1.296   7.692   7.215 -1.0567 -1.3876  0.2286
20669SOL     OW67968   5.341   1.530   4.116 -0.0093 -0.5166  0.2727
20669SOL    HW167969   5.400   1.595   4.155  1.0054 -0.6664 -0.9444
20669SOL    HW267970   5.323   1.468   4.187  1.3708 -0.5156  0.6614
20670SOL     OW67971   8.105   2.086   2.306  0.3004  0.5731 -0.6966
20670SOL    HW167972   8.089   2.097   2.213  0.3789  0.5460 -0.7133
20670SOL    HW267973   8.030   2.034   2.337 -0.4617  1.7825 -0.4649
20671SOL     OW67974   3.112   3.692   7.513  0.0011 -0.0632  0.4185
20671SOL    HW167975   3.049   3.755   7.478  1.1184  0.4291 -0.7744
20671SOL    HW267976   3.189   3.745   7.533  0.2169 -0.7293  1.4221
20672SOL     OW67977   2.651   8.055   4.995  0.7862  0.1449  0.2278
20672SOL    HW167978   2.650   7.961   4.979  3.9488 -0.2282  1.4019
20672SOL    HW267979   2.624   8.064   5.086  0.6991  0.3652  0.1812
20673SOL     OW67980   6.265   0.894   5.444  0.3482 -0.4101  0.4184
20673SOL    HW167981   6.339   0.842   5.413  0.2533 -0.2266 -0.1277
20673SOL    HW267982   6.301   0.982   5.459  0.2823 -0.3664  0.3255
20674SOL     OW67983   5.148   6.295   1.491  0.1494  0.8040 -0.3378
20674SOL    HW167984   5.191   6.339   1.418 -0.2814  1.5198 -0.1710
20674SOL    HW267985   5.217   6.282   1.556  1.0859 -1.9016 -1.7358
20675SOL     OW67986   8.295   1.621   6.255  0.5159 -0.8053 -0.1228
20675SOL    HW167987   8.375   1.619   6.202 -0.0473 -1.4639 -0.9763
20675SOL    HW267988   8.254   1.705   6.235  0.8450 -0.5837  0.1122
20676SOL     OW67989   3.769   0.426   1.991 -0.0549 -0.2317 -0.5215
20676SOL    HW167990   3.680   0.457   1.970  0.2411  0.5154 -0.7031
20676SOL    HW267991   3.823   0.459   1.919 -0.0164 -2.7433 -1.7291
20677SOL     OW67992   0.817   8.300   7.991 -0.1881  0.2362  0.1684
20677SOL    HW167993   0.904   8.334   7.970 -1.2943  1.8412 -2.2556
20677SOL    HW267994   0.799   8.332   8.079  0.4381  2.6861 -0.5140
20678SOL     OW67995   6.574   7.783   5.190 -0.3231  0.5492 -0.0487
20678SOL    HW167996   6.599   7.722   5.258 -0.7791  0.1013 -0.2736
20678SOL    HW267997   6.527   7.730   5.126  2.1940  0.4408 -1.9785
20679SOL     OW67998   7.534   3.034   1.265  0.3649  0.6297 -0.5353
20679SOL    HW167999   7.570   3.122   1.252  0.0536  0.5429 -2.2030
20679SOL    HW268000   7.608   2.983   1.299  0.2107  1.8033  1.7047
20680SOL     OW68001   2.804   7.820   1.239 -0.5967 -0.2336 -0.2266
20680SOL    HW168002   2.766   7.908   1.240 -0.4470 -0.1433 -1.1946
20680SOL    HW268003   2.894   7.832   1.267 -0.5804 -0.0736 -0.3467
20681SOL     OW68004   0.256   2.889   3.110  0.1912 -0.2490 -0.0576
20681SOL    HW168005   0.343   2.851   3.120  0.1949 -0.0959  0.5106
20681SOL    HW268006   0.268   2.958   3.044  0.4968 -0.2342  0.0117
20682SOL     OW68007   2.821   4.132   4.906  0.1372 -0.1166  0.0946
20682SOL    HW168008   2.902   4.096   4.869  0.6080  1.1003 -0.1371
20682SOL    HW268009   2.778   4.174   4.831  0.1748  0.7627  0.5491
20683SOL     OW68010   9.148   3.674   6.180  0.3021  0.1660  0.6371
20683SOL    HW168011   9.114   3.589   6.205 -1.7713  0.3509 -1.2190
20683SOL    HW268012   9.097   3.737   6.231  0.8081  0.3437  0.9316
20684SOL     OW68013   6.389   5.936   3.900 -0.1800 -0.2200  0.8493
20684SOL    HW168014   6.459   5.883   3.862 -0.9795  0.0375 -1.0972
20684SOL    HW268015   6.388   5.912   3.992  1.3603 -1.4596  0.5844
20685SOL     OW68016   4.728   0.521   2.255  0.2987  0.0364  0.5599
20685SOL    HW168017   4.813   0.560   2.275 -0.0532  1.2644 -0.2411
20685SOL    HW268018   4.726   0.441   2.308  1.1359  0.9890  2.1143
20686SOL     OW68019   3.708   1.790   6.462  0.1268  0.2362  0.0106
20686SOL    HW168020   3.717   1.746   6.547  1.7116  1.5632  0.5661
20686SOL    HW268021   3.792   1.777   6.419  0.4565  2.2100 -0.0305
20687SOL     OW68022   8.258   3.793   4.796  0.0613  0.1086  0.6146
20687SOL    HW168023   8.280   3.816   4.706 -0.2045 -3.6872 -0.5632
20687SOL    HW268024   8.162   3.797   4.799  0.0796  0.4970  0.8549
20688SOL     OW68025   9.267   5.345   4.336  0.0730 -0.5368 -0.0969
20688SOL    HW168026   9.227   5.381   4.256 -1.2277 -1.2904  0.1894
20688SOL    HW268027   9.255   5.413   4.402 -3.0314 -1.6375  0.6349
20689SOL     OW68028   4.467   8.524   2.243  0.3732 -0.3677 -0.2193
20689SOL    HW168029   4.499   8.586   2.308 -0.4133  0.5990 -0.7365
20689SOL    HW268030   4.543   8.506   2.187  0.4034  0.7668 -0.5571
20690SOL     OW68031   8.832   6.929   8.655 -0.1417 -0.2414 -0.1155
20690SOL    HW168032   8.820   7.022   8.637  1.1709  0.7368  3.2117
20690SOL    HW268033   8.753   6.903   8.703  0.1717 -0.3947  0.3286
20691SOL     OW68034   4.455   2.740   2.424 -0.3277 -0.7501  0.3244
20691SOL    HW168035   4.499   2.655   2.434 -0.1491 -0.4645  2.5536
20691SOL    HW268036   4.522   2.797   2.387  0.1077 -1.1720  0.4369
20692SOL     OW68037   2.206   2.669   0.751  0.1298 -0.4577 -0.5840
20692SOL    HW168038   2.298   2.641   0.748 -0.4359 -2.2906 -2.6798
20692SOL    HW268039   2.161   2.600   0.800 -0.4082 -0.4304 -1.0337
20693SOL     OW68040   1.198   2.789   3.859  0.3762  0.1241 -0.2403
20693SOL    HW168041   1.214   2.794   3.954 -0.0461  0.4909 -0.1826
20693SOL    HW268042   1.177   2.697   3.843  0.8798 -0.0276 -0.0504
20694SOL     OW68043   6.402   7.409   2.556 -0.2215 -0.4327 -0.1895
20694SOL    HW168044   6.477   7.465   2.536  1.1018 -2.3885 -1.0161
20694SOL    HW268045   6.429   7.359   2.633 -0.9714 -0.6692 -0.0712
20695SOL     OW68046   8.539   8.489   9.247 -0.1230  0.4546  0.1886
20695SOL    HW168047   8.532   8.469   9.154 -0.6911  0.7401  0.1628
20695SOL    HW268048   8.547   8.585   9.251 -1.1110  0.5365  0.4697
20696SOL     OW68049   9.038   1.015   6.632 -0.8007  0.3447 -0.1691
20696SOL    HW168050   9.054   0.925   6.660 -0.2320  0.6436  0.4910
20696SOL    HW268051   8.945   1.028   6.647 -0.8076 -0.0042  0.1263
20697SOL     OW68052   3.131   7.481   7.046  0.1939  0.3162 -0.3322
20697SOL    HW168053   3.057   7.483   6.985 -0.4781  0.7458  0.4673
20697SOL    HW268054   3.205   7.453   6.993 -0.6919 -0.8652 -1.0068
20698SOL     OW68055   0.881   0.768   3.688  0.1560 -0.5186 -0.2313
20698SOL    HW168056   0.815   0.835   3.667  0.2373 -0.0652  0.9077
20698SOL    HW268057   0.830   0.689   3.704 -0.0397 -0.4058 -0.2899
20699SOL     OW68058   3.835   4.052   3.423 -0.1729  0.0591  0.0456
20699SOL    HW168059   3.922   4.092   3.422 -0.5442  0.9076  0.7674
20699SOL    HW268060   3.817   4.031   3.331 -0.3404  2.4109 -0.5254
20700SOL     OW68061   4.892   5.268   3.201 -0.4574 -1.0859 -0.1959
20700SOL    HW168062   4.903   5.173   3.205  1.5141 -0.8618  0.9964
20700SOL    HW268063   4.853   5.292   3.284 -1.7216 -0.8923 -0.8165
20701SOL     OW68064   7.574   9.137   3.475  0.7715  0.2620 -0.2139
20701SOL    HW168065   7.593   9.222   3.435  0.8262  0.7397  0.8001
20701SOL    HW268066   7.621   9.074   3.420 -0.0851  0.7673 -1.5655
20702SOL     OW68067   9.097   3.567   6.591  0.1416 -0.0445 -0.7799
20702SOL    HW168068   9.054   3.513   6.525  1.1213 -1.0024 -0.6463
20702SOL    HW268069   9.055   3.653   6.582 -0.1517 -0.3147 -2.2421
20703SOL     OW68070   3.372   1.875   1.605  0.3392  0.0073  0.0215
20703SOL    HW168071   3.450   1.828   1.577  1.7097  1.6800  0.8729
20703SOL    HW268072   3.378   1.961   1.564  0.0282  0.8693  1.6649
20704SOL     OW68073   3.852   5.901   2.198  0.1069  0.2876 -0.1536
20704SOL    HW168074   3.921   5.903   2.132  1.1280  1.6305  0.9150
20704SOL    HW268075   3.801   5.981   2.182  1.1261  1.3073  1.4202
20705SOL     OW68076   9.176   2.252   0.440 -0.1469 -0.5670  0.0280
20705SOL    HW168077   9.249   2.209   0.484  0.7710  1.7846  0.9818
20705SOL    HW268078   9.098   2.221   0.487  0.4643 -1.2049  0.6420
20706SOL     OW68079   4.875   0.957   0.019  0.5750 -0.2099  0.0665
20706SOL    HW168080   4.859   1.001  -0.064  0.9390 -0.2460 -0.0281
20706SOL    HW268081   4.968   0.933   0.016  0.8149  0.5663  0.8482
20707SOL     OW68082   0.033   3.432   6.835  0.2746 -0.3361  0.1251
20707SOL    HW168083  -0.046   3.440   6.889  0.0344  3.1750 -0.4621
20707SOL    HW268084   0.010   3.478   6.753  2.4399 -0.5248 -0.6459
20708SOL     OW68085   7.605   2.001   6.297 -0.1480  0.1191 -0.2741
20708SOL    HW168086   7.587   2.091   6.326  0.3530  0.8202 -2.0010
20708SOL    HW268087   7.696   1.985   6.323 -0.8810 -0.7386  1.9724
20709SOL     OW68088   0.650   8.915   6.969  0.4188 -0.0991  0.1458
20709SOL    HW168089   0.595   8.942   6.896  1.3748 -1.9194 -1.3436
20709SOL    HW268090   0.593   8.865   7.026 -0.5343  2.0082  1.1658
20710SOL     OW68091   3.579   3.722   8.731 -0.0857  0.2361 -0.3822
20710SOL    HW168092   3.605   3.683   8.647  1.3900 -0.8419  0.5287
20710SOL    HW268093   3.643   3.793   8.744 -0.6047  0.7101 -0.3687
20711SOL     OW68094   2.660   2.944   2.684  0.0830  0.0508  0.3218
20711SOL    HW168095   2.572   2.944   2.719 -0.9484  2.1465 -1.9529
20711SOL    HW268096   2.662   2.871   2.621 -1.3203  2.0410 -2.2197
20712SOL     OW68097   1.913   2.113   4.040 -0.2013  0.6002 -0.3755
20712SOL    HW168098   1.909   2.208   4.037  3.0550  0.8467 -0.5793
20712SOL    HW268099   1.952   2.088   3.955 -0.6020 -0.8724 -0.1570
20713SOL     OW68100   6.935   6.973   5.648  0.1709  0.0198  0.4318
20713SOL    HW168101   6.937   6.991   5.742  0.9571  3.3130 -0.0898
20713SOL    HW268102   7.023   6.996   5.618  0.1335 -1.5970 -1.0645
20714SOL     OW68103   5.740   3.149   6.904 -0.1186  0.0872  0.3096
20714SOL    HW168104   5.798   3.225   6.907  1.1374 -0.8561  1.0569
20714SOL    HW268105   5.793   3.077   6.939 -1.3170 -1.1065 -0.2365
20715SOL     OW68106   6.001   1.230   4.082 -0.2106  0.1096  0.4989
20715SOL    HW168107   6.082   1.192   4.047 -0.7394 -1.1349  0.5511
20715SOL    HW268108   6.027   1.266   4.167  0.5637  0.9382 -0.0778
20716SOL     OW68109   3.352   3.640   1.533 -0.2988  0.2323  0.3450
20716SOL    HW168110   3.340   3.728   1.496  0.0964 -0.0351 -0.4369
20716SOL    HW268111   3.383   3.656   1.622  1.0290  0.8883 -0.2085
20717SOL     OW68112   4.201   4.306   4.793 -0.4951 -0.6623 -0.4307
20717SOL    HW168113   4.252   4.381   4.762 -3.5162  0.8014 -2.3731
20717SOL    HW268114   4.266   4.247   4.831  2.2070  2.3197  0.0406
20718SOL     OW68115   6.843   2.915   1.640  0.1159 -0.0770  0.2634
20718SOL    HW168116   6.935   2.903   1.661  0.1396  0.0701  0.2475
20718SOL    HW268117   6.837   3.006   1.610  0.3337 -0.6688 -1.7264
20719SOL     OW68118   5.101   4.472   8.713  0.0048  0.0551 -0.0776
20719SOL    HW168119   5.118   4.549   8.767  0.1150 -0.2019  0.2604
20719SOL    HW268120   5.179   4.463   8.658 -0.2789  0.5531 -0.5742
20720SOL     OW68121   6.562   7.039   5.591  0.4452  0.2051 -0.0987
20720SOL    HW168122   6.581   7.126   5.625 -0.1942  1.6195 -3.0167
20720SOL    HW268123   6.645   7.010   5.554  0.5193 -0.2126  0.3841
20721SOL     OW68124   1.819   7.488   5.021  0.5640  0.4040 -0.3271
20721SOL    HW168125   1.735   7.443   5.029  0.5550  0.4110 -0.3882
20721SOL    HW268126   1.807   7.571   5.067  1.0155 -0.2653  1.0833
20722SOL     OW68127   4.359   1.081   5.932  0.0470 -0.3102 -0.4018
20722SOL    HW168128   4.323   1.137   5.863 -0.0148 -0.5775 -0.5874
20722SOL    HW268129   4.439   1.045   5.894 -0.1066 -0.6351 -0.4123
20723SOL     OW68130   4.650   4.303   7.224 -0.3387 -1.0015 -0.4529
20723SOL    HW168131   4.601   4.235   7.271  0.0119 -0.0754  1.3644
20723SOL    HW268132   4.740   4.272   7.224 -0.2739 -0.8232 -0.1284
20724SOL     OW68133   7.666   5.097   5.348  0.2599 -0.3786 -0.4183
20724SOL    HW168134   7.574   5.104   5.370  0.0468 -2.1709 -0.6399
20724SOL    HW268135   7.689   5.006   5.363  1.7761 -0.1749 -1.2006
20725SOL     OW68136   0.786   1.740   4.458  0.8441  0.2728 -0.1602
20725SOL    HW168137   0.746   1.750   4.545  0.3431 -1.6725 -0.1205
20725SOL    HW268138   0.727   1.788   4.399  0.0945 -0.0556  0.3064
20726SOL     OW68139   6.641   3.625   8.889  0.5193 -0.0509  0.1186
20726SOL    HW168140   6.551   3.643   8.915  0.6805 -0.9400  1.3437
20726SOL    HW268141   6.690   3.702   8.919  0.4146 -0.2581  0.8190
20727SOL     OW68142   4.786   3.430   5.032  0.3625  0.4927  0.1211
20727SOL    HW168143   4.819   3.410   5.120 -3.0459  0.7170  1.6165
20727SOL    HW268144   4.790   3.347   4.985 -2.1951 -0.9680  2.1933
20728SOL     OW68145   2.247   7.837   4.783 -0.9705  0.1478  0.0918
20728SOL    HW168146   2.332   7.860   4.819 -0.8766  0.3091 -0.2303
20728SOL    HW268147   2.185   7.893   4.829 -1.0425 -0.7971  1.1723
20729SOL     OW68148   6.276   7.003   6.956  0.3018  0.3240  0.1510
20729SOL    HW168149   6.365   6.981   6.927 -0.3166 -1.9538 -0.1943
20729SOL    HW268150   6.250   7.076   6.901  1.6950  0.5847 -0.2146
20730SOL     OW68151   8.427   3.006   1.849 -0.1356  0.3170 -0.0950
20730SOL    HW168152   8.493   2.948   1.888 -0.0733 -0.2193 -0.9748
20730SOL    HW268153   8.345   2.958   1.857  0.0260 -0.2087 -1.4473
20731SOL     OW68154   9.150   9.318   1.167 -0.1758 -0.6740 -0.1227
20731SOL    HW168155   9.178   9.250   1.229 -1.4146 -0.9222  0.1830
20731SOL    HW268156   9.087   9.370   1.216 -0.1796 -0.0569 -0.7683
20732SOL     OW68157   3.231   7.049   6.957 -0.3305 -0.3080  0.1011
20732SOL    HW168158   3.239   7.145   6.954 -0.4510 -0.3103 -0.3303
20732SOL    HW268159   3.214   7.030   7.049  0.2333  0.0421  0.2838
20733SOL     OW68160   3.618   2.885   1.835  0.3362 -0.0061  0.3011
20733SOL    HW168161   3.525   2.903   1.850  0.0973 -0.5192 -0.5166
20733SOL    HW268162   3.638   2.811   1.893  0.5446  0.8754  1.3707
20734SOL     OW68163   5.083   2.479   3.435 -0.3505  0.7142  0.0215
20734SOL    HW168164   4.989   2.469   3.447  0.0678 -3.1197  1.4070
20734SOL    HW268165   5.098   2.460   3.342 -0.8015 -0.6282  0.2099
20735SOL     OW68166   7.376   8.308   1.975 -0.4057  0.0996 -0.1946
20735SOL    HW168167   7.407   8.285   1.887 -1.1459 -0.6825 -0.2579
20735SOL    HW268168   7.455   8.305   2.029 -0.0849 -0.2379 -0.6703
20736SOL     OW68169   2.505   9.367   3.231  0.2510  0.2878 -0.2169
20736SOL    HW168170   2.598   9.387   3.225  0.2692  0.1956 -0.2325
20736SOL    HW268171   2.499   9.292   3.289 -0.1387  2.8544  3.4075
20737SOL     OW68172   7.964   7.285   7.465 -0.2274  0.4241  0.1506
20737SOL    HW168173   7.975   7.200   7.508 -1.8646  0.5604  0.9578
20737SOL    HW268174   8.006   7.347   7.525 -1.6281  0.4910  1.1328
20738SOL     OW68175   7.434   7.587   0.062  0.5096  0.0413  0.7502
20738SOL    HW168176   7.457   7.608   0.152  1.2480 -0.0734  0.5900
20738SOL    HW268177   7.355   7.534   0.069  1.6895 -1.7017  1.4504
20739SOL     OW68178   0.931   1.770   5.345 -0.2250  0.0881 -0.2494
20739SOL    HW168179   0.889   1.839   5.294 -1.6141 -1.1708 -0.8797
20739SOL    HW268180   1.009   1.812   5.382 -1.2933  2.1324 -0.1615
20740SOL     OW68181   4.233   4.633   5.081  0.4354  0.4358 -0.2928
20740SOL    HW168182   4.245   4.679   5.164  2.6843  0.7540 -0.7244
20740SOL    HW268183   4.321   4.624   5.046 -0.1130 -2.4565 -1.2063
20741SOL     OW68184   0.309   1.997   9.059  0.9381 -0.2187 -0.8958
20741SOL    HW168185   0.362   1.957   9.129 -0.2637 -2.3925 -1.1612
20741SOL    HW268186   0.219   1.981   9.085  0.4142  1.2404 -1.7004
20742SOL     OW68187   6.681   7.684   6.471 -0.2262 -0.1477 -0.3009
20742SOL    HW168188   6.747   7.645   6.527 -0.1991 -1.2974 -1.1053
20742SOL    HW268189   6.641   7.610   6.425 -1.1406  0.6466 -0.8286
20743SOL     OW68190   6.958   8.009   6.894 -0.5952  0.2968  0.5188
20743SOL    HW168191   6.871   8.049   6.884 -0.4831  0.0616 -1.9426
20743SOL    HW268192   7.009   8.046   6.822  0.7226 -1.1741  0.6615
20744SOL     OW68193   1.986   8.280   2.884 -0.6908 -0.3826  0.0698
20744SOL    HW168194   1.965   8.374   2.883 -0.3503 -0.2630  1.7395
20744SOL    HW268195   2.071   8.274   2.840 -0.6220  0.1114  0.1287
20745SOL     OW68196   6.978   6.552   0.836 -0.4241  0.2422 -0.5677
20745SOL    HW168197   7.055   6.575   0.887 -0.5601 -0.2123 -0.1442
20745SOL    HW268198   6.947   6.635   0.800 -0.2127  0.5428 -0.0641
20746SOL     OW68199   3.347   2.348   9.185 -0.1352 -0.3758  1.1529
20746SOL    HW168200   3.255   2.333   9.165  0.7609 -1.6451 -3.0335
20746SOL    HW268201   3.392   2.269   9.152  2.5718  0.7515  1.8422
20747SOL     OW68202   0.066   5.200   7.872  0.1661  0.9553  0.3786
20747SOL    HW168203   0.056   5.280   7.820  0.7304  0.5267 -0.4038
20747SOL    HW268204   0.142   5.217   7.928  1.3537  0.3578 -0.9898
20748SOL     OW68205   6.987   5.598   1.330  0.2717 -0.3182  0.1622
20748SOL    HW168206   7.024   5.661   1.392  0.7851 -0.4341 -0.0179
20748SOL    HW268207   6.898   5.629   1.314  0.6102  0.5254 -0.1397
20749SOL     OW68208   8.062   1.964   0.596  0.3051  0.6086 -0.2627
20749SOL    HW168209   8.152   1.974   0.626  0.1648  2.6647 -0.3465
20749SOL    HW268210   8.070   1.938   0.504  0.7720 -0.5193  0.0795
20750SOL     OW68211   0.741   4.571   0.272  0.0523  0.3728  0.5934
20750SOL    HW168212   0.720   4.492   0.222  3.0916 -0.4494  0.4201
20750SOL    HW268213   0.749   4.640   0.206  1.5916 -0.1682  0.1687
20751SOL     OW68214   3.325   4.644   2.058 -0.1777 -0.0620  0.1696
20751SOL    HW168215   3.385   4.614   1.989 -1.3431 -2.5271  0.1142
20751SOL    HW268216   3.354   4.597   2.136 -1.0317 -0.0128  0.5215
20752SOL     OW68217   0.294   6.151   0.639  0.2322 -0.4279 -0.2521
20752SOL    HW168218   0.276   6.185   0.552 -1.3035  1.4927  0.7496
20752SOL    HW268219   0.207   6.133   0.676  0.7557  0.3843  1.4655
20753SOL     OW68220   1.909   8.203   3.433 -0.5702 -0.4055  0.5066
20753SOL    HW168221   1.979   8.190   3.497 -0.2834 -0.1012  0.2590
20753SOL    HW268222   1.829   8.202   3.486 -0.2283  1.7839  1.1800
20754SOL     OW68223   2.738   7.391   3.484  0.3888 -0.1423 -0.0460
20754SOL    HW168224   2.672   7.403   3.416  1.7966  0.1285 -1.4387
20754SOL    HW268225   2.728   7.467   3.541 -0.7659 -0.3339  0.0148
20755SOL     OW68226   1.242   8.964   8.115  0.0152 -0.3521 -0.3698
20755SOL    HW168227   1.292   8.913   8.052 -1.8394  0.1504 -2.3770
20755SOL    HW268228   1.164   8.991   8.067 -0.9055  1.1189  1.8003
20756SOL     OW68229   8.969   3.754   8.269 -0.2503 -0.6782  0.2238
20756SOL    HW168230   9.004   3.714   8.190  0.3504  0.4336 -0.0964
20756SOL    HW268231   8.950   3.844   8.244 -1.4651 -0.7085  0.9492
20757SOL     OW68232   5.189   4.337   5.361  0.8016 -0.1816  0.1465
20757SOL    HW168233   5.143   4.413   5.399  1.3965 -0.0281  0.5704
20757SOL    HW268234   5.178   4.268   5.426  0.0268 -0.5550 -0.3625
20758SOL     OW68235   0.229   3.794   4.637  0.3561 -0.1655  0.2658
20758SOL    HW168236   0.195   3.879   4.665  0.0408 -0.3535  0.4536
20758SOL    HW268237   0.223   3.739   4.714  1.6621 -0.0391  0.4873
20759SOL     OW68238   2.472   3.548   7.006  0.0071 -0.0090 -0.2508
20759SOL    HW168239   2.465   3.634   6.967 -0.9319  0.4904  0.9528
20759SOL    HW268240   2.393   3.539   7.060  0.0671 -1.6308 -0.3732
20760SOL     OW68241   7.634   2.602   3.466  0.1498 -0.2088 -0.6070
20760SOL    HW168242   7.626   2.596   3.370  0.5071 -2.3908 -0.5428
20760SOL    HW268243   7.723   2.571   3.484  0.2581  0.6631  0.4098
20761SOL     OW68244   2.610   1.942   8.158 -0.7450 -0.0448 -0.1123
20761SOL    HW168245   2.560   1.990   8.092 -1.4712 -1.4559 -0.6191
20761SOL    HW268246   2.544   1.900   8.212 -0.1243 -0.8902  0.0069
20762SOL     OW68247   6.684   6.010   2.478  0.1547  0.0595 -0.2979
20762SOL    HW168248   6.728   5.997   2.562 -0.6227  0.3452  0.1642
20762SOL    HW268249   6.717   6.095   2.447  0.0549  0.1950 -0.0349
20763SOL     OW68250   3.990   3.660   2.142  0.1595 -0.7064 -0.5425
20763SOL    HW168251   3.942   3.586   2.104 -1.8467  1.1548 -1.9094
20763SOL    HW268252   3.939   3.684   2.220  0.1393 -0.0940 -0.7397
20764SOL     OW68253   3.132   5.151   3.181  0.5578  0.0290  0.1578
20764SOL    HW168254   3.073   5.226   3.187  0.1754 -0.3083  0.5986
20764SOL    HW268255   3.135   5.131   3.087 -1.6454 -1.2248  0.2831
20765SOL     OW68256   8.614   2.060   1.975 -0.5374 -0.2530 -0.1057
20765SOL    HW168257   8.604   2.004   1.898  1.8354  0.7562 -1.2666
20765SOL    HW268258   8.658   2.005   2.040  0.8035 -0.0846 -0.8456
20766SOL     OW68259   1.299   2.483   6.874  0.2319  0.0795  0.3267
20766SOL    HW168260   1.384   2.441   6.865 -0.2667 -0.9067  0.0642
20766SOL    HW268261   1.246   2.446   6.803 -0.4574  0.5754  0.5690
20767SOL     OW68262   1.347   2.062   4.148 -0.2329  0.3213  0.4488
20767SOL    HW168263   1.387   2.032   4.230 -0.6577 -1.1796  0.1379
20767SOL    HW268264   1.264   2.102   4.176 -0.4143 -0.2550  0.7408
20768SOL     OW68265   1.616   6.613   4.574 -0.4650  0.1486 -0.4633
20768SOL    HW168266   1.538   6.597   4.521 -0.0584 -1.7448 -0.5526
20768SOL    HW268267   1.598   6.570   4.658  1.7648 -3.5725 -1.6559
20769SOL     OW68268   1.885   3.874   8.443 -0.2837  0.5216  0.0539
20769SOL    HW168269   1.885   3.819   8.522  0.2086 -0.5887 -0.6927
20769SOL    HW268270   1.975   3.872   8.413 -0.1139  2.2735  0.3318
20770SOL     OW68271   7.935   6.563   3.815  0.2272 -0.1456  0.4149
20770SOL    HW168272   7.969   6.579   3.903  1.0082 -1.1808  0.3184
20770SOL    HW268273   8.012   6.566   3.759 -0.0793 -0.8498 -0.0486
20771SOL     OW68274   4.228   1.048   3.829 -0.2148  0.1496  0.4381
20771SOL    HW168275   4.148   1.006   3.860 -0.4567  1.8689  2.3309
20771SOL    HW268276   4.211   1.142   3.837  2.3105  0.5815  1.8421
20772SOL     OW68277   7.793   6.560   2.996  0.6770 -0.1794  0.4334
20772SOL    HW168278   7.828   6.632   3.048 -0.5091  0.0763  0.8990
20772SOL    HW268279   7.710   6.537   3.038  0.0647 -0.4875 -0.8803
20773SOL     OW68280   5.826   5.500   4.754  0.0954 -0.0223  0.5914
20773SOL    HW168281   5.738   5.482   4.788 -0.5573 -0.3217 -1.1051
20773SOL    HW268282   5.871   5.545   4.825 -1.5477  0.4283  1.4051
20774SOL     OW68283   6.011   2.577   6.352 -0.6472  0.2256  0.4199
20774SOL    HW168284   5.962   2.615   6.425 -2.7006 -1.5260  0.0689
20774SOL    HW268285   6.025   2.649   6.291 -1.2040  1.1541  1.3666
20775SOL     OW68286   6.389   9.304   0.175 -0.2477 -0.0444 -0.2586
20775SOL    HW168287   6.439   9.233   0.215  1.2443  0.6450 -0.8205
20775SOL    HW268288   6.409   9.298   0.082 -0.5685  0.7387 -0.3888
20776SOL     OW68289   4.001   8.182   1.954  0.8436 -0.2003  0.2590
20776SOL    HW168290   3.913   8.153   1.977  0.9489  0.5025  1.6066
20776SOL    HW268291   4.005   8.273   1.981  1.3888  0.3546 -1.5277
20777SOL     OW68292   6.606   0.912   6.936  0.0209  0.7331  0.0141
20777SOL    HW168293   6.684   0.883   6.889  1.7339 -0.1339  3.1440
20777SOL    HW268294   6.596   1.004   6.910  3.0896  1.3694  0.6807
20778SOL     OW68295   8.009   3.349   5.352 -0.0737 -0.1909 -0.1031
20778SOL    HW168296   7.975   3.281   5.411  0.3740 -0.0916  0.2801
20778SOL    HW268297   7.940   3.415   5.349  0.1784  0.1336  0.8769
20779SOL     OW68298   6.466   7.822   0.566 -0.1424 -0.1082  0.2105
20779SOL    HW168299   6.378   7.805   0.531 -0.2439 -0.0928  0.4595
20779SOL    HW268300   6.489   7.741   0.612  0.2996 -0.4172 -0.5192
20780SOL     OW68301   6.030   7.285   1.997  0.0166 -0.1410 -0.1501
20780SOL    HW168302   6.064   7.367   2.033 -1.5366  0.7653 -0.6099
20780SOL    HW268303   5.985   7.244   2.071 -0.2632  0.0496 -0.2104
20781SOL     OW68304   4.716   9.022   1.698 -0.7144  0.2636  0.1891
20781SOL    HW168305   4.675   8.989   1.618 -0.4284 -1.1075  0.5841
20781SOL    HW268306   4.717   9.117   1.687  0.4988  0.0579 -2.0208
20782SOL     OW68307   3.934   3.056   7.349  0.4127 -0.1129 -0.1194
20782SOL    HW168308   3.961   3.146   7.365  1.5047 -0.4405 -0.1030
20782SOL    HW268309   4.006   3.017   7.299  0.3036 -1.2032  0.5474
20783SOL     OW68310   5.021   4.488   2.522 -0.0151 -0.0612  0.5608
20783SOL    HW168311   5.028   4.406   2.472 -1.6474 -0.5283  1.0064
20783SOL    HW268312   5.041   4.557   2.458  0.1954 -0.7526 -0.1393
20784SOL     OW68313   3.928   4.344   4.455  0.4358  0.3029 -0.0998
20784SOL    HW168314   3.959   4.358   4.365  3.4710  0.6550  0.8794
20784SOL    HW268315   3.902   4.431   4.486  1.8912  0.6760  0.1500
20785SOL     OW68316   8.269   3.209   0.424 -0.6025  0.3696 -0.4262
20785SOL    HW168317   8.357   3.219   0.389 -0.4149  1.5516  0.3103
20785SOL    HW268318   8.259   3.115   0.439  1.3023  0.3609  1.3699
20786SOL     OW68319   6.036   2.004   8.366 -0.5151 -0.1400  0.2633
20786SOL    HW168320   6.120   1.966   8.339 -1.2707 -1.0103 -0.9524
20786SOL    HW268321   6.028   1.980   8.458  0.1478 -0.8537  0.1522
20787SOL     OW68322   7.217   7.155   5.027  0.8687  0.1166 -0.3456
20787SOL    HW168323   7.169   7.234   5.001 -1.2832 -0.4135  1.6514
20787SOL    HW268324   7.207   7.095   4.953  0.5470  0.8978 -0.9448
20788SOL     OW68325   8.901   1.434   1.423  0.0675  0.3322  0.0413
20788SOL    HW168326   8.831   1.447   1.359  0.9400 -0.2006 -1.0473
20788SOL    HW268327   8.933   1.345   1.406  1.1945  0.6681  0.3331
20789SOL     OW68328   1.598   8.814   3.454 -0.1233 -0.0736  0.3567
20789SOL    HW168329   1.523   8.755   3.459 -0.4254  0.3035  0.2549
20789SOL    HW268330   1.634   8.816   3.542 -0.6889  0.3469  0.5765
20790SOL     OW68331   3.847   0.755   3.508 -0.1774 -0.2988  0.3900
20790SOL    HW168332   3.831   0.788   3.597 -0.7772 -2.6430  1.2556
20790SOL    HW268333   3.759   0.732   3.476 -0.4721  3.6933 -2.3168
20791SOL     OW68334   1.302   9.175   8.537  0.0585  0.6262 -0.0683
20791SOL    HW168335   1.349   9.166   8.454  0.7454  0.9159  0.2853
20791SOL    HW268336   1.296   9.086   8.571 -1.2151  0.3478 -0.9572
20792SOL     OW68337   3.883   8.685   2.532  0.2916  0.0142 -0.1715
20792SOL    HW168338   3.905   8.651   2.619 -0.5269  0.9667  0.4182
20792SOL    HW268339   3.963   8.730   2.503  0.0050  1.2693  0.8860
20793SOL     OW68340   4.670   6.300   4.077 -0.1315  0.1299 -0.3612
20793SOL    HW168341   4.647   6.320   3.986  0.2698  1.8295 -0.1150
20793SOL    HW268342   4.763   6.280   4.074 -0.3359 -0.8475 -0.4639
20794SOL     OW68343   5.071   7.446   3.029 -0.2703 -0.2103 -0.1114
20794SOL    HW168344   5.147   7.405   2.985  0.7624  1.7429 -0.2484
20794SOL    HW268345   4.995   7.410   2.983  0.7244  1.2061 -3.1616
20795SOL     OW68346   8.847   8.637   3.971 -0.6170  0.4372 -0.2692
20795SOL    HW168347   8.787   8.562   3.975 -1.5195  1.1818  0.9375
20795SOL    HW268348   8.908   8.622   4.044  1.0515 -0.5854 -1.8060
20796SOL     OW68349   2.497   2.630   8.726 -0.8077  0.9367  0.1522
20796SOL    HW168350   2.402   2.638   8.712 -0.8885  0.4815  0.4216
20796SOL    HW268351   2.505   2.576   8.804 -0.3199  0.9456  0.1101
20797SOL     OW68352   3.906   8.148   8.193  0.6618  0.0068 -0.1710
20797SOL    HW168353   3.865   8.226   8.229 -1.6372 -0.5438 -1.3668
20797SOL    HW268354   3.913   8.088   8.267  0.0074  0.4033  0.2234
20798SOL     OW68355   8.487   8.479   5.481  0.5739 -0.5002 -0.3854
20798SOL    HW168356   8.419   8.522   5.533 -0.3197 -1.5313 -0.6688
20798SOL    HW268357   8.490   8.390   5.514  1.4007 -0.6220 -0.7639
20799SOL     OW68358   3.118   4.252   1.149  0.2216 -0.0008 -0.8520
20799SOL    HW168359   3.068   4.332   1.138 -0.0717 -0.0819 -0.1864
20799SOL    HW268360   3.079   4.210   1.226  0.3394 -0.8021 -1.2192
20800SOL     OW68361   2.237   6.549   7.375 -0.6069 -0.2203  0.4849
20800SOL    HW168362   2.260   6.525   7.286  1.6572  0.2220  0.8888
20800SOL    HW268363   2.321   6.556   7.421 -1.6609  0.2196  2.4853
20801SOL     OW68364   5.181   4.418   3.508 -0.4081  0.4421 -0.1095
20801SOL    HW168365   5.143   4.330   3.507  1.5434 -0.4985  0.8180
20801SOL    HW268366   5.120   4.472   3.458 -1.2007 -1.6300 -1.5193
20802SOL     OW68367   2.244   8.448   3.679  0.5653 -0.2554 -0.0958
20802SOL    HW168368   2.274   8.483   3.596  0.9192  0.7023  0.4221
20802SOL    HW268369   2.250   8.522   3.740 -0.2116 -0.7898  0.6533
20803SOL     OW68370   5.303   6.384   2.993  0.1827  0.0912 -0.2306
20803SOL    HW168371   5.384   6.403   3.040  0.4509  1.4529 -1.1856
20803SOL    HW268372   5.242   6.451   3.023  0.1291  0.5034 -1.2299
20804SOL     OW68373   3.593   4.956   7.906  1.0446 -0.3026  0.4736
20804SOL    HW168374   3.499   4.938   7.912  0.7892  0.0833 -1.5471
20804SOL    HW268375   3.626   4.891   7.844  1.6680  0.8854 -0.4963
20805SOL     OW68376   7.778   1.364   0.004 -0.4318  0.4105 -0.0116
20805SOL    HW168377   7.868   1.393   0.019 -1.3186  2.3466  2.3497
20805SOL    HW268378   7.725   1.421   0.060 -3.1092 -0.9333 -0.9888
20806SOL     OW68379   3.561   5.404   0.475  0.0402  0.8733  0.4108
20806SOL    HW168380   3.651   5.372   0.468 -0.5420 -0.8338  0.3797
20806SOL    HW268381   3.556   5.474   0.410  0.5365 -1.0029 -1.7840
20807SOL     OW68382   6.887   0.493   6.984  0.0176 -0.0617 -0.0900
20807SOL    HW168383   6.914   0.446   6.905  1.8365  0.4895  0.1618
20807SOL    HW268384   6.961   0.484   7.044 -0.7185  0.8093  0.9924
20808SOL     OW68385   7.884   0.741   4.284 -0.1258 -0.5136 -0.4841
20808SOL    HW168386   7.814   0.768   4.343  0.6870  1.6488 -0.4394
20808SOL    HW268387   7.842   0.681   4.222 -2.0011  0.6453 -0.3929
20809SOL     OW68388   1.958   4.466   4.592 -0.6494 -0.1480  0.1432
20809SOL    HW168389   2.004   4.423   4.519 -0.6928 -0.4972  0.3199
20809SOL    HW268390   1.971   4.407   4.666 -0.2705  0.3939  0.5211
20810SOL     OW68391   1.578   5.582   5.445 -0.0013  0.1873 -0.5579
20810SOL    HW168392   1.642   5.590   5.374  1.5956  0.5615  0.8486
20810SOL    HW268393   1.568   5.671   5.479  3.0963 -0.4633  2.7731
20811SOL     OW68394   8.042   9.356   7.739 -0.2970 -1.0238 -0.3124
20811SOL    HW168395   8.128   9.316   7.728 -0.0112 -0.1847 -1.3272
20811SOL    HW268396   7.980   9.289   7.710  0.1300 -1.0223 -1.2561
20812SOL     OW68397   8.346   6.481   7.002  0.2235 -0.0165 -0.2791
20812SOL    HW168398   8.355   6.566   6.960  0.7578  0.4587  0.7652
20812SOL    HW268399   8.426   6.434   6.979  0.7265  0.4107  0.5472
20813SOL     OW68400   0.552   7.259   5.126  0.3188  0.0683 -0.0190
20813SOL    HW168401   0.460   7.256   5.155 -0.0577  2.7998 -0.6187
20813SOL    HW268402   0.597   7.308   5.195  0.7662  0.9764 -0.9359
20814SOL     OW68403   3.182   2.377   5.682  0.6929  0.8245  0.0053
20814SOL    HW168404   3.110   2.389   5.620 -1.3217 -1.4078  1.7448
20814SOL    HW268405   3.232   2.304   5.646 -0.3698 -0.3497  0.8484
20815SOL     OW68406   5.708   5.313   7.132 -0.4044 -0.0302 -0.3272
20815SOL    HW168407   5.785   5.350   7.090 -0.9160  0.3686 -0.9355
20815SOL    HW268408   5.731   5.222   7.151  0.3040  0.1640 -0.2578
20816SOL     OW68409   8.226   7.169   6.894  0.4818 -0.3024 -0.0206
20816SOL    HW168410   8.285   7.153   6.821 -1.2176 -1.8372 -1.1682
20816SOL    HW268411   8.163   7.233   6.860  1.0700  0.8507  0.9765
20817SOL     OW68412   5.108   6.517   8.781 -0.1305 -0.5491  0.1639
20817SOL    HW168413   5.126   6.472   8.699  1.0615 -0.6033  0.4435
20817SOL    HW268414   5.091   6.608   8.756  1.0146 -0.3886 -0.0859
20818SOL     OW68415   8.807   0.270   7.311  0.3397  0.2273  0.3091
20818SOL    HW168416   8.781   0.290   7.221  0.6934  2.1665  0.5853
20818SOL    HW268417   8.731   0.295   7.364 -0.4021 -2.2060  0.4937
20819SOL     OW68418   4.983   4.125   9.296 -0.1690  0.4099  0.2169
20819SOL    HW168419   4.947   4.213   9.289  0.1173  0.4264 -1.4774
20819SOL    HW268420   5.053   4.123   9.230  0.9445 -0.5574  1.3900
20820SOL     OW68421   7.310   7.580   6.030 -0.5991 -0.0264  0.1990
20820SOL    HW168422   7.253   7.521   5.981  0.8015 -0.0719 -1.4808
20820SOL    HW268423   7.398   7.558   6.000  0.2246  0.8269  1.8496
20821SOL     OW68424   1.174   4.117   3.203 -0.0200  0.7264 -0.0611
20821SOL    HW168425   1.101   4.061   3.176  0.2938  0.0021  0.5665
20821SOL    HW268426   1.252   4.066   3.183  0.2685  0.9223  0.5552
20822SOL     OW68427   3.324   0.842   7.751 -0.3495  0.1182  0.0232
20822SOL    HW168428   3.254   0.897   7.785 -1.9625 -1.5037 -0.5357
20822SOL    HW268429   3.283   0.790   7.682  0.9120 -2.2131  0.9085
20823SOL     OW68430   7.031   2.314   6.939 -0.0211 -0.0909 -0.7788
20823SOL    HW168431   7.018   2.395   6.890 -0.8976  0.3792  0.1965
20823SOL    HW268432   6.944   2.289   6.968  0.3220 -1.0478 -0.5284
20824SOL     OW68433   1.905   6.270   7.618 -0.2160  0.1868 -0.3790
20824SOL    HW168434   1.925   6.295   7.528  0.5315 -2.0879 -0.9099
20824SOL    HW268435   1.839   6.202   7.611 -1.1681  0.9203  0.9050
20825SOL     OW68436   6.688   4.771   7.889 -0.5579 -0.4868 -0.5890
20825SOL    HW168437   6.688   4.693   7.834 -1.5815 -1.4505  0.7273
20825SOL    HW268438   6.647   4.744   7.971  1.4820  0.7119  0.9409
20826SOL     OW68439   8.338   6.162   7.015 -0.2610  0.4607  0.2751
20826SOL    HW168440   8.361   6.070   7.023 -0.3922  0.4355  0.3726
20826SOL    HW268441   8.381   6.191   6.934  0.3156  0.4816  0.5870
20827SOL     OW68442   2.890   2.006   0.672  0.0226 -0.2002  0.2893
20827SOL    HW168443   2.942   2.074   0.631  0.0979  0.0464  0.7928
20827SOL    HW268444   2.830   1.976   0.602 -0.2270  0.5919  0.1562
20828SOL     OW68445   5.968   4.679   0.920 -0.1956  0.5231 -0.1093
20828SOL    HW168446   5.964   4.757   0.976 -2.5043 -0.4125  1.1258
20828SOL    HW268447   5.935   4.709   0.835 -0.3636  1.0532  0.1400
20829SOL     OW68448   8.755   6.169   0.026  0.0271 -0.1546  0.2327
20829SOL    HW168449   8.695   6.119  -0.028  0.4507 -1.2540  0.7539
20829SOL    HW268450   8.737   6.141   0.116  1.1413 -0.3273  0.4178
20830SOL     OW68451   4.619   1.578   2.982  0.0842  0.0469 -0.7021
20830SOL    HW168452   4.708   1.570   2.947  0.3954 -1.0358  0.2627
20830SOL    HW268453   4.572   1.503   2.945  0.2578 -0.7753  0.6703
20831SOL     OW68454   5.977   7.863   8.404  0.0444 -0.0622  0.1524
20831SOL    HW168455   6.053   7.806   8.412  0.0109 -0.0622  0.4752
20831SOL    HW268456   6.011   7.943   8.365 -0.0502 -0.5961 -1.0993
20832SOL     OW68457   3.681   8.855   9.281 -0.0024 -0.2063 -0.4536
20832SOL    HW168458   3.729   8.937   9.270  0.7940 -0.5701  0.1865
20832SOL    HW268459   3.734   8.805   9.343 -0.7873 -0.9632 -0.3804
20833SOL     OW68460   2.421   2.308   9.184  0.8420 -0.5989  0.5233
20833SOL    HW168461   2.429   2.353   9.099  1.0087 -0.5933  0.5422
20833SOL    HW268462   2.504   2.326   9.228  0.3778  0.2222  1.0922
20834SOL     OW68463   4.888   7.110   8.846 -0.1091 -0.0574 -1.0384
20834SOL    HW168464   4.957   7.092   8.783  0.0433 -1.6372 -0.4775
20834SOL    HW268465   4.815   7.054   8.819 -1.2117  1.6012 -1.6349
20835SOL     OW68466   2.726   3.916   6.370 -0.1586 -0.6539 -0.1848
20835SOL    HW168467   2.785   3.921   6.445 -1.3882 -2.7389  1.0481
20835SOL    HW268468   2.645   3.957   6.400  0.5227  2.1661 -1.8523
20836SOL     OW68469   5.994   3.075   3.843 -0.5284  0.2147  0.7060
20836SOL    HW168470   6.025   3.096   3.755 -2.6623 -3.2154 -1.0481
20836SOL    HW268471   5.957   3.157   3.875 -0.2679  1.4238 -1.8201
20837SOL     OW68472   2.145   8.450   4.565 -0.2747  0.7076  0.1902
20837SOL    HW168473   2.093   8.415   4.493 -0.1754  0.0566  0.4302
20837SOL    HW268474   2.152   8.544   4.546  2.7642  0.1025 -2.6095
20838SOL     OW68475   2.719   7.845   5.644  0.2584 -0.0207 -0.5961
20838SOL    HW168476   2.705   7.788   5.719  1.7025  1.3670  0.8220
20838SOL    HW268477   2.810   7.874   5.652 -0.0207  1.4191 -1.9798
20839SOL     OW68478   7.288   8.657   7.119  0.5547 -0.1805  0.6871
20839SOL    HW168479   7.280   8.744   7.079  1.4569 -0.7881 -0.9273
20839SOL    HW268480   7.245   8.666   7.204  1.1539  2.0036  0.8387
20840SOL     OW68481   8.553   2.809   7.645  0.8203 -0.0417  0.8626
20840SOL    HW168482   8.607   2.731   7.627  1.8935  1.0997 -1.2150
20840SOL    HW268483   8.525   2.839   7.559 -1.0190  0.9148  1.7509
20841SOL     OW68484   5.407   7.166   0.496 -0.3349 -0.3538  0.0714
20841SOL    HW168485   5.434   7.172   0.404  1.2232 -0.2053  0.4966
20841SOL    HW268486   5.472   7.220   0.543 -1.8015  0.5565  1.1367
20842SOL     OW68487   1.652   6.808   0.228  0.3413 -0.0314 -0.2286
20842SOL    HW168488   1.558   6.795   0.221  0.1403  0.6296  0.9718
20842SOL    HW268489   1.673   6.873   0.160 -0.2178  0.4550  0.0548
20843SOL     OW68490   1.272   5.771   8.659  0.1817  0.1358  0.5894
20843SOL    HW168491   1.330   5.828   8.609  0.2449  1.1769  1.8029
20843SOL    HW268492   1.230   5.716   8.593  1.5569  0.2570 -0.4308
20844SOL     OW68493   4.520   1.952   3.473  0.3741 -0.4759 -0.1315
20844SOL    HW168494   4.554   2.032   3.513 -0.6743  0.8436 -1.7547
20844SOL    HW268495   4.571   1.942   3.393  0.0246 -1.0542 -0.2877
20845SOL     OW68496   3.613   8.671   4.548 -0.3431 -0.2814  0.5101
20845SOL    HW168497   3.553   8.644   4.618 -0.2849 -0.9047  0.3252
20845SOL    HW268498   3.699   8.672   4.588 -0.6107  1.9755  1.1544
20846SOL     OW68499   5.938   8.447   7.906  0.1303 -0.4114  0.6397
20846SOL    HW168500   5.941   8.541   7.925  2.3702 -0.2384 -0.3712
20846SOL    HW268501   6.024   8.414   7.931 -0.0689 -1.8898 -0.4761
20847SOL     OW68502   4.338   1.645   3.976  0.5363 -0.0789  0.3955
20847SOL    HW168503   4.383   1.563   3.957  0.5096 -0.1451  0.6102
20847SOL    HW268504   4.371   1.707   3.911 -0.5352 -0.6356 -0.7216
20848SOL     OW68505   1.537   8.537   1.102 -0.1812  0.3102 -0.7190
20848SOL    HW168506   1.628   8.521   1.077 -0.3775 -0.3244 -1.0491
20848SOL    HW268507   1.486   8.511   1.025 -0.7202 -0.5513 -0.0880
20849SOL     OW68508   9.174   8.395   6.630  0.3250  0.1473  0.4693
20849SOL    HW168509   9.149   8.317   6.679 -0.2359 -0.1066 -0.2029
20849SOL    HW268510   9.236   8.440   6.687  1.7431 -1.4809  0.2846
20850SOL     OW68511   2.757   3.417   6.061  0.1270 -0.0707 -0.2124
20850SOL    HW168512   2.844   3.454   6.048  0.1716  0.1137  0.5202
20850SOL    HW268513   2.707   3.489   6.101 -0.3426 -0.1915 -0.5849
20851SOL     OW68514   3.283   3.747   3.495  0.0907 -0.4374 -0.0036
20851SOL    HW168515   3.255   3.664   3.456  1.5085 -1.0238  0.1507
20851SOL    HW268516   3.209   3.806   3.482 -0.9524 -1.7177 -0.1303
20852SOL     OW68517   4.962   5.691   4.467 -0.3390  0.0509  0.2506
20852SOL    HW168518   5.029   5.755   4.490  1.4660 -2.1837  1.6621
20852SOL    HW268519   4.882   5.742   4.458  1.3124  2.7046 -0.4789
20853SOL     OW68520   4.149   2.334   4.905  0.7344  0.2515 -0.8662
20853SOL    HW168521   4.226   2.369   4.951  0.4119  0.3277 -0.3697
20853SOL    HW268522   4.076   2.387   4.939  0.7678  1.9660 -3.2404
20854SOL     OW68523   8.698   0.530   4.199 -0.1231 -0.4218 -0.2442
20854SOL    HW168524   8.713   0.624   4.205 -0.6917 -0.3554  0.3563
20854SOL    HW268525   8.718   0.507   4.109 -0.7772  0.4238 -0.6147
20855SOL     OW68526   8.633   9.124   3.628 -0.3244 -0.1091  0.2674
20855SOL    HW168527   8.608   9.034   3.606 -1.9515 -0.7085  3.9133
20855SOL    HW268528   8.709   9.115   3.685  0.3652  0.9794 -0.4251
20856SOL     OW68529   0.881   0.865   3.129  0.3114 -0.1787  0.0678
20856SOL    HW168530   0.912   0.946   3.087  0.0048 -0.4778 -0.7588
20856SOL    HW268531   0.818   0.895   3.195  0.9443  0.3129  0.4615
20857SOL     OW68532   8.218   7.686   1.634  0.3436 -0.0094 -0.2661
20857SOL    HW168533   8.287   7.688   1.568  1.8724 -0.0207  1.2498
20857SOL    HW268534   8.255   7.736   1.708 -2.3100  2.3395 -0.3394
20858SOL     OW68535   0.738   6.407   7.025 -0.5378 -0.0454  0.1024
20858SOL    HW168536   0.685   6.466   7.079 -0.2587 -0.3320  0.7056
20858SOL    HW268537   0.790   6.358   7.088 -1.1195 -1.2932 -0.3629
20859SOL     OW68538   0.902   5.058   7.697  0.3325 -0.0835  0.2788
20859SOL    HW168539   0.881   4.969   7.670  2.6556 -0.4593 -0.5801
20859SOL    HW268540   0.822   5.091   7.737 -0.7964 -2.3136  0.0205
20860SOL     OW68541   2.206   3.776   0.410 -0.4327  0.5262  0.4216
20860SOL    HW168542   2.190   3.755   0.318 -0.6820 -1.6310  0.9119
20860SOL    HW268543   2.119   3.795   0.445 -0.4252  0.5971  0.4032
20861SOL     OW68544   7.807   2.555   8.019  0.2108  0.0362 -0.2875
20861SOL    HW168545   7.765   2.475   8.050 -2.0943  1.1127 -0.3788
20861SOL    HW268546   7.900   2.536   8.022  0.0063 -1.3326  3.4951
20862SOL     OW68547   4.472   7.819   3.910 -0.2838  0.4763  0.4257
20862SOL    HW168548   4.391   7.771   3.926  0.3077 -0.8464 -0.4219
20862SOL    HW268549   4.462   7.854   3.821  0.4729 -0.5567 -0.0818
20863SOL     OW68550   4.608   8.042   9.244  0.1688 -0.2549 -0.0786
20863SOL    HW168551   4.587   7.950   9.224  0.6349  0.0249 -2.0611
20863SOL    HW268552   4.684   8.037   9.302 -0.8795 -1.1273  1.2995
20864SOL     OW68553   4.353   3.071   8.733  0.8006  0.0018 -0.1039
20864SOL    HW168554   4.264   3.101   8.717  0.7838  0.6429  1.1272
20864SOL    HW268555   4.386   3.048   8.646 -0.6330 -0.4903 -0.5526
20865SOL     OW68556   3.787   8.884   5.654  0.3602  0.2322 -0.3941
20865SOL    HW168557   3.816   8.842   5.573  0.3148 -1.9402  0.6266
20865SOL    HW268558   3.813   8.823   5.723 -0.3152  1.6283  1.1714
20866SOL     OW68559   7.944   6.725   8.837 -0.0483 -0.4587  0.0242
20866SOL    HW168560   7.965   6.815   8.811 -2.1733 -0.2203 -1.0865
20866SOL    HW268561   7.959   6.673   8.758 -1.0086 -0.6742 -0.0354
20867SOL     OW68562   5.026   0.334   5.367  0.0307 -0.2733 -0.1594
20867SOL    HW168563   5.060   0.422   5.381  1.0767 -0.3380 -1.9528
20867SOL    HW268564   5.017   0.327   5.272 -1.2400 -1.6819  0.0279
20868SOL     OW68565   4.282   1.103   8.588 -0.2803  0.0977 -0.1745
20868SOL    HW168566   4.328   1.182   8.616  1.4148 -0.7101 -0.5678
20868SOL    HW268567   4.195   1.135   8.561  1.0487  2.2152 -2.3917
20869SOL     OW68568   4.577   2.496   1.811 -0.5500  0.2219  0.1224
20869SOL    HW168569   4.656   2.533   1.851 -0.7044  1.1961 -0.4473
20869SOL    HW268570   4.610   2.428   1.752 -0.1996  0.0257  0.5405
20870SOL     OW68571   0.360   6.661   8.682 -0.3196  0.0085 -0.1922
20870SOL    HW168572   0.384   6.703   8.600 -0.9990  0.7574 -0.0158
20870SOL    HW268573   0.270   6.632   8.669 -0.0572 -0.8913 -0.1012
20871SOL     OW68574   5.663   1.930   1.677 -0.2021 -0.4790 -0.3725
20871SOL    HW168575   5.686   1.879   1.599  1.3997  0.3504 -0.4850
20871SOL    HW268576   5.734   1.911   1.739 -0.0929  0.8240 -0.0640
20872SOL     OW68577   0.977   6.421   2.027 -0.2658  0.2854  0.1836
20872SOL    HW168578   0.943   6.358   1.962  0.3044 -1.0104  1.1015
20872SOL    HW268579   0.898   6.455   2.069 -0.5605 -1.2054  0.9192
20873SOL     OW68580   7.628   7.904   0.352  0.0158 -0.0002 -0.1429
20873SOL    HW168581   7.565   7.975   0.334  0.5202  0.0422 -1.8878
20873SOL    HW268582   7.714   7.946   0.347  0.2895 -0.5777 -0.3508
20874SOL     OW68583   1.344   8.020   0.809 -0.4592 -0.0229  0.0821
20874SOL    HW168584   1.378   8.097   0.764 -0.0294  0.7264  1.6299
20874SOL    HW268585   1.422   7.975   0.843 -0.7407 -0.8316 -0.3172
20875SOL     OW68586   8.314   7.680   3.196 -0.4125  0.6936 -0.1864
20875SOL    HW168587   8.252   7.645   3.260 -0.5255  1.1793 -0.0216
20875SOL    HW268588   8.285   7.771   3.183 -0.9718  0.3251 -1.6406
20876SOL     OW68589   2.970   5.394   0.019 -0.6797 -0.8564  0.2968
20876SOL    HW168590   2.945   5.463   0.081  1.4721 -1.3836  1.8800
20876SOL    HW268591   2.953   5.312   0.067 -0.8214 -1.3496 -0.5841
20877SOL     OW68592   8.561   6.029   5.740 -0.0944  0.2600 -0.0319
20877SOL    HW168593   8.583   5.972   5.667  1.0287 -0.2913  0.7116
20877SOL    HW268594   8.645   6.063   5.771 -0.7172  2.1717 -0.3031
20878SOL     OW68595   3.678   7.444   1.283  1.1857 -0.4234 -0.0952
20878SOL    HW168596   3.714   7.474   1.199 -1.5348 -0.2089 -1.2746
20878SOL    HW268597   3.669   7.349   1.272 -2.2270 -0.0704 -1.4564
20879SOL     OW68598   7.972   4.662   1.449 -0.1427 -0.9525  0.0324
20879SOL    HW168599   7.952   4.713   1.527 -0.8852 -0.1594 -0.6513
20879SOL    HW268600   8.029   4.719   1.397  0.8396 -1.7084  0.2517
20880SOL     OW68601   5.400   3.690   7.991  0.0366 -0.0337 -0.0437
20880SOL    HW168602   5.381   3.769   7.942  0.4837  0.4274  0.5168
20880SOL    HW268603   5.331   3.628   7.965 -1.7654  1.3123  1.3404
20881SOL     OW68604   1.473   4.545   0.744 -0.1615 -0.0693 -0.0826
20881SOL    HW168605   1.523   4.465   0.731 -1.5842 -0.7638 -1.7253
20881SOL    HW268606   1.439   4.567   0.657 -1.6454  1.0476  0.7271
20882SOL     OW68607   8.367   2.134   7.024  0.2162  0.0583 -0.1203
20882SOL    HW168608   8.273   2.153   7.027  0.0293 -0.8952  0.6035
20882SOL    HW268609   8.372   2.039   7.033  1.1771 -0.1137 -2.0106
20883SOL     OW68610   6.577   1.139   6.751  0.0685  0.1857  0.5081
20883SOL    HW168611   6.575   1.089   6.670  1.2170 -1.6431  1.5553
20883SOL    HW268612   6.625   1.219   6.729 -1.9203  0.9958 -1.2306
20884SOL     OW68613   2.587   2.782   0.759 -0.1161  0.1041 -0.4386
20884SOL    HW168614   2.649   2.817   0.696 -0.6159 -1.3084 -1.7769
20884SOL    HW268615   2.563   2.696   0.724 -0.4752 -0.7045  1.6450
20885SOL     OW68616   8.288   6.314   5.167  0.4465  0.3490 -0.0714
20885SOL    HW168617   8.364   6.347   5.120  1.1046  0.3411  0.9516
20885SOL    HW268618   8.311   6.322   5.259  0.2485 -2.0049  0.2506
20886SOL     OW68619   5.647   4.146   1.399 -0.1320 -0.3442 -0.1374
20886SOL    HW168620   5.596   4.066   1.397 -0.3169 -0.2396  0.2588
20886SOL    HW268621   5.695   4.142   1.482 -2.0937  1.1379  1.1714
20887SOL     OW68622   3.982   5.210   3.308 -0.2709 -0.2285 -0.4083
20887SOL    HW168623   3.971   5.218   3.213  1.6301 -0.1092 -0.6714
20887SOL    HW268624   4.036   5.285   3.332 -0.3208 -0.5292  0.6856
20888SOL     OW68625   4.686   6.041   7.274 -0.8723 -0.0001  0.3077
20888SOL    HW168626   4.738   5.983   7.330  0.1627  0.7989  0.2076
20888SOL    HW268627   4.597   6.035   7.309 -0.7886 -1.5859  0.3297
20889SOL     OW68628   6.218   2.697   8.502 -0.0025  0.0278  0.2964
20889SOL    HW168629   6.207   2.761   8.431  0.5532  0.6032  0.7109
20889SOL    HW268630   6.274   2.629   8.464 -1.9402 -1.0954 -0.6808
20890SOL     OW68631   6.371   1.621   5.343  0.0392  0.1226  0.2839
20890SOL    HW168632   6.431   1.628   5.416  2.5125 -0.5737 -1.5536
20890SOL    HW268633   6.314   1.548   5.366  2.1584 -1.5112  0.6521
20891SOL     OW68634   3.988   4.350   0.435 -0.0064 -0.5976 -0.2305
20891SOL    HW168635   4.011   4.291   0.506  0.4318  2.2836  2.2058
20891SOL    HW268636   3.896   4.372   0.450  0.4074  0.9560  0.2313
20892SOL     OW68637   8.760   0.827   4.285 -0.5516  0.7175 -0.7112
20892SOL    HW168638   8.763   0.821   4.380  0.8532 -0.8946 -0.8078
20892SOL    HW268639   8.794   0.915   4.266  1.8647  0.0640  0.2358
20893SOL     OW68640   9.261   8.887   0.677  0.5084  0.5302 -0.4486
20893SOL    HW168641   9.233   8.823   0.743 -1.3898 -0.1418 -1.7984
20893SOL    HW268642   9.350   8.861   0.654  0.7793  0.0983  1.0219
20894SOL     OW68643   1.283   6.685   4.672 -0.3337 -0.3771 -0.4457
20894SOL    HW168644   1.309   6.626   4.600  1.4408 -1.3833  0.9379
20894SOL    HW268645   1.274   6.771   4.631 -0.4291 -1.1184 -2.0523
20895SOL     OW68646   3.577   1.634   7.082 -0.5019  0.0467  0.5513
20895SOL    HW168647   3.484   1.622   7.099 -0.7349  0.4590 -0.3352
20895SOL    HW268648   3.588   1.729   7.074 -0.6259 -0.0778 -2.3258
20896SOL     OW68649   0.499   6.060   6.664  0.4426 -0.2516  0.5134
20896SOL    HW168650   0.568   6.119   6.695  0.9584 -0.6502  0.1473
20896SOL    HW268651   0.420   6.090   6.709  1.1273 -0.7024  2.0803
20897SOL     OW68652   1.179   0.805   7.222 -0.3257  0.6506 -0.0502
20897SOL    HW168653   1.098   0.817   7.270 -2.1706 -3.2654 -1.7535
20897SOL    HW268654   1.234   0.752   7.280 -0.8480 -0.4604 -0.5354
20898SOL     OW68655   9.257   6.902   2.844 -0.0287 -0.1883  0.6030
20898SOL    HW168656   9.183   6.863   2.797 -0.0014  0.3904  0.0689
20898SOL    HW268657   9.316   6.829   2.861 -0.3617 -0.5204  0.3379
20899SOL     OW68658   1.145   4.270   2.963 -0.2469  0.4062 -0.0872
20899SOL    HW168659   1.103   4.256   3.047 -0.9563  2.1597 -0.1111
20899SOL    HW268660   1.077   4.250   2.898  0.0591 -0.1831 -0.2345
20900SOL     OW68661   3.096   7.059   3.506 -0.0846  0.1924  0.1580
20900SOL    HW168662   3.050   7.117   3.446 -0.0733  0.2730  0.2269
20900SOL    HW268663   3.127   6.987   3.451 -0.3033  0.1309  0.1137
20901SOL     OW68664   7.688   7.400   0.515  0.5213  0.6623 -0.0545
20901SOL    HW168665   7.714   7.492   0.509  0.2707  0.6802 -1.2429
20901SOL    HW268666   7.723   7.360   0.435 -0.6912  0.0845 -0.3183
20902SOL     OW68667   7.273   8.085   2.104 -0.0144  0.4359  0.1122
20902SOL    HW168668   7.329   8.012   2.077  1.1028  0.4061  2.2709
20902SOL    HW268669   7.301   8.158   2.049 -0.4433 -0.4786 -1.3732
20903SOL     OW68670   6.391   1.116   4.159  0.0383  0.3291 -0.0311
20903SOL    HW168671   6.372   1.181   4.226 -2.8921  0.3482 -0.7544
20903SOL    HW268672   6.379   1.161   4.076 -2.3933 -1.0883 -0.5528
20904SOL     OW68673   1.852   7.708   7.631  0.0072  0.3088 -0.5830
20904SOL    HW168674   1.905   7.776   7.589  0.4260 -0.5251 -1.4387
20904SOL    HW268675   1.826   7.746   7.714  0.1315  1.5719 -1.0961
20905SOL     OW68676   8.059   0.128   1.087 -0.1351  0.1382 -0.5472
20905SOL    HW168677   8.102   0.151   1.005 -0.2293 -1.2179 -0.9944
20905SOL    HW268678   8.051   0.033   1.085 -0.9856  0.1558  0.6157
20906SOL     OW68679   6.704   5.867   8.786 -0.2231  0.6248 -0.2163
20906SOL    HW168680   6.749   5.805   8.843 -0.3316 -0.9460 -1.7807
20906SOL    HW268681   6.772   5.930   8.761  0.4777 -0.2088 -0.4617
20907SOL     OW68682   6.408   8.857   8.910  0.0993  0.3410 -0.0980
20907SOL    HW168683   6.403   8.780   8.967 -0.7299 -0.2421 -0.9109
20907SOL    HW268684   6.351   8.921   8.952  0.8475  0.5418  0.6223
20908SOL     OW68685   6.867   9.024   6.192 -0.1568  0.8213 -0.3846
20908SOL    HW168686   6.813   9.014   6.271  2.4003 -3.0221  1.1530
20908SOL    HW268687   6.936   9.084   6.219  2.6840 -3.0066  1.8435
20909SOL     OW68688   2.091   1.237   0.034 -0.7605 -0.1317  0.3465
20909SOL    HW168689   2.109   1.312   0.090 -1.0954 -0.2676  0.6378
20909SOL    HW268690   2.021   1.189   0.078 -0.8512 -0.3819 -0.0552
20910SOL     OW68691   7.786   0.479   3.317  0.4562  0.3202 -0.1436
20910SOL    HW168692   7.767   0.456   3.227  0.0941  0.2289 -0.0455
20910SOL    HW268693   7.812   0.571   3.313 -2.2206  1.1761 -0.0252
20911SOL     OW68694   7.752   3.633   7.808  0.0638  0.1002  0.4886
20911SOL    HW168695   7.710   3.626   7.894  0.1575 -2.6228  0.4030
20911SOL    HW268696   7.837   3.590   7.820  0.0241 -0.4315 -0.9620
20912SOL     OW68697   7.352   1.036   4.154  0.3348  0.2388  0.3019
20912SOL    HW168698   7.303   1.101   4.104 -1.2220 -0.2045  1.1639
20912SOL    HW268699   7.407   1.087   4.213  0.6382  0.7562 -0.4104
20913SOL     OW68700   0.175   5.884   7.293 -0.3285 -0.1250 -0.0854
20913SOL    HW168701   0.168   5.888   7.388  0.2281 -1.0785  0.0082
20913SOL    HW268702   0.252   5.936   7.272 -1.6600  1.8850 -0.2261
20914SOL     OW68703   8.194   8.291   5.199  0.2449  0.4378  0.1375
20914SOL    HW168704   8.272   8.243   5.173 -1.0409 -1.6757 -0.0921
20914SOL    HW268705   8.169   8.340   5.121  0.8809  0.4861 -0.0398
20915SOL     OW68706   8.258   0.359   6.220 -0.2005  0.0135  0.3202
20915SOL    HW168707   8.170   0.354   6.258 -0.3052 -1.8947 -0.0522
20915SOL    HW268708   8.281   0.451   6.224 -1.6489  0.3569  1.7225
20916SOL     OW68709   9.287   5.101   6.708 -0.1570  0.1835  0.1397
20916SOL    HW168710   9.357   5.129   6.649 -0.5516  1.4871  0.2399
20916SOL    HW268711   9.206   5.125   6.663 -0.5353 -0.9481  0.1981
20917SOL     OW68712   8.911   4.122   3.587  0.1689  0.3586 -0.0883
20917SOL    HW168713   8.983   4.113   3.524  0.1716  0.8736 -0.1574
20917SOL    HW268714   8.954   4.137   3.671  0.1762  3.9373 -0.5797
20918SOL     OW68715   4.393   8.705   0.014 -0.7728  0.5126  0.1282
20918SOL    HW168716   4.365   8.690  -0.076 -0.4083  1.7757 -0.2115
20918SOL    HW268717   4.331   8.768   0.049 -1.8838 -1.1477  1.3196
20919SOL     OW68718   7.379   0.173   5.858  0.4530  0.1606  0.3659
20919SOL    HW168719   7.328   0.101   5.821 -0.3581  0.9632 -0.1188
20919SOL    HW268720   7.470   0.151   5.837  0.1141 -0.0593 -0.9790
20920SOL     OW68721   0.226   7.445   8.142  0.0977 -0.0391  0.3989
20920SOL    HW168722   0.152   7.453   8.082  0.7079 -0.8021 -0.4877
20920SOL    HW268723   0.290   7.392   8.094  1.2764  0.7129  1.0983
20921SOL     OW68724   1.214   6.219   7.487  0.0656 -0.6272  0.1463
20921SOL    HW168725   1.165   6.276   7.428  0.7301  0.7639  0.8831
20921SOL    HW268726   1.178   6.131   7.471 -1.5867  0.1085 -0.4124
20922SOL     OW68727   3.451   7.266   6.691 -0.8126  0.2295  0.1135
20922SOL    HW168728   3.503   7.345   6.683 -1.5659  1.0255  2.2899
20922SOL    HW268729   3.515   7.195   6.697 -0.1350  0.5394 -2.3628
20923SOL     OW68730   5.667   2.988   8.091 -0.5613 -0.0074 -0.2668
20923SOL    HW168731   5.590   3.007   8.144 -0.3332 -0.9462  0.4394
20923SOL    HW268732   5.669   2.893   8.085  0.4214  0.0149 -0.4471
20924SOL     OW68733   6.771   4.535   8.486 -0.2267 -0.0490 -0.1002
20924SOL    HW168734   6.800   4.611   8.437  2.3759  1.5021  3.3806
20924SOL    HW268735   6.836   4.467   8.467 -0.9749 -0.5048 -1.0884
20925SOL     OW68736   5.107   1.430   4.898  0.0926  0.4024  0.2762
20925SOL    HW168737   5.096   1.355   4.840  0.2128  1.0935 -0.6764
20925SOL    HW268738   5.163   1.399   4.969  2.1522  0.1982 -1.3420
20926SOL     OW68739   5.153   3.620   6.822  0.0206 -0.1104  0.4083
20926SOL    HW168740   5.243   3.631   6.852  0.1051 -2.4563  1.1556
20926SOL    HW268741   5.103   3.683   6.874  0.8567 -0.7129  1.9912
20927SOL     OW68742   0.714   2.004   5.036  0.0478  0.2804  0.1554
20927SOL    HW168743   0.726   1.962   5.122  0.7917 -0.0482 -0.1074
20927SOL    HW268744   0.633   2.054   5.046  1.5079  2.4827  1.9587
20928SOL     OW68745   7.811   5.596   0.024 -0.2377 -0.2136 -0.1241
20928SOL    HW168746   7.798   5.666   0.088  0.4223 -0.6472  0.4966
20928SOL    HW268747   7.751   5.617  -0.047 -1.1522  0.1468  0.7430
20929SOL     OW68748   9.347   3.577   3.645 -0.3391  0.4770  0.3564
20929SOL    HW168749   9.374   3.576   3.553  2.0276 -0.4504  0.9747
20929SOL    HW268750   9.369   3.490   3.677 -0.9637  0.8424  1.8529
20930SOL     OW68751   5.715   5.402   4.329 -0.0949  0.3013  0.2258
20930SOL    HW168752   5.738   5.465   4.261 -1.3383  0.5473 -0.0001
20930SOL    HW268753   5.651   5.447   4.384  0.3259 -0.1585  1.1176
20931SOL     OW68754   0.786   1.772   7.021  0.2542 -0.3573 -0.0270
20931SOL    HW168755   0.722   1.759   6.951  1.0518  0.3857 -0.9247
20931SOL    HW268756   0.766   1.703   7.084 -1.1761 -0.3809 -0.4549
20932SOL     OW68757   6.739   4.610   9.258 -0.4572  0.2292  0.4125
20932SOL    HW168758   6.661   4.649   9.218 -0.7603  1.7756  2.3337
20932SOL    HW268759   6.807   4.619   9.192 -1.7694 -0.7901 -1.1603
20933SOL     OW68760   0.589   8.528   7.985  0.7853 -0.2948  0.1133
20933SOL    HW168761   0.547   8.491   8.062  1.1304 -3.3990 -1.0436
20933SOL    HW268762   0.521   8.581   7.943 -0.0212 -0.2291  1.4742
20934SOL     OW68763   4.103   2.863   7.931  0.2232 -0.0194 -0.0876
20934SOL    HW168764   4.075   2.772   7.943 -0.8869  0.2548 -0.5567
20934SOL    HW268765   4.091   2.880   7.838  2.1610  0.0637 -0.3671
20935SOL     OW68766   4.306   6.539   6.780 -0.3345 -0.0713 -0.2423
20935SOL    HW168767   4.348   6.475   6.838 -0.9268  0.9721  1.4128
20935SOL    HW268768   4.276   6.487   6.705 -2.9230 -2.3169  2.0889
20936SOL     OW68769   3.196   1.458   8.133  0.1111  0.0711 -0.5276
20936SOL    HW168770   3.233   1.372   8.118  0.1751 -0.3649  1.7236
20936SOL    HW268771   3.149   1.450   8.216  2.2038  2.7791  1.0841
20937SOL     OW68772   4.138   1.680   5.855  0.3385 -0.6738 -0.2415
20937SOL    HW168773   4.156   1.754   5.914  2.3791 -2.4693  1.5530
20937SOL    HW268774   4.208   1.685   5.789  0.0848 -0.6202 -0.5051
20938SOL     OW68775   3.650   3.272   7.558  0.1180  0.2747 -0.0584
20938SOL    HW168776   3.705   3.332   7.508 -1.1655  0.9981 -0.6492
20938SOL    HW268777   3.592   3.328   7.608 -0.8124 -0.4544 -0.2855
20939SOL     OW68778   5.941   4.288   5.331 -0.1137  0.4792  0.1013
20939SOL    HW168779   5.977   4.199   5.327 -0.7638  0.2539 -1.3884
20939SOL    HW268780   5.920   4.301   5.423  1.2981 -0.3759  0.5821
20940SOL     OW68781   0.174   6.451   3.559 -0.0724  0.6368 -0.2218
20940SOL    HW168782   0.172   6.523   3.497 -1.7464  0.3415 -0.5584
20940SOL    HW268783   0.171   6.372   3.504 -2.5906  0.3703  0.1621
20941SOL     OW68784   0.804   1.279   8.931  0.5351 -0.2055  1.1771
20941SOL    HW168785   0.844   1.356   8.891  0.2410 -0.9727 -0.6789
20941SOL    HW268786   0.775   1.309   9.018 -0.9773  2.2305 -0.0511
20942SOL     OW68787   2.716   0.366   3.428 -0.3249 -0.0202  0.1283
20942SOL    HW168788   2.707   0.354   3.333  0.7194 -0.3056  0.0558
20942SOL    HW268789   2.770   0.292   3.457 -1.3753 -0.4324  1.0940
20943SOL     OW68790   4.508   3.207   6.564  0.2051 -0.6588  0.7110
20943SOL    HW168791   4.477   3.116   6.564  0.1599 -0.7214 -1.7106
20943SOL    HW268792   4.574   3.209   6.494 -0.8504  1.4635 -0.3151
20944SOL     OW68793   8.292   0.650   5.514  0.2571 -0.2141  0.2285
20944SOL    HW168794   8.313   0.612   5.599 -1.0725 -1.8619 -0.1187
20944SOL    HW268795   8.206   0.690   5.526  0.4395  0.3055 -0.1404
20945SOL     OW68796   0.917   0.118   0.394  0.0466 -0.6092 -1.0123
20945SOL    HW168797   0.854   0.178   0.433 -1.2267 -0.2897 -3.3947
20945SOL    HW268798   0.894   0.032   0.430 -1.1114 -0.3501 -1.1191
20946SOL     OW68799   4.197   2.167   0.123 -0.6178  0.4250  0.2562
20946SOL    HW168800   4.115   2.166   0.172 -0.7751 -0.4091 -0.0041
20946SOL    HW268801   4.204   2.079   0.086 -0.4284  0.9713 -1.0850
20947SOL     OW68802   1.729   4.528   0.053 -0.0146  0.2672  0.1648
20947SOL    HW168803   1.803   4.499   0.107  0.2144 -0.6371 -0.6116
20947SOL    HW268804   1.653   4.482   0.090 -0.0364  0.4692  0.3739
20948SOL     OW68805   0.970   4.519   3.483  0.0476  0.0941 -0.3277
20948SOL    HW168806   0.918   4.508   3.563 -0.5666  0.0432 -0.7250
20948SOL    HW268807   0.905   4.533   3.414  0.4488 -1.6466 -1.1246
20949SOL     OW68808   8.459   7.552   2.998 -0.0871 -0.3706  0.5435
20949SOL    HW168809   8.394   7.504   2.947 -0.1346  1.6598 -1.4333
20949SOL    HW268810   8.407   7.605   3.059 -0.2803  0.4801 -0.3361
20950SOL     OW68811   9.329   4.395   0.173 -0.2428  0.3348 -0.6550
20950SOL    HW168812   9.424   4.392   0.189 -0.0769 -1.0337 -1.7087
20950SOL    HW268813   9.318   4.460   0.104  0.1007 -0.4714 -1.4843
20951SOL     OW68814   8.582   4.559   2.692  0.2613 -0.2051 -0.5314
20951SOL    HW168815   8.559   4.612   2.768  1.1337 -0.5954  0.0161
20951SOL    HW268816   8.594   4.623   2.621 -0.3292  0.1797 -0.2880
20952SOL     OW68817   5.558   4.190   3.628 -0.6264  0.2169 -0.6291
20952SOL    HW168818   5.476   4.148   3.652 -0.6711 -0.8490 -2.4437
20952SOL    HW268819   5.611   4.186   3.707 -1.1492 -2.0284 -0.3215
20953SOL     OW68820   4.977   4.714   3.940 -0.2654 -0.3048 -0.2171
20953SOL    HW168821   4.928   4.756   3.869  0.8154  1.0745 -0.1965
20953SOL    HW268822   5.069   4.723   3.914  0.0528 -1.7292  0.3331
20954SOL     OW68823   7.940   1.821   1.373 -0.3357  0.2202 -0.4515
20954SOL    HW168824   8.029   1.856   1.365 -0.3688  0.5051  0.4145
20954SOL    HW268825   7.885   1.898   1.386 -0.5528 -0.0598  0.2860
20955SOL     OW68826   7.863   2.890   7.558 -0.0303  0.4837  0.2425
20955SOL    HW168827   7.857   2.816   7.619 -0.3298 -0.6500 -1.1204
20955SOL    HW268828   7.806   2.957   7.596 -0.7429 -0.4480  0.8632
20956SOL     OW68829   8.570   1.113   4.162 -0.0595  0.4176 -0.0883
20956SOL    HW168830   8.486   1.150   4.134  0.0753  1.4096  0.7799
20956SOL    HW268831   8.546   1.035   4.212 -0.4526  0.5984  0.0061
20957SOL     OW68832   9.008   2.974   5.484 -0.1997  0.5092 -0.3117
20957SOL    HW168833   8.926   3.016   5.509  0.2294  1.2271 -0.1009
20957SOL    HW268834   9.076   3.038   5.503  0.4229 -0.0853 -0.4567
20958SOL     OW68835   6.750   8.334   5.764  0.2830  0.0931 -0.1268
20958SOL    HW168836   6.785   8.398   5.827 -1.2200 -0.2220  1.1008
20958SOL    HW268837   6.691   8.280   5.816 -0.0535 -0.9919 -1.5837
20959SOL     OW68838   3.698   1.407   7.687 -0.2191 -0.4951  0.7751
20959SOL    HW168839   3.649   1.442   7.762  0.6518  0.2091  1.0305
20959SOL    HW268840   3.770   1.359   7.727 -0.4832 -1.2291  0.3911
20960SOL     OW68841   3.210   6.298   7.739 -0.3584  0.4842 -0.0013
20960SOL    HW168842   3.154   6.248   7.799  1.6511  0.4937  2.0001
20960SOL    HW268843   3.211   6.387   7.776  0.8349  0.5082 -0.0601
20961SOL     OW68844   2.334   5.527   9.187  0.4031 -0.0846  1.1648
20961SOL    HW168845   2.307   5.453   9.242  0.2794  1.2438  2.9642
20961SOL    HW268846   2.323   5.604   9.242  0.5755  1.3095 -0.6410
20962SOL     OW68847   9.050   5.761   5.904 -0.4024  0.5435 -0.0738
20962SOL    HW168848   9.009   5.847   5.891  1.1294  1.2686 -0.2732
20962SOL    HW268849   9.144   5.777   5.893 -0.1229 -1.2527 -0.5766
20963SOL     OW68850   1.933   1.374   8.187  0.0430 -0.1853  0.7459
20963SOL    HW168851   1.863   1.400   8.246  1.1272 -0.3724  2.1501
20963SOL    HW268852   2.013   1.390   8.236  1.3015  3.3995 -1.9897
20964SOL     OW68853   0.956   0.783   8.636 -0.1683  0.2177  0.3384
20964SOL    HW168854   0.985   0.799   8.726 -2.2597  0.9005  0.9533
20964SOL    HW268855   0.920   0.866   8.607  0.4838  0.0015 -1.1724
20965SOL     OW68856   2.884   0.739   6.301  0.1994 -0.1738 -0.1879
20965SOL    HW168857   2.924   0.770   6.382 -0.6967 -1.5596  0.8247
20965SOL    HW268858   2.800   0.783   6.296 -0.7892 -1.8457  0.9145
20966SOL     OW68859   0.889   4.439   1.695  0.0887  0.4578 -0.6450
20966SOL    HW168860   0.932   4.396   1.769 -0.6315  0.9566  0.0692
20966SOL    HW268861   0.911   4.383   1.620 -0.5776 -1.0093  0.2042
20967SOL     OW68862   5.273   5.373   0.835 -0.1385 -0.1057 -0.2534
20967SOL    HW168863   5.201   5.417   0.880 -0.7666 -1.0930 -0.2595
20967SOL    HW268864   5.342   5.440   0.829 -1.1877  0.9825 -0.6049
20968SOL     OW68865   6.573   4.545   7.789 -0.1933  0.2902  0.2437
20968SOL    HW168866   6.525   4.552   7.706 -2.6767 -1.3922  1.4113
20968SOL    HW268867   6.531   4.472   7.835  1.8174  0.4544  2.5537
20969SOL     OW68868   5.633   7.631   1.926  0.0696  0.1099 -0.0303
20969SOL    HW168869   5.587   7.598   1.849  1.6172 -2.2926 -0.0048
20969SOL    HW268870   5.565   7.636   1.994 -0.9790  0.7533 -1.0722
20970SOL     OW68871   3.940   6.433   1.492 -0.3815  0.4560  0.3084
20970SOL    HW168872   3.917   6.480   1.572  0.9490  0.8847  0.4531
20970SOL    HW268873   3.892   6.479   1.423 -0.7585  0.6985  0.7268
20971SOL     OW68874   4.027   7.611   6.515 -1.0283  0.7046  0.0077
20971SOL    HW168875   4.003   7.518   6.515  0.8706  0.1855  0.3111
20971SOL    HW268876   3.994   7.643   6.599 -1.1552  0.1630  0.1736
20972SOL     OW68877   7.870   4.994   4.579 -0.0216 -0.3751  0.6437
20972SOL    HW168878   7.890   4.921   4.521  1.0156 -0.2659  0.8353
20972SOL    HW268879   7.895   4.963   4.666  0.3686  0.1728  0.7368
20973SOL     OW68880   2.854   9.014   0.058  0.0091  0.4805  0.3326
20973SOL    HW168881   2.804   9.090   0.028  0.1456  0.1899 -0.6722
20973SOL    HW268882   2.939   9.023   0.016 -0.3084 -0.7442 -0.6340
20974SOL     OW68883   7.032   9.366   2.929  0.4531 -0.4623  0.1101
20974SOL    HW168884   6.996   9.289   2.886  0.2250 -0.6100  0.5591
20974SOL    HW268885   6.956   9.422   2.946  0.3341 -0.9973  1.5173
20975SOL     OW68886   0.901   5.668   8.072  0.5962  0.0492 -0.0796
20975SOL    HW168887   0.952   5.748   8.086 -1.0353  0.9144  1.4530
20975SOL    HW268888   0.817   5.700   8.037 -0.2876 -0.9046  1.0655
20976SOL     OW68889   5.658   7.599   8.674  0.1075  0.2045  0.5984
20976SOL    HW168890   5.660   7.504   8.664 -1.7265  0.1479  0.5099
20976SOL    HW268891   5.742   7.628   8.636 -0.3234 -1.1753 -1.6432
20977SOL     OW68892   4.371   1.675   3.422  0.0474 -0.2045 -0.1725
20977SOL    HW168893   4.443   1.689   3.360  0.8722  0.1124  0.8400
20977SOL    HW268894   4.320   1.756   3.416  2.0719  1.3698  2.0592
20978SOL     OW68895   3.429   8.717   6.753  0.0801 -0.1960  0.2736
20978SOL    HW168896   3.508   8.686   6.708 -0.3951 -1.0992  0.0302
20978SOL    HW268897   3.357   8.690   6.695 -0.3808  1.0152  0.2657
20979SOL     OW68898   6.200   7.247   0.415 -0.3207 -0.3998 -0.2768
20979SOL    HW168899   6.250   7.326   0.395 -1.6920  0.9643  1.3750
20979SOL    HW268900   6.226   7.185   0.348  1.4888  1.1447 -1.1041
20980SOL     OW68901   2.531   7.844   8.524 -0.3664  0.2717 -0.1312
20980SOL    HW168902   2.574   7.923   8.492 -2.2050  1.1748 -0.5054
20980SOL    HW268903   2.598   7.800   8.576  0.9205  1.7030 -0.4908
20981SOL     OW68904   1.685   6.656   2.869  0.0786 -0.0372  0.2091
20981SOL    HW168905   1.746   6.698   2.929  0.2583  1.2996 -0.8786
20981SOL    HW268906   1.642   6.728   2.823 -0.3307 -1.0203 -1.0084
20982SOL     OW68907   3.233   8.876   7.466  0.0709  0.7189  0.1403
20982SOL    HW168908   3.311   8.930   7.455  1.0243 -0.8646 -1.2529
20982SOL    HW268909   3.249   8.799   7.412 -2.1231 -0.0268  0.4608
20983SOL     OW68910   6.075   1.467   1.956  0.8671  0.8611  0.0201
20983SOL    HW168911   6.100   1.432   1.871 -0.2044 -1.7382  0.6822
20983SOL    HW268912   6.030   1.395   1.999 -0.8904  2.8993  1.8141
20984SOL     OW68913   5.142   1.765   1.684  0.2298 -0.1939  0.4310
20984SOL    HW168914   5.211   1.746   1.621  2.0544 -0.1785  2.3294
20984SOL    HW268915   5.139   1.860   1.688 -0.9258 -0.1673 -0.6879
20985SOL     OW68916   6.748   8.593   4.601 -0.4188  0.4362 -0.0239
20985SOL    HW168917   6.689   8.655   4.558 -0.6156  1.3372  1.4760
20985SOL    HW268918   6.778   8.638   4.679  1.7318 -0.2809 -0.3679
20986SOL     OW68919   9.203   2.576   8.822  0.0808  0.3972 -0.7361
20986SOL    HW168920   9.186   2.536   8.907 -3.3301 -2.6824 -2.5583
20986SOL    HW268921   9.298   2.567   8.810  0.1763 -2.8225  1.1884
20987SOL     OW68922   2.741   9.057   2.072  0.2251 -0.8417 -0.1709
20987SOL    HW168923   2.730   9.037   1.979  0.5377  0.8557 -0.6213
20987SOL    HW268924   2.759   9.151   2.074  0.0428 -0.8029  1.6319
20988SOL     OW68925   7.681   6.913   0.681  0.1144  0.0113 -0.1034
20988SOL    HW168926   7.761   6.965   0.692 -0.7529  1.3310  0.2341
20988SOL    HW268927   7.700   6.830   0.726  1.6955 -0.1815 -1.0465
20989SOL     OW68928   9.026   3.184   0.887 -0.4134  0.6635 -0.4361
20989SOL    HW168929   9.090   3.210   0.820  1.3991 -3.2313 -0.5168
20989SOL    HW268930   9.076   3.128   0.947 -3.4898 -1.8356  0.0352
20990SOL     OW68931   8.475   5.644   2.679 -0.4676  0.8634  0.4273
20990SOL    HW168932   8.444   5.719   2.729 -0.6276  1.0496  0.0527
20990SOL    HW268933   8.564   5.667   2.654 -0.1366  0.4728  1.2168
20991SOL     OW68934   4.017   6.133   8.155 -0.3335 -0.5884  0.1668
20991SOL    HW168935   4.056   6.093   8.077 -0.7588 -0.0059 -0.3564
20991SOL    HW268936   4.075   6.207   8.175  1.0249 -1.9926  1.7259
20992SOL     OW68937   2.590   1.873   6.553 -0.4926 -0.2437 -0.1354
20992SOL    HW168938   2.669   1.862   6.607 -0.6047 -0.3592  0.0079
20992SOL    HW268939   2.524   1.819   6.597 -0.8505  0.4247  0.1546
20993SOL     OW68940   8.972   5.787   2.573 -0.1456 -0.1502  0.7902
20993SOL    HW168941   9.051   5.797   2.627  0.6115  0.2386 -0.3479
20993SOL    HW268942   8.955   5.875   2.539 -0.8282 -0.3172  0.6961
20994SOL     OW68943   4.558   5.172   5.893 -0.4129  0.1206  0.4753
20994SOL    HW168944   4.586   5.127   5.814  1.0572  2.4188 -0.4125
20994SOL    HW268945   4.466   5.195   5.877 -0.2143  0.2939 -0.4502
20995SOL     OW68946   3.692   4.601   8.214  0.2648 -0.3893 -0.2244
20995SOL    HW168947   3.746   4.672   8.178 -1.6711  0.8581 -0.8451
20995SOL    HW268948   3.753   4.528   8.226  2.2535  1.2223  0.0258
20996SOL     OW68949   8.113   4.457   1.582  0.3683 -0.1381 -0.2623
20996SOL    HW168950   8.060   4.511   1.524  1.8537 -0.0007 -1.5911
20996SOL    HW268951   8.176   4.414   1.523  1.2002 -0.9047  1.1217
20997SOL     OW68952   9.112   7.742   5.927 -0.1178 -0.2394 -0.3554
20997SOL    HW168953   9.186   7.707   5.977  0.4373  0.6316 -0.5407
20997SOL    HW268954   9.063   7.794   5.991  0.4106  0.6066 -0.6234
20998SOL     OW68955   4.535   0.019   8.042 -0.0804 -0.2497  0.3902
20998SOL    HW168956   4.578   0.103   8.059  1.3868 -0.8305 -0.2975
20998SOL    HW268957   4.538  -0.027   8.126  0.2928 -0.1255  0.4440
20999SOL     OW68958   7.243   2.690   6.336  0.5037  0.1198  0.3955
20999SOL    HW168959   7.299   2.758   6.297 -0.9839  1.2026  0.0566
20999SOL    HW268960   7.273   2.609   6.295  2.9194  0.3966  1.4642
21000SOL     OW68961   3.781   5.315   9.208  0.1613  0.3353 -0.1805
21000SOL    HW168962   3.874   5.295   9.218 -0.2363 -1.2355  0.7395
21000SOL    HW268963   3.737   5.230   9.213 -1.4224  1.1533  0.8055
21001SOL     OW68964   4.747   8.986   2.125 -0.2362 -0.2140 -0.1337
21001SOL    HW168965   4.664   8.979   2.077  1.0212  0.0947 -2.4845
21001SOL    HW268966   4.809   9.022   2.062  1.6998 -0.3113  1.5914
21002SOL     OW68967   7.899   2.776   2.817 -0.1349 -0.6562  0.3526
21002SOL    HW168968   7.813   2.815   2.802  0.4538  0.4531 -0.3161
21002SOL    HW268969   7.924   2.739   2.732  1.0959  1.2824 -0.2224
21003SOL     OW68970   0.342   4.192   6.414  0.4274 -0.4284  0.0116
21003SOL    HW168971   0.291   4.112   6.424 -0.8933  0.4452  0.5664
21003SOL    HW268972   0.420   4.178   6.467 -0.4483 -0.8322  1.2404
21004SOL     OW68973   0.823   3.972   0.709 -0.1187 -0.1979 -0.0826
21004SOL    HW168974   0.907   3.987   0.666 -0.2584  1.4357  0.1686
21004SOL    HW268975   0.807   4.051   0.760 -2.8483  0.5442 -1.8610
21005SOL     OW68976   6.945   6.215   2.191  0.6274 -0.1985  1.0631
21005SOL    HW168977   6.928   6.138   2.137 -0.8129 -1.4573  3.1344
21005SOL    HW268978   6.990   6.180   2.268  0.6368  1.1448  1.6921
21006SOL     OW68979   3.238   8.551   4.230  0.4018  0.3024 -0.0489
21006SOL    HW168980   3.177   8.624   4.243 -1.4129 -1.3126  1.0634
21006SOL    HW268981   3.322   8.585   4.259 -0.6460  1.5895  1.7042
21007SOL     OW68982   6.297   2.214   2.921  0.8545 -0.3653  0.7019
21007SOL    HW168983   6.378   2.263   2.908  1.4755 -1.2356  1.2531
21007SOL    HW268984   6.309   2.133   2.872  0.1801 -0.3693  0.5220
21008SOL     OW68985   2.024   1.216   5.942 -0.3585  0.6586 -0.4484
21008SOL    HW168986   2.113   1.181   5.949  0.0435  1.8804  0.9125
21008SOL    HW268987   2.012   1.231   5.848  0.9493  0.6548 -0.6371
21009SOL     OW68988   8.992   3.443   6.153 -0.0785  0.1983 -0.4928
21009SOL    HW168989   9.048   3.366   6.160 -0.5387 -0.0375  1.2354
21009SOL    HW268990   8.918   3.414   6.100  0.2934 -0.2153 -0.7860
21010SOL     OW68991   5.551   7.649   2.968 -0.1870 -0.0346  0.0305
21010SOL    HW168992   5.484   7.581   2.974  0.3128 -0.5347  0.0450
21010SOL    HW268993   5.558   7.684   3.057 -0.9843  0.5761 -0.1325
21011SOL     OW68994   8.015   7.337   4.645 -0.4520  0.3922 -0.5722
21011SOL    HW168995   8.038   7.264   4.586 -0.0096 -0.8216  1.0270
21011SOL    HW268996   7.920   7.335   4.650 -0.3958 -1.3542  0.9072
21012SOL     OW68997   5.784   4.792   3.344  0.1538  0.2607 -0.2863
21012SOL    HW168998   5.857   4.781   3.284 -0.4384 -0.4784 -0.9009
21012SOL    HW268999   5.757   4.883   3.333  0.9163  0.5099 -0.1233
21013SOL     OW69000   3.459   0.011   8.662 -0.7407 -0.0025 -0.3434
21013SOL    HW169001   3.464  -0.068   8.608 -2.5390 -0.4698  0.1132
21013SOL    HW269002   3.388  -0.007   8.724 -1.0772  1.9249 -0.1210
21014SOL     OW69003   5.806   2.059   1.293 -0.3497  0.3089  0.0669
21014SOL    HW169004   5.822   2.005   1.215  3.1914 -1.1547  1.5862
21014SOL    HW269005   5.820   2.149   1.263  0.2181 -0.1518 -1.1452
21015SOL     OW69006   0.523   6.770   1.395 -0.1493  0.1480  0.8239
21015SOL    HW169007   0.445   6.724   1.426 -1.4601  0.8120 -1.3091
21015SOL    HW269008   0.492   6.856   1.368  1.6440  1.0399  1.4534
21016SOL     OW69009   0.027   0.804   6.023  0.0442 -0.5431 -0.0639
21016SOL    HW169010  -0.007   0.884   5.982 -0.8673 -0.2801  1.1265
21016SOL    HW269011  -0.029   0.792   6.101  2.5337 -0.2063  1.8887
21017SOL     OW69012   4.907   6.000   6.009 -0.2343  0.7536 -0.1109
21017SOL    HW169013   4.923   6.089   6.040 -0.1049  1.0781 -1.0663
21017SOL    HW269014   4.835   6.009   5.946  0.4684  0.3576 -1.0042
21018SOL     OW69015   8.021   1.959   9.184  0.1553  0.2519  0.3335
21018SOL    HW169016   7.966   1.977   9.108  1.0114  1.2970 -0.0564
21018SOL    HW269017   8.035   1.864   9.181  2.4320  0.5378 -2.4623
21019SOL     OW69018   5.600   9.237   9.029 -0.1175  0.3764  0.3211
21019SOL    HW169019   5.665   9.209   9.093 -0.2176 -0.7138 -0.0390
21019SOL    HW269020   5.537   9.165   9.025 -0.7079  0.9075 -0.1949
21020SOL     OW69021   4.799   5.165   4.373  0.0233 -0.2010  0.0419
21020SOL    HW169022   4.811   5.259   4.387  1.0907 -0.6325  2.6104
21020SOL    HW269023   4.885   5.134   4.343 -0.6100 -0.2539 -1.8559
21021SOL     OW69024   5.657   1.026   5.279 -0.5690 -0.8788  0.5551
21021SOL    HW169025   5.582   1.012   5.336 -0.4502 -0.2634  0.8795
21021SOL    HW269026   5.658   1.121   5.265 -0.8560 -1.0632 -0.8307
21022SOL     OW69027   1.798   8.144   7.995  0.1715  0.2546 -0.7323
21022SOL    HW169028   1.793   8.163   8.089 -0.9412 -0.4297 -0.6271
21022SOL    HW269029   1.707   8.146   7.965  0.5384  0.7897 -1.8775
21023SOL     OW69030   1.154   3.997   1.220 -0.3849  0.0322  0.0598
21023SOL    HW169031   1.109   3.928   1.171  1.7313 -0.3557 -1.5062
21023SOL    HW269032   1.164   4.068   1.157  0.3518  0.4525  0.6315
21024SOL     OW69033   3.778   7.383   2.558  0.3513  0.2807  0.3219
21024SOL    HW169034   3.848   7.365   2.620  1.8186 -0.5051 -1.4641
21024SOL    HW269035   3.769   7.302   2.508 -0.5798  0.9681 -0.6840
21025SOL     OW69036   0.231   1.306   4.903 -0.2794 -0.2075 -0.8240
21025SOL    HW169037   0.206   1.375   4.842  0.1908 -0.4396 -1.2887
21025SOL    HW269038   0.187   1.329   4.985  1.2047  1.5882 -0.4620
21026SOL     OW69039   9.092   3.050   8.141  0.1955  0.0787 -0.4498
21026SOL    HW169040   9.100   3.079   8.232 -0.6017  0.3131 -0.4405
21026SOL    HW269041   9.181   3.048   8.108  0.6946 -1.8169  0.8817
21027SOL     OW69042   1.926   5.097   6.024 -0.2606  0.3130 -0.3382
21027SOL    HW169043   1.931   5.056   6.111 -0.1827  0.9097 -0.0564
21027SOL    HW269044   1.844   5.065   5.987  0.2143 -0.7766 -0.4763
21028SOL     OW69045   4.451   3.273   1.436 -0.3665  0.2665  0.0378
21028SOL    HW169046   4.532   3.297   1.481 -1.1861  1.5775  0.8956
21028SOL    HW269047   4.475   3.272   1.343  0.9226 -0.6496  0.3633
21029SOL     OW69048   0.974   8.476   4.001 -0.5240  0.2256  0.1644
21029SOL    HW169049   0.924   8.539   4.052 -1.3676  0.8456 -1.3642
21029SOL    HW269050   1.065   8.487   4.030 -1.0630 -0.0442  2.0887
21030SOL     OW69051   3.845   4.730   8.449 -0.3679 -0.9113  0.2515
21030SOL    HW169052   3.924   4.701   8.494 -0.1998 -0.4132  0.2770
21030SOL    HW269053   3.859   4.706   8.357 -0.1931 -0.8363  0.2580
21031SOL     OW69054   8.446   0.060   8.629 -0.4227  0.3068 -0.1311
21031SOL    HW169055   8.503   0.061   8.706  0.3216 -1.1502 -0.6177
21031SOL    HW269056   8.494   0.111   8.563 -0.8110  1.1022  0.1952
21032SOL     OW69057   0.237   2.271   1.441  0.3746 -0.7812  0.0255
21032SOL    HW169058   0.326   2.248   1.414  0.5503 -0.0496 -0.0523
21032SOL    HW269059   0.184   2.260   1.362  0.7640  0.6847 -0.4827
21033SOL     OW69060   8.152   2.660   1.118 -0.3328  0.5673 -0.3199
21033SOL    HW169061   8.081   2.655   1.183 -1.5503 -1.2779 -1.7117
21033SOL    HW269062   8.159   2.754   1.099 -2.0580  0.8471  0.2179
21034SOL     OW69063   1.169   7.854   6.827 -0.2793  0.2600  0.5444
21034SOL    HW169064   1.150   7.947   6.816 -0.5382  0.2434  0.8449
21034SOL    HW269065   1.243   7.838   6.768 -1.7777  0.1191 -1.3990
21035SOL     OW69066   3.392   5.026   9.262  0.1204  0.1089 -0.2272
21035SOL    HW169067   3.433   4.948   9.300 -0.4398 -0.1524 -0.1413
21035SOL    HW269068   3.346   5.067   9.336  1.1282  1.0167 -0.0758
21036SOL     OW69069   6.635   5.812   3.795  0.4729  0.0048 -0.2377
21036SOL    HW169070   6.673   5.894   3.828 -1.0122  0.3429  0.6987
21036SOL    HW269071   6.690   5.743   3.832 -0.2073  0.4550  1.7163
21037SOL     OW69072   0.555   3.570   8.789  0.0147 -0.3152 -0.0574
21037SOL    HW169073   0.629   3.552   8.731 -0.2071 -1.1013 -0.1075
21037SOL    HW269074   0.575   3.655   8.827  0.6878 -0.2771 -0.4739
21038SOL     OW69075   4.017   8.206   0.038 -0.3936  0.1181  0.8378
21038SOL    HW169076   4.091   8.199   0.099 -0.1185 -0.7909  0.4240
21038SOL    HW269077   4.054   8.249  -0.039 -0.0185 -1.1954  0.2497
21039SOL     OW69078   4.979   2.799   3.677  0.1858 -0.7814 -0.4927
21039SOL    HW169079   4.943   2.801   3.766 -0.5162 -1.1971 -0.7597
21039SOL    HW269080   4.972   2.708   3.650  0.5451 -0.6888 -0.9147
21040SOL     OW69081   1.001   1.333   8.110  0.2817  0.2942 -0.1564
21040SOL    HW169082   0.933   1.313   8.174  1.4936  1.2628  1.4942
21040SOL    HW269083   0.963   1.403   8.056 -1.0276 -1.0286 -1.0483
21041SOL     OW69084   6.308   6.289   5.567  0.0412  0.0122 -0.0048
21041SOL    HW169085   6.224   6.290   5.614 -0.4367 -0.4400 -0.8174
21041SOL    HW269086   6.311   6.374   5.522  0.0428  0.0502  0.0668
21042SOL     OW69087   6.966   0.799   7.086 -0.5349 -0.0290  0.4977
21042SOL    HW169088   6.901   0.739   7.048 -0.6802 -0.7346  1.8195
21042SOL    HW269089   7.011   0.835   7.010 -0.8517 -1.3656 -0.3648
21043SOL     OW69090   9.077   8.113   7.842 -1.1113  0.2112 -0.0193
21043SOL    HW169091   8.998   8.166   7.826 -0.3700  1.5715  0.6233
21043SOL    HW269092   9.076   8.099   7.937 -0.4915  0.4130  0.0217
21044SOL     OW69093   9.279   6.866   8.396  0.0996  0.1666 -0.5304
21044SOL    HW169094   9.281   6.771   8.392  0.5439  0.1853 -0.7804
21044SOL    HW269095   9.341   6.888   8.467 -0.9532  0.2175  0.3948
21045SOL     OW69096   2.568   5.607   2.341 -0.3249 -0.0918  0.6295
21045SOL    HW169097   2.612   5.588   2.258  2.8223  0.1326  2.1046
21045SOL    HW269098   2.518   5.527   2.361  0.0115 -0.6788 -0.7950
21046SOL     OW69099   8.899   7.620   1.147  0.5691 -0.0859 -0.0919
21046SOL    HW169100   8.927   7.610   1.238 -0.6535 -0.6341  0.2433
21046SOL    HW269101   8.934   7.706   1.121  0.1341  0.5110  1.2017
21047SOL     OW69102   7.139   7.767   2.265 -0.7945  0.5128 -0.3796
21047SOL    HW169103   7.073   7.777   2.196 -0.9588  2.0326 -0.0331
21047SOL    HW269104   7.203   7.706   2.228 -3.0340 -2.1421 -0.1980
21048SOL     OW69105   3.232   0.419   4.357  0.7382 -0.1060  0.2243
21048SOL    HW169106   3.236   0.515   4.349 -2.7783  0.3483  2.0907
21048SOL    HW269107   3.237   0.402   4.451  2.0710 -1.8968 -0.1090
21049SOL     OW69108   3.252   0.673   4.354  0.0761  0.4968 -0.0020
21049SOL    HW169109   3.219   0.724   4.428 -2.0530 -0.1886 -0.4064
21049SOL    HW269110   3.343   0.702   4.344  0.9127 -0.2958  3.6607
21050SOL     OW69111   6.576   1.313   8.463  0.0207 -0.0711 -0.1132
21050SOL    HW169112   6.588   1.366   8.541 -0.3496  1.1356 -0.8506
21050SOL    HW269113   6.613   1.366   8.392  0.6649 -1.2880 -0.7177
21051SOL     OW69114   7.368   4.284   6.416  0.4413 -0.0978 -0.4180
21051SOL    HW169115   7.460   4.283   6.441 -0.1739 -0.3087  2.1563
21051SOL    HW269116   7.357   4.364   6.365  1.7903  0.5705  0.3155
21052SOL     OW69117   2.116   5.426   7.819  0.1271  0.2788  0.2743
21052SOL    HW169118   2.199   5.459   7.785 -0.6197  0.9078 -0.9793
21052SOL    HW269119   2.062   5.411   7.742 -0.4071 -1.6420  0.9649
21053SOL     OW69120   2.189   1.226   1.580  0.7351 -0.1225 -0.1497
21053SOL    HW169121   2.140   1.176   1.645  2.2499 -1.0564  0.3252
21053SOL    HW269122   2.272   1.247   1.623  0.8614  1.2460 -0.9920
21054SOL     OW69123   4.119   1.339   6.141  0.2940  0.5687  0.0308
21054SOL    HW169124   4.083   1.377   6.222 -0.2609 -1.0998  0.6136
21054SOL    HW269125   4.043   1.325   6.085  0.3785 -0.4241  0.1557
21055SOL     OW69126   8.642   1.016   3.225  0.1183  0.0187 -0.1966
21055SOL    HW169127   8.720   0.963   3.206  0.9839  1.3534 -0.4997
21055SOL    HW269128   8.677   1.096   3.264 -1.0853  0.7531 -0.5774
21056SOL     OW69129   1.025   5.096   1.003 -0.9010  0.2369 -0.0452
21056SOL    HW169130   0.996   5.010   1.033  0.0368 -0.3845 -0.8366
21056SOL    HW269131   0.946   5.138   0.968 -1.3847 -0.2626  0.4319
21057SOL     OW69132   5.968   6.363   9.273 -0.2054 -0.7356  0.0655
21057SOL    HW169133   5.960   6.323   9.186  1.8571  0.7537 -0.8880
21057SOL    HW269134   6.047   6.417   9.267 -0.6635  0.3106  2.5246
21058SOL     OW69135   7.522   7.491   3.875 -0.6371  0.1707  0.2082
21058SOL    HW169136   7.614   7.510   3.856 -0.7512  0.1470 -0.3813
21058SOL    HW269137   7.516   7.395   3.871 -0.4304  0.0852  1.4733
21059SOL     OW69138   3.266   6.335   8.483 -0.2792 -0.8004 -0.1282
21059SOL    HW169139   3.186   6.354   8.532 -0.8176 -0.9094 -0.9545
21059SOL    HW269140   3.284   6.243   8.500  0.8262 -0.3083  1.6952
21060SOL     OW69141   8.224   9.308   3.531 -0.2276  0.0399 -0.4510
21060SOL    HW169142   8.250   9.225   3.572 -1.0929 -0.3489 -0.6776
21060SOL    HW269143   8.307   9.347   3.502  0.3534  0.0500  1.1378
21061SOL     OW69144   2.756   7.874   1.603  0.2102  0.0665 -0.7364
21061SOL    HW169145   2.849   7.866   1.626 -0.1023 -1.6006  0.1275
21061SOL    HW269146   2.711   7.878   1.688 -0.5676 -0.0013 -1.1353
21062SOL     OW69147   7.875   1.983   2.383 -0.0080 -0.1940 -0.0441
21062SOL    HW169148   7.831   2.060   2.347  0.6816 -0.3906 -1.3551
21062SOL    HW269149   7.804   1.920   2.399 -0.3291 -0.1772 -1.2803
21063SOL     OW69150   6.310   7.132   3.085  0.3003 -0.4254  0.6045
21063SOL    HW169151   6.404   7.138   3.102  0.8093 -1.0619 -1.6742
21063SOL    HW269152   6.299   7.050   3.038 -1.1368  0.4694 -0.7145
21064SOL     OW69153   7.492   5.095   4.056  0.3747  0.0290  0.5271
21064SOL    HW169154   7.488   5.181   4.097 -1.9785 -0.3655  1.2537
21064SOL    HW269155   7.464   5.034   4.125 -0.9525 -0.9644 -0.8203
21065SOL     OW69156   2.324   8.518   0.205  0.3271 -0.3605 -0.3785
21065SOL    HW169157   2.331   8.548   0.296  0.7273  0.5497 -0.6937
21065SOL    HW269158   2.306   8.597   0.155 -3.1265 -1.2357 -0.7736
21066SOL     OW69159   0.134   4.131   1.051  0.2482 -0.5003 -0.1971
21066SOL    HW169160   0.067   4.067   1.025 -2.0949  0.8211  2.1627
21066SOL    HW269161   0.103   4.214   1.014  1.0144  0.0088  0.2788
21067SOL     OW69162   2.833   0.450   6.287 -0.1784 -0.5083  0.5594
21067SOL    HW169163   2.745   0.437   6.323 -0.6857  0.1241 -0.4092
21067SOL    HW269164   2.848   0.544   6.293  0.6341 -0.6597  1.1338
21068SOL     OW69165   5.270   6.386   0.723 -0.1560  0.0938 -0.0594
21068SOL    HW169166   5.343   6.447   0.737  0.9562 -1.1325 -0.3883
21068SOL    HW269167   5.192   6.438   0.745  0.8532  1.1575  1.1960
21069SOL     OW69168   6.565   7.050   2.259 -0.1978  0.3149  0.1400
21069SOL    HW169169   6.579   6.972   2.311  0.2357  1.1178  1.2700
21069SOL    HW269170   6.472   7.070   2.268 -0.6789 -0.9314 -1.4618
21070SOL     OW69171   1.127   5.653   4.822  0.3956  0.3343  0.2942
21070SOL    HW169172   1.074   5.694   4.754 -1.6902 -1.4623  0.7405
21070SOL    HW269173   1.104   5.701   4.902 -0.5842 -0.4189  0.4806
21071SOL     OW69174   8.863   4.259   8.389 -0.2236 -0.2694 -0.2878
21071SOL    HW169175   8.834   4.349   8.397 -2.1490 -0.8723  0.2248
21071SOL    HW269176   8.827   4.229   8.306 -1.1236 -1.0421  0.3536
21072SOL     OW69177   7.018   8.676   2.561  0.1778  0.1423  0.1617
21072SOL    HW169178   6.994   8.588   2.591  1.5477 -0.6616 -0.9797
21072SOL    HW269179   6.935   8.723   2.557 -0.5556 -1.0040  1.0491
21073SOL     OW69180   8.034   3.259   8.562  0.5173  0.1411 -0.5160
21073SOL    HW169181   7.943   3.278   8.586  0.5386  1.2215 -1.2010
21073SOL    HW269182   8.028   3.182   8.506  0.3657 -1.7387  1.9263
21074SOL     OW69183   0.300   7.117   1.758  0.2080 -0.5472 -0.0183
21074SOL    HW169184   0.230   7.090   1.818  0.0347 -1.5803 -0.6572
21074SOL    HW269185   0.278   7.207   1.733 -0.3587 -0.5269  0.5371
21075SOL     OW69186   8.877   8.582   1.180  0.0630  0.1704  0.2125
21075SOL    HW169187   8.886   8.488   1.194  0.1795 -0.0714 -1.3173
21075SOL    HW269188   8.943   8.602   1.113 -0.4389  1.2121  0.0178
21076SOL     OW69189   0.743   8.465   3.608  0.3955  0.2876  0.6155
21076SOL    HW169190   0.768   8.394   3.549 -1.7407 -2.1452  2.4155
21076SOL    HW269191   0.659   8.495   3.574 -0.5932 -0.7769  2.0135
21077SOL     OW69192   0.294   8.373   1.528 -0.0115 -0.0179 -0.2686
21077SOL    HW169193   0.247   8.312   1.585  1.3822 -0.5775  0.3295
21077SOL    HW269194   0.330   8.318   1.459 -0.6946  0.4916 -1.0528
21078SOL     OW69195   5.124   7.517   4.329 -0.2298  0.1814  0.5728
21078SOL    HW169196   5.076   7.588   4.286 -0.9983 -0.6593  0.0205
21078SOL    HW269197   5.215   7.532   4.304 -0.5875  0.0290 -0.9218
21079SOL     OW69198   4.831   8.140   9.370  0.0565 -0.2659  0.3089
21079SOL    HW169199   4.818   8.115   9.461  0.3260 -1.2683  0.0812
21079SOL    HW269200   4.830   8.236   9.371  0.0005 -0.2700  1.3508
21080SOL     OW69201   6.085   0.861   7.527  0.3419  0.5390 -0.1843
21080SOL    HW169202   6.127   0.914   7.459  1.2788 -0.4897 -0.4324
21080SOL    HW269203   6.082   0.772   7.491 -0.5789  0.2692  0.4987
21081SOL     OW69204   5.046   1.253   8.949 -0.0628 -0.3987 -0.0434
21081SOL    HW169205   5.056   1.283   9.039  0.2943 -0.5642 -0.0241
21081SOL    HW269206   5.055   1.332   8.896  4.1838 -0.7795 -0.2116
21082SOL     OW69207   8.873   8.222   7.306  0.7667  0.2653 -0.0380
21082SOL    HW169208   8.876   8.139   7.354 -0.8656  0.6321  0.7584
21082SOL    HW269209   8.819   8.280   7.361  0.1789  1.2126 -1.5447
21083SOL     OW69210   7.066   7.643   8.542  0.2849 -0.4580  0.1942
21083SOL    HW169211   6.981   7.655   8.584  1.4255  0.5441  2.4213
21083SOL    HW269212   7.106   7.570   8.591  0.7870 -0.7901 -0.6974
21084SOL     OW69213   9.162   7.057   8.233  0.0683  0.1341  0.4127
21084SOL    HW169214   9.074   7.027   8.259 -0.1350  0.8685  0.6047
21084SOL    HW269215   9.221   6.994   8.274 -0.4138 -1.6222 -1.4508
21085SOL     OW69216   1.115   1.760   3.322 -0.6942 -0.2945  0.3516
21085SOL    HW169217   1.171   1.834   3.298  0.8672 -1.2222  0.9215
21085SOL    HW269218   1.035   1.773   3.272 -0.7573  2.1172  0.9369
21086SOL     OW69219   3.995   6.834   7.671  0.8776 -0.4437 -0.0966
21086SOL    HW169220   3.919   6.888   7.690  0.3629 -1.2783  0.2727
21086SOL    HW269221   4.068   6.895   7.670  0.1241  0.4625 -1.0795
21087SOL     OW69222   6.867   0.923   0.389 -0.2920  0.1089  0.3554
21087SOL    HW169223   6.901   0.839   0.419 -0.9501 -1.1673 -2.1908
21087SOL    HW269224   6.938   0.985   0.406  0.8282 -1.2527  0.8555
21088SOL     OW69225   1.564   2.936   5.997 -0.2161  0.0186 -0.5718
21088SOL    HW169226   1.521   2.929   5.912 -0.0507  0.3591 -0.6836
21088SOL    HW269227   1.521   2.868   6.051 -1.7248  1.1121 -0.3208
21089SOL     OW69228   2.648   5.524   9.264  0.4022 -0.0513 -0.1983
21089SOL    HW169229   2.559   5.517   9.229  0.1445  1.8443  0.0055
21089SOL    HW269230   2.691   5.589   9.209  1.0463  0.4907  0.9073
21090SOL     OW69231   4.553   5.734   9.114  0.0833  0.3787  0.0042
21090SOL    HW169232   4.568   5.726   9.020  1.9488 -0.1796  0.2982
21090SOL    HW269233   4.499   5.658   9.136  1.3355 -0.6453 -0.3339
21091SOL     OW69234   1.049   5.090   0.131  0.1218 -0.2624 -0.0975
21091SOL    HW169235   0.974   5.034   0.112 -0.4459  1.1629 -2.3372
21091SOL    HW269236   1.122   5.050   0.084  0.4985 -0.8834  0.9702
21092SOL     OW69237   4.866   5.824   3.842  0.2541  0.0438  0.3991
21092SOL    HW169238   4.931   5.851   3.907  0.7117  0.8678 -0.3681
21092SOL    HW269239   4.783   5.858   3.875  0.6454  1.3878  0.0533
21093SOL     OW69240   5.751   0.258   7.169 -0.0143  0.6317 -0.0035
21093SOL    HW169241   5.797   0.174   7.165 -1.1417  0.0475 -2.2519
21093SOL    HW269242   5.680   0.244   7.232  1.4737  0.8559  1.8038
21094SOL     OW69243   2.841   4.944   8.495  0.1072  0.2127 -0.1634
21094SOL    HW169244   2.828   4.858   8.534  0.1622  0.1153 -0.3594
21094SOL    HW269245   2.874   4.998   8.567 -0.7970  0.3120  0.1905
21095SOL     OW69246   7.246   8.794   1.066 -0.2569 -0.0347  0.3987
21095SOL    HW169247   7.266   8.757   0.980  1.2730 -0.9047  1.0949
21095SOL    HW269248   7.321   8.771   1.120 -0.8109  1.2228  1.7604
21096SOL     OW69249   0.342   2.461   5.988 -0.1209 -0.0752 -0.4949
21096SOL    HW169250   0.358   2.377   6.031 -0.0781  0.5572  0.7815
21096SOL    HW269251   0.399   2.523   6.035 -0.2495  0.6918 -1.3221
21097SOL     OW69252   0.402   8.689   7.880 -0.0104  0.0269  0.0688
21097SOL    HW169253   0.328   8.668   7.937 -0.8559  1.7546 -0.3036
21097SOL    HW269254   0.412   8.784   7.887  2.0835 -0.1321 -0.0415
21098SOL     OW69255   6.849   7.577   5.106 -0.4650  0.5303  0.4971
21098SOL    HW169256   6.884   7.667   5.106 -0.3113  0.5150  2.2332
21098SOL    HW269257   6.831   7.558   5.015  0.7184  1.8703 -0.0588
21099SOL     OW69258   4.393   4.660   7.186 -0.3234  0.0985  0.0042
21099SOL    HW169259   4.398   4.590   7.251 -0.9859  1.1828  1.2848
21099SOL    HW269260   4.323   4.717   7.219  0.9778  1.9743 -0.3449
21100SOL     OW69261   0.795   6.999   7.286  0.1674 -0.6783  0.2582
21100SOL    HW169262   0.888   7.012   7.302 -0.5464  1.8940  3.5104
21100SOL    HW269263   0.773   7.063   7.219  0.5197 -0.1540  0.6323
21101SOL     OW69264   7.419   1.827   2.534  0.1096 -0.4902 -0.0335
21101SOL    HW169265   7.380   1.914   2.523  1.7540  0.5657  1.7229
21101SOL    HW269266   7.368   1.786   2.604 -1.5373 -1.5695 -1.7754
21102SOL     OW69267   8.344   4.659   2.125  0.1881 -0.5412 -0.4528
21102SOL    HW169268   8.357   4.713   2.047 -0.0662 -0.0091 -0.1324
21102SOL    HW269269   8.381   4.712   2.196 -0.5135 -0.5701 -0.0597
21103SOL     OW69270   1.220   4.814   8.011  0.1800 -0.0269  0.0678
21103SOL    HW169271   1.270   4.830   8.091  0.2499 -2.4396  0.5835
21103SOL    HW269272   1.148   4.877   8.015  0.1993 -0.0500  2.0277
21104SOL     OW69273   2.848   0.705   4.527 -0.1028  0.2107  0.0797
21104SOL    HW169274   2.939   0.729   4.547 -0.0249  0.4530 -0.5172
21104SOL    HW269275   2.841   0.613   4.552 -0.0032  0.4724  1.1182
21105SOL     OW69276   7.551   7.336   2.770 -0.0961  0.6285 -0.4862
21105SOL    HW169277   7.613   7.392   2.725 -0.2658  1.5255  0.3600
21105SOL    HW269278   7.470   7.387   2.773 -0.5099 -0.0121 -0.4609
21106SOL     OW69279   4.641   5.562   3.187  0.1440  0.2756 -0.2236
21106SOL    HW169280   4.552   5.593   3.207  0.3653 -0.3068  1.9678
21106SOL    HW269281   4.697   5.613   3.246  1.1440 -0.1400 -0.8070
21107SOL     OW69282   2.926   9.115   0.747 -0.5832 -0.0086  0.0657
21107SOL    HW169283   3.011   9.095   0.710  0.2423  0.8163  1.4267
21107SOL    HW269284   2.916   9.055   0.821 -1.3242 -0.2996 -0.2557
21108SOL     OW69285   6.173   5.061   2.323 -0.4808 -0.3865  0.0062
21108SOL    HW169286   6.146   5.134   2.267  0.1781 -0.7068 -0.7350
21108SOL    HW269287   6.157   4.983   2.271 -0.7749 -0.7537  0.6355
21109SOL     OW69288   9.192   2.893   4.953 -0.0524 -0.0032  0.0342
21109SOL    HW169289   9.271   2.844   4.974 -1.5573 -2.9999 -0.6533
21109SOL    HW269290   9.146   2.901   5.037 -0.3543 -0.9359 -0.0274
21110SOL     OW69291   7.836   1.807   3.104  0.6602 -0.3214  0.5104
21110SOL    HW169292   7.896   1.850   3.043 -1.4626  0.6580 -1.0670
21110SOL    HW269293   7.795   1.738   3.051 -1.5426  0.8253  0.5879
21111SOL     OW69294   4.046   7.226   2.343 -0.3461 -0.2191 -0.0309
21111SOL    HW169295   4.120   7.209   2.284  0.5048 -0.5125  1.0757
21111SOL    HW269296   4.042   7.321   2.350 -0.1638 -0.1977 -0.2239
21112SOL     OW69297   3.626   0.368   1.699 -0.2880  0.0439  0.2136
21112SOL    HW169298   3.549   0.413   1.663 -0.4955 -1.1746 -0.9474
21112SOL    HW269299   3.700   0.406   1.653 -0.5837 -1.8004 -1.9715
21113SOL     OW69300   0.041   8.257   5.756  0.2934 -0.2186  0.2748
21113SOL    HW169301   0.089   8.221   5.682  0.9826  0.2212  0.4973
21113SOL    HW269302  -0.050   8.230   5.742  0.4838 -0.4518 -0.5279
21114SOL     OW69303   3.355   6.878   5.826  0.0594 -0.4196 -0.3334
21114SOL    HW169304   3.327   6.832   5.747 -0.8802  1.6189 -1.2660
21114SOL    HW269305   3.279   6.931   5.851  0.3600 -0.9094  1.9194
21115SOL     OW69306   6.597   8.133   0.867 -0.0769  0.0165  0.1585
21115SOL    HW169307   6.689   8.138   0.842 -0.4485  0.7902 -1.1658
21115SOL    HW269308   6.570   8.224   0.880 -0.4721 -0.2446  1.3369
21116SOL     OW69309   6.432   6.801   7.581  0.2420  0.0152  0.1524
21116SOL    HW169310   6.475   6.730   7.534  0.3177  0.8846 -1.1353
21116SOL    HW269311   6.406   6.863   7.513 -1.4776  0.3558  1.0706
21117SOL     OW69312   6.595   1.745   6.808 -0.0838  0.1959 -0.4546
21117SOL    HW169313   6.525   1.719   6.747 -0.0231  0.9117 -0.8396
21117SOL    HW269314   6.676   1.725   6.761  0.0235 -1.8101  0.4781
21118SOL     OW69315   0.055   1.221   2.607 -0.1359  1.0945  0.2288
21118SOL    HW169316   0.143   1.185   2.602  0.4859  2.0383  2.6681
21118SOL    HW269317   0.042   1.267   2.525  1.3499  0.3139 -0.4695
21119SOL     OW69318   7.124   8.231   4.480 -0.5210 -0.3412 -0.3546
21119SOL    HW169319   7.215   8.261   4.474  0.3860 -2.5278  1.3715
21119SOL    HW269320   7.073   8.312   4.481  1.5351  1.0318  0.6498
21120SOL     OW69321   2.120   4.963   0.879  0.1736 -0.3813 -0.6744
21120SOL    HW169322   2.120   4.975   0.974  0.2158 -0.5554 -0.6534
21120SOL    HW269323   2.212   4.955   0.855  0.1546 -0.4996 -0.7100
21121SOL     OW69324   7.990   6.900   7.247 -0.1420 -0.7803  0.4109
21121SOL    HW169325   7.937   6.972   7.280 -0.2597 -1.1620  1.0688
21121SOL    HW269326   8.036   6.937   7.171 -1.9725 -0.6865 -0.7114
21122SOL     OW69327   4.899   3.232   3.174 -0.4860 -0.4259  0.7363
21122SOL    HW169328   4.870   3.203   3.087 -0.4193  0.3609  0.4446
21122SOL    HW269329   4.970   3.171   3.196  0.1485 -0.0545 -0.1881
21123SOL     OW69330   0.192   8.533   0.407  0.1052 -0.5036  0.8828
21123SOL    HW169331   0.157   8.618   0.381 -1.0344 -0.9702  0.8246
21123SOL    HW269332   0.287   8.545   0.408  0.0025  0.5214  0.0275
21124SOL     OW69333   4.939   8.091   5.622  0.0835 -0.4312  0.1234
21124SOL    HW169334   4.898   8.042   5.694 -0.3997  0.6432  0.6078
21124SOL    HW269335   5.030   8.101   5.649 -0.5444  1.8981  1.7608
21125SOL     OW69336   3.003   5.683   7.529  0.4750  0.3408 -0.3691
21125SOL    HW169337   3.025   5.669   7.437  0.3207  0.7126 -0.4611
21125SOL    HW269338   3.073   5.740   7.562  1.4847 -1.1219  0.1768
21126SOL     OW69339   6.426   3.080   2.986 -0.4071 -0.2840  0.1151
21126SOL    HW169340   6.389   3.010   2.932 -0.8712  0.4588 -0.5442
21126SOL    HW269341   6.354   3.105   3.044 -0.2801 -0.2668  0.2644
21127SOL     OW69342   4.772   0.956   5.248 -0.2816  0.2250 -0.3446
21127SOL    HW169343   4.751   0.946   5.341 -2.0071 -0.8180 -0.7937
21127SOL    HW269344   4.833   1.029   5.245  0.1463  0.0109  1.6478
21128SOL     OW69345   6.001   6.172   1.842  0.3640 -0.6897 -0.3201
21128SOL    HW169346   5.993   6.138   1.931 -0.1331  0.2301 -0.0053
21128SOL    HW269347   5.920   6.144   1.799  0.0368 -0.0924 -0.1126
21129SOL     OW69348   3.165   2.487   0.829 -0.3229  0.2186 -0.4189
21129SOL    HW169349   3.132   2.480   0.918 -0.3982  1.1091 -0.3674
21129SOL    HW269350   3.259   2.473   0.836 -0.6562 -2.8363 -0.6267
21130SOL     OW69351   5.855   1.878   1.109  0.0915  0.2665 -0.3197
21130SOL    HW169352   5.821   1.832   1.032  1.7091 -0.5668 -0.5854
21130SOL    HW269353   5.869   1.809   1.174 -0.1945  0.8154  0.3420
21131SOL     OW69354   1.588   4.856   8.061  0.3296 -0.0926 -0.2558
21131SOL    HW169355   1.597   4.841   8.155 -1.4252 -1.9558 -0.3359
21131SOL    HW269356   1.607   4.772   8.021 -0.0987  0.3717 -1.4911
21132SOL     OW69357   9.050   6.827   2.659  0.2415 -0.0884  0.4789
21132SOL    HW169358   8.973   6.825   2.716 -0.0767 -0.6521  0.0371
21132SOL    HW269359   9.032   6.898   2.597 -1.5819 -2.4034 -1.8571
21133SOL     OW69360   7.226   6.490   2.336 -0.2732 -0.5830 -0.2982
21133SOL    HW169361   7.302   6.432   2.330 -0.3635 -0.8331  0.6827
21133SOL    HW269362   7.193   6.496   2.247 -0.8189 -2.8140 -0.2983
21134SOL     OW69363   1.303   8.854   2.853 -0.5687  0.1363  0.5548
21134SOL    HW169364   1.352   8.804   2.919  1.9572 -0.7329 -1.8378
21134SOL    HW269365   1.339   8.942   2.858  0.8383 -0.3259 -0.6980
21135SOL     OW69366   6.342   4.702   5.183  0.0011 -0.0166 -0.0907
21135SOL    HW169367   6.322   4.779   5.236 -0.2417  0.5117 -0.9418
21135SOL    HW269368   6.431   4.678   5.208  0.6116  1.3765 -0.8168
21136SOL     OW69369   9.173   0.760   5.286 -0.3282  0.4152 -0.8096
21136SOL    HW169370   9.124   0.832   5.326  0.3668  0.9495 -0.8960
21136SOL    HW269371   9.111   0.687   5.284 -0.2702  0.2308  1.6327
21137SOL     OW69372   8.425   7.086   1.971 -0.2527 -0.0038  0.3163
21137SOL    HW169373   8.474   7.023   1.918 -0.1804 -0.2708  0.6944
21137SOL    HW269374   8.345   7.103   1.921 -0.2304 -0.3243  0.1723
21138SOL     OW69375   5.135   3.242   6.607 -0.5907  0.1015 -0.2786
21138SOL    HW169376   5.135   3.251   6.703 -0.2690 -0.7703 -0.1869
21138SOL    HW269377   5.111   3.329   6.575  0.2135  0.6633  0.5703
21139SOL     OW69378   1.135   5.934   7.469  0.3621  0.2949  0.2803
21139SOL    HW169379   1.187   5.893   7.537 -0.2794  0.7256  1.0451
21139SOL    HW269380   1.049   5.893   7.475  0.1583  0.6749  0.0567
21140SOL     OW69381   5.429   7.947   7.024  0.2787  0.1769 -0.8045
21140SOL    HW169382   5.513   7.994   7.031 -0.6937  2.0555 -1.2376
21140SOL    HW269383   5.411   7.919   7.114  0.2060  1.9114 -0.2449
21141SOL     OW69384   0.282   5.020   8.833 -0.3638 -0.4188  0.1157
21141SOL    HW169385   0.212   5.072   8.792  1.2975  1.4892 -0.4736
21141SOL    HW269386   0.300   4.950   8.771  0.1458  0.7594 -1.1265
21142SOL     OW69387   0.398   5.743   8.157 -0.4301 -0.4305  0.0041
21142SOL    HW169388   0.347   5.820   8.181 -1.0427 -0.7934 -0.0911
21142SOL    HW269389   0.334   5.685   8.115  0.2513 -0.5343 -0.9156
21143SOL     OW69390   7.207   4.377   4.048 -0.2387  0.1830  0.2720
21143SOL    HW169391   7.295   4.394   4.014  0.9387 -0.8853  2.5834
21143SOL    HW269392   7.151   4.441   4.003  1.7807  1.2080 -0.9174
21144SOL     OW69393   0.197   6.308   1.220  0.1540 -0.1206 -0.5320
21144SOL    HW169394   0.129   6.254   1.261  0.2587  1.1919  1.4889
21144SOL    HW269395   0.255   6.333   1.292  2.7275 -1.0029 -2.1287
21145SOL     OW69396   3.971   8.881   6.862 -0.1611 -0.8970  0.3285
21145SOL    HW169397   4.044   8.912   6.914  1.4030 -1.1149 -1.6342
21145SOL    HW269398   3.989   8.788   6.847  0.0395 -0.6039 -1.4791
21146SOL     OW69399   6.049   9.359   8.283  0.3053 -0.1432 -0.0270
21146SOL    HW169400   6.100   9.334   8.206 -0.1228  0.7678 -0.6304
21146SOL    HW269401   5.975   9.409   8.247 -0.1554 -0.1151  0.9441
21147SOL     OW69402   7.539   9.189   1.904  0.2890 -0.2560  0.0732
21147SOL    HW169403   7.535   9.117   1.967  0.3291 -1.8297 -1.6103
21147SOL    HW269404   7.481   9.161   1.833  2.0373  0.2965 -1.6566
21148SOL     OW69405   4.128   8.249   1.688 -0.3474  0.5461  0.2162
21148SOL    HW169406   4.071   8.249   1.765 -1.8994 -0.4423 -0.8740
21148SOL    HW269407   4.145   8.157   1.669  0.4282  0.7853 -0.3430
21149SOL     OW69408   0.672   5.881   8.446  0.5482  0.5637  0.5869
21149SOL    HW169409   0.677   5.925   8.362  0.1777  3.3073  1.9099
21149SOL    HW269410   0.614   5.936   8.500  1.8777 -0.2955  3.0720
21150SOL     OW69411   7.492   0.502   4.877  0.3411 -0.2637 -0.2824
21150SOL    HW169412   7.438   0.430   4.910 -1.0320  0.6839 -0.4058
21150SOL    HW269413   7.564   0.509   4.940  0.3700 -1.5859 -0.1478
21151SOL     OW69414   9.244   4.023   8.872 -0.4009 -0.5662 -0.8884
21151SOL    HW169415   9.179   4.036   8.804 -0.9169 -0.7001 -0.4298
21151SOL    HW269416   9.201   4.053   8.952  0.8438  1.3733 -0.8727
21152SOL     OW69417   3.995   2.092   6.134 -0.2448 -0.4903 -0.3431
21152SOL    HW169418   3.981   2.043   6.215 -0.1149  0.5011  0.3015
21152SOL    HW269419   3.961   2.180   6.152  1.8264  0.4356 -0.5399
21153SOL     OW69420   0.156   4.680   8.400 -0.1925  0.3514  0.1340
21153SOL    HW169421   0.244   4.679   8.436 -0.0363  0.9220 -0.2231
21153SOL    HW269422   0.138   4.772   8.382 -1.3074  0.3783  1.2563
21154SOL     OW69423   9.029   2.591   1.154  0.1823 -0.3137 -0.1066
21154SOL    HW169424   8.946   2.628   1.185  0.9065  0.8573  0.4485
21154SOL    HW269425   9.064   2.543   1.229  0.1385 -0.6035 -0.2674
21155SOL     OW69426   7.209   3.590   8.062  0.2522 -0.4125 -0.2811
21155SOL    HW169427   7.261   3.528   8.114 -1.4713 -0.4245  1.5583
21155SOL    HW269428   7.202   3.548   7.976 -0.0098 -2.3188  0.6124
21156SOL     OW69429   1.882   8.137   7.305 -0.2834  0.7633  0.2261
21156SOL    HW169430   1.920   8.050   7.316 -1.0303  0.1172 -1.9490
21156SOL    HW269431   1.799   8.133   7.352  0.2790  0.7753  1.2660
21157SOL     OW69432   8.484   4.368   8.298  0.7367  0.1810  0.2543
21157SOL    HW169433   8.457   4.389   8.209  0.4759 -1.9515 -0.2132
21157SOL    HW269434   8.578   4.353   8.292  1.1792  2.4071  0.8571
21158SOL     OW69435   0.296   6.263   8.045 -0.2991 -0.1336  0.7103
21158SOL    HW169436   0.367   6.269   7.981  1.5853  1.6690  2.7519
21158SOL    HW269437   0.311   6.181   8.092 -0.0298 -0.1445  0.6029
21159SOL     OW69438   4.848   4.073   4.815 -0.2486 -0.3848 -0.5459
21159SOL    HW169439   4.934   4.082   4.774 -0.4715 -0.4818 -1.0537
21159SOL    HW269440   4.847   3.983   4.848 -0.1038 -0.3399 -0.4193
21160SOL     OW69441   9.261   3.812   7.713 -0.8198 -0.5517  0.2633
21160SOL    HW169442   9.316   3.800   7.636 -0.1802 -2.1459  0.9202
21160SOL    HW269443   9.172   3.801   7.681 -0.5099 -2.2860 -0.1077
21161SOL     OW69444   7.201   2.518   6.612 -0.5517 -0.2562 -0.1918
21161SOL    HW169445   7.134   2.474   6.663  0.0509 -0.3709  0.5064
21161SOL    HW269446   7.174   2.505   6.521 -2.1927  0.8526  0.1039
21162SOL     OW69447   3.792   4.816   0.185  0.3661  0.2537  0.5363
21162SOL    HW169448   3.756   4.735   0.223 -1.2233  1.3204  1.4464
21162SOL    HW269449   3.857   4.786   0.122 -1.7962 -1.8741 -0.8764
21163SOL     OW69450   6.489   4.579   0.272  0.3554  0.2454 -0.3977
21163SOL    HW169451   6.469   4.500   0.222  0.7368  0.6167 -1.1573
21163SOL    HW269452   6.577   4.604   0.243  0.3633  0.7772  0.0632
21164SOL     OW69453   0.803   2.691   8.982 -0.1342 -0.7856  0.1082
21164SOL    HW169454   0.869   2.709   8.915  0.4283  0.0309  0.8675
21164SOL    HW269455   0.780   2.599   8.968 -0.7882 -0.3775 -1.8486
21165SOL     OW69456   0.413   3.094   3.384  0.4726 -0.5007  0.6772
21165SOL    HW169457   0.440   3.014   3.430  0.9625 -1.3978 -1.0903
21165SOL    HW269458   0.477   3.104   3.313 -0.6229  0.4756 -0.2049
21166SOL     OW69459   3.531   4.884   1.707 -0.5453 -0.5898  0.5048
21166SOL    HW169460   3.435   4.882   1.708 -0.5651 -1.0171 -0.8506
21166SOL    HW269461   3.557   4.796   1.679  0.2021 -0.1356 -0.2719
21167SOL     OW69462   1.824   4.706   5.924 -0.4430 -0.0604 -0.1673
21167SOL    HW169463   1.792   4.796   5.936  0.2579 -0.0299  1.8681
21167SOL    HW269464   1.914   4.717   5.893 -0.9207 -0.1054 -1.6302
21168SOL     OW69465   6.360   5.602   3.336  0.1618  0.0996  0.1514
21168SOL    HW169466   6.342   5.513   3.305  0.3956  0.2328 -0.3679
21168SOL    HW269467   6.397   5.590   3.423  1.6790 -0.4062 -0.5371
21169SOL     OW69468   1.138   8.281   2.469  0.0062  0.2081 -0.1149
21169SOL    HW169469   1.176   8.339   2.403 -0.6834 -0.3639 -1.0500
21169SOL    HW269470   1.126   8.198   2.423  0.5260 -0.5344  1.0572
21170SOL     OW69471   9.113   2.626   9.314 -0.5849 -0.1785  0.4117
21170SOL    HW169472   9.116   2.700   9.374 -0.8487 -0.4720  0.7950
21170SOL    HW269473   9.137   2.551   9.368 -1.9051 -0.6215  0.4313
21171SOL     OW69474   0.436   0.176   1.675 -0.1162  0.1887  0.1116
21171SOL    HW169475   0.391   0.122   1.610  0.5895 -0.9467  0.5457
21171SOL    HW269476   0.379   0.176   1.751  0.9610 -2.0269  1.0037
21172SOL     OW69477   7.412   0.496   1.986 -0.3176 -0.4538 -0.0692
21172SOL    HW169478   7.322   0.510   1.959 -0.5148 -0.9356  0.3409
21172SOL    HW269479   7.413   0.515   2.080 -0.2393 -1.5469  0.1612
21173SOL     OW69480   0.055   5.909   6.831 -0.6559  0.5935  0.1214
21173SOL    HW169481  -0.020   5.850   6.835 -1.3265  1.3059 -1.1997
21173SOL    HW269482   0.115   5.868   6.769 -0.9587  1.1070 -0.5183
21174SOL     OW69483   4.544   9.115   3.184 -0.1129  0.1629  0.1074
21174SOL    HW169484   4.452   9.121   3.211 -0.2070 -1.4130  0.2334
21174SOL    HW269485   4.542   9.058   3.108  0.7281  0.4860 -0.1625
21175SOL     OW69486   7.845   8.497   8.985 -0.2876 -0.2277  0.1801
21175SOL    HW169487   7.916   8.547   8.944  0.5597  0.2231  2.0449
21175SOL    HW269488   7.811   8.442   8.916  1.0106  0.5226 -1.1148
21176SOL     OW69489   8.389   3.861   1.441 -0.7434 -0.6061  0.0056
21176SOL    HW169490   8.399   3.798   1.513  2.6038 -0.8417 -0.4949
21176SOL    HW269491   8.399   3.808   1.362  0.8250  0.3258 -0.4508
21177SOL     OW69492   2.925   1.648   6.552  0.1981 -0.5280  0.4184
21177SOL    HW169493   3.009   1.676   6.587  0.1504  2.0886 -1.3068
21177SOL    HW269494   2.860   1.683   6.613  0.2891 -2.4759  1.7039
21178SOL     OW69495   5.103   3.969   4.691 -0.1040 -0.2600  0.1558
21178SOL    HW169496   5.126   3.885   4.651  1.7693 -0.5710  1.7591
21178SOL    HW269497   5.166   3.980   4.762 -2.6419  0.7193  2.4342
21179SOL     OW69498   3.424   7.776   0.812  0.1375 -0.1267  0.5225
21179SOL    HW169499   3.376   7.757   0.893 -0.2763 -1.0577  0.0693
21179SOL    HW269500   3.516   7.779   0.839 -0.0214 -0.1209  1.0845
21180SOL     OW69501   3.700   6.398   2.091  0.1589 -0.1875  0.4159
21180SOL    HW169502   3.757   6.475   2.085 -0.0095 -0.1652 -1.7445
21180SOL    HW269503   3.614   6.429   2.063 -0.4453 -0.7029  1.6264
21181SOL     OW69504   7.599   8.407   9.294  0.7682 -0.6696  0.3041
21181SOL    HW169505   7.656   8.339   9.257 -0.8559 -1.2182 -1.3529
21181SOL    HW269506   7.609   8.397   9.388 -0.3849 -4.2036  0.2221
21182SOL     OW69507   2.851   3.597   6.972 -0.0066  0.0688 -0.2045
21182SOL    HW169508   2.773   3.571   6.923  0.6651 -1.5130 -0.4550
21182SOL    HW269509   2.889   3.668   6.920 -0.4262 -0.1926 -0.8790
21183SOL     OW69510   7.456   8.610   1.437 -0.4148 -0.0943  0.4794
21183SOL    HW169511   7.504   8.626   1.355  0.8318 -1.2941  0.9184
21183SOL    HW269512   7.366   8.594   1.409 -0.4307  1.4448 -0.4614
21184SOL     OW69513   0.037   4.813   0.379 -0.1648 -0.0600 -0.3483
21184SOL    HW169514  -0.050   4.841   0.348 -0.3654 -1.6692 -1.3275
21184SOL    HW269515   0.095   4.826   0.304  0.5049  1.1545  0.3512
21185SOL     OW69516   1.194   2.283   7.547 -0.7336 -0.4696  0.0524
21185SOL    HW169517   1.250   2.336   7.491  0.4245 -1.4811  0.2144
21185SOL    HW269518   1.133   2.346   7.586  0.0906  0.6134 -0.3504
21186SOL     OW69519   6.632   9.054   3.935 -0.2846 -0.1044 -0.3382
21186SOL    HW169520   6.583   8.988   3.984  1.5556 -0.1684  1.5347
21186SOL    HW269521   6.658   9.009   3.854 -2.4474 -0.3322 -0.9771
21187SOL     OW69522   4.054   4.432   7.920  0.1753  0.0017  0.4128
21187SOL    HW169523   4.118   4.492   7.958  0.5820 -0.6156  0.7093
21187SOL    HW269524   4.089   4.345   7.936 -0.5900 -0.3367  0.3046
21188SOL     OW69525   7.463   5.567   8.997  0.0419 -0.2372 -0.0705
21188SOL    HW169526   7.418   5.483   9.003  0.6074 -0.5237  0.1797
21188SOL    HW269527   7.409   5.618   8.936 -0.6321 -0.5630  0.2454
21189SOL     OW69528   0.131   1.899   4.205  0.2149 -0.2408  0.1086
21189SOL    HW169529   0.097   1.984   4.230  0.5094 -0.0063 -0.2760
21189SOL    HW269530   0.118   1.895   4.110 -0.3450 -0.8671  0.2053
21190SOL     OW69531   6.228   5.847   7.377 -0.4396  0.1011 -0.4527
21190SOL    HW169532   6.289   5.848   7.451 -1.8339  0.7547  0.7551
21190SOL    HW269533   6.284   5.847   7.299  1.0980  1.2347  0.5923
21191SOL     OW69534   8.874   8.792   6.442  0.1342  0.3858 -0.1783
21191SOL    HW169535   8.810   8.856   6.412 -0.7281  0.3417  1.4581
21191SOL    HW269536   8.822   8.724   6.485  1.2463  0.2996  1.1053
21192SOL     OW69537   9.344   5.932   3.971 -0.2932  0.7744 -0.4541
21192SOL    HW169538   9.415   5.968   4.025 -0.1838  0.4534 -0.3841
21192SOL    HW269539   9.380   5.851   3.934 -0.8246  0.2989  0.0518
21193SOL     OW69540   2.021   3.334   0.268  0.4521  0.6068 -0.3424
21193SOL    HW169541   2.024   3.429   0.273  0.1310  0.6053 -0.0786
21193SOL    HW269542   1.927   3.313   0.273  0.5672  0.2401  0.3257
21194SOL     OW69543   5.437   5.947   4.482  0.0216  0.1386  0.1991
21194SOL    HW169544   5.484   5.943   4.400 -0.3215 -3.1301  0.0270
21194SOL    HW269545   5.494   5.903   4.545 -1.5640 -1.4386  0.6081
21195SOL     OW69546   1.067   8.620   2.425  0.7072  0.5241  0.1765
21195SOL    HW169547   1.131   8.652   2.488 -0.5018 -0.7089  2.1554
21195SOL    HW269548   1.025   8.699   2.391  0.1246  1.2308  2.3645
21196SOL     OW69549   5.945   4.168   7.752  0.1963 -0.5245  0.1110
21196SOL    HW169550   5.877   4.140   7.691 -0.3874  0.4035  0.3070
21196SOL    HW269551   6.002   4.224   7.700  0.1090 -0.3203  0.2321
21197SOL     OW69552   6.373   6.208   1.607  0.6068 -0.3225  0.2350
21197SOL    HW169553   6.342   6.207   1.517  1.8614 -0.8482 -0.2211
21197SOL    HW269554   6.438   6.278   1.610 -0.2940  0.5111  1.0679
21198SOL     OW69555   7.580   1.838   3.866 -0.0201 -0.1565 -0.6583
21198SOL    HW169556   7.636   1.772   3.908  0.8653  0.6336 -0.5700
21198SOL    HW269557   7.541   1.886   3.938  0.1157  0.0544 -0.7246
21199SOL     OW69558   1.409   4.926   6.793 -0.0238  0.1231  0.7742
21199SOL    HW169559   1.474   4.996   6.801 -0.5857  0.6938  0.4830
21199SOL    HW269560   1.414   4.898   6.701  0.8598 -0.8886  1.1144
21200SOL     OW69561   8.246   0.817   0.164  0.0686  0.3542 -1.1044
21200SOL    HW169562   8.257   0.729   0.200  3.2385  1.8095  2.0569
21200SOL    HW269563   8.168   0.851   0.208  0.0610 -0.1619 -0.7132
21201SOL     OW69564   6.722   2.031   7.115  0.4583 -0.8078  0.3333
21201SOL    HW169565   6.708   1.939   7.093  1.0514 -1.0231  0.8160
21201SOL    HW269566   6.780   2.028   7.191 -0.9918 -0.0801  1.5003
21202SOL     OW69567   2.066   7.731   0.278 -0.1348  0.2013  0.1739
21202SOL    HW169568   2.131   7.664   0.259  0.6992  1.2274 -0.7276
21202SOL    HW269569   2.015   7.738   0.198 -1.9976 -1.2153  1.1517
21203SOL     OW69570   1.987   7.322   2.184  0.6905 -0.3917 -0.3298
21203SOL    HW169571   2.050   7.282   2.243 -0.0130 -0.2528  0.5376
21203SOL    HW269572   1.982   7.413   2.213 -1.1354 -0.7841  0.7149
21204SOL     OW69573   7.575   8.173   4.044 -0.2741 -0.0069 -0.0567
21204SOL    HW169574   7.639   8.157   4.113  0.3676 -0.0828 -0.6604
21204SOL    HW269575   7.492   8.145   4.083  0.1449 -0.4984  0.5199
21205SOL     OW69576   3.763   5.282   1.971 -0.0874  0.1542  0.4612
21205SOL    HW169577   3.858   5.277   1.968 -0.0664  0.3464  0.8081
21205SOL    HW269578   3.733   5.202   1.928  0.2165  0.8949 -1.1816
21206SOL     OW69579   5.299   1.139   1.168 -0.3033  0.9314 -0.2900
21206SOL    HW169580   5.356   1.111   1.239 -1.8685 -2.5379 -0.2151
21206SOL    HW269581   5.266   1.224   1.196  0.9208  0.7332  1.9780
21207SOL     OW69582   9.283   3.589   2.700 -0.3727  0.1878  0.2303
21207SOL    HW169583   9.342   3.651   2.657  1.0563 -1.5301 -0.4451
21207SOL    HW269584   9.200   3.599   2.655  0.8220 -0.9083 -2.4562
21208SOL     OW69585   5.472   8.926   7.066 -0.1000 -0.0945  0.7034
21208SOL    HW169586   5.404   8.989   7.043  0.0535  0.1265  0.8543
21208SOL    HW269587   5.553   8.977   7.068  0.5761 -0.8781 -2.3558
21209SOL     OW69588   6.009   6.874   0.675 -0.1616 -0.0739  0.1992
21209SOL    HW169589   6.012   6.838   0.764 -2.3783 -1.7095 -0.2941
21209SOL    HW269590   6.061   6.814   0.623 -0.8164 -0.4821  0.0055
21210SOL     OW69591   4.524   6.820   5.136  0.1675  0.3505  0.0606
21210SOL    HW169592   4.575   6.853   5.209  1.2122 -0.1763 -0.4122
21210SOL    HW269593   4.522   6.725   5.148 -0.9637  0.3813  0.2277
21211SOL     OW69594   0.867   3.969   8.938  0.1445  0.0756 -0.4735
21211SOL    HW169595   0.950   3.998   8.901  0.9872 -0.4696  0.9218
21211SOL    HW269596   0.840   4.041   8.996  0.5454 -0.4712  0.4121
21212SOL     OW69597   8.022   9.050   8.637  0.4034  0.2889 -0.0743
21212SOL    HW169598   7.953   9.062   8.572  1.5818 -0.8914 -1.6328
21212SOL    HW269599   7.976   9.039   8.720 -1.1449  2.0212 -0.6487
21213SOL     OW69600   4.946   6.070   5.003  0.1691  0.1050  0.8773
21213SOL    HW169601   4.878   6.015   5.041  0.8833 -1.9685 -0.6640
21213SOL    HW269602   5.021   6.012   4.992  0.6829  1.1163 -1.6383
21214SOL     OW69603   8.803   5.857   6.739 -0.1154 -0.1396 -0.7276
21214SOL    HW169604   8.747   5.830   6.666  0.0167  3.7776 -2.5146
21214SOL    HW269605   8.889   5.873   6.700  0.4982  0.2266  0.6789
21215SOL     OW69606   8.411   5.280   4.736  0.6536 -0.4126  0.1222
21215SOL    HW169607   8.327   5.283   4.781  0.7010 -0.0670  0.1923
21215SOL    HW269608   8.400   5.214   4.667 -0.7044  1.8018 -1.9241
21216SOL     OW69609   7.284   5.743   8.298 -0.1206 -0.0695  0.2349
21216SOL    HW169610   7.293   5.680   8.369  0.6144  1.2831  1.4037
21216SOL    HW269611   7.212   5.800   8.327  0.5741  0.8439  0.1812
21217SOL     OW69612   3.790   0.687   5.974 -0.1345 -0.4214 -0.1865
21217SOL    HW169613   3.866   0.693   6.033 -0.4808  0.8874  0.1634
21217SOL    HW269614   3.730   0.628   6.020  0.7189 -1.6222 -0.5530
21218SOL     OW69615   8.808   4.114   7.706  0.2037 -0.8091 -0.0587
21218SOL    HW169616   8.902   4.127   7.714  0.2993 -2.1412  1.5077
21218SOL    HW269617   8.796   4.019   7.707 -1.1626 -0.6672 -0.2247
21219SOL     OW69618   2.662   1.848   2.510 -0.4448  0.1719 -0.0418
21219SOL    HW169619   2.649   1.897   2.592 -0.0219 -1.8697  1.3420
21219SOL    HW269620   2.592   1.782   2.511 -1.4193  1.0837 -2.1840
21220SOL     OW69621   5.246   5.656   3.133 -0.4726  0.1792  0.0314
21220SOL    HW169622   5.245   5.677   3.226  1.5916  0.4763  0.0444
21220SOL    HW269623   5.339   5.654   3.110 -0.9202 -0.1762 -1.9640
21221SOL     OW69624   3.836   4.713   1.373  0.3206  0.0179  0.4468
21221SOL    HW169625   3.874   4.763   1.446 -1.6519  1.0673  0.8250
21221SOL    HW269626   3.769   4.770   1.337 -0.4839 -1.5112 -0.5776
21222SOL     OW69627   2.621   0.143   8.795  0.0951  0.3276  0.2614
21222SOL    HW169628   2.700   0.093   8.818 -0.3683 -0.3357  0.4440
21222SOL    HW269629   2.599   0.191   8.874  0.7829  1.1606 -0.0436
21223SOL     OW69630   3.600   8.679   3.563 -0.8828  0.0367 -0.7660
21223SOL    HW169631   3.578   8.747   3.627  0.9860  0.0404 -0.0563
21223SOL    HW269632   3.617   8.601   3.616  0.1025 -0.1189 -1.2914
21224SOL     OW69633   1.191   8.708   7.660  0.0573  0.3275 -0.0034
21224SOL    HW169634   1.169   8.616   7.644 -0.3374  0.5522 -0.8288
21224SOL    HW269635   1.115   8.743   7.705  1.4863 -0.5002  3.3499
21225SOL     OW69636   2.389   5.818   4.938  0.0279  0.2510  0.1057
21225SOL    HW169637   2.440   5.871   4.876 -0.6597  2.4320  1.2789
21225SOL    HW269638   2.453   5.767   4.986  0.9662  1.6054  0.3450
21226SOL     OW69639   8.818   4.032   7.048  0.5300  0.6246  0.2021
21226SOL    HW169640   8.845   4.082   6.972  0.7774 -0.0544 -0.1668
21226SOL    HW269641   8.812   4.096   7.119  1.9729  0.9922  0.0203
21227SOL     OW69642   5.153   2.861   0.284 -0.4582 -0.2675 -0.3954
21227SOL    HW169643   5.167   2.814   0.366  1.7524 -0.0236 -0.5870
21227SOL    HW269644   5.086   2.927   0.305  1.3094  0.9800  1.7384
21228SOL     OW69645   1.247   8.903   8.898  0.2686 -0.1494  0.7513
21228SOL    HW169646   1.331   8.928   8.936  0.2744  0.4385  0.3718
21228SOL    HW269647   1.184   8.966   8.934  0.3730  0.7858 -0.6110
21229SOL     OW69648   8.345   6.125   2.108  0.3871  0.3432  0.2082
21229SOL    HW169649   8.260   6.082   2.109  0.9907 -0.8831  1.1722
21229SOL    HW269650   8.341   6.188   2.180  1.4042 -2.1264  2.6374
21230SOL     OW69651   3.767   5.479   7.780 -0.4695  0.7178  0.1498
21230SOL    HW169652   3.820   5.494   7.858 -0.0431  1.1209 -0.2069
21230SOL    HW269653   3.677   5.483   7.810 -0.3089  1.0041  0.5952
21231SOL     OW69654   8.979   2.166   1.070  0.3654 -0.0066  0.3370
21231SOL    HW169655   8.912   2.233   1.057  0.7510  0.1955 -0.6249
21231SOL    HW269656   8.948   2.116   1.146 -1.3962 -0.5421 -0.6726
21232SOL     OW69657   3.987   6.768   3.996 -0.2163 -0.0532  0.3586
21232SOL    HW169658   4.010   6.697   4.056  0.0120 -0.6362 -0.4118
21232SOL    HW269659   3.958   6.724   3.916 -3.0057  0.6383  0.8648
21233SOL     OW69660   6.581   1.610   3.974 -0.3924  0.0421  0.1352
21233SOL    HW169661   6.619   1.637   3.890  0.9130  0.3867  0.8099
21233SOL    HW269662   6.489   1.594   3.954 -0.5389  1.9159 -0.9805
21234SOL     OW69663   5.880   5.053   0.367 -0.0240  0.4261  0.1382
21234SOL    HW169664   5.936   5.129   0.387  0.4047 -0.1111  1.0204
21234SOL    HW269665   5.823   5.084   0.296  0.5452  1.3846  0.0749
21235SOL     OW69666   5.972   7.204   1.468 -0.6154 -0.3180 -0.4142
21235SOL    HW169667   6.009   7.244   1.547 -0.8850 -1.0136  0.0825
21235SOL    HW269668   5.955   7.277   1.409 -1.4786  0.3493  0.6223
21236SOL     OW69669   5.337   6.727   6.037  0.0862  0.1315  0.2106
21236SOL    HW169670   5.426   6.751   6.061  0.5570  1.3261 -2.3474
21236SOL    HW269671   5.343   6.634   6.013  0.9131  0.4392 -0.8742
21237SOL     OW69672   1.192   8.453   6.450 -0.6706  0.3107 -0.3809
21237SOL    HW169673   1.251   8.415   6.516  0.9676 -0.1326 -2.0326
21237SOL    HW269674   1.249   8.504   6.393 -2.1961  1.4842 -0.9136
21238SOL     OW69675   6.365   8.422   2.426 -0.8392  0.1003 -0.9899
21238SOL    HW169676   6.345   8.512   2.401 -1.3417 -0.0557 -1.1589
21238SOL    HW269677   6.377   8.426   2.521  0.1240  0.5198 -1.1232
21239SOL     OW69678   8.150   2.444   0.151  0.3696 -0.2409 -0.2867
21239SOL    HW169679   8.228   2.389   0.162 -0.3285 -1.8515 -2.5460
21239SOL    HW269680   8.184   2.531   0.129  1.4908 -0.3834  0.7786
21240SOL     OW69681   1.806   5.137   0.166 -0.1866  0.1663 -0.3069
21240SOL    HW169682   1.757   5.188   0.102 -0.3393  1.4883  0.8100
21240SOL    HW269683   1.768   5.049   0.161 -0.6718  0.4325 -1.5023
21241SOL     OW69684   4.527   7.679   6.119 -0.7896  0.3027 -0.2119
21241SOL    HW169685   4.577   7.693   6.199  1.5541  1.6273 -1.7844
21241SOL    HW269686   4.488   7.592   6.130  1.6420 -0.7010  1.2658
21242SOL     OW69687   6.883   7.715   3.632  0.0205 -0.1298  0.5739
21242SOL    HW169688   6.823   7.651   3.594  0.3589 -0.8148  1.1853
21242SOL    HW269689   6.843   7.800   3.612 -0.5886 -0.5409  0.0330
21243SOL     OW69690   5.772   6.208   0.158 -0.3849  0.3376 -0.3684
21243SOL    HW169691   5.807   6.287   0.200  0.4847  0.2902 -0.9640
21243SOL    HW269692   5.695   6.185   0.210 -0.2732  1.2048  0.2044
21244SOL     OW69693   0.145   1.385   5.643  0.2874 -0.0781 -0.1544
21244SOL    HW169694   0.084   1.316   5.618 -0.1254  0.9777 -2.3323
21244SOL    HW269695   0.098   1.437   5.708  0.2969 -1.3240  0.8839
21245SOL     OW69696   0.457   0.900   2.870 -0.2520  0.2036 -0.8181
21245SOL    HW169697   0.411   0.941   2.943 -1.1857 -1.1390 -0.6039
21245SOL    HW269698   0.482   0.972   2.813  0.2422  1.2559  0.6779
21246SOL     OW69699   7.901   3.415   7.584 -0.2777  0.5095  0.3225
21246SOL    HW169700   7.840   3.398   7.656 -0.4129  1.9690  0.5832
21246SOL    HW269701   7.956   3.487   7.615  0.0469  0.7665 -0.7914
21247SOL     OW69702   2.099   2.656   3.047  0.1700 -0.0698 -0.1283
21247SOL    HW169703   2.080   2.570   3.009  1.2297 -0.1080 -0.6001
21247SOL    HW269704   2.185   2.646   3.087 -0.7272  0.0944  1.9727
21248SOL     OW69705   0.222   8.516   4.840 -0.2708  0.4379 -0.1748
21248SOL    HW169706   0.299   8.478   4.798 -0.2068 -0.6539  0.8722
21248SOL    HW269707   0.151   8.455   4.820 -0.5173  0.5983  0.1908
21249SOL     OW69708   6.154   0.526   5.914  0.4133 -0.3507  0.0066
21249SOL    HW169709   6.102   0.456   5.874 -0.3101 -0.0002  0.3129
21249SOL    HW269710   6.111   0.543   5.998  0.9099  0.0806  0.1786
21250SOL     OW69711   2.423   6.870   3.701 -0.2010  0.2186  0.2792
21250SOL    HW169712   2.511   6.901   3.722 -1.0256  2.1013  1.1549
21250SOL    HW269713   2.379   6.862   3.785 -1.1299  0.1144 -0.1974
21251SOL     OW69714   2.578   7.105   0.015 -0.1869 -0.1362 -0.5197
21251SOL    HW169715   2.648   7.098   0.079 -0.3030 -2.6147 -0.5856
21251SOL    HW269716   2.623   7.100  -0.070 -0.3178 -0.0616 -0.5944
21252SOL     OW69717   4.650   6.684   7.257 -0.3247 -1.0899  0.8115
21252SOL    HW169718   4.686   6.773   7.256 -0.7737 -0.9032 -0.6876
21252SOL    HW269719   4.720   6.630   7.293  0.3311 -0.2934  0.7559
21253SOL     OW69720   5.957   5.218   7.825  0.0126 -0.3069 -0.2647
21253SOL    HW169721   5.890   5.227   7.892 -0.6654  0.2143 -0.9872
21253SOL    HW269722   5.994   5.305   7.815 -2.5171  0.6417 -3.1671
21254SOL     OW69723   0.640   8.271   4.127  0.1413  0.6372  0.4256
21254SOL    HW169724   0.615   8.308   4.042 -0.4322  0.7408  0.6356
21254SOL    HW269725   0.590   8.322   4.191  3.0787  2.8849  1.1323
21255SOL     OW69726   4.816   2.848   7.268  0.1729  0.0215 -0.1097
21255SOL    HW169727   4.742   2.905   7.248  0.7688  0.5104 -0.9463
21255SOL    HW269728   4.853   2.884   7.349 -0.3105 -0.0556  0.1551
21256SOL     OW69729   5.737   3.601   9.121  0.1882  0.6591 -0.0093
21256SOL    HW169730   5.825   3.568   9.104  0.8245  1.5779  1.3097
21256SOL    HW269731   5.713   3.563   9.206 -1.0767 -0.2800 -0.7384
21257SOL     OW69732   6.599   1.353   2.640  0.0874 -0.1970  0.1468
21257SOL    HW169733   6.580   1.413   2.569  2.0322  0.2146 -0.0732
21257SOL    HW269734   6.676   1.390   2.684 -1.4914 -0.0045  2.9923
21258SOL     OW69735   0.192   3.774   6.862 -0.7094 -0.0745 -0.0005
21258SOL    HW169736   0.217   3.686   6.891  1.4157 -0.4193 -2.4437
21258SOL    HW269737   0.161   3.762   6.772 -1.3253  1.5778 -0.0501
21259SOL     OW69738   8.360   5.596   4.923 -0.4740 -0.2704  0.5044
21259SOL    HW169739   8.276   5.600   4.879 -0.2461 -1.0220 -0.0239
21259SOL    HW269740   8.365   5.507   4.958 -0.5132  0.2185  1.7781
21260SOL     OW69741   1.918   5.273   6.412 -0.3357 -0.2675  0.5609
21260SOL    HW169742   1.921   5.360   6.372  0.4537 -0.2241  0.6837
21260SOL    HW269743   1.862   5.221   6.355  2.3155 -0.7856 -1.8010
21261SOL     OW69744   7.021   7.901   2.529  0.1634  0.4392  0.7589
21261SOL    HW169745   7.053   7.933   2.445 -2.3564  2.6830  0.4991
21261SOL    HW269746   7.068   7.954   2.594  0.9627 -0.1879  0.7005
21262SOL     OW69747   8.880   6.224   3.547 -0.2892  0.0514  0.1122
21262SOL    HW169748   8.858   6.149   3.490 -1.3812 -0.3338  0.9845
21262SOL    HW269749   8.911   6.183   3.628  0.4771  0.5762  0.0816
21263SOL     OW69750   3.681   6.284   3.068 -0.2063  0.3473  0.0381
21263SOL    HW169751   3.656   6.320   3.154 -2.5298  0.5059 -0.6400
21263SOL    HW269752   3.656   6.192   3.073  0.2856  0.1951 -0.2554
21264SOL     OW69753   5.208   4.545   7.159  0.5354  0.1458 -0.3900
21264SOL    HW169754   5.221   4.565   7.251  2.2412 -0.6115 -0.4259
21264SOL    HW269755   5.232   4.625   7.113  0.0278  0.4096 -0.1984
21265SOL     OW69756   4.382   4.230   1.902 -0.4032  0.0770  0.1840
21265SOL    HW169757   4.290   4.255   1.897 -0.2976  1.2292  2.7050
21265SOL    HW269758   4.390   4.187   1.987  1.0458 -1.7331 -0.7944
21266SOL     OW69759   3.886   3.907   6.018  0.4961  0.1398  0.0417
21266SOL    HW169760   3.836   3.984   6.047  1.1933  0.6670 -0.1226
21266SOL    HW269761   3.853   3.836   6.073 -1.7710  0.0408 -1.3329
21267SOL     OW69762   3.828   3.631   1.035  0.2374  0.0230  0.3429
21267SOL    HW169763   3.745   3.602   0.996  0.6906 -0.2862 -0.4248
21267SOL    HW269764   3.815   3.621   1.129 -0.5913 -0.0333  0.2321
21268SOL     OW69765   2.545   0.851   0.880  0.1775 -0.1773  0.3067
21268SOL    HW169766   2.624   0.814   0.919  0.7075  2.2239  1.7015
21268SOL    HW269767   2.526   0.928   0.934 -2.6190 -0.1806 -0.5257
21269SOL     OW69768   7.990   6.382   5.441 -0.0754  0.0195  0.2843
21269SOL    HW169769   8.015   6.366   5.350 -0.0868  0.2719  0.2346
21269SOL    HW269770   8.047   6.326   5.492  1.2651  1.2782  0.2282
21270SOL     OW69771   2.039   3.500   3.190 -0.3740 -0.7750 -0.2955
21270SOL    HW169772   1.971   3.563   3.165 -0.4573 -0.3449  0.8986
21270SOL    HW269773   2.120   3.538   3.157 -0.7299 -1.5254 -2.1517
21271SOL     OW69774   6.600   4.440   8.946 -0.8037 -0.1552  0.5900
21271SOL    HW169775   6.692   4.467   8.945 -1.1744  1.2623  1.7166
21271SOL    HW269776   6.598   4.367   9.008 -0.5885  0.4669  1.3475
21272SOL     OW69777   1.971   0.938   1.572 -0.3091  0.3225  0.2646
21272SOL    HW169778   2.006   1.004   1.632 -1.3237  0.0908  1.1502
21272SOL    HW269779   1.876   0.947   1.581 -0.4564 -0.9310  0.0361
21273SOL     OW69780   0.564   7.230   4.241 -0.2107  0.0545  0.2185
21273SOL    HW169781   0.511   7.233   4.320  0.9561  1.4641  1.0038
21273SOL    HW269782   0.653   7.214   4.272  0.2067  0.1877 -0.8475
21274SOL     OW69783   0.820   4.616   6.914  0.1110  0.2040 -0.2549
21274SOL    HW169784   0.867   4.667   6.980  1.2251  0.8085 -1.4845
21274SOL    HW269785   0.888   4.581   6.857 -0.8437 -0.0416 -1.2805
21275SOL     OW69786   0.957   7.376   4.032  0.2777  0.1526 -0.1723
21275SOL    HW169787   1.042   7.342   4.058  1.5014  2.5940 -0.7210
21275SOL    HW269788   0.943   7.451   4.089 -0.7640  0.7491 -1.1775
21276SOL     OW69789   3.882   6.887   7.180 -0.4216  0.4075 -0.1964
21276SOL    HW169790   3.835   6.830   7.241 -0.2521  1.1093  0.6106
21276SOL    HW269791   3.904   6.830   7.106 -0.1554 -0.5983  0.6339
21277SOL     OW69792   7.398   5.679   2.310 -0.0001 -0.6133 -0.5048
21277SOL    HW169793   7.398   5.589   2.279 -0.7936 -0.4298 -1.0771
21277SOL    HW269794   7.345   5.678   2.390 -0.7935 -0.4983 -1.0217
21278SOL     OW69795   6.005   5.813   6.621  0.2189 -0.2110 -0.4082
21278SOL    HW169796   6.056   5.868   6.680 -1.3289  2.7191 -1.5733
21278SOL    HW269797   6.038   5.834   6.533 -0.8421 -0.6565 -0.9329
21279SOL     OW69798   5.881   4.941   2.866 -0.0154  0.4195  0.2641
21279SOL    HW169799   5.951   4.956   2.931 -0.6309 -0.3023  1.1201
21279SOL    HW269800   5.916   4.873   2.809 -0.7065 -1.3370  1.8389
21280SOL     OW69801   0.577   8.671   0.752 -0.0460 -0.0203  0.8377
21280SOL    HW169802   0.651   8.722   0.718  0.2208 -0.4599  0.7567
21280SOL    HW269803   0.617   8.597   0.797 -0.4257 -1.8844 -1.6533
21281SOL     OW69804   4.666   1.757   5.592 -0.8150 -0.0007 -0.5179
21281SOL    HW169805   4.707   1.719   5.515 -0.8276 -1.0399 -0.0315
21281SOL    HW269806   4.676   1.852   5.580  2.2012 -0.1562 -0.2066
21282SOL     OW69807   7.498   6.113   0.679 -0.2525  0.0537 -0.0041
21282SOL    HW169808   7.480   6.027   0.719  0.8272 -1.0907 -1.8410
21282SOL    HW269809   7.482   6.100   0.586  2.5377  1.0431 -0.7072
21283SOL     OW69810   6.007   6.455   7.330  0.3093  0.5381 -0.1229
21283SOL    HW169811   5.945   6.518   7.366 -1.2763 -1.0124 -0.0326
21283SOL    HW269812   6.053   6.421   7.406 -1.1633 -0.7795  0.2266
21284SOL     OW69813   6.378   3.401   9.161  0.2540 -0.1428 -0.0977
21284SOL    HW169814   6.369   3.306   9.173 -0.4189  0.2352  3.4494
21284SOL    HW269815   6.309   3.439   9.215  2.1840  2.3890  0.8034
21285SOL     OW69816   6.017   8.284   3.094  0.8965  0.0133  0.5695
21285SOL    HW169817   5.952   8.334   3.144  0.6820 -0.1013  0.4076
21285SOL    HW269818   6.066   8.236   3.160  0.3674 -0.4269  0.6446
21286SOL     OW69819   8.953   3.446   4.974  0.7061 -0.5416 -1.1316
21286SOL    HW169820   8.929   3.514   4.911 -0.2493  0.1299 -0.0767
21286SOL    HW269821   9.017   3.488   5.031 -1.7859  0.4413  1.1522
21287SOL     OW69822   8.497   2.549   1.946  0.3930 -0.0705 -0.1368
21287SOL    HW169823   8.514   2.497   2.024  0.0470  1.1468  0.7808
21287SOL    HW269824   8.402   2.562   1.946  0.4706  0.5125 -0.3858
21288SOL     OW69825   4.348   6.676   4.343 -0.0927 -0.1016 -0.1712
21288SOL    HW169826   4.387   6.764   4.337  1.2474 -0.5968  0.7216
21288SOL    HW269827   4.405   6.621   4.289  0.4734 -0.8376  1.1260
21289SOL     OW69828   5.201   6.808   7.383 -0.0776 -0.4223 -0.1597
21289SOL    HW169829   5.168   6.751   7.314 -0.0748  0.0090 -0.5230
21289SOL    HW269830   5.179   6.763   7.464 -0.9587 -0.4610 -0.4115
21290SOL     OW69831   9.194   3.596   1.619  0.1116 -0.2898 -0.2261
21290SOL    HW169832   9.223   3.511   1.585  0.6889 -0.6036  0.9943
21290SOL    HW269833   9.240   3.661   1.566  0.5539 -0.7558 -0.4146
21291SOL     OW69834   6.279   1.816   3.005 -0.0923  0.3738  0.2725
21291SOL    HW169835   6.330   1.735   3.005  0.9330  0.9951 -0.3687
21291SOL    HW269836   6.335   1.879   3.049  0.0516  1.2778 -1.1511
21292SOL     OW69837   8.177   7.366   4.868  0.0022 -0.6158 -0.0247
21292SOL    HW169838   8.141   7.450   4.898  0.0925 -0.9912  1.1779
21292SOL    HW269839   8.119   7.339   4.797 -1.0182 -0.3182  0.6721
21293SOL     OW69840   1.724   5.846   8.144 -0.2637 -0.3354  0.1920
21293SOL    HW169841   1.732   5.835   8.049 -0.0922 -0.4172  0.2153
21293SOL    HW269842   1.789   5.787   8.181 -0.1279 -0.0906  0.3512
21294SOL     OW69843   8.466   8.481   2.971  0.0696 -0.3252 -0.2432
21294SOL    HW169844   8.521   8.437   2.906 -0.3931 -0.2929 -0.6650
21294SOL    HW269845   8.426   8.554   2.924  0.4499  0.2583  0.3258
21295SOL     OW69846   3.300   6.076   5.656  0.4037 -0.4199 -0.2222
21295SOL    HW169847   3.281   6.038   5.570  0.5197 -2.2836  0.5313
21295SOL    HW269848   3.396   6.080   5.660  0.3933  0.5163 -0.4959
21296SOL     OW69849   5.229   6.464   4.087 -0.1694  0.0357  0.2285
21296SOL    HW169850   5.209   6.373   4.109 -0.8006 -0.0336 -0.5687
21296SOL    HW269851   5.302   6.488   4.144 -1.1003 -0.4206  1.6843
21297SOL     OW69852   9.338   2.332   2.843  0.0102 -0.0530  0.3025
21297SOL    HW169853   9.347   2.426   2.861 -1.3030 -0.1867  1.8848
21297SOL    HW269854   9.416   2.293   2.882  0.6223  0.3690 -0.4635
21298SOL     OW69855   1.975   5.638   6.903 -0.0393  0.9924 -0.6172
21298SOL    HW169856   2.026   5.618   6.825  0.4046  1.3882 -0.4365
21298SOL    HW269857   2.039   5.634   6.974 -0.6814 -0.7257 -0.0763
21299SOL     OW69858   2.913   4.828   3.973  0.1957  0.4419  0.5945
21299SOL    HW169859   2.886   4.770   4.044 -0.8373 -2.1877 -1.7674
21299SOL    HW269860   2.975   4.777   3.921 -2.0408  0.6324 -2.5543
21300SOL     OW69861   8.595   1.426   7.393  0.3169  0.3912 -0.0676
21300SOL    HW169862   8.558   1.413   7.481  2.5301  1.1913  1.0752
21300SOL    HW269863   8.687   1.401   7.402  0.3158 -0.8654 -2.5789
21301SOL     OW69864   8.257   3.556   8.310 -0.0975  0.2055 -0.1611
21301SOL    HW169865   8.262   3.461   8.309 -1.3040  0.1244 -0.7325
21301SOL    HW269866   8.204   3.577   8.386  1.0819  0.5056  0.6095
21302SOL     OW69867   3.615   3.551   1.487 -0.2651  0.4293 -0.3074
21302SOL    HW169868   3.519   3.552   1.485 -0.3028 -0.0370  0.7003
21302SOL    HW269869   3.637   3.533   1.578  0.7847  0.3587 -0.5629
21303SOL     OW69870   5.953   0.379   2.132  0.1415  0.7231  0.1067
21303SOL    HW169871   6.042   0.414   2.131  0.4770 -0.0935 -0.3186
21303SOL    HW269872   5.927   0.378   2.040 -0.6249  1.6969  0.2962
21304SOL     OW69873   2.212   4.722   2.813  0.2628  0.1912 -0.2408
21304SOL    HW169874   2.284   4.709   2.875  0.2911  0.9236 -0.1120
21304SOL    HW269875   2.133   4.712   2.866  0.2245 -1.6936 -0.5892
21305SOL     OW69876   5.578   5.692   1.711 -0.5254  0.4442  0.5558
21305SOL    HW169877   5.601   5.645   1.791  0.2109  1.0804  0.7410
21305SOL    HW269878   5.545   5.625   1.652  1.8831 -0.6014  0.2772
21306SOL     OW69879   5.265   7.114   1.269 -0.5340  0.1569  0.6562
21306SOL    HW169880   5.183   7.106   1.220 -0.7806  4.0431  0.0943
21306SOL    HW269881   5.329   7.145   1.205  0.5308  0.2732  1.7250
21307SOL     OW69882   5.259   2.262   3.457 -0.1206  0.1094 -0.4900
21307SOL    HW169883   5.202   2.191   3.426  0.1147  0.2466 -1.2732
21307SOL    HW269884   5.212   2.342   3.435 -0.8092  0.2186  1.2178
21308SOL     OW69885   3.425   1.768   4.289 -0.1342 -0.0378  0.0056
21308SOL    HW169886   3.518   1.766   4.311  0.0311 -1.3356 -0.6724
21308SOL    HW269887   3.382   1.800   4.369  0.8227 -0.1392  0.5800
21309SOL     OW69888   7.315   1.796   6.508  0.5300 -0.6930 -0.2271
21309SOL    HW169889   7.271   1.724   6.463  1.9553 -1.0270 -1.1579
21309SOL    HW269890   7.267   1.874   6.481  1.0446 -0.9386 -1.9878
21310SOL     OW69891   1.526   2.216   7.550 -0.3177  0.0725  0.8449
21310SOL    HW169892   1.464   2.276   7.508 -2.5713 -2.1881  0.7256
21310SOL    HW269893   1.477   2.177   7.621  1.1937 -1.3961  1.1386
21311SOL     OW69894   4.522   3.654   2.048 -0.0923  0.4692 -0.2550
21311SOL    HW169895   4.560   3.741   2.036 -0.9396  1.0896  1.1307
21311SOL    HW269896   4.429   3.665   2.026 -0.1741 -0.1258 -0.2374
21312SOL     OW69897   9.168   0.337   0.196  0.0784 -0.4797  0.1961
21312SOL    HW169898   9.248   0.298   0.230  1.1193  1.2631 -0.1150
21312SOL    HW269899   9.190   0.365   0.107 -2.0432 -3.3208 -1.3924
21313SOL     OW69900   2.680   0.224   2.065 -0.1431  0.3649  0.3951
21313SOL    HW169901   2.668   0.293   2.000  1.2505  0.2144 -0.0552
21313SOL    HW269902   2.736   0.263   2.132 -1.8657  0.6421  1.7660
21314SOL     OW69903   2.643   8.829   8.988  0.2505  0.1768  0.3067
21314SOL    HW169904   2.553   8.846   8.959  0.7386  0.9542 -0.8052
21314SOL    HW269905   2.679   8.770   8.923  0.0731 -1.4778  1.6315
21315SOL     OW69906   1.540   3.428   2.454  0.2264 -0.0581 -0.3149
21315SOL    HW169907   1.454   3.441   2.413  0.8339  1.3425 -1.2280
21315SOL    HW269908   1.520   3.403   2.544 -1.1407 -2.6142 -1.2214
21316SOL     OW69909   0.638   9.232   5.195 -0.2978  0.2967 -0.1000
21316SOL    HW169910   0.657   9.140   5.176 -2.0384 -0.5404  1.7189
21316SOL    HW269911   0.635   9.236   5.291 -1.8773  1.8737 -0.1688
21317SOL     OW69912   0.804   6.556   4.974  0.0879  0.0057  0.2062
21317SOL    HW169913   0.716   6.554   4.936 -0.1575 -0.2516  0.7818
21317SOL    HW269914   0.862   6.537   4.900 -0.2688  1.0533 -0.3580
21318SOL     OW69915   9.262   5.187   8.121 -0.1371 -0.0711 -0.5036
21318SOL    HW169916   9.309   5.267   8.145 -0.1063 -0.0909 -0.4964
21318SOL    HW269917   9.314   5.150   8.050  1.0521 -1.2132  0.9081
21319SOL     OW69918   8.533   2.484   2.592  0.0602 -0.2231  0.5706
21319SOL    HW169919   8.490   2.474   2.507  1.4974  0.5594 -0.3077
21319SOL    HW269920   8.613   2.534   2.572  0.1984  0.3942  2.4665
21320SOL     OW69921   5.458   6.609   8.960  0.0231  0.7016 -0.3527
21320SOL    HW169922   5.541   6.619   9.007  0.1867 -0.1858 -0.4301
21320SOL    HW269923   5.479   6.635   8.870 -0.5172  3.3159  0.1898
21321SOL     OW69924   6.722   0.069   9.039  0.4776 -0.0809 -0.0391
21321SOL    HW169925   6.667   0.017   8.981  0.7037 -0.3567 -0.0057
21321SOL    HW269926   6.660   0.109   9.101  0.2861 -0.1545 -0.1823
21322SOL     OW69927   5.376   7.318   7.162 -0.3023 -0.2257  0.1067
21322SOL    HW169928   5.333   7.313   7.248  0.6498 -2.0869  0.5375
21322SOL    HW269929   5.309   7.352   7.103 -1.6551 -0.9077  1.1924
21323SOL     OW69930   1.786   5.630   9.016  0.0689 -0.7160 -0.8652
21323SOL    HW169931   1.792   5.551   8.963  1.1553 -0.5310 -1.0369
21323SOL    HW269932   1.694   5.656   9.010 -0.4249 -2.2301 -0.4060
21324SOL     OW69933   0.491   7.901   0.421  0.1335 -0.8579 -0.4641
21324SOL    HW169934   0.569   7.854   0.392  2.1940  1.2354  1.2612
21324SOL    HW269935   0.459   7.946   0.343  1.8542 -0.2332 -0.8560
21325SOL     OW69936   0.214   2.270   0.317 -0.1438  0.7964  0.4938
21325SOL    HW169937   0.181   2.289   0.406 -0.0296 -1.0493  0.9682
21325SOL    HW269938   0.272   2.195   0.328 -1.2755 -0.4304 -1.3408
21326SOL     OW69939   2.200   3.115   7.919  0.7721  0.1149  0.0555
21326SOL    HW169940   2.237   3.150   7.837 -1.3834  0.0384 -1.0094
21326SOL    HW269941   2.257   3.041   7.940  2.2189  0.9963 -0.5793
21327SOL     OW69942   8.580   3.628   3.332 -0.8296 -0.1575 -0.2814
21327SOL    HW169943   8.541   3.701   3.381 -1.8588  0.3679 -1.8192
21327SOL    HW269944   8.592   3.662   3.244 -0.6032 -1.6275 -0.8476
21328SOL     OW69945   6.613   0.539   0.248 -0.0619 -0.9464  0.0169
21328SOL    HW169946   6.677   0.561   0.181  0.7062  0.5083  1.1540
21328SOL    HW269947   6.566   0.463   0.214  1.8782 -1.6968 -1.0996
21329SOL     OW69948   1.171   6.926   0.545 -0.2361  0.7160 -0.4191
21329SOL    HW169949   1.218   6.965   0.619  1.2324 -0.3666 -0.7345
21329SOL    HW269950   1.201   6.977   0.469  0.7694 -0.2024 -0.6691
21330SOL     OW69951   4.055   3.768   3.195 -0.2572  0.1622  0.2886
21330SOL    HW169952   4.046   3.810   3.109  1.5906 -0.9774 -0.5306
21330SOL    HW269953   4.079   3.839   3.254 -0.1669  0.7426 -0.4338
21331SOL     OW69954   3.855   3.931   0.735 -0.1201 -0.0763  0.1664
21331SOL    HW169955   3.940   3.924   0.778  0.2635 -1.6049 -0.7630
21331SOL    HW269956   3.804   3.987   0.793  1.3577  0.4939  0.9839
21332SOL     OW69957   4.624   2.702   5.434  0.3998 -0.1469  0.0895
21332SOL    HW169958   4.647   2.721   5.525 -2.0769  0.7163  0.6084
21332SOL    HW269959   4.577   2.780   5.404 -1.2828 -1.4957 -0.9909
21333SOL     OW69960   8.597   8.523   8.960 -0.0270  0.3088  0.1214
21333SOL    HW169961   8.565   8.562   8.879 -0.6933 -1.2904 -0.4337
21333SOL    HW269962   8.665   8.462   8.932  1.0405  1.0731  0.9654
21334SOL     OW69963   2.538   6.795   6.463  0.1267 -0.0438 -0.5557
21334SOL    HW169964   2.496   6.881   6.462  1.8280  1.0352  3.0478
21334SOL    HW269965   2.579   6.787   6.377  1.2970  3.5508 -0.5109
21335SOL     OW69966   0.549   1.499   2.479 -0.2616 -0.1017  0.2411
21335SOL    HW169967   0.477   1.463   2.428 -0.4158 -0.4487  0.6926
21335SOL    HW269968   0.522   1.588   2.500  0.0773  0.2628 -0.7985
21336SOL     OW69969   8.622   2.833   0.315 -0.2754  0.1390  0.0328
21336SOL    HW169970   8.649   2.872   0.232  0.9343 -0.8419 -0.0659
21336SOL    HW269971   8.587   2.747   0.291  0.4478 -0.3160  0.5462
21337SOL     OW69972   5.028   6.246   0.410  0.5260 -0.1229  0.0407
21337SOL    HW169973   4.992   6.221   0.325  3.6156 -1.5465 -0.9945
21337SOL    HW269974   5.056   6.337   0.398  0.2173 -0.0583 -0.2019
21338SOL     OW69975   4.467   7.621   1.089  0.2995 -0.2682  0.0324
21338SOL    HW169976   4.376   7.595   1.102 -0.0237 -0.1082 -1.6582
21338SOL    HW269977   4.518   7.543   1.110 -0.3152 -0.7308 -0.1676
21339SOL     OW69978   1.720   3.887   1.905  0.2683 -0.2869 -0.3889
21339SOL    HW169979   1.761   3.970   1.927  0.7002 -1.3528  3.6413
21339SOL    HW269980   1.792   3.830   1.879  0.2016 -0.0024 -1.2562
21340SOL     OW69981   3.278   2.660   6.276  0.0184 -0.4201  0.0846
21340SOL    HW169982   3.236   2.578   6.251  1.1166 -0.9942  0.0266
21340SOL    HW269983   3.365   2.655   6.235 -0.1946  1.1361 -0.5841
21341SOL     OW69984   9.350   3.483   0.765 -0.4700 -1.1327  0.0842
21341SOL    HW169985   9.308   3.556   0.721  1.3091  0.4491  0.8357
21341SOL    HW269986   9.413   3.449   0.701 -0.9376 -1.6820 -0.0876
21342SOL     OW69987   4.112   4.330   1.927  0.3844 -0.5506 -0.0030
21342SOL    HW169988   4.086   4.379   2.005 -0.9622  1.8698 -1.8305
21342SOL    HW269989   4.079   4.241   1.942  1.2798 -0.5313  2.6564
21343SOL     OW69990   5.341   4.220   1.308 -0.0112 -0.3467 -0.0552
21343SOL    HW169991   5.393   4.219   1.228 -0.9377 -0.7257 -0.6766
21343SOL    HW269992   5.360   4.137   1.350  0.5299 -0.1184  0.1521
21344SOL     OW69993   1.225   3.806   7.080  0.0075 -0.5742 -0.0674
21344SOL    HW169994   1.303   3.855   7.108  0.4705 -2.3028  1.9313
21344SOL    HW269995   1.232   3.722   7.126 -2.2870 -1.3539 -1.0197
21345SOL     OW69996   1.189   7.632   4.243  0.7828 -0.2803  0.1846
21345SOL    HW169997   1.258   7.690   4.211  0.0850  1.5086  1.7852
21345SOL    HW269998   1.152   7.677   4.319 -1.6804 -1.5159 -0.1790
21346SOL     OW69999   5.758   6.965   6.713 -0.2256 -0.3471  0.5236
21346SOL    HW170000   5.799   6.905   6.651 -0.2588  0.0769  0.0842
21346SOL    HW270001   5.824   7.032   6.729 -1.4828  1.7085 -2.0673
21347SOL     OW70002   7.657   6.168   6.561 -0.4037  0.1132 -0.3949
21347SOL    HW170003   7.580   6.112   6.560  0.4584 -1.1550 -2.1962
21347SOL    HW270004   7.627   6.251   6.524 -1.3594  0.4118  0.9609
21348SOL     OW70005   7.534   8.103   5.833  0.6423 -0.3542 -0.3998
21348SOL    HW170006   7.573   8.017   5.847  2.1492  0.3575 -0.1017
21348SOL    HW270007   7.586   8.142   5.762  0.7798  0.7855  0.3063
21349SOL     OW70008   1.125   2.704   7.536 -0.0636 -0.2559  0.3510
21349SOL    HW170009   1.216   2.699   7.507 -0.3691 -1.1066 -0.5372
21349SOL    HW270010   1.130   2.723   7.630  1.0216 -0.5794  0.3705
21350SOL     OW70011   4.895   5.085   2.461 -0.1455 -0.3834  0.0464
21350SOL    HW170012   4.808   5.091   2.499 -0.8007 -5.2692 -0.1066
21350SOL    HW270013   4.954   5.090   2.536 -0.3456  2.8893  0.1558
21351SOL     OW70014   3.031   0.637   6.807  0.3163  0.6698 -0.0319
21351SOL    HW170015   3.000   0.566   6.864  0.7092  0.5124 -0.0104
21351SOL    HW270016   3.053   0.708   6.867  2.5099 -0.1351  0.2218
21352SOL     OW70017   6.073   5.270   2.739 -0.1641 -0.8592  0.0004
21352SOL    HW170018   6.106   5.319   2.664 -1.6063  0.6394  0.2748
21352SOL    HW270019   6.130   5.296   2.811  0.0041 -0.7328 -0.1766
21353SOL     OW70020   7.937   3.855   4.822 -0.5285 -0.3236  0.1581
21353SOL    HW170021   7.858   3.900   4.791  0.2341  0.1329 -1.2323
21353SOL    HW270022   7.923   3.763   4.800 -0.5356 -0.1901 -0.4090
21354SOL     OW70023   1.813   3.823   2.841  0.1800 -0.6981 -0.8892
21354SOL    HW170024   1.870   3.754   2.807 -0.7669 -0.9179 -2.1078
21354SOL    HW270025   1.730   3.810   2.794  0.5098  2.3538 -2.5260
21355SOL     OW70026   8.234   9.349   8.114 -0.5269 -0.7610  0.1140
21355SOL    HW170027   8.162   9.334   8.175 -0.0731 -0.8737  0.6269
21355SOL    HW270028   8.201   9.414   8.053 -0.3925  0.6538  1.5013
21356SOL     OW70029   4.881   2.411   0.876  0.1689  0.2002 -0.4469
21356SOL    HW170030   4.868   2.393   0.969  1.5340  2.8262  0.3295
21356SOL    HW270031   4.903   2.504   0.872 -1.1004  0.4814 -3.5451
21357SOL     OW70032   6.832   2.208   1.778  0.2165 -0.3235 -0.3283
21357SOL    HW170033   6.745   2.209   1.819 -0.1327 -2.5492 -0.8522
21357SOL    HW270034   6.813   2.216   1.684  0.3839 -2.2937 -0.5815
21358SOL     OW70035   5.705   7.942   0.046  0.5178  0.0023 -0.0407
21358SOL    HW170036   5.657   7.953  -0.036  0.2171  0.6395  0.2136
21358SOL    HW270037   5.657   7.874   0.093  0.4893 -0.1209 -0.2470
21359SOL     OW70038   6.533   4.905   1.546 -0.6698  0.0148  0.3998
21359SOL    HW170039   6.512   4.991   1.582  1.5268  0.5611  0.5249
21359SOL    HW270040   6.614   4.919   1.497 -2.0031 -1.3052 -2.4237
21360SOL     OW70041   5.805   6.244   8.804  0.1282  0.2226  1.1176
21360SOL    HW170042   5.844   6.181   8.744  0.2863  1.2638  0.0852
21360SOL    HW270043   5.774   6.315   8.748 -0.0837  1.0456  2.2321
21361SOL     OW70044   5.633   4.659   1.818 -0.2422 -0.5112  0.2410
21361SOL    HW170045   5.620   4.601   1.894 -0.5939 -0.7930 -0.0331
21361SOL    HW270046   5.634   4.600   1.743 -0.8756 -0.1322 -0.0692
21362SOL     OW70047   2.011   3.794   1.837  0.5581  0.0408  0.2551
21362SOL    HW170048   1.970   3.842   1.765  0.8309 -0.7077 -0.4262
21362SOL    HW270049   1.986   3.702   1.821 -1.0184  0.0666  2.2354
21363SOL     OW70050   6.642   1.029   0.262  0.8549  0.1853  0.4307
21363SOL    HW170051   6.642   1.036   0.166  2.6050  1.5344  0.4820
21363SOL    HW270052   6.732   1.004   0.284  0.2687 -0.9022  1.6985
21364SOL     OW70053   8.783   9.357   7.183  0.1893 -0.5865  0.3111
21364SOL    HW170054   8.718   9.290   7.201 -0.5264  0.0933  0.3023
21364SOL    HW270055   8.859   9.333   7.236 -0.9531 -0.0140  2.2671
21365SOL     OW70056   4.627   5.039   8.979 -0.3158 -0.3293 -0.1504
21365SOL    HW170057   4.594   4.949   8.969 -1.2359  0.0106 -0.2817
21365SOL    HW270058   4.564   5.081   9.037 -0.2184  0.4003 -0.5630
21366SOL     OW70059   3.575   4.288   5.267 -0.2674 -0.8954 -0.4531
21366SOL    HW170060   3.530   4.216   5.225 -1.0442 -0.2511 -0.7472
21366SOL    HW270061   3.526   4.366   5.241 -0.4977 -0.4267  1.2428
21367SOL     OW70062   0.826   7.346   6.187 -0.3454  0.4990 -0.0822
21367SOL    HW170063   0.811   7.440   6.186 -3.9118  0.1857  2.7971
21367SOL    HW270064   0.921   7.337   6.193  0.2270  3.7752 -1.8989
21368SOL     OW70065   0.657   9.209   7.524 -0.3334 -0.2060 -0.0949
21368SOL    HW170066   0.664   9.114   7.527  0.7949 -0.2450 -2.1745
21368SOL    HW270067   0.573   9.226   7.481  0.1168 -0.3172 -1.0432
21369SOL     OW70068   7.754   2.193   1.160 -0.0089 -0.2832 -0.6594
21369SOL    HW170069   7.749   2.288   1.146 -0.8193 -0.4979 -1.9291
21369SOL    HW270070   7.663   2.166   1.169  0.2468 -0.8880  0.2055
21370SOL     OW70071   4.588   8.421   8.434  0.6224 -0.5965  0.8102
21370SOL    HW170072   4.541   8.431   8.351  0.9598  0.3282  0.7144
21370SOL    HW270073   4.681   8.427   8.409  0.7620 -1.4797  1.1102
21371SOL     OW70074   3.188   3.045   0.585  0.1787 -0.2615 -0.1415
21371SOL    HW170075   3.182   3.017   0.493  0.5981  1.4809 -0.7398
21371SOL    HW270076   3.146   3.131   0.586  0.4924 -0.1109  1.2343
21372SOL     OW70077   3.922   4.318   4.170  0.1470  0.2381 -0.5465
21372SOL    HW170078   3.869   4.397   4.159 -0.3438 -0.0579 -0.3443
21372SOL    HW270079   3.873   4.250   4.124  0.4185 -0.0167 -0.4620
21373SOL     OW70080   3.926   8.988   9.324 -0.2863 -0.3460 -0.5192
21373SOL    HW170081   3.993   9.032   9.272 -1.8880  2.0936 -0.7151
21373SOL    HW270082   3.970   8.963   9.405  0.7194  1.9954 -0.2564
21374SOL     OW70083   6.880   3.049   2.201 -0.0034  0.0199  0.2052
21374SOL    HW170084   6.808   3.080   2.256  1.4433  0.7166  1.7846
21374SOL    HW270085   6.898   3.122   2.141 -0.3155  0.0102  0.0976
21375SOL     OW70086   4.780   6.677   3.480 -0.1632  0.4864  0.1822
21375SOL    HW170087   4.718   6.722   3.423 -1.1429 -0.0622  0.7766
21375SOL    HW270088   4.839   6.746   3.511 -0.2930  0.9661 -0.6303
21376SOL     OW70089   3.487   8.939   8.791 -0.3910  0.1136  0.6205
21376SOL    HW170090   3.530   8.929   8.876 -0.9013 -1.3543  0.7406
21376SOL    HW270091   3.411   8.881   8.796 -0.1341 -0.4316 -1.0292
21377SOL     OW70092   0.295   3.249   8.549 -0.2551 -0.1408  0.4974
21377SOL    HW170093   0.287   3.343   8.567 -1.6771  0.0279 -0.8791
21377SOL    HW270094   0.297   3.243   8.454 -1.3148 -1.5812  0.5414
21378SOL     OW70095   8.816   4.420   6.558 -0.5993 -0.2438  0.2432
21378SOL    HW170096   8.780   4.481   6.622  0.7422 -0.2516  1.0511
21378SOL    HW270097   8.858   4.476   6.493  0.1324 -0.2812  0.6765
21379SOL     OW70098   4.042   5.175   5.331 -0.3030  0.2632 -0.2500
21379SOL    HW170099   4.040   5.268   5.307  0.7691  0.8262  1.5910
21379SOL    HW270100   3.985   5.170   5.408  0.4771 -0.3882  0.3040
21380SOL     OW70101   5.242   7.500   5.860  0.1423 -0.7099  0.8728
21380SOL    HW170102   5.173   7.464   5.915  1.6517 -0.8117  2.7862
21380SOL    HW270103   5.317   7.443   5.874  1.0508  0.2017 -0.0611
21381SOL     OW70104   6.765   3.680   7.981  0.2502  0.1859 -0.2734
21381SOL    HW170105   6.820   3.750   7.949  1.6492 -0.5849  0.3672
21381SOL    HW270106   6.786   3.673   8.074  0.4972 -1.3675 -0.4105
21382SOL     OW70107   9.204   3.530   8.514 -0.4763  0.1274 -0.9128
21382SOL    HW170108   9.197   3.624   8.497 -1.2609 -0.3534 -3.8074
21382SOL    HW270109   9.274   3.500   8.456 -0.3855 -1.1239 -0.1992
21383SOL     OW70110   9.139   0.649   4.775 -0.1020 -0.5173  0.7101
21383SOL    HW170111   9.043   0.647   4.771 -0.1758  0.4207  1.4887
21383SOL    HW270112   9.165   0.708   4.704 -0.1409 -0.2590  0.9106
21384SOL     OW70113   8.950   3.904   7.322 -0.3871  0.1042 -0.1467
21384SOL    HW170114   8.877   3.863   7.274  0.4572 -0.2958 -1.1280
21384SOL    HW270115   8.939   3.873   7.412 -1.1810 -0.2969 -0.3628
21385SOL     OW70116   8.929   5.272   5.653  0.2112  0.2682  0.5413
21385SOL    HW170117   8.953   5.357   5.688 -1.2212  0.7977  0.2888
21385SOL    HW270118   8.957   5.275   5.561  1.3693 -0.0441  0.8783
21386SOL     OW70119   0.873   3.644   9.135 -0.4326 -0.5138  0.3359
21386SOL    HW170120   0.783   3.674   9.142 -0.1085  0.6195 -0.0804
21386SOL    HW270121   0.905   3.640   9.225 -1.1747 -1.8787  0.5666
21387SOL     OW70122   8.901   5.183   7.779  0.0275 -0.1231  0.1393
21387SOL    HW170123   8.956   5.230   7.715  0.9499 -0.8188  0.4027
21387SOL    HW270124   8.817   5.229   7.776  0.9846  1.8106  0.6433
21388SOL     OW70125   6.445   0.173   0.839  0.0496  0.4394  0.4352
21388SOL    HW170126   6.428   0.267   0.831 -0.2079  0.2877 -1.1377
21388SOL    HW270127   6.419   0.151   0.928 -0.2400  1.7940  0.7021
21389SOL     OW70128   8.038   6.074   8.000 -0.9525 -0.2627 -0.0976
21389SOL    HW170129   8.018   6.052   7.909 -0.0003  1.0872 -0.6593
21389SOL    HW270130   8.005   6.000   8.050 -2.2412 -0.6562 -1.4611
21390SOL     OW70131   1.955   7.321   9.333  0.0402  0.0618 -0.2975
21390SOL    HW170132   1.988   7.270   9.407  2.6547  0.0515 -1.3796
21390SOL    HW270133   1.920   7.256   9.273 -1.0781 -0.0149  0.4051
21391SOL     OW70134   2.646   3.353   8.357  0.0612 -0.0987  0.5988
21391SOL    HW170135   2.602   3.436   8.337  0.1308 -0.2664 -0.3247
21391SOL    HW270136   2.611   3.327   8.442 -0.1637  0.7425  0.7779
21392SOL     OW70137   1.060   7.435   5.276 -0.2211  0.4007 -0.1639
21392SOL    HW170138   1.124   7.364   5.284 -2.4076 -1.8142 -0.8778
21392SOL    HW270139   1.104   7.502   5.225  2.1741 -0.1150  1.1055
21393SOL     OW70140   1.419   7.437   5.870  0.3330 -0.0756  0.3194
21393SOL    HW170141   1.379   7.384   5.801  2.4886 -0.4837 -0.7281
21393SOL    HW270142   1.410   7.527   5.838  1.2688 -0.2574 -0.5229
21394SOL     OW70143   0.753   3.460   2.768 -0.2068 -0.2532  0.3711
21394SOL    HW170144   0.845   3.483   2.755 -0.0823  0.4207  2.1831
21394SOL    HW270145   0.755   3.368   2.796 -0.1692 -0.5031 -0.4313
21395SOL     OW70146   4.124   0.221   8.060 -0.5686 -0.3833  0.1859
21395SOL    HW170147   4.182   0.248   8.131 -0.1095  0.2307 -0.4140
21395SOL    HW270148   4.038   0.212   8.102 -0.7201  1.8537  0.4730
21396SOL     OW70149   3.122   7.114   5.485 -0.1809 -0.2661 -0.4805
21396SOL    HW170150   3.176   7.179   5.530 -0.0852 -0.0375 -0.9135
21396SOL    HW270151   3.185   7.047   5.456 -0.4387 -1.2202  1.0799
21397SOL     OW70152   1.465   7.322   2.979  0.3474 -0.1866 -0.0941
21397SOL    HW170153   1.493   7.377   3.053  2.5126 -2.5964  1.0424
21397SOL    HW270154   1.394   7.269   3.016 -1.2230  1.2303 -0.9657
21398SOL     OW70155   4.306   7.833   7.224  0.2520 -0.1584  0.1173
21398SOL    HW170156   4.351   7.885   7.157  1.8770 -2.1205 -0.4045
21398SOL    HW270157   4.354   7.751   7.227 -2.0647 -1.5717  1.0827
21399SOL     OW70158   1.079   7.913   7.955 -0.2756  0.3952  0.4348
21399SOL    HW170159   1.011   7.930   8.021 -1.0189 -0.1767 -0.1777
21399SOL    HW270160   1.057   7.971   7.883  0.8993  1.4750  0.9156
21400SOL     OW70161   4.430   2.984   0.815 -0.3390  0.5446  0.2460
21400SOL    HW170162   4.373   2.963   0.741  2.6291  1.7393 -2.6311
21400SOL    HW270163   4.416   3.077   0.832 -0.0762  0.5708  0.3262
21401SOL     OW70164   0.506   3.187   3.140 -0.1252 -0.0815  0.1834
21401SOL    HW170165   0.512   3.282   3.132 -0.9223 -0.0592 -0.2842
21401SOL    HW270166   0.442   3.161   3.073 -1.4549 -0.7127  1.6199
21402SOL     OW70167   7.336   0.141   4.443  0.0647  0.1860  0.5520
21402SOL    HW170168   7.342   0.075   4.374  0.7503 -0.2499  1.0156
21402SOL    HW270169   7.387   0.215   4.408 -2.8921  1.6117 -1.1539
21403SOL     OW70170   4.609   2.650   7.592 -0.5781  0.0297  0.1037
21403SOL    HW170171   4.600   2.735   7.549  0.7996 -0.5111 -1.3775
21403SOL    HW270172   4.622   2.671   7.685 -0.2997  1.4230 -0.2295
21404SOL     OW70173   4.322   6.507   3.590 -0.4997  0.2398 -0.4035
21404SOL    HW170174   4.368   6.573   3.642  0.2091  1.1931 -2.1667
21404SOL    HW270175   4.380   6.491   3.515 -1.3168 -1.3625 -0.7217
21405SOL     OW70176   5.725   6.096   7.785 -0.5098  0.1734 -0.5568
21405SOL    HW170177   5.779   6.150   7.728  1.0280 -0.5514  0.1606
21405SOL    HW270178   5.653   6.154   7.811 -0.0907  1.1660 -1.5307
21406SOL     OW70179   7.134   7.779   6.702  0.2580  0.4366 -0.0071
21406SOL    HW170180   7.220   7.814   6.679  1.0691 -1.9848 -1.0182
21406SOL    HW270181   7.146   7.740   6.789  0.5694 -0.9538 -0.6449
21407SOL     OW70182   4.703   9.367   2.234  0.5723 -0.2039  0.3500
21407SOL    HW170183   4.787   9.404   2.258  0.4668 -0.0200  0.4397
21407SOL    HW270184   4.662   9.434   2.179  0.1381  0.0708  0.9885
21408SOL     OW70185   5.474   3.517   7.384  0.0517 -0.1668  0.8006
21408SOL    HW170186   5.445   3.456   7.316  0.0925 -0.3832  0.9746
21408SOL    HW270187   5.420   3.495   7.460  0.7016 -0.6084  1.1438
21409SOL     OW70188   9.101   8.791   1.870  0.2500  0.0255  0.0420
21409SOL    HW170189   9.107   8.830   1.956 -0.9221  1.1473 -0.3550
21409SOL    HW270190   9.137   8.703   1.881  1.9052  0.8004  1.2032
21410SOL     OW70191   5.933   5.598   8.733 -0.5639 -0.6908  0.0973
21410SOL    HW170192   5.894   5.513   8.754  0.3823 -0.6926  2.0092
21410SOL    HW270193   6.015   5.576   8.687 -0.2285 -0.8417  0.7527
21411SOL     OW70194   3.006   8.614   1.370 -0.4049 -0.1207 -0.5299
21411SOL    HW170195   3.033   8.635   1.459  1.1665 -1.5475 -0.6403
21411SOL    HW270196   2.912   8.637   1.368 -0.0255  1.8263  0.8419
21412SOL     OW70197   9.341   8.462   2.524 -0.4055 -0.2309 -0.1020
21412SOL    HW170198   9.265   8.491   2.573  0.7229  2.7560  0.1115
21412SOL    HW270199   9.414   8.514   2.559  1.4758 -1.8813 -1.3036
21413SOL     OW70200   4.220   9.135   3.301  0.2417 -0.3654  0.6460
21413SOL    HW170201   4.127   9.155   3.312  0.2564 -0.4437  0.9295
21413SOL    HW270202   4.230   9.048   3.341  0.0805 -1.1795 -0.9655
21414SOL     OW70203   0.072   6.554   0.572 -0.5810  0.0132  0.7286
21414SOL    HW170204  -0.002   6.494   0.577  0.3625 -1.3446 -0.4158
21414SOL    HW270205   0.125   6.533   0.649 -1.5242  1.2288  1.7368
21415SOL     OW70206   5.282   6.934   2.885  0.1029  0.7749 -0.2397
21415SOL    HW170207   5.203   6.932   2.938  0.9336  0.3354  1.0441
21415SOL    HW270208   5.341   6.871   2.928  0.2060 -0.9122 -2.6884
21416SOL     OW70209   7.672   5.215   0.485 -0.5060 -0.2913  0.0616
21416SOL    HW170210   7.751   5.189   0.437  1.1956 -0.3655  2.6889
21416SOL    HW270211   7.664   5.309   0.471  0.2853 -0.2185  0.0756
21417SOL     OW70212   0.219   4.473   0.753 -0.2364 -0.3279  0.2365
21417SOL    HW170213   0.306   4.494   0.720  0.5783 -0.7916  1.9954
21417SOL    HW270214   0.159   4.519   0.694  1.1822  0.0795 -0.9423
21418SOL     OW70215   4.132   2.312   6.505 -0.3033  0.3962  0.4504
21418SOL    HW170216   4.179   2.354   6.433 -2.1921  1.1697 -0.4025
21418SOL    HW270217   4.057   2.270   6.463 -0.7346 -0.2719  1.8320
21419SOL     OW70218   5.803   8.568   5.114  0.0289  0.4950  0.0163
21419SOL    HW170219   5.817   8.538   5.204 -1.1993 -0.7321 -0.1748
21419SOL    HW270220   5.850   8.506   5.060 -0.3671  0.4349 -0.2601
21420SOL     OW70221   8.597   2.337   2.098  0.1296  0.3891  0.2975
21420SOL    HW170222   8.583   2.247   2.070  1.1575  0.8559 -1.8508
21420SOL    HW270223   8.662   2.330   2.168 -1.0328 -0.6373  1.3270
21421SOL     OW70224   9.288   4.700   7.007 -0.8017 -0.0587  0.6049
21421SOL    HW170225   9.257   4.777   6.959 -0.5296 -0.7789 -0.7734
21421SOL    HW270226   9.363   4.733   7.058 -0.5803  0.5648 -0.1012
21422SOL     OW70227   5.937   0.188   6.178 -0.2754  0.0173 -0.2949
21422SOL    HW170228   5.876   0.146   6.239 -0.5383 -0.2924 -0.7624
21422SOL    HW270229   5.976   0.259   6.229 -2.5755  1.6173 -0.5899
21423SOL     OW70230   3.652   0.022   3.863 -0.6392 -0.4926  0.0136
21423SOL    HW170231   3.730  -0.021   3.898 -0.7939 -0.3194  0.5827
21423SOL    HW270232   3.643   0.101   3.916 -1.2233 -0.5332 -0.0236
21424SOL     OW70233   7.276   2.959   2.140  0.0946  0.6631 -0.4176
21424SOL    HW170234   7.313   2.956   2.052 -0.3806 -0.8923 -0.5995
21424SOL    HW270235   7.295   3.047   2.171  0.8319  1.0349 -1.8303
21425SOL     OW70236   3.602   6.937   5.846 -0.5010  0.5413  0.4647
21425SOL    HW170237   3.515   6.900   5.830  0.0428 -0.4500 -0.3501
21425SOL    HW270238   3.637   6.885   5.918  0.1173 -0.3178 -0.4296
21426SOL     OW70239   8.921   4.015   5.585  0.6218 -0.5247  0.2962
21426SOL    HW170240   8.905   4.108   5.566 -0.5633 -1.0269 -1.3019
21426SOL    HW270241   8.843   3.970   5.555  1.4843 -2.1514  0.3608
21427SOL     OW70242   7.435   7.966   5.222 -0.4606  0.2030 -0.8179
21427SOL    HW170243   7.362   7.975   5.284 -0.9727 -0.4183 -1.3088
21427SOL    HW270244   7.408   7.895   5.164  0.5938 -0.1073 -0.9468
21428SOL     OW70245   7.068   2.803   2.933  0.0338  0.0260 -0.2741
21428SOL    HW170246   7.016   2.763   3.003 -0.5927 -0.3453 -0.9412
21428SOL    HW270247   7.113   2.729   2.892  0.3542  0.2357 -0.3084
21429SOL     OW70248   5.434   5.739   2.064  0.0906  0.5323 -0.1430
21429SOL    HW170249   5.409   5.670   2.126  2.2641  1.0940  1.4725
21429SOL    HW270250   5.418   5.820   2.112 -0.3374  1.0934 -1.2012
21430SOL     OW70251   9.347   1.663   4.912  0.2068 -0.0035  0.3144
21430SOL    HW170252   9.255   1.685   4.924  0.2287 -0.1927  0.8468
21430SOL    HW270253   9.373   1.621   4.994  0.6725 -0.2730  0.0339
21431SOL     OW70254   0.532   8.211   7.199 -0.7691  0.5833 -0.0453
21431SOL    HW170255   0.551   8.141   7.137 -0.1362  0.8668 -0.1801
21431SOL    HW270256   0.594   8.280   7.176 -1.3996  1.1989  0.0662
21432SOL     OW70257   9.362   1.732   2.378 -0.0028 -0.5356  0.1287
21432SOL    HW170258   9.366   1.662   2.313  0.4748  0.9230 -1.4819
21432SOL    HW270259   9.433   1.712   2.439  0.4622 -1.1912 -0.6067
21433SOL     OW70260   7.440   4.908   2.741 -0.1610 -0.2315 -0.1191
21433SOL    HW170261   7.399   4.966   2.804 -2.1822 -2.9405  1.2512
21433SOL    HW270262   7.493   4.848   2.794 -1.2960 -2.0866 -0.9877
21434SOL     OW70263   6.568   2.955   8.471 -0.3517 -0.0643  0.0988
21434SOL    HW170264   6.657   2.974   8.443 -0.3005 -2.4581 -1.6365
21434SOL    HW270265   6.517   3.030   8.440  0.7362  0.3490 -0.7406
21435SOL     OW70266   7.587   4.048   8.886 -0.3539 -0.1531  0.3555
21435SOL    HW170267   7.655   4.113   8.868 -0.2721 -0.6696 -1.4146
21435SOL    HW270268   7.535   4.086   8.957  0.6106  1.1243  0.4121
21436SOL     OW70269   5.363   4.863   3.546  0.4309 -0.0453 -0.2996
21436SOL    HW170270   5.303   4.855   3.620  0.3395 -2.5091 -0.5489
21436SOL    HW270271   5.394   4.774   3.531  2.2699  0.7676 -1.7536
21437SOL     OW70272   6.101   8.325   8.995 -0.0812 -0.0132 -0.4345
21437SOL    HW170273   6.033   8.353   9.056  1.1906 -0.1846  1.1543
21437SOL    HW270274   6.136   8.407   8.960  0.7717  0.2605  0.9488
21438SOL     OW70275   6.574   5.804   3.238  0.4996 -0.6169 -0.0854
21438SOL    HW170276   6.640   5.788   3.306  0.2004  1.0418  0.6539
21438SOL    HW270277   6.509   5.859   3.282 -0.5393 -0.8612 -1.2783
21439SOL     OW70278   4.867   7.702   0.342 -0.6144 -0.6585  0.3311
21439SOL    HW170279   4.878   7.607   0.348 -2.2925 -0.8947  0.1917
21439SOL    HW270280   4.898   7.724   0.254  2.4172 -0.6023  1.3036
21440SOL     OW70281   3.414   2.191   6.084 -0.0988  0.0807  0.0540
21440SOL    HW170282   3.456   2.112   6.119 -0.4920  0.3846  1.2771
21440SOL    HW270283   3.483   2.258   6.087 -0.0866  0.0659  0.1028
21441SOL     OW70284   6.891   0.098   4.485 -0.1850 -0.5502 -0.3989
21441SOL    HW170285   6.893   0.120   4.579  1.0537  0.3315 -0.6092
21441SOL    HW270286   6.833   0.022   4.480 -1.0904  0.0016  0.9479
21442SOL     OW70287   7.491   1.182   3.225  0.2725 -0.3626  0.2838
21442SOL    HW170288   7.443   1.258   3.256 -0.7561 -0.4142 -1.0725
21442SOL    HW270289   7.508   1.200   3.132  0.0800 -1.7168 -0.0489
21443SOL     OW70290   6.425   0.477   1.887 -0.0440  0.1071  0.7184
21443SOL    HW170291   6.391   0.423   1.816 -0.9535  0.9758  0.4744
21443SOL    HW270292   6.504   0.432   1.916 -0.0071 -0.5906 -0.4235
21444SOL     OW70293   7.647   5.239   1.416 -0.2692  0.2329 -0.0330
21444SOL    HW170294   7.559   5.262   1.385 -0.1640  0.1634 -0.3878
21444SOL    HW270295   7.706   5.279   1.353 -0.0264  0.7504  0.5166
21445SOL     OW70296   6.620   8.115   8.894 -0.3566  0.1907  0.0961
21445SOL    HW170297   6.532   8.084   8.872 -0.4014  0.0090  0.5246
21445SOL    HW270298   6.605   8.198   8.939 -0.2513  0.6996 -0.7803
21446SOL     OW70299   6.534   7.732   0.217  0.1897 -0.4229 -0.0663
21446SOL    HW170300   6.598   7.768   0.157  2.3053 -2.4222  0.8433
21446SOL    HW270301   6.560   7.764   0.303 -0.0022 -1.2628  0.3210
21447SOL     OW70302   7.478   4.087   4.025 -0.6986 -0.1446  0.3234
21447SOL    HW170303   7.398   4.095   3.972 -1.8710 -0.6653  1.9203
21447SOL    HW270304   7.500   4.177   4.049 -0.9934 -0.0182  0.1279
21448SOL     OW70305   8.425   7.778   2.307 -0.4884  0.4178  0.2208
21448SOL    HW170306   8.484   7.776   2.231  0.0094  2.5833  0.4918
21448SOL    HW270307   8.474   7.735   2.377 -0.1040  0.2854 -0.1273
21449SOL     OW70308   6.429   3.256   7.942  0.0999 -0.4847 -0.0709
21449SOL    HW170309   6.361   3.279   8.005  0.9923 -2.1226  1.5728
21449SOL    HW270310   6.392   3.185   7.890 -0.1285 -0.0500 -0.5202
21450SOL     OW70311   6.659   0.293   4.705 -0.1533 -0.7245  0.1906
21450SOL    HW170312   6.692   0.357   4.769 -1.9688  0.6673 -0.1726
21450SOL    HW270313   6.718   0.301   4.630 -0.2058  0.3743  0.2489
21451SOL     OW70314   5.007   9.165   7.706  0.2320  0.3874 -0.2428
21451SOL    HW170315   5.081   9.225   7.699  1.0038 -0.6754 -1.6635
21451SOL    HW270316   5.041   9.090   7.756 -0.0386  0.1457 -0.4137
21452SOL     OW70317   8.553   7.491   8.600  0.1810 -0.3293  0.3654
21452SOL    HW170318   8.486   7.451   8.544  0.9963 -0.0986 -0.8106
21452SOL    HW270319   8.534   7.585   8.597 -0.8415 -0.4453  1.9451
21453SOL     OW70320   6.026   6.563   4.430  0.0435  0.0122 -0.2491
21453SOL    HW170321   5.933   6.542   4.426  0.0554 -0.5130  1.2666
21453SOL    HW270322   6.031   6.658   4.415 -0.9956  0.4412  1.6984
21454SOL     OW70323   5.376   6.499   6.336  0.1339  0.1279  0.7325
21454SOL    HW170324   5.378   6.546   6.252 -1.2538  0.1839  0.7064
21454SOL    HW270325   5.396   6.408   6.313 -0.6864  0.0540  0.2577
21455SOL     OW70326   4.279   0.669   5.475 -0.3220  0.4526  0.0573
21455SOL    HW170327   4.277   0.574   5.465 -2.3434  0.4969 -0.4677
21455SOL    HW270328   4.320   0.701   5.394  0.4462  0.0334  0.2777
21456SOL     OW70329   1.904   4.748   8.043  0.0351 -0.3240 -0.2621
21456SOL    HW170330   1.963   4.792   8.105 -0.1394 -0.7942  0.2486
21456SOL    HW270331   1.911   4.800   7.963  0.3792  0.2130  0.1024
21457SOL     OW70332   2.644   2.215   2.975 -0.0309  0.3787  0.5616
21457SOL    HW170333   2.665   2.133   2.931 -0.2014 -0.5128  2.0514
21457SOL    HW270334   2.729   2.259   2.984 -0.3322  2.2440 -3.5604
21458SOL     OW70335   8.926   2.000   4.887  0.2624 -0.0520 -1.1646
21458SOL    HW170336   8.897   1.947   4.812 -3.5749  0.4187 -0.2337
21458SOL    HW270337   8.893   2.088   4.867  1.1763  0.5929  0.0775
21459SOL     OW70338   7.595   4.222   0.625 -0.5405  0.0794  0.3807
21459SOL    HW170339   7.642   4.144   0.593 -1.0082  0.1148 -0.4213
21459SOL    HW270340   7.665   4.287   0.639 -0.1746 -0.4051  0.8165
21460SOL     OW70341   4.396   4.353   3.792  0.1725  0.8616  0.0163
21460SOL    HW170342   4.347   4.320   3.717  0.0621  0.4623  0.2559
21460SOL    HW270343   4.369   4.444   3.801  0.1630  0.9001 -0.4061
21461SOL     OW70344   7.384   8.000   8.141 -0.3167 -0.2901  0.1934
21461SOL    HW170345   7.304   7.982   8.189  0.4502 -3.5852  0.4582
21461SOL    HW270346   7.451   8.012   8.209  0.0059 -0.8886 -0.0057
21462SOL     OW70347   9.364   7.792   6.827 -0.3512 -0.1374 -0.6579
21462SOL    HW170348   9.430   7.724   6.817 -0.2997  0.0122 -1.4198
21462SOL    HW270349   9.406   7.872   6.795 -0.7409  0.0494 -0.7144
21463SOL     OW70350   2.894   7.288   1.895 -0.1613 -0.9600 -0.0840
21463SOL    HW170351   2.945   7.315   1.819 -0.2909 -1.8821 -0.5099
21463SOL    HW270352   2.809   7.263   1.859 -0.1792 -1.5315  0.3430
21464SOL     OW70353   6.526   4.252   5.138  0.3035 -0.0404  0.0034
21464SOL    HW170354   6.525   4.319   5.070  0.4591  1.5019  1.4430
21464SOL    HW270355   6.541   4.170   5.092  0.7712  0.9963 -1.7585
21465SOL     OW70356   3.729   9.250   6.286  0.0642 -0.9816  0.0762
21465SOL    HW170357   3.662   9.312   6.258  0.6492 -0.5269 -0.3275
21465SOL    HW270358   3.811   9.299   6.284  0.4355 -1.5673  0.4442
21466SOL     OW70359   3.222   7.097   5.890 -0.1806 -0.1663 -0.5807
21466SOL    HW170360   3.291   7.155   5.858 -0.5249  0.8679  0.5006
21466SOL    HW270361   3.246   7.078   5.981 -0.4755 -1.1223 -0.6860
21467SOL     OW70362   6.756   7.203   0.160  0.2659  0.5774 -0.1120
21467SOL    HW170363   6.689   7.249   0.109  0.9270  0.4836 -1.1043
21467SOL    HW270364   6.707   7.160   0.231 -0.8113  0.0882 -1.1066
21468SOL     OW70365   6.469   1.700   8.111 -0.1872  0.2766  0.0180
21468SOL    HW170366   6.432   1.700   8.023 -1.6267 -0.4867  0.5938
21468SOL    HW270367   6.424   1.771   8.156 -0.0572  0.1310  0.3759
21469SOL     OW70368   2.228   1.817   0.432  0.0627  0.0488 -0.5299
21469SOL    HW170369   2.245   1.732   0.392 -1.3527 -0.3053 -0.4442
21469SOL    HW270370   2.187   1.868   0.362 -0.3727  0.1735 -0.1933
21470SOL     OW70371   3.327   1.956   3.886  0.1021 -0.0523 -0.2128
21470SOL    HW170372   3.399   2.010   3.919 -0.4864  0.8603 -0.3862
21470SOL    HW270373   3.358   1.925   3.800  0.8771 -0.8976  0.3565
21471SOL     OW70374   8.037   8.659   3.789  0.5002  0.2310  0.1017
21471SOL    HW170375   8.005   8.626   3.705  0.8175 -0.3262  0.1931
21471SOL    HW270376   8.030   8.754   3.782  1.2993  0.2292 -0.8827
21472SOL     OW70377   9.286   7.289   0.950 -0.4496  0.5783 -0.0544
21472SOL    HW170378   9.355   7.224   0.963  0.4984  0.7971 -3.0758
21472SOL    HW270379   9.207   7.237   0.934 -0.1349  0.1979 -0.4039
21473SOL     OW70380   3.102   3.724   6.609 -0.1193  0.4707 -0.2228
21473SOL    HW170381   3.116   3.666   6.535  1.5861 -2.7120  2.3505
21473SOL    HW270382   3.188   3.730   6.651 -1.4358  0.2017  2.7592
21474SOL     OW70383   5.345   3.063   5.656 -0.3320 -0.4571  0.4721
21474SOL    HW170384   5.324   3.101   5.571 -2.0141  2.1134  1.8701
21474SOL    HW270385   5.430   3.100   5.679 -0.7683  0.4290  0.7027
21475SOL     OW70386   8.086   5.301   2.397 -0.1037  0.2531  0.0027
21475SOL    HW170387   8.151   5.359   2.437  0.7799  0.8442 -2.1202
21475SOL    HW270388   8.016   5.361   2.368 -0.1347  0.0108 -0.4267
21476SOL     OW70389   0.988   8.978   0.119 -0.5613  0.4712 -0.8417
21476SOL    HW170390   0.982   8.887   0.147  1.2615  0.7031  0.5633
21476SOL    HW270391   1.063   8.981   0.060 -1.2644  0.9017 -1.7465
21477SOL     OW70392   3.102   7.501   2.465  0.1815 -0.1090  0.0734
21477SOL    HW170393   3.115   7.431   2.401 -0.7098 -0.9641  0.7846
21477SOL    HW270394   3.118   7.581   2.417  1.5118 -0.8073 -0.6935
21478SOL     OW70395   4.294   6.822   4.650  0.3971  0.6111  0.9326
21478SOL    HW170396   4.333   6.909   4.641 -0.9408  1.1708  0.2707
21478SOL    HW270397   4.243   6.827   4.730 -2.3560  1.5771 -0.7566
21479SOL     OW70398   9.299   0.047   7.086  0.8047 -0.4469  0.2407
21479SOL    HW170399   9.213   0.010   7.106 -0.3457  1.1911 -1.3579
21479SOL    HW270400   9.301   0.131   7.132  2.9041 -1.7445  2.8487
21480SOL     OW70401   1.926   6.278   4.078  0.4576 -0.5101 -0.5072
21480SOL    HW170402   1.868   6.296   4.152  0.1823 -0.2973 -0.7748
21480SOL    HW270403   1.906   6.346   4.014  0.7326 -0.6605 -0.7570
21481SOL     OW70404   7.984   1.407   8.853  0.2673  0.6848 -0.4375
21481SOL    HW170405   7.976   1.380   8.762  0.5736 -0.4807 -0.1320
21481SOL    HW270406   7.894   1.412   8.885  0.2161 -1.0148 -0.2261
21482SOL     OW70407   4.680   6.995   1.876 -0.8080  0.0844 -0.8693
21482SOL    HW170408   4.758   7.006   1.821  1.4703 -0.6615  1.9443
21482SOL    HW270409   4.637   7.080   1.873  2.4678  2.0067  0.6239
21483SOL     OW70410   1.024   1.875   0.928 -0.2115  0.4509 -0.2349
21483SOL    HW170411   0.983   1.793   0.899  1.5615 -0.1271 -1.2721
21483SOL    HW270412   1.071   1.852   1.008 -1.5884  1.0402  0.7817
21484SOL     OW70413   1.777   5.579   5.901 -0.1586 -0.3253 -0.2759
21484SOL    HW170414   1.801   5.639   5.831 -0.4153 -0.2221 -0.2755
21484SOL    HW270415   1.835   5.503   5.888  0.3516  0.0270 -0.1191
21485SOL     OW70416   0.508   1.380   9.300 -0.2526  0.1569  0.0461
21485SOL    HW170417   0.505   1.359   9.207 -1.9761 -1.0616  0.3147
21485SOL    HW270418   0.549   1.303   9.341  2.8467  1.7074  0.1321
21486SOL     OW70419   7.513   0.693   2.520  0.0136 -0.1533 -0.2681
21486SOL    HW170420   7.504   0.768   2.462 -0.8243  0.8971  1.1670
21486SOL    HW270421   7.428   0.649   2.517  0.4920 -1.0701 -1.0834
21487SOL     OW70422   0.489   1.923   3.202 -0.2812 -0.1185 -0.0753
21487SOL    HW170423   0.405   1.879   3.216 -0.3110 -0.0806 -0.1328
21487SOL    HW270424   0.511   1.960   3.287 -0.4903  0.1590 -0.1385
21488SOL     OW70425   7.550   9.267   5.759  0.0882 -0.1036  0.0945
21488SOL    HW170426   7.593   9.264   5.673  0.9482 -1.0900  0.5243
21488SOL    HW270427   7.458   9.283   5.739  0.5183  1.3325 -0.9067
21489SOL     OW70428   8.567   3.784   3.093 -0.1331 -0.4277  0.5854
21489SOL    HW170429   8.570   3.730   3.014  0.2133 -1.3018  1.1835
21489SOL    HW270430   8.638   3.846   3.082 -0.5444 -0.0685 -0.1185
21490SOL     OW70431   8.820   8.977   2.735 -0.3937  0.1111  0.1166
21490SOL    HW170432   8.785   9.048   2.788  1.1350  0.3842  0.8269
21490SOL    HW270433   8.821   8.901   2.794  0.1607  0.1071  0.1105
21491SOL     OW70434   1.466   4.978   9.333  0.5615  0.3651 -0.1504
21491SOL    HW170435   1.414   5.045   9.289 -0.7025 -0.5303 -0.0693
21491SOL    HW270436   1.422   4.964   9.417  0.5320 -0.8672 -0.3420
21492SOL     OW70437   0.905   8.993   4.488  0.4002  0.2068  0.6057
21492SOL    HW170438   0.982   9.050   4.493  1.0059 -0.6026  0.5242
21492SOL    HW270439   0.839   9.039   4.541  0.6609  1.3048  0.0271
21493SOL     OW70440   5.973   3.463   4.133  0.0305 -0.0102 -0.0431
21493SOL    HW170441   6.021   3.412   4.199 -0.6827 -0.2746  0.2759
21493SOL    HW270442   6.027   3.542   4.121 -0.2260  0.4389  1.4674
21494SOL     OW70443   2.463   2.883   2.168 -0.3165 -0.1944  0.3595
21494SOL    HW170444   2.513   2.927   2.237  1.8620  1.1763 -1.9117
21494SOL    HW270445   2.498   2.794   2.166  1.3641  0.4269 -0.4435
21495SOL     OW70446   7.648   8.655   6.186  0.0524 -0.1158 -0.0011
21495SOL    HW170447   7.712   8.652   6.115  0.3547  0.6837  0.2333
21495SOL    HW270448   7.602   8.738   6.175  0.7102  0.4520  1.2419
21496SOL     OW70449   1.324   2.661   3.451  0.4361 -0.4014 -0.1665
21496SOL    HW170450   1.351   2.743   3.492  0.5671 -0.4241 -0.2073
21496SOL    HW270451   1.281   2.687   3.370 -0.0449 -0.3427  0.0987
21497SOL     OW70452   7.979   5.139   0.671  0.0778  0.4820 -0.0235
21497SOL    HW170453   8.008   5.052   0.701  1.9882  0.9195 -0.4614
21497SOL    HW270454   8.001   5.197   0.744  1.4790  1.0038 -0.8272
21498SOL     OW70455   4.586   7.781   0.076 -0.1497  0.4159  0.0285
21498SOL    HW170456   4.528   7.756   0.004 -1.4034  1.1679  0.7474
21498SOL    HW270457   4.642   7.704   0.090 -0.3515  0.0164 -1.2768
21499SOL     OW70458   3.489   6.193   9.066  0.0882 -0.2979  0.1090
21499SOL    HW170459   3.459   6.149   9.146 -1.8067  0.3801 -0.2027
21499SOL    HW270460   3.452   6.141   8.995  0.6612 -0.1295 -0.3207
21500SOL     OW70461   6.189   0.054   0.719 -0.1001  0.0102 -0.4307
21500SOL    HW170462   6.136   0.038   0.641 -1.0667 -1.8995  0.5476
21500SOL    HW270463   6.230  -0.030   0.738 -1.0418 -0.0108  1.9017
21501SOL     OW70464   0.362   9.233   4.530  0.6035  0.1995  0.1711
21501SOL    HW170465   0.407   9.151   4.550  0.6986  0.2557  0.1877
21501SOL    HW270466   0.309   9.250   4.608  0.2133 -0.0947 -0.0226
21502SOL     OW70467   8.491   0.721   2.612 -0.2922 -0.0164  0.1245
21502SOL    HW170468   8.422   0.698   2.674 -0.0766 -1.0938 -0.0298
21502SOL    HW270469   8.447   0.779   2.549 -0.4651  1.2823  1.3689
21503SOL     OW70470   0.706   4.590   5.467 -0.0218  0.2343 -0.5980
21503SOL    HW170471   0.672   4.631   5.547 -0.2811 -0.7768 -0.1781
21503SOL    HW270472   0.800   4.609   5.469 -0.2129  1.2774 -0.7049
21504SOL     OW70473   9.242   1.734   2.625  0.2646  0.2977 -0.8423
21504SOL    HW170474   9.194   1.662   2.666  0.4660  0.5831 -0.0766
21504SOL    HW270475   9.270   1.699   2.540  0.3215 -0.5093 -0.5034
21505SOL     OW70476   7.647   1.667   0.002 -0.5580  0.6745  0.4728
21505SOL    HW170477   7.559   1.695   0.027  0.2716  4.2628 -0.1318
21505SOL    HW270478   7.706   1.729   0.045  1.4982  0.1079 -1.3460
21506SOL     OW70479   3.537   7.398   5.985 -0.2951 -0.0088  0.0601
21506SOL    HW170480   3.517   7.346   6.063  0.6359 -0.6415 -0.1097
21506SOL    HW270481   3.469   7.466   5.984 -1.0208 -0.6972  0.7620
21507SOL     OW70482   4.481   5.279   1.228 -0.2980 -0.2024 -0.1920
21507SOL    HW170483   4.554   5.329   1.192  0.1036 -2.1096 -2.2122
21507SOL    HW270484   4.403   5.329   1.205  0.2149  0.9120  0.3789
21508SOL     OW70485   6.228   4.170   0.506 -0.5848 -0.4186 -0.0355
21508SOL    HW170486   6.209   4.161   0.599 -1.3774 -0.5920 -0.2046
21508SOL    HW270487   6.263   4.258   0.497  0.7769 -0.8565  0.6159
21509SOL     OW70488   6.695   1.473   2.205 -0.0721 -0.0961 -0.3238
21509SOL    HW170489   6.600   1.477   2.218 -0.3191  0.1871 -2.0344
21509SOL    HW270490   6.708   1.503   2.115  1.2988 -3.7640 -1.5140
21510SOL     OW70491   7.805   7.437   8.050  0.2451  0.3258 -0.1856
21510SOL    HW170492   7.737   7.378   8.015  0.9848  0.0797 -1.2515
21510SOL    HW270493   7.756   7.500   8.103 -0.8368  0.2361 -1.0379
21511SOL     OW70494   3.020   4.656   9.283 -0.7336 -0.4832  0.2796
21511SOL    HW170495   2.975   4.634   9.364  1.6510 -1.6420  1.3762
21511SOL    HW270496   3.071   4.578   9.261  2.9732  1.5764  0.7305
21512SOL     OW70497   8.118   3.258   1.336  0.1317  0.4443  0.3811
21512SOL    HW170498   8.082   3.254   1.248  0.9359 -0.8737  0.0939
21512SOL    HW270499   8.051   3.219   1.392  1.1834 -2.4707 -0.2138
21513SOL     OW70500   3.312   9.071   4.629  0.3952  0.0043  0.1048
21513SOL    HW170501   3.348   9.001   4.683  0.7286  0.6520  0.7387
21513SOL    HW270502   3.387   9.124   4.604  0.1054  0.3356 -0.0758
21514SOL     OW70503   9.333   0.806   5.558 -0.2045  0.2425 -0.1157
21514SOL    HW170504   9.245   0.767   5.556 -1.3408  2.6929 -0.9536
21514SOL    HW270505   9.357   0.816   5.466  0.9760 -0.3257  0.1047
21515SOL     OW70506   6.096   5.509   8.289 -0.3020 -0.1431  0.0486
21515SOL    HW170507   6.006   5.480   8.272 -0.3475 -0.2278  0.4208
21515SOL    HW270508   6.136   5.516   8.202 -0.4998 -0.6484 -0.0907
21516SOL     OW70509   4.187   4.483   3.943 -0.0451 -0.3764  0.2917
21516SOL    HW170510   4.222   4.394   3.944 -1.2450 -0.9778 -2.7508
21516SOL    HW270511   4.107   4.478   3.891  0.5763  2.7237 -1.2217
21517SOL     OW70512   0.839   5.264   7.019  0.5029  0.6112 -0.6544
21517SOL    HW170513   0.843   5.346   6.969  1.3488  0.7344 -0.4040
21517SOL    HW270514   0.760   5.272   7.073  1.5818  2.1216  0.8139
21518SOL     OW70515   4.739   6.645   6.167 -0.3117 -0.0442 -0.1052
21518SOL    HW170516   4.729   6.678   6.256 -0.2383 -2.0714  0.6904
21518SOL    HW270517   4.757   6.552   6.177  1.8948  0.0617 -2.1573
21519SOL     OW70518   1.133   7.824   3.049  0.0078 -0.4206  0.2454
21519SOL    HW170519   1.068   7.843   2.982  0.5773  0.4453 -0.0872
21519SOL    HW270520   1.183   7.749   3.014 -0.0653 -0.3403 -0.0317
21520SOL     OW70521   2.926   2.320   3.063 -0.3171 -0.7309  0.0517
21520SOL    HW170522   2.902   2.404   3.024  0.4655 -0.8610 -0.7519
21520SOL    HW270523   2.948   2.342   3.153 -1.3564 -0.2856  0.2097
21521SOL     OW70524   2.143   6.256   2.055  0.3280 -0.0794  0.3551
21521SOL    HW170525   2.209   6.311   2.012 -0.6357 -0.4728 -1.7387
21521SOL    HW270526   2.136   6.292   2.143  0.3764  2.6408 -0.6565
21522SOL     OW70527   0.506   5.168   8.503 -0.2402 -0.9039 -0.0508
21522SOL    HW170528   0.572   5.206   8.446 -0.1789 -0.7477  0.1238
21522SOL    HW270529   0.433   5.148   8.445  0.5225 -2.5008 -0.5244
21523SOL     OW70530   5.241   9.148   0.021 -0.4423 -0.7878 -0.5321
21523SOL    HW170531   5.296   9.219  -0.011 -1.1783 -0.3428 -0.8131
21523SOL    HW270532   5.188   9.122  -0.055 -2.7529  0.7835  0.4307
21524SOL     OW70533   8.575   4.459   1.737 -0.0693  0.5143  0.0515
21524SOL    HW170534   8.518   4.450   1.812 -1.1307  0.7482 -0.7022
21524SOL    HW270535   8.519   4.442   1.661  0.3965  2.5207 -0.8198
21525SOL     OW70536   3.281   0.079   4.557 -0.2255 -0.2367 -0.4654
21525SOL    HW170537   3.345   0.008   4.548  1.2234  1.1426 -1.7474
21525SOL    HW270538   3.309   0.126   4.636 -0.1637 -0.1296 -0.5503
21526SOL     OW70539   9.286   0.790   0.113  0.3431 -0.1217  0.3345
21526SOL    HW170540   9.244   0.746   0.187 -2.7993 -0.3530 -1.4448
21526SOL    HW270541   9.356   0.730   0.086 -0.0990 -1.2274  1.5574
21527SOL     OW70542   1.360   6.795   4.414 -0.3497 -0.3560 -0.1159
21527SOL    HW170543   1.271   6.786   4.381 -0.9548  2.2652  0.5698
21527SOL    HW270544   1.384   6.885   4.393  1.9441 -0.8335  0.2278
21528SOL     OW70545   3.345   4.728   2.470  0.4572 -0.5026  0.2806
21528SOL    HW170546   3.437   4.742   2.493  0.8543 -1.8877 -0.3613
21528SOL    HW270547   3.314   4.664   2.534 -0.0520 -0.0995  0.4439
21529SOL     OW70548   4.850   3.927   2.193  0.1635 -0.0475  0.3000
21529SOL    HW170549   4.878   3.839   2.220 -0.4757 -0.6979 -1.0332
21529SOL    HW270550   4.775   3.946   2.248  0.1303 -0.4644  0.4040
21530SOL     OW70551   6.150   3.580   6.262 -0.6703 -0.3854  1.2258
21530SOL    HW170552   6.227   3.538   6.299 -1.0577 -0.9580  1.4020
21530SOL    HW270553   6.076   3.537   6.305 -1.1044 -0.3447  0.5453
21531SOL     OW70554   6.476   6.630   2.807 -0.1417 -0.0817 -0.6124
21531SOL    HW170555   6.503   6.575   2.880 -1.2501  1.3664  0.9713
21531SOL    HW270556   6.428   6.571   2.748  0.7891 -1.2700 -0.2181
21532SOL     OW70557   6.356   5.646   5.632  0.1381 -0.0828  0.1722
21532SOL    HW170558   6.270   5.628   5.596  0.7522  0.4318 -1.6729
21532SOL    HW270559   6.416   5.634   5.559  1.3541  2.1018  0.7044
21533SOL     OW70560   6.370   5.304   2.102  0.2417 -0.0855  0.7450
21533SOL    HW170561   6.465   5.299   2.097  0.2928  1.2302 -0.1078
21533SOL    HW270562   6.340   5.219   2.071  1.1340 -0.3443  0.5644
21534SOL     OW70563   1.201   5.757   0.922  0.7230 -0.0394 -0.0846
21534SOL    HW170564   1.168   5.844   0.902  1.5027  0.3749  0.3711
21534SOL    HW270565   1.196   5.709   0.840 -0.3946  0.2034 -0.1711
21535SOL     OW70566   1.577   4.199   2.776  0.3575 -0.3289 -0.3369
21535SOL    HW170567   1.571   4.268   2.842  1.5959 -0.3028 -0.2356
21535SOL    HW270568   1.500   4.144   2.793  0.1688  0.1813  0.5419
21536SOL     OW70569   6.998   5.493   9.315 -0.3870 -0.2739  0.2599
21536SOL    HW170570   6.997   5.551   9.239  0.0429 -2.6213 -1.6747
21536SOL    HW270571   7.089   5.496   9.345 -0.6988  1.1566  1.1560
21537SOL     OW70572   8.338   3.263   8.031 -0.4793  0.0780  0.3166
21537SOL    HW170573   8.413   3.257   8.089 -1.6250 -1.1558  1.7720
21537SOL    HW270574   8.265   3.228   8.082 -1.6644 -0.6032 -1.7075
21538SOL     OW70575   1.477   4.349   2.969  0.5656  0.2660  0.3205
21538SOL    HW170576   1.526   4.298   3.033  1.9483  0.9331 -0.1799
21538SOL    HW270577   1.413   4.398   3.021  0.0142 -1.0212  0.9249
21539SOL     OW70578   6.433   3.416   4.684  0.1975 -0.2062  0.4068
21539SOL    HW170579   6.499   3.399   4.751  0.5390 -0.7777 -0.0680
21539SOL    HW270580   6.360   3.456   4.732  0.6652 -0.0806  1.0218
21540SOL     OW70581   5.436   6.892   3.291 -0.9979  0.4796 -0.0529
21540SOL    HW170582   5.514   6.859   3.335 -0.0049  1.4513 -1.0353
21540SOL    HW270583   5.392   6.946   3.357 -1.2120 -0.5809  0.7044
21541SOL     OW70584   8.308   0.623   2.766  0.3139  0.2619  0.1413
21541SOL    HW170585   8.282   0.680   2.839  0.3644  0.6717 -0.1526
21541SOL    HW270586   8.309   0.535   2.803 -1.2037  0.2558  0.2286
21542SOL     OW70587   4.083   5.741   7.504  0.2668 -0.2430 -0.5041
21542SOL    HW170588   4.060   5.772   7.416  1.9037  1.3240 -0.4490
21542SOL    HW270589   4.093   5.646   7.494 -0.0101 -0.1560 -1.9098
21543SOL     OW70590   8.433   8.950   8.804  0.2035  0.0660  0.7928
21543SOL    HW170591   8.351   8.995   8.785 -0.1499 -0.8732  0.0162
21543SOL    HW270592   8.496   8.988   8.743  0.4231  0.9567  1.5501
21544SOL     OW70593   0.047   8.980   6.917 -0.7869  0.4405 -0.1200
21544SOL    HW170594   0.020   9.043   6.850 -1.7389  2.2655  1.8727
21544SOL    HW270595  -0.029   8.923   6.928 -1.5558  1.6351  1.0300
21545SOL     OW70596   4.859   1.104   8.856  0.0468  0.2743 -0.2464
21545SOL    HW170597   4.915   1.164   8.906  0.3438 -0.3753  0.2180
21545SOL    HW270598   4.906   1.091   8.774 -0.8985  2.0939 -1.1433
21546SOL     OW70599   8.513   0.803   5.445 -0.0917  0.0032  0.0058
21546SOL    HW170600   8.432   0.767   5.480 -0.6232  1.3706  0.2628
21546SOL    HW270601   8.571   0.728   5.436 -1.0990 -0.8767  0.6250
21547SOL     OW70602   8.334   5.900   5.063  0.0303  0.4177  0.0629
21547SOL    HW170603   8.239   5.891   5.072  0.1780  0.4460  2.2088
21547SOL    HW270604   8.367   5.811   5.057 -0.0912  0.3701  0.1084
21548SOL     OW70605   7.958   3.119   8.331  0.5834  0.3454 -0.0326
21548SOL    HW170606   7.876   3.092   8.374 -0.1105 -0.2856 -1.6962
21548SOL    HW270607   7.980   3.046   8.274 -0.5591  2.5428 -3.5912
21549SOL     OW70608   0.054   8.622   3.950  0.8983 -0.3698 -0.1409
21549SOL    HW170609   0.061   8.609   3.856  1.7860 -0.6994 -0.0368
21549SOL    HW270610   0.015   8.540   3.982  2.3963 -1.0724 -0.0108
21550SOL     OW70611   1.332   1.566   5.394 -0.0971 -0.5022  0.4252
21550SOL    HW170612   1.285   1.628   5.338 -1.4052 -0.2958  1.7027
21550SOL    HW270613   1.344   1.612   5.477 -0.2307 -1.6026  1.0794
21551SOL     OW70614   3.566   6.793   8.524 -0.2249  0.4195  0.1519
21551SOL    HW170615   3.552   6.804   8.430  1.1425  0.4343 -0.0756
21551SOL    HW270616   3.555   6.699   8.540 -1.5017  0.5565  0.1894
21552SOL     OW70617   0.020   7.547   2.361  0.8632 -0.2848  0.2555
21552SOL    HW170618   0.066   7.532   2.444 -0.0066  0.2680  0.8578
21552SOL    HW270619  -0.009   7.461   2.333  0.1748 -0.3535  1.1285
21553SOL     OW70620   9.046   0.118   1.374  0.6663  0.2715  0.1688
21553SOL    HW170621   9.021   0.198   1.421  1.2761  1.2698 -1.1569
21553SOL    HW270622   9.073   0.057   1.444 -2.5462  0.1240  1.4546
21554SOL     OW70623   4.097   2.160   4.242  0.1089  0.1298  0.2479
21554SOL    HW170624   4.137   2.102   4.308  0.7933 -0.9692 -1.0802
21554SOL    HW270625   4.036   2.103   4.194 -0.4496  0.9383 -0.0231
21555SOL     OW70626   1.276   8.879   4.032  0.0619  0.8937  0.2530
21555SOL    HW170627   1.342   8.891   4.101  0.8922 -0.3326 -0.2843
21555SOL    HW270628   1.323   8.833   3.962 -1.3449  0.0886 -0.2026
21556SOL     OW70629   1.267   6.069   7.737  0.9003  0.4782 -0.3318
21556SOL    HW170630   1.329   6.072   7.811  1.6206 -2.3122 -0.6909
21556SOL    HW270631   1.320   6.090   7.660  0.5510  1.6092 -0.2812
21557SOL     OW70632   4.293   0.553   8.817 -0.8555  0.2206  0.1822
21557SOL    HW170633   4.379   0.566   8.776 -1.2083  1.7544 -0.1220
21557SOL    HW270634   4.312   0.553   8.911 -0.5805  1.0808  0.1300
21558SOL     OW70635   3.301   5.772   4.628 -0.4897  0.7550  0.6522
21558SOL    HW170636   3.393   5.765   4.603 -0.1138  0.2761  2.0933
21558SOL    HW270637   3.297   5.735   4.716 -2.4360 -1.1773 -0.1546
21559SOL     OW70638   3.578   2.923   9.088 -0.0687 -0.1231 -0.1955
21559SOL    HW170639   3.558   2.862   9.159  2.1898 -0.7639 -0.0339
21559SOL    HW270640   3.598   3.006   9.131  1.6323 -0.5993  0.0042
21560SOL     OW70641   3.178   5.190   2.923  0.2991  0.4623 -0.1784
21560SOL    HW170642   3.260   5.142   2.915  0.2671  0.1123  1.3399
21560SOL    HW270643   3.205   5.282   2.931  0.5185  0.3875 -0.0631
21561SOL     OW70644   5.619   7.963   0.714  0.2097 -0.2410 -0.0901
21561SOL    HW170645   5.702   7.967   0.666  0.4235  0.9513  0.3240
21561SOL    HW270646   5.632   8.022   0.788 -1.0099 -0.0362 -0.0217
21562SOL     OW70647   5.098   3.657   1.931 -0.1046 -0.2329 -0.3123
21562SOL    HW170648   5.143   3.580   1.966 -0.0958 -0.4239 -0.7355
21562SOL    HW270649   5.005   3.631   1.929 -0.1892  0.0237  0.2048
21563SOL     OW70650   6.365   9.167   5.599 -0.4024 -0.7345  0.3181
21563SOL    HW170651   6.343   9.186   5.691 -0.6512 -0.3119  0.1736
21563SOL    HW270652   6.443   9.112   5.604  0.9183  1.0913  0.7452
21564SOL     OW70653   8.280   2.399   6.302 -0.3158 -0.0659 -0.1196
21564SOL    HW170654   8.362   2.448   6.298  0.7342 -1.7557 -0.0660
21564SOL    HW270655   8.283   2.354   6.387 -1.7740  0.6203  0.3333
21565SOL     OW70656   2.269   4.937   2.674  0.1366  0.2270  0.4401
21565SOL    HW170657   2.176   4.957   2.663 -0.0423 -0.8363 -0.1899
21565SOL    HW270658   2.271   4.865   2.737  0.5264  0.2971  0.5090
21566SOL     OW70659   6.332   4.944   5.298 -0.3542  0.2332  0.3692
21566SOL    HW170660   6.394   4.959   5.369 -0.6642 -0.8253  0.8790
21566SOL    HW270661   6.254   4.993   5.324  0.2025  1.4437 -0.2003
21567SOL     OW70662   5.644   8.975   8.845  0.0373 -0.7438 -0.0033
21567SOL    HW170663   5.584   8.962   8.919 -0.7013 -2.2656 -0.8248
21567SOL    HW270664   5.636   8.895   8.793  1.6826 -0.3533 -0.9403
21568SOL     OW70665   5.432   9.253   8.264  0.1667 -0.0076 -0.2998
21568SOL    HW170666   5.469   9.242   8.176  1.3531  1.6156 -0.0539
21568SOL    HW270667   5.505   9.283   8.317 -0.6500 -0.5134  1.1562
21569SOL     OW70668   1.458   7.665   7.987 -0.7460  0.1261 -0.1274
21569SOL    HW170669   1.414   7.648   7.904 -1.0716  0.6818 -0.0707
21569SOL    HW270670   1.492   7.754   7.978  0.7047 -0.4208 -0.3165
21570SOL     OW70671   0.500   4.418   7.730  0.5352 -0.8345  0.2734
21570SOL    HW170672   0.426   4.478   7.729  0.8602 -0.4240  0.3160
21570SOL    HW270673   0.473   4.346   7.786  0.9390  0.3167  2.0387
21571SOL     OW70674   3.163   9.246   1.840 -0.0610 -0.0245  0.3631
21571SOL    HW170675   3.099   9.183   1.807 -1.7356  0.5245  2.3373
21571SOL    HW270676   3.218   9.195   1.900 -0.6885  0.1150  1.0779
21572SOL     OW70677   2.595   7.628   6.380 -0.1118  0.0727  0.2734
21572SOL    HW170678   2.634   7.705   6.420 -1.2262  1.5196 -1.2477
21572SOL    HW270679   2.601   7.560   6.447 -0.7573  1.9852  2.4004
21573SOL     OW70680   3.908   5.546   2.175 -0.7795  0.0232 -0.5462
21573SOL    HW170681   3.867   5.468   2.140  0.1724 -0.1762 -1.2511
21573SOL    HW270682   3.947   5.518   2.258  1.3425 -0.8259 -1.7514
21574SOL     OW70683   8.067   6.401   8.352 -0.5308  0.1155 -0.8144
21574SOL    HW170684   8.127   6.439   8.288  0.3447 -0.5593 -0.4176
21574SOL    HW270685   8.080   6.306   8.343  0.0878  0.0166  0.7871
21575SOL     OW70686   5.201   2.615   8.374  0.2575  0.0453 -0.2757
21575SOL    HW170687   5.266   2.549   8.397  0.5645  0.3124 -0.3778
21575SOL    HW270688   5.124   2.592   8.426  1.2296  1.1977  1.8140
21576SOL     OW70689   3.204   2.713   1.865  0.4998 -0.1454  0.0315
21576SOL    HW170690   3.247   2.713   1.951 -0.4371 -1.1129  0.5162
21576SOL    HW270691   3.113   2.737   1.884  0.2102 -0.6761 -0.6435
21577SOL     OW70692   0.886   8.428   4.300  0.8404 -0.6331  0.1202
21577SOL    HW170693   0.898   8.356   4.363  1.3245 -1.1488 -0.5513
21577SOL    HW270694   0.867   8.384   4.217 -1.7745  0.0604  0.2583
21578SOL     OW70695   6.196   2.273   4.626  0.4173 -0.6431 -0.0681
21578SOL    HW170696   6.271   2.321   4.591  1.4807 -1.1373  1.4721
21578SOL    HW270697   6.123   2.335   4.619  1.3597  0.5122  0.1303
21579SOL     OW70698   7.144   3.462   7.833 -0.1773  0.1357 -0.4441
21579SOL    HW170699   7.197   3.415   7.769  1.3777  1.4820 -0.2045
21579SOL    HW270700   7.083   3.514   7.780 -0.3984 -0.4168 -0.7469
21580SOL     OW70701   5.506   5.473   5.433 -0.1166 -0.3842  0.5177
21580SOL    HW170702   5.468   5.472   5.521 -0.4674 -1.2903  0.3667
21580SOL    HW270703   5.469   5.396   5.390  0.6620 -0.3902 -0.1659
21581SOL     OW70704   6.863   9.028   0.881 -0.1610 -0.1183  0.2966
21581SOL    HW170705   6.950   9.019   0.920 -0.0910  1.8582  0.6918
21581SOL    HW270706   6.848   9.122   0.876 -1.1059 -0.3140 -2.4206
21582SOL     OW70707   2.671   5.005   6.998  0.1950 -0.4263 -0.0225
21582SOL    HW170708   2.635   4.991   6.911  0.7609 -2.3028  0.0126
21582SOL    HW270709   2.628   5.085   7.029 -2.6602 -1.6305 -0.6249
21583SOL     OW70710   9.303   5.144   2.568 -0.0014  0.4275  0.4263
21583SOL    HW170711   9.235   5.123   2.632 -0.1926 -0.9788 -0.2030
21583SOL    HW270712   9.283   5.088   2.493 -1.0851  3.5102 -1.7955
21584SOL     OW70713   2.026   4.159   8.448 -0.6723 -0.7984 -0.2227
21584SOL    HW170714   2.065   4.080   8.409  3.3710  0.9542 -0.3009
21584SOL    HW270715   2.003   4.213   8.373  1.5593  0.1326 -0.3318
21585SOL     OW70716   7.376   3.931   5.032 -0.2201  0.4009 -0.3671
21585SOL    HW170717   7.313   4.003   5.028  1.1425  1.6422 -0.6555
21585SOL    HW270718   7.354   3.875   4.958 -0.9109  0.8734 -0.5255
21586SOL     OW70719   6.674   1.779   7.061 -0.4804 -0.1693  0.3022
21586SOL    HW170720   6.735   1.706   7.073 -0.0879  0.0369 -0.3491
21586SOL    HW270721   6.644   1.770   6.970 -1.2111 -0.1086  0.5361
21587SOL     OW70722   5.889   5.540   2.239 -0.4299 -0.0258  0.0670
21587SOL    HW170723   5.810   5.580   2.201 -1.7825 -1.9734  0.6636
21587SOL    HW270724   5.903   5.461   2.187  0.5184 -0.2460  0.6437
21588SOL     OW70725   4.192   6.898   1.848  0.2238 -0.6106 -0.0813
21588SOL    HW170726   4.200   6.957   1.773  0.5777 -0.6587 -0.0802
21588SOL    HW270727   4.217   6.812   1.814  1.1770 -0.4876  0.2904
21589SOL     OW70728   6.414   5.481   7.906 -0.0967  0.5846  0.1683
21589SOL    HW170729   6.352   5.426   7.954 -0.6258  0.1623 -0.9462
21589SOL    HW270730   6.462   5.419   7.850  0.3295  1.0827 -0.0187
21590SOL     OW70731   3.450   1.859   3.644  0.8721 -0.7025  0.2237
21590SOL    HW170732   3.528   1.805   3.660  1.6709  0.9801  2.5638
21590SOL    HW270733   3.482   1.934   3.594  0.7341 -0.0965  1.0285
21591SOL     OW70734   1.307   8.305   5.185 -0.3821 -0.3164  0.1327
21591SOL    HW170735   1.237   8.298   5.250 -0.3362  0.1181  0.2281
21591SOL    HW270736   1.263   8.337   5.106 -0.2050  0.4920  0.3498
21592SOL     OW70737   7.450   3.423   7.998  0.1011  0.1888  0.2272
21592SOL    HW170738   7.464   3.462   7.911  2.1154  1.9995  1.2745
21592SOL    HW270739   7.539   3.407   8.031 -0.6301 -0.2009  2.0755
21593SOL     OW70740   6.862   0.888   4.619  0.1421 -0.8718  0.4016
21593SOL    HW170741   6.847   0.938   4.539  0.7031  1.2133  1.5208
21593SOL    HW270742   6.954   0.904   4.640 -0.1676 -0.7963  1.8119
21594SOL     OW70743   0.178   7.734   4.848 -0.0366 -0.4861  0.3762
21594SOL    HW170744   0.175   7.790   4.771 -0.1897  1.9659  2.0383
21594SOL    HW270745   0.160   7.793   4.921 -0.1081 -2.7261  2.2929
21595SOL     OW70746   4.611   1.225   7.564  0.2209  0.2025  0.2954
21595SOL    HW170747   4.607   1.318   7.545 -0.0005 -0.0538 -0.9706
21595SOL    HW270748   4.588   1.218   7.657 -0.8714  1.3054  0.1233
21596SOL     OW70749   0.882   7.731   5.379  0.0484  0.0333 -0.4382
21596SOL    HW170750   0.797   7.774   5.388  0.7727  1.4682 -0.1510
21596SOL    HW270751   0.869   7.644   5.417 -0.1992  1.7126  3.9476
21597SOL     OW70752   3.180   5.162   1.597 -0.0879 -0.4608 -0.0820
21597SOL    HW170753   3.258   5.162   1.654 -0.1398 -2.4402  0.0473
21597SOL    HW270754   3.111   5.200   1.652  0.2302 -0.9029  0.6440
21598SOL     OW70755   7.649   5.609   9.179 -0.2882  0.2659  0.2720
21598SOL    HW170756   7.671   5.694   9.142 -1.0471 -0.0851 -1.0714
21598SOL    HW270757   7.565   5.587   9.139  0.4749 -1.6538 -0.4013
21599SOL     OW70758   2.782   1.232   6.677  0.1181  0.7167  0.1331
21599SOL    HW170759   2.795   1.267   6.589 -1.3736 -1.9874 -1.2866
21599SOL    HW270760   2.708   1.283   6.711 -0.0629  1.0016 -0.6571
21600SOL     OW70761   1.674   3.444   8.138 -0.2799 -0.7351 -0.1403
21600SOL    HW170762   1.737   3.381   8.172 -1.0056 -1.4105 -0.0130
21600SOL    HW270763   1.697   3.454   8.046  1.9726  1.4391  0.5409
21601SOL     OW70764   6.692   6.013   0.405 -0.1513  0.2940  0.1178
21601SOL    HW170765   6.658   5.924   0.406  0.7230 -0.0526  0.4570
21601SOL    HW270766   6.626   6.064   0.359 -1.4595 -0.1971  1.3890
21602SOL     OW70767   7.062   8.850   5.063  0.3160  1.0167  0.1445
21602SOL    HW170768   7.003   8.859   5.138 -0.4292  0.8777 -0.4204
21602SOL    HW270769   7.138   8.803   5.098 -0.5724 -0.1651  0.5220
21603SOL     OW70770   2.305   5.201   3.949 -0.3081 -0.1120  0.2955
21603SOL    HW170771   2.359   5.138   3.902 -0.1458 -0.2587  0.6700
21603SOL    HW270772   2.256   5.148   4.013 -0.2171  0.1325  0.5714
21604SOL     OW70773   8.506   2.939   8.047 -0.1546  0.4127  0.4143
21604SOL    HW170774   8.532   2.854   8.083  0.6806  0.9890  1.2155
21604SOL    HW270775   8.541   3.003   8.108 -0.6053  1.3562 -0.2813
21605SOL     OW70776   5.983   3.067   4.808 -0.2664 -0.3958 -0.2847
21605SOL    HW170777   5.938   3.036   4.730  0.3358 -1.6066 -0.1827
21605SOL    HW270778   6.076   3.063   4.785 -0.0878 -0.6847  0.4578
21606SOL     OW70779   8.980   6.272   1.688 -0.5348  0.4198  0.6583
21606SOL    HW170780   8.928   6.201   1.650  0.4435  0.4498 -0.8489
21606SOL    HW270781   9.027   6.232   1.761 -0.9908 -0.1461  0.6482
21607SOL     OW70782   5.207   6.513   0.343 -0.1199 -0.1957 -0.0906
21607SOL    HW170783   5.279   6.552   0.393 -0.1885  0.1055 -0.2233
21607SOL    HW270784   5.239   6.511   0.253 -0.2301 -0.1780 -0.1296
21608SOL     OW70785   8.392   3.720   4.128 -0.1883 -0.9517  0.3623
21608SOL    HW170786   8.331   3.647   4.117  0.0711 -1.0763 -0.2898
21608SOL    HW270787   8.469   3.695   4.077 -0.9209  0.6959 -1.7169
21609SOL     OW70788   7.062   3.772   5.592 -0.2761  0.1940  0.7842
21609SOL    HW170789   7.030   3.721   5.517 -1.1533 -0.7433  1.7526
21609SOL    HW270790   7.149   3.803   5.565 -0.2879 -0.6951 -0.3528
21610SOL     OW70791   8.997   6.071   3.780 -0.1711  0.0805 -0.4585
21610SOL    HW170792   9.066   6.018   3.740  0.3136  0.0173  0.4480
21610SOL    HW270793   9.036   6.105   3.860 -0.1041  2.6135 -1.4552
21611SOL     OW70794   5.360   6.857   1.317  0.2973  0.6450 -0.0041
21611SOL    HW170795   5.335   6.945   1.288 -0.4817  0.4137 -0.0380
21611SOL    HW270796   5.315   6.798   1.257 -0.3033  0.1897  0.8833
21612SOL     OW70797   5.199   1.446   1.999 -0.1889 -0.0528 -0.0663
21612SOL    HW170798   5.183   1.540   1.990  2.2271  0.3466 -0.6744
21612SOL    HW270799   5.153   1.406   1.925 -1.3532  0.5995  0.2799
21613SOL     OW70800   7.746   8.336   3.207  0.2387  0.4569  0.0844
21613SOL    HW170801   7.668   8.285   3.184 -1.2976  2.6830  0.0581
21613SOL    HW270802   7.764   8.387   3.128  1.9868 -0.2586 -0.0229
21614SOL     OW70803   6.030   8.609   2.358  0.1106  0.5548 -0.0080
21614SOL    HW170804   6.123   8.626   2.346 -0.2637  1.4561 -2.1873
21614SOL    HW270805   6.026   8.522   2.397  1.8785  1.3869  2.2831
21615SOL     OW70806   7.854   8.320   7.758 -0.3358  0.0153 -0.5313
21615SOL    HW170807   7.762   8.302   7.779  0.4042 -1.9239  1.4420
21615SOL    HW270808   7.851   8.358   7.670 -2.9501 -0.8246 -0.9082
21616SOL     OW70809   1.000   1.095   1.761 -0.3737 -0.7738 -0.1758
21616SOL    HW170810   1.047   1.016   1.736 -0.0441 -0.4702 -0.5311
21616SOL    HW270811   1.068   1.161   1.773 -0.5964 -0.6949  0.7165
21617SOL     OW70812   0.615   7.930   1.670 -0.0872 -0.1373  0.3398
21617SOL    HW170813   0.599   7.908   1.762  0.2504  0.9677  0.6834
21617SOL    HW270814   0.666   8.010   1.673  0.9881 -0.7407 -0.8085
21618SOL     OW70815   4.183   7.666   1.083 -0.4434 -0.1431 -0.7351
21618SOL    HW170816   4.182   7.734   1.016 -0.1544  0.8188  0.2169
21618SOL    HW270817   4.169   7.585   1.035 -0.6879  0.5751 -1.9029
21619SOL     OW70818   9.069   5.297   7.567 -0.4526  0.3751  0.4593
21619SOL    HW170819   9.114   5.379   7.585 -0.3240  0.2559  0.6957
21619SOL    HW270820   8.998   5.320   7.508  0.7866  0.3426 -1.1112
21620SOL     OW70821   6.832   7.512   6.983  0.5485 -0.1795 -0.5533
21620SOL    HW170822   6.764   7.550   7.039  0.0137  1.3359 -2.1515
21620SOL    HW270823   6.844   7.576   6.914  2.1330 -1.4028 -1.4587
21621SOL     OW70824   0.431   8.035   2.833 -0.1644 -0.2395 -0.0852
21621SOL    HW170825   0.363   8.018   2.768 -0.2782 -1.2581  0.2860
21621SOL    HW270826   0.461   7.948   2.860  0.0880  0.1713  1.0115
21622SOL     OW70827   0.519   5.628   0.147 -0.0949 -0.0437 -0.2764
21622SOL    HW170828   0.472   5.592   0.072  0.1992 -0.7112 -0.1462
21622SOL    HW270829   0.450   5.656   0.207 -0.3296  0.1793 -0.6440
21623SOL     OW70830   9.061   5.783   0.680 -0.5750  0.0546 -0.0263
21623SOL    HW170831   9.103   5.791   0.594  0.9175  1.7496  0.7720
21623SOL    HW270832   9.109   5.713   0.723 -1.0183 -0.4818 -0.3848
21624SOL     OW70833   6.186   1.453   2.533  0.2081  0.4035  0.0109
21624SOL    HW170834   6.238   1.386   2.489  0.7175  1.4871 -1.0870
21624SOL    HW270835   6.121   1.480   2.468  1.2754  2.3771 -0.3349
21625SOL     OW70836   0.058   7.156   8.255 -0.3200  0.5971  0.0290
21625SOL    HW170837  -0.032   7.182   8.234 -0.2065  1.2698  0.3408
21625SOL    HW270838   0.090   7.226   8.311  0.8291  1.0020 -1.1086
21626SOL     OW70839   7.079   1.223   1.954  0.3710  0.1838  0.0171
21626SOL    HW170840   7.082   1.318   1.962  0.3658  0.1208  0.9189
21626SOL    HW270841   7.042   1.206   1.868  0.5728  0.9974 -0.2319
21627SOL     OW70842   7.794   0.567   7.284 -0.0959  0.1715  0.6665
21627SOL    HW170843   7.883   0.560   7.320  0.2845 -0.0711 -0.2934
21627SOL    HW270844   7.799   0.522   7.200 -1.3490 -0.5693  0.9653
21628SOL     OW70845   4.866   6.330   1.149  0.5070  0.4615  0.0029
21628SOL    HW170846   4.952   6.295   1.125  1.7640  3.2275 -0.0154
21628SOL    HW270847   4.814   6.323   1.070  1.6601  1.2588 -0.8634
21629SOL     OW70848   6.063   1.322   5.598 -0.4610 -0.2503 -0.0607
21629SOL    HW170849   5.995   1.377   5.639 -0.4674 -0.3549  0.0733
21629SOL    HW270850   6.097   1.375   5.526 -0.2832  0.0364  0.2302
21630SOL     OW70851   8.071   7.480   0.666 -0.7423  0.0057 -0.0813
21630SOL    HW170852   8.103   7.570   0.660  1.8887 -0.7113  1.4656
21630SOL    HW270853   8.017   7.479   0.745 -3.2715  0.7998 -1.6900
21631SOL     OW70854   4.349   6.277   7.934 -0.0188 -0.2282 -0.0482
21631SOL    HW170855   4.442   6.280   7.912  0.3341 -0.8950  1.2629
21631SOL    HW270856   4.344   6.304   8.025 -1.4238  2.3270 -0.7815
21632SOL     OW70857   3.840   2.235   3.899  0.2894 -0.1301 -0.0677
21632SOL    HW170858   3.900   2.301   3.865 -0.6642  1.3081  0.9262
21632SOL    HW270859   3.755   2.258   3.862 -0.3524  0.1741  1.5011
21633SOL     OW70860   0.939   0.850   1.004  0.2436 -0.0371 -0.6039
21633SOL    HW170861   0.917   0.758   0.995 -0.6340  0.0465  0.5510
21633SOL    HW270862   0.868   0.888   1.056  2.2592  0.5749  1.9097
21634SOL     OW70863   5.272   6.879   4.530  0.4850  0.2949 -0.0299
21634SOL    HW170864   5.185   6.910   4.556  0.4982  1.2681 -1.0728
21634SOL    HW270865   5.282   6.796   4.577 -0.3423  0.9339  1.3569
21635SOL     OW70866   3.664   3.859   8.322  0.4428 -0.3895 -0.2511
21635SOL    HW170867   3.607   3.784   8.342 -0.6627  0.7362  0.9968
21635SOL    HW270868   3.676   3.903   8.406  0.6843  1.1177 -1.0387
21636SOL     OW70869   5.552   4.263   4.462 -0.4186  0.2024 -0.5270
21636SOL    HW170870   5.540   4.209   4.540  0.8253  0.7911  0.0937
21636SOL    HW270871   5.505   4.343   4.480 -1.1178 -0.1195 -0.8833
21637SOL     OW70872   9.082   5.715   4.757  0.1939 -0.4163 -0.8903
21637SOL    HW170873   9.103   5.688   4.847 -2.1194 -0.5953 -0.3398
21637SOL    HW270874   9.096   5.636   4.705  0.0352 -0.7654 -0.4172
21638SOL     OW70875   3.623   9.173   5.921  0.3543 -0.0971  0.3238
21638SOL    HW170876   3.632   9.258   5.964 -0.8338 -0.6736  1.7952
21638SOL    HW270877   3.699   9.168   5.862  0.3942  1.9975  0.1167
21639SOL     OW70878   8.773   5.649   5.468  0.0527  0.6777 -0.2551
21639SOL    HW170879   8.715   5.722   5.490 -0.9466 -0.3664  0.7358
21639SOL    HW270880   8.766   5.589   5.543 -0.6668 -1.3338 -1.8245
21640SOL     OW70881   6.412   3.827   0.954  0.0782 -0.0582 -0.0144
21640SOL    HW170882   6.503   3.829   0.983 -0.2956 -1.2000  1.3359
21640SOL    HW270883   6.372   3.754   1.002 -1.6863  0.7187 -0.1981
21641SOL     OW70884   7.009   5.542   3.832  0.1052  0.3004 -0.3092
21641SOL    HW170885   6.974   5.478   3.894  0.0387 -0.1493 -0.8075
21641SOL    HW270886   7.102   5.549   3.853  0.0844  0.1406 -0.1683
21642SOL     OW70887   0.571   2.292   5.077  0.3001 -0.2028 -0.2995
21642SOL    HW170888   0.512   2.313   5.004 -3.5060  0.1294  2.5386
21642SOL    HW270889   0.605   2.377   5.106 -2.4348  0.4374  1.3973
21643SOL     OW70890   4.787   2.488   4.747 -0.5971 -0.4647 -0.3227
21643SOL    HW170891   4.874   2.528   4.744 -1.4091  1.3358 -1.2097
21643SOL    HW270892   4.773   2.466   4.839 -0.3344  1.8613  0.3130
21644SOL     OW70893   2.062   7.706   3.593  0.0379  0.3740 -0.0145
21644SOL    HW170894   2.097   7.647   3.659  0.4496 -0.2991 -0.8070
21644SOL    HW270895   2.076   7.660   3.510 -2.0293  0.4349 -0.4483
21645SOL     OW70896   0.174   5.894   4.953  0.3337  0.1049 -0.4328
21645SOL    HW170897   0.144   5.885   4.863 -1.7150 -0.5957  0.2531
21645SOL    HW270898   0.256   5.845   4.956 -0.9060 -2.1750 -1.3377
21646SOL     OW70899   6.214   6.862   1.648 -0.2731 -0.1179  0.9456
21646SOL    HW170900   6.273   6.874   1.722 -1.0858 -0.7950  1.7239
21646SOL    HW270901   6.131   6.902   1.676 -0.2219  0.8169 -0.1259
21647SOL     OW70902   8.630   7.188   7.685 -0.3899 -0.3520 -0.0896
21647SOL    HW170903   8.641   7.265   7.742 -0.5089 -0.0370 -0.4862
21647SOL    HW270904   8.625   7.225   7.596 -1.5711 -0.7278 -0.1911
21648SOL     OW70905   2.126   0.037   6.762 -0.6051  0.2221 -0.7673
21648SOL    HW170906   2.169   0.048   6.677  1.6911 -0.8341  0.1676
21648SOL    HW270907   2.193   0.061   6.826 -2.0209  0.2310  0.7910
21649SOL     OW70908   2.772   1.702   0.702  0.3591 -0.0270  0.0603
21649SOL    HW170909   2.845   1.748   0.660 -0.3557  0.1262 -1.0619
21649SOL    HW270910   2.808   1.671   0.786  1.8481 -0.3576 -0.6552
21650SOL     OW70911   0.358   1.563   8.171 -0.5059  0.6480 -0.0196
21650SOL    HW170912   0.385   1.632   8.109 -0.1197 -0.1930 -0.8128
21650SOL    HW270913   0.415   1.574   8.246 -0.6055  1.3412 -0.0381
21651SOL     OW70914   6.311   5.362   0.829 -0.6372 -0.7724 -0.7002
21651SOL    HW170915   6.264   5.293   0.876  0.8035 -1.3561 -0.0593
21651SOL    HW270916   6.403   5.348   0.852 -0.2514  1.0245 -1.0149
21652SOL     OW70917   1.452   0.864   1.353  0.4922  0.7158  0.1393
21652SOL    HW170918   1.454   0.947   1.306 -1.0254  0.7149  0.0219
21652SOL    HW270919   1.469   0.798   1.285 -1.8492  0.7024 -0.5102
21653SOL     OW70920   2.026   8.641   8.880 -0.2157  0.1242  0.0536
21653SOL    HW170921   1.941   8.684   8.891  0.8738  2.2133  0.9946
21653SOL    HW270922   2.079   8.707   8.834  0.5670 -1.6360 -1.6974
21654SOL     OW70923   4.739   7.376   4.486 -0.5005 -0.0392 -0.3475
21654SOL    HW170924   4.757   7.366   4.580 -0.7504  0.9552 -0.1822
21654SOL    HW270925   4.812   7.331   4.443 -0.5484 -0.7809  0.3193
21655SOL     OW70926   1.620   5.221   7.790 -0.3571 -0.5420 -0.2243
21655SOL    HW170927   1.643   5.275   7.866  0.4419  0.4449 -1.1347
21655SOL    HW270928   1.639   5.131   7.818 -0.4483 -0.2367  0.8710
21656SOL     OW70929   1.489   2.095   0.830  0.3809  0.0524 -0.4199
21656SOL    HW170930   1.482   2.190   0.839 -0.4405  0.0015 -0.4079
21656SOL    HW270931   1.399   2.064   0.841  0.3098 -0.5563 -2.4202
21657SOL     OW70932   4.334   3.872   7.718 -0.7836  0.3483  0.0586
21657SOL    HW170933   4.247   3.846   7.748 -0.5222 -0.5300  0.0893
21657SOL    HW270934   4.318   3.932   7.646 -1.4400 -0.9498 -0.9110
21658SOL     OW70935   4.775   6.093   8.774 -0.2348  0.1377  0.6392
21658SOL    HW170936   4.819   6.140   8.703  2.4454 -2.0621  0.6540
21658SOL    HW270937   4.779   6.153   8.848  0.6170  0.9431 -0.0277
21659SOL     OW70938   2.821   9.245   8.476  0.0515  0.1271  0.6072
21659SOL    HW170939   2.801   9.338   8.484 -0.2785  0.0742  0.4368
21659SOL    HW270940   2.776   9.204   8.550 -0.2306  0.0418  0.3885
21660SOL     OW70941   8.036   4.238   8.867  0.5089  0.3989  0.0643
21660SOL    HW170942   7.993   4.317   8.899  1.8492  1.1116  0.1327
21660SOL    HW270943   8.125   4.244   8.899  1.3861  0.1839 -2.1709
21661SOL     OW70944   1.418   0.219   7.323  0.2275 -0.1240  0.0156
21661SOL    HW170945   1.441   0.151   7.386  0.6558 -0.3479 -0.3791
21661SOL    HW270946   1.486   0.286   7.333 -0.4301  0.4621  0.7079
21662SOL     OW70947   6.888   7.477   1.760  0.1637 -0.0017 -0.2861
21662SOL    HW170948   6.849   7.390   1.764  1.2871 -0.8629 -4.2289
21662SOL    HW270949   6.983   7.461   1.759  0.5591  1.5887  2.1188
21663SOL     OW70950   5.453   5.862   5.781  0.2465 -0.1622 -0.4681
21663SOL    HW170951   5.376   5.906   5.746 -0.1336 -0.0960  0.4072
21663SOL    HW270952   5.418   5.806   5.851  0.9815 -0.1855 -0.1058
21664SOL     OW70953   5.011   2.652   0.918  0.1800 -0.7061  0.0275
21664SOL    HW170954   5.104   2.663   0.940 -0.3268  1.2308  1.5049
21664SOL    HW270955   4.997   2.712   0.845 -0.3051  0.6859  1.1990
21665SOL     OW70956   8.716   4.533   3.877  0.5443  0.5557 -0.1391
21665SOL    HW170957   8.724   4.438   3.866  0.4685  0.7305 -1.9828
21665SOL    HW270958   8.770   4.570   3.808 -0.7096  1.8306 -0.4928
21666SOL     OW70959   0.290   5.021   6.786  0.6287 -0.4676 -0.0888
21666SOL    HW170960   0.279   5.053   6.696 -0.8852  0.6588  0.4643
21666SOL    HW270961   0.215   5.056   6.834  2.2109  0.2938  1.9949
21667SOL     OW70962   3.332   1.687   7.159 -0.4361  0.2862  0.3195
21667SOL    HW170963   3.291   1.761   7.204 -2.1626 -0.2655 -0.2483
21667SOL    HW270964   3.334   1.617   7.224  0.9246  0.7205  0.7669
21668SOL     OW70965   3.258   4.507   5.768  0.1264 -0.1621 -0.1202
21668SOL    HW170966   3.236   4.489   5.677 -1.9155  0.9322  0.1128
21668SOL    HW270967   3.212   4.589   5.789 -0.3153 -0.9198  2.1842
21669SOL     OW70968   7.527   5.305   6.097 -0.3254  0.0559 -0.2187
21669SOL    HW170969   7.507   5.377   6.037 -1.4039 -0.4224 -0.4530
21669SOL    HW270970   7.605   5.334   6.144  0.6741  0.3746 -1.9711
21670SOL     OW70971   6.525   2.459   6.578  0.2855 -0.3481  0.0228
21670SOL    HW170972   6.482   2.388   6.627 -0.3310 -0.4163 -0.5972
21670SOL    HW270973   6.461   2.484   6.511  0.8462  0.2022 -0.3190
21671SOL     OW70974   6.226   1.655   5.637 -0.0707 -0.0612 -0.2501
21671SOL    HW170975   6.263   1.666   5.725  0.8966 -0.6284 -0.5761
21671SOL    HW270976   6.216   1.744   5.604  0.7392  0.1073 -0.0435
21672SOL     OW70977   6.546   1.943   8.908  0.4681  0.7730 -0.3326
21672SOL    HW170978   6.611   1.958   8.976  0.9755  2.1502 -1.0670
21672SOL    HW270979   6.497   2.026   8.902 -0.0407  0.4373 -1.1353
21673SOL     OW70980   7.616   9.025   4.907 -0.2262 -0.3765 -0.1242
21673SOL    HW170981   7.700   8.984   4.930  1.0425  0.4126 -2.9711
21673SOL    HW270982   7.622   9.113   4.944  1.1641  0.3789 -1.9571
21674SOL     OW70983   8.660   4.415   2.152 -0.3517  0.7535 -0.0363
21674SOL    HW170984   8.611   4.355   2.095 -1.5304  0.0623  1.6472
21674SOL    HW270985   8.734   4.363   2.184 -1.2423  0.2239  1.2349
21675SOL     OW70986   0.216   3.177   6.325 -0.5441 -0.0898 -0.7005
21675SOL    HW170987   0.260   3.257   6.355 -2.4571  1.2521 -1.3030
21675SOL    HW270988   0.175   3.202   6.242 -1.2831 -1.6776 -0.8555
21676SOL     OW70989   4.075   1.941   2.012 -0.1092 -0.3751 -0.3526
21676SOL    HW170990   4.082   2.029   1.973 -0.5738 -0.9971 -1.9324
21676SOL    HW270991   4.028   1.890   1.946  2.6124 -2.5554 -0.8084
21677SOL     OW70992   2.891   4.703   1.365  0.4327  0.1778  0.1309
21677SOL    HW170993   2.839   4.693   1.285  1.4020  0.4068 -0.5438
21677SOL    HW270994   2.845   4.770   1.415  0.7549  1.3144 -1.0398
21678SOL     OW70995   3.774   2.687   3.832 -0.0447  0.2609  0.3373
21678SOL    HW170996   3.708   2.672   3.765  0.3152 -0.9559  0.2251
21678SOL    HW270997   3.754   2.774   3.866 -0.5688  0.6848 -0.9606
21679SOL     OW70998   3.555   5.279   0.118 -0.2014  0.2628 -0.1590
21679SOL    HW170999   3.606   5.360   0.125 -0.6779  0.8439 -2.4041
21679SOL    HW271000   3.619   5.209   0.130  0.6416  0.9845 -0.3392
21680SOL     OW71001   9.298   0.889   3.107 -0.1232 -0.4652 -0.4443
21680SOL    HW171002   9.286   0.887   3.012 -0.6135  2.5936 -0.5552
21680SOL    HW271003   9.210   0.905   3.142  0.2879  0.0518  0.3904
21681SOL     OW71004   6.085   4.740   2.808  0.0385  0.4410  0.5955
21681SOL    HW171005   6.161   4.797   2.820  0.5762  0.9310 -3.6027
21681SOL    HW271006   6.106   4.661   2.859  2.7175  1.1114  0.6817
21682SOL     OW71007   1.008   3.041   7.958  0.3668 -0.1226  0.1603
21682SOL    HW171008   0.960   3.087   8.026 -0.3033 -1.6738  0.7850
21682SOL    HW271009   0.957   3.055   7.878  0.0907  0.0778  0.3696
21683SOL     OW71010   8.046   8.786   6.293 -0.9008  0.8104  0.0748
21683SOL    HW171011   8.119   8.727   6.312  0.2216  2.2981  0.5819
21683SOL    HW271012   8.032   8.834   6.374 -0.9752  2.0894 -0.6760
21684SOL     OW71013   0.467   2.223   7.475 -0.2468 -0.5906 -0.0959
21684SOL    HW171014   0.543   2.211   7.531 -0.2644  1.0694  0.3650
21684SOL    HW271015   0.497   2.202   7.387  0.6214 -0.4157  0.1541
21685SOL     OW71016   7.599   8.611   9.102  0.2879 -0.1268  0.1983
21685SOL    HW171017   7.669   8.560   9.060  1.9435 -0.6821  3.3136
21685SOL    HW271018   7.569   8.555   9.174 -3.5014  0.1016 -0.9746
21686SOL     OW71019   2.437   4.958   2.070 -0.4018  0.3692 -0.1874
21686SOL    HW171020   2.422   4.866   2.094 -0.7169  0.6026  0.5387
21686SOL    HW271021   2.462   5.000   2.152 -2.0208  1.2929 -0.1183
21687SOL     OW71022   6.225   8.516   3.264  0.1390  0.3384  0.0934
21687SOL    HW171023   6.141   8.498   3.304 -0.1948  0.7132 -0.4278
21687SOL    HW271024   6.220   8.475   3.177  0.0749  1.2816 -0.3619
21688SOL     OW71025   8.778   2.803   4.974 -0.1447  0.4788  0.0718
21688SOL    HW171026   8.784   2.845   4.889  0.5813  0.3061  0.0315
21688SOL    HW271027   8.768   2.876   5.036 -1.7167  0.5575 -0.2316
21689SOL     OW71028   3.281   2.543   0.053  0.4680 -0.1087  0.1719
21689SOL    HW171029   3.317   2.483  -0.011  0.0056 -0.5358  0.3102
21689SOL    HW271030   3.187   2.525   0.054  0.5445 -0.5970  1.4572
21690SOL     OW71031   4.004   3.979   1.133  0.2657  0.2795 -0.1152
21690SOL    HW171032   4.041   4.021   1.211  1.4157  1.0958 -1.0738
21690SOL    HW271033   3.910   3.974   1.152  0.8075 -2.2665  2.5729
21691SOL     OW71034   6.705   3.859   1.109  0.4128  0.1153 -0.1613
21691SOL    HW171035   6.746   3.937   1.073 -2.1247  1.0849 -1.1827
21691SOL    HW271036   6.748   3.786   1.064 -0.0284  1.1454 -2.4007
21692SOL     OW71037   5.846   5.250   6.785  0.3467 -0.6847 -0.7241
21692SOL    HW171038   5.790   5.318   6.747  0.1295 -0.5405 -0.1514
21692SOL    HW271039   5.923   5.296   6.817 -0.3607 -0.5121  0.8026
21693SOL     OW71040   0.760   2.300   8.005 -0.5386  0.0832 -0.4215
21693SOL    HW171041   0.834   2.261   7.958  0.7238 -1.0997  2.2850
21693SOL    HW271042   0.786   2.391   8.019 -0.2819  0.0735 -0.8320
21694SOL     OW71043   6.171   7.916   2.464 -0.7437 -0.2098 -0.3242
21694SOL    HW171044   6.181   7.999   2.511 -0.2136 -0.7651  0.5695
21694SOL    HW271045   6.200   7.850   2.526 -0.8093 -1.0405 -1.1617
21695SOL     OW71046   2.663   5.266   5.727  0.1157  0.3219 -0.2857
21695SOL    HW171047   2.683   5.173   5.726  0.7377  0.4487 -0.1949
21695SOL    HW271048   2.646   5.288   5.635 -2.1284 -0.2947 -0.0781
21696SOL     OW71049   1.185   3.755   4.846 -0.2369  0.0274 -0.3108
21696SOL    HW171050   1.203   3.752   4.940  1.6253  0.3227 -0.6153
21696SOL    HW271051   1.130   3.832   4.835 -0.0430  0.2980  0.4949
21697SOL     OW71052   7.485   2.041   9.244  0.1501  0.4321 -0.3418
21697SOL    HW171053   7.566   2.076   9.282  0.8647  1.0713 -2.3513
21697SOL    HW271054   7.514   1.974   9.182 -1.1417 -3.4035  2.7987
21698SOL     OW71055   8.566   9.000   3.331 -0.5122 -0.7269 -0.8903
21698SOL    HW171056   8.534   8.975   3.418  0.5119 -0.3537 -0.3771
21698SOL    HW271057   8.491   9.039   3.288 -0.9829 -0.7070 -0.0783
21699SOL     OW71058   6.101   6.035   6.821  0.5060  0.0189  0.2442
21699SOL    HW171059   6.011   6.068   6.816  1.5904  3.2561 -0.7666
21699SOL    HW271060   6.125   6.042   6.913  0.1373  0.4032  0.3116
21700SOL     OW71061   5.230   7.006   5.424  0.1492  0.0288 -0.4031
21700SOL    HW171062   5.205   6.921   5.461  4.1218 -0.5844  1.4313
21700SOL    HW271063   5.281   6.984   5.346  2.5345  0.4907  0.9309
21701SOL     OW71064   3.103   7.731   8.067  0.0494 -0.6403 -0.2407
21701SOL    HW171065   3.191   7.754   8.039  0.0670  0.8166  0.8863
21701SOL    HW271066   3.086   7.787   8.143 -1.9987 -0.5636 -0.6866
21702SOL     OW71067   8.182   1.845   1.185 -0.2472 -0.6001 -0.0172
21702SOL    HW171068   8.187   1.902   1.262 -0.7653  1.5486 -1.4828
21702SOL    HW271069   8.110   1.881   1.133  0.2773 -1.7911 -1.6459
21703SOL     OW71070   0.720   8.874   0.625  0.2068  0.3927  0.5946
21703SOL    HW171071   0.682   8.931   0.559  0.6282  0.5572  0.4895
21703SOL    HW271072   0.789   8.827   0.578 -0.9914 -1.1891  0.3324
21704SOL     OW71073   1.340   7.734   1.359 -0.0202 -0.8728 -0.2283
21704SOL    HW171074   1.346   7.828   1.372  0.6979 -1.2281  2.8433
21704SOL    HW271075   1.247   7.714   1.367 -0.1400 -0.4729 -0.6053
21705SOL     OW71076   1.331   4.682   7.391 -0.3545  0.2958  0.0698
21705SOL    HW171077   1.378   4.748   7.339  0.3655  0.6404  1.1381
21705SOL    HW271078   1.398   4.618   7.415 -0.8009 -0.1626  0.1139
21706SOL     OW71079   2.280   7.819   4.183 -0.0513 -0.4542 -0.7653
21706SOL    HW171080   2.228   7.786   4.110  0.2313 -0.2047 -1.0849
21706SOL    HW271081   2.362   7.849   4.143 -0.7233  1.7153 -0.6823
21707SOL     OW71082   0.720   6.645   8.100  0.8622  0.7153 -0.2014
21707SOL    HW171083   0.628   6.674   8.097  1.2032  1.8688 -0.2104
21707SOL    HW271084   0.768   6.723   8.129  1.7954  0.0013  0.2140
21708SOL     OW71085   8.044   6.673   2.453 -0.4292  0.1646  0.9173
21708SOL    HW171086   8.005   6.593   2.489 -0.0189 -0.6273 -0.3426
21708SOL    HW271087   7.968   6.726   2.427 -0.7978  1.2241  3.7280
21709SOL     OW71088   6.181   6.027   4.845 -0.3729  0.2575  0.0343
21709SOL    HW171089   6.086   6.031   4.833 -0.3456  1.2937  0.0617
21709SOL    HW271090   6.217   6.061   4.763 -0.0126 -0.2819 -0.0390
21710SOL     OW71091   1.931   7.725   3.183  0.3880  0.1394 -0.0819
21710SOL    HW171092   1.835   7.735   3.180  0.3413 -0.1170  0.5114
21710SOL    HW271093   1.964   7.815   3.185  0.1327  0.2265  0.3936
21711SOL     OW71094   5.765   4.127   8.307  0.0386 -0.5084  1.0287
21711SOL    HW171095   5.789   4.172   8.226  0.4272 -2.2401  0.1573
21711SOL    HW271096   5.682   4.085   8.287 -0.0367 -0.6614  1.6557
21712SOL     OW71097   1.089   3.646   4.595  0.0612 -0.2516 -0.4022
21712SOL    HW171098   1.011   3.702   4.597 -0.9665 -1.6419  0.5496
21712SOL    HW271099   1.141   3.674   4.671 -1.9805 -2.5359  2.0571
21713SOL     OW71100   5.938   4.644   0.588 -0.0089 -0.4959  0.5834
21713SOL    HW171101   5.979   4.586   0.523  0.0707 -0.7411  0.8479
21713SOL    HW271102   6.005   4.709   0.607 -0.4528  0.2974 -0.4687
21714SOL     OW71103   2.670   1.188   1.460 -0.0060 -0.2674 -0.1174
21714SOL    HW171104   2.720   1.108   1.475 -0.3952 -0.6364 -0.7275
21714SOL    HW271105   2.582   1.157   1.437 -0.0093  0.3053 -0.9309
21715SOL     OW71106   8.617   5.232   5.980  0.0947 -0.1149 -0.0196
21715SOL    HW171107   8.596   5.322   6.005 -0.1004  0.1171 -1.0073
21715SOL    HW271108   8.713   5.230   5.978  0.1036  0.4913 -1.4313
21716SOL     OW71109   0.874   5.918   2.715  0.5906  0.4089 -0.8629
21716SOL    HW171110   0.856   5.852   2.649 -0.3147  0.7486 -0.9747
21716SOL    HW271111   0.788   5.952   2.740  1.0392  1.8167 -1.0978
21717SOL     OW71112   7.120   8.110   3.263  0.1926  0.0925  0.5244
21717SOL    HW171113   7.173   8.131   3.186  0.7038 -1.9371  0.2609
21717SOL    HW271114   7.183   8.076   3.327 -0.7216 -2.7501  0.0600
21718SOL     OW71115   3.268   7.621   0.623  0.3909  1.0502  0.0099
21718SOL    HW171116   3.316   7.689   0.670  0.7122  0.2263  0.9057
21718SOL    HW271117   3.214   7.579   0.690  0.4944  0.1654 -0.4476
21719SOL     OW71118   5.663   6.371   7.195 -0.3470 -0.2516 -0.1697
21719SOL    HW171119   5.721   6.447   7.207  0.2022 -0.6927  0.0143
21719SOL    HW271120   5.583   6.408   7.157 -0.4217  0.5424  0.7168
21720SOL     OW71121   3.022   3.574   1.602 -0.1268 -0.3753 -0.3610
21720SOL    HW171122   2.993   3.487   1.630  0.6588 -0.4243  0.3568
21720SOL    HW271123   3.014   3.573   1.507  1.7392 -1.9679 -0.5631
21721SOL     OW71124   0.324   3.961   3.636  0.2517  0.3333 -0.0580
21721SOL    HW171125   0.378   3.887   3.607  1.5898  1.3070 -0.1509
21721SOL    HW271126   0.263   3.976   3.564 -3.1734 -3.4319  1.6463
21722SOL     OW71127   6.544   4.944   6.374  0.1623  0.2562 -0.6709
21722SOL    HW171128   6.491   5.008   6.326 -3.5346 -1.5617  0.6304
21722SOL    HW271129   6.566   4.878   6.309 -0.7440  0.1409 -0.8690
21723SOL     OW71130   0.230   4.255   5.772  0.4522 -0.4287 -0.0139
21723SOL    HW171131   0.250   4.196   5.699 -0.0609 -0.7586  0.1057
21723SOL    HW271132   0.275   4.337   5.750  1.4065 -0.9409 -0.0528
21724SOL     OW71133   0.107   7.149   5.637  0.2715  0.1479  0.1103
21724SOL    HW171134   0.036   7.165   5.699 -0.0637 -0.1882 -0.1833
21724SOL    HW271135   0.165   7.088   5.681  3.0869  4.1055  2.4445
21725SOL     OW71136   5.194   3.951   0.028 -0.3972 -0.5726 -0.2822
21725SOL    HW171137   5.148   4.034   0.016 -0.3504 -0.0119  2.6158
21725SOL    HW271138   5.126   3.884   0.020 -0.4111 -0.3574 -2.7764
21726SOL     OW71139   2.535   5.569   4.344  0.3712 -0.2200 -0.9260
21726SOL    HW171140   2.615   5.567   4.293  0.7411  0.0280 -0.3684
21726SOL    HW271141   2.521   5.478   4.371  1.1784 -0.0754  0.0461
21727SOL     OW71142   9.320   5.021   4.040 -0.0754  0.0139  0.1183
21727SOL    HW171143   9.298   5.071   3.961  0.8200  0.8617  0.3867
21727SOL    HW271144   9.288   5.074   4.112 -1.7825 -1.2205  0.3322
21728SOL     OW71145   1.189   8.006   4.287  0.6513  0.4148  0.4592
21728SOL    HW171146   1.100   7.998   4.322  0.9892  0.4279  1.3629
21728SOL    HW271147   1.182   8.074   4.220 -0.6358 -1.7191 -1.7526
21729SOL     OW71148   8.081   4.328   6.264 -0.1443 -0.1913 -0.0582
21729SOL    HW171149   8.128   4.268   6.321 -0.8798 -0.5418  0.1861
21729SOL    HW271150   8.074   4.409   6.315 -0.7473 -0.4841  0.3315
21730SOL     OW71151   0.984   1.445   0.361 -0.1697 -0.0905  0.0135
21730SOL    HW171152   0.923   1.508   0.398  1.6499  0.2328  2.8080
21730SOL    HW271153   1.063   1.496   0.341  0.2972 -0.9887 -0.5724
21731SOL     OW71154   2.649   8.447   4.028 -0.0572 -0.5611 -0.0675
21731SOL    HW171155   2.742   8.425   4.034 -0.1658 -0.7273  1.4924
21731SOL    HW271156   2.605   8.376   4.075 -0.9427 -0.2995 -0.4876
21732SOL     OW71157   4.572   3.892   5.379  0.2460  0.1850 -0.3019
21732SOL    HW171158   4.521   3.973   5.385 -0.9498 -0.5326 -0.4843
21732SOL    HW271159   4.651   3.910   5.431  0.9744  2.1478 -1.9527
21733SOL     OW71160   2.334   4.581   8.088 -0.4646 -0.0299 -0.1748
21733SOL    HW171161   2.349   4.676   8.087  1.6050 -0.3056  0.2698
21733SOL    HW271162   2.332   4.558   8.181  2.2656 -0.7869 -0.1983
21734SOL     OW71163   1.054   6.453   7.399 -0.0880 -0.2087 -0.1913
21734SOL    HW171164   0.983   6.493   7.449  1.3008  2.6065 -0.2571
21734SOL    HW271165   1.035   6.476   7.308  1.2095  1.2661 -0.1421
21735SOL     OW71166   4.580   1.423   4.465 -0.3444  0.6184 -0.3018
21735SOL    HW171167   4.500   1.438   4.516 -0.0526  2.1447 -0.2384
21735SOL    HW271168   4.549   1.391   4.380 -0.8504 -1.6247  0.6597
21736SOL     OW71169   5.616   0.983   1.578  0.3243  0.1681  0.3169
21736SOL    HW171170   5.642   1.031   1.657 -0.5406 -0.0568  0.7562
21736SOL    HW271171   5.533   0.941   1.602  0.3094 -0.3231 -0.5488
21737SOL     OW71172   1.219   2.977   7.208 -0.0955  0.0076  0.6904
21737SOL    HW171173   1.289   2.922   7.172  0.2860  1.1927 -0.4897
21737SOL    HW271174   1.251   3.004   7.294  0.7476  0.2292  0.3167
21738SOL     OW71175   6.244   2.581   5.508 -0.0899  0.0692 -0.2781
21738SOL    HW171176   6.201   2.591   5.593  0.3158  0.1237 -0.0800
21738SOL    HW271177   6.286   2.666   5.491  0.3317 -0.1326 -0.2564
21739SOL     OW71178   8.684   1.844   6.775  0.3045 -0.0626 -0.8505
21739SOL    HW171179   8.723   1.822   6.860 -0.7582 -0.1950 -0.3754
21739SOL    HW271180   8.710   1.934   6.759  1.5371 -0.4148 -0.9901
21740SOL     OW71181   3.572   9.276   0.271  0.2977 -0.2000 -0.8185
21740SOL    HW171182   3.493   9.254   0.223  0.0579 -1.3735  0.0603
21740SOL    HW271183   3.643   9.238   0.220  0.2059 -0.0323 -1.0754
21741SOL     OW71184   0.371   7.678   7.386 -0.3106 -0.2765  0.0039
21741SOL    HW171185   0.405   7.696   7.473  0.2178  0.8834 -0.4307
21741SOL    HW271186   0.401   7.751   7.332 -1.6000 -0.3738 -0.8941
21742SOL     OW71187   8.361   0.882   0.832 -0.6874 -0.4869  0.4443
21742SOL    HW171188   8.345   0.961   0.781 -1.1817 -0.6519  0.3359
21742SOL    HW271189   8.332   0.905   0.921  0.7655  0.0117  0.8190
21743SOL     OW71190   2.489   1.976   5.608  0.4051  0.0213  0.2192
21743SOL    HW171191   2.544   1.922   5.552 -1.0202 -1.3863  0.1103
21743SOL    HW271192   2.550   2.015   5.671  1.9695  1.2379 -1.9451
21744SOL     OW71193   1.393   4.936   0.231  0.0224  0.6741  0.1331
21744SOL    HW171194   1.409   5.021   0.272 -0.8769  1.7006 -1.4834
21744SOL    HW271195   1.352   4.883   0.299  2.5265  0.7663  1.8149
21745SOL     OW71196   4.843   5.376   7.424 -0.3726  0.0559  0.1536
21745SOL    HW171197   4.869   5.467   7.409 -2.0991  0.4231 -0.8584
21745SOL    HW271198   4.827   5.370   7.518  1.7618  0.1962  0.5859
21746SOL     OW71199   8.132   6.048   2.665  0.0488  0.8367 -0.6667
21746SOL    HW171200   8.069   6.029   2.595 -0.4546 -2.8369  0.5884
21746SOL    HW271201   8.080   6.093   2.732 -0.5503  0.4279 -0.8501
21747SOL     OW71202   8.908   4.142   1.918  0.5056 -0.4228  0.2483
21747SOL    HW171203   8.865   4.065   1.955  1.7092 -0.2373  2.1142
21747SOL    HW271204   8.860   4.159   1.836 -2.0484 -1.0482  1.5158
21748SOL     OW71205   0.718   1.825   9.180  0.0276 -0.1560  0.4183
21748SOL    HW171206   0.716   1.894   9.247 -2.0658 -0.3907  0.6383
21748SOL    HW271207   0.627   1.801   9.166  0.3056  0.1926 -2.8749
21749SOL     OW71208   2.525   4.371   7.959 -0.2089  0.5596 -0.8787
21749SOL    HW171209   2.496   4.432   8.028 -0.8875  0.0209 -0.6758
21749SOL    HW271210   2.614   4.400   7.938  0.0960  0.5990  0.3801
21750SOL     OW71211   7.997   3.825   2.461  0.2961  0.1134  0.0608
21750SOL    HW171212   7.986   3.739   2.503 -0.7997  0.8996  1.4409
21750SOL    HW271213   7.925   3.831   2.398 -1.1289  0.9727  1.6927
21751SOL     OW71214   6.337   3.449   3.040  0.2136  0.2437  0.5141
21751SOL    HW171215   6.276   3.425   2.970 -0.6087 -0.9947  1.5979
21751SOL    HW271216   6.424   3.430   3.004 -0.2111 -0.7032 -0.0581
21752SOL     OW71217   5.868   3.246   7.702  0.1821  0.2057  0.2958
21752SOL    HW171218   5.795   3.307   7.690 -2.1668 -2.5171 -0.3261
21752SOL    HW271219   5.859   3.216   7.793  1.6807  1.1610  0.7861
21753SOL     OW71220   6.587   7.071   4.328 -0.0361  0.1733 -0.1141
21753SOL    HW171221   6.530   6.995   4.335 -1.3414  1.0431 -0.9778
21753SOL    HW271222   6.567   7.124   4.405 -0.7092  0.6628 -0.6103
21754SOL     OW71223   4.146   6.499   0.099  0.3503 -0.4234  0.4108
21754SOL    HW171224   4.090   6.576   0.097  0.7371 -0.1442 -0.3593
21754SOL    HW271225   4.232   6.532   0.070  0.8379 -0.8972  1.2840
21755SOL     OW71226   7.534   4.882   0.999  0.1670  0.5844 -0.0259
21755SOL    HW171227   7.593   4.840   0.937  1.5004 -2.2041  2.8637
21755SOL    HW271228   7.590   4.943   1.047  0.0289  0.1246  0.7351
21756SOL     OW71229   1.088   5.068   0.414 -0.3043  0.4410 -0.1954
21756SOL    HW171230   1.093   4.973   0.421 -2.0114  0.3910  1.1046
21756SOL    HW271231   1.109   5.087   0.323 -0.5548 -1.2244 -0.6300
21757SOL     OW71232   9.249   3.719   6.823 -0.7071 -0.1212  0.0075
21757SOL    HW171233   9.233   3.710   6.729  0.1530 -3.0609  0.0498
21757SOL    HW271234   9.190   3.655   6.864 -1.1483  1.1881  1.5131
21758SOL     OW71235   7.262   7.858   5.755  0.0082 -0.1396 -0.1594
21758SOL    HW171236   7.179   7.813   5.769  1.2432 -1.7877  2.6566
21758SOL    HW271237   7.239   7.951   5.751 -1.9000 -0.4901  1.3411
21759SOL     OW71238   2.294   4.092   6.702  0.1475  0.8289 -0.3190
21759SOL    HW171239   2.232   4.119   6.635 -0.4818 -0.4923 -0.3009
21759SOL    HW271240   2.240   4.055   6.772  0.9127  0.0969 -0.0973
21760SOL     OW71241   0.549   3.247   6.217  0.2438 -0.6975 -0.3154
21760SOL    HW171242   0.520   3.308   6.285  0.8716 -0.4938 -0.2281
21760SOL    HW271243   0.488   3.260   6.145  0.4201  0.0956 -0.3285
21761SOL     OW71244   8.057   5.643   6.919  0.2154  0.0065 -0.1462
21761SOL    HW171245   8.052   5.716   6.981 -0.8395  1.2788 -1.6682
21761SOL    HW271246   8.060   5.684   6.833 -1.3711 -1.7519 -1.1165
21762SOL     OW71247   3.326   3.359   7.035 -0.1832  0.6991 -0.3773
21762SOL    HW171248   3.233   3.334   7.033 -0.5725  1.8169  1.5114
21762SOL    HW271249   3.366   3.299   7.098 -0.2109  1.8788  0.8130
21763SOL     OW71250   2.022   6.981   4.083 -0.0906  0.1870 -0.0246
21763SOL    HW171251   2.093   6.921   4.105 -0.3959 -0.1042  0.1773
21763SOL    HW271252   1.980   6.941   4.007 -0.8319 -0.3162  0.6329
21764SOL     OW71253   1.364   2.203   4.955 -0.2820  0.2032 -0.0362
21764SOL    HW171254   1.456   2.222   4.970  0.0245 -1.8185  0.8868
21764SOL    HW271255   1.360   2.169   4.866 -0.2547  0.8459 -0.2910
21765SOL     OW71256   7.167   3.804   7.776 -0.4694  0.7232  0.0430
21765SOL    HW171257   7.209   3.752   7.708 -0.2436  0.1026  0.6382
21765SOL    HW271258   7.237   3.825   7.837 -1.3794 -3.0175  2.7560
21766SOL     OW71259   5.237   8.130   2.368 -0.0811  0.1485  0.1617
21766SOL    HW171260   5.325   8.094   2.381 -1.1904 -2.2833  1.6958
21766SOL    HW271261   5.231   8.143   2.273  1.7815  0.0527 -0.0193
21767SOL     OW71262   5.962   7.012   8.852 -0.3814 -0.0492 -0.1085
21767SOL    HW171263   5.885   6.961   8.827 -0.9046  1.2766 -1.2914
21767SOL    HW271264   5.990   6.973   8.935  0.5958 -3.7382 -1.9402
21768SOL     OW71265   9.252   3.122   4.322  0.0259  0.4852 -0.6906
21768SOL    HW171266   9.217   3.044   4.278 -0.8935  1.0675 -0.9996
21768SOL    HW271267   9.330   3.090   4.367 -1.4652 -1.0993  0.9253
21769SOL     OW71268   3.941   9.117   8.928  0.2176 -0.0398  0.1084
21769SOL    HW171269   3.929   9.209   8.953  0.6036 -0.4531  2.0052
21769SOL    HW271270   4.029   9.096   8.960  1.0398 -0.4921 -2.2776
21770SOL     OW71271   8.619   1.924   0.194 -0.1588 -0.2169  0.3814
21770SOL    HW171272   8.708   1.897   0.174  0.3039  0.1130  1.8749
21770SOL    HW271273   8.594   1.981   0.121  0.9238 -0.1279  0.0667
21771SOL     OW71274   2.759   9.335   2.088 -0.0658 -0.2463  0.4539
21771SOL    HW171275   2.854   9.333   2.095 -0.0767  1.8901  3.0291
21771SOL    HW271276   2.736   9.428   2.083 -2.0238 -0.5997  1.4281
21772SOL     OW71277   2.441   3.162   3.593 -0.0179  0.6415  1.0591
21772SOL    HW171278   2.354   3.149   3.631 -0.3891 -0.5880 -0.1042
21772SOL    HW271279   2.432   3.240   3.538 -0.6654  0.0135  0.2474
21773SOL     OW71280   6.170   9.036   0.940  0.1495  0.0576  0.5887
21773SOL    HW171281   6.100   9.099   0.956  0.1403  0.8216 -2.1061
21773SOL    HW271282   6.251   9.088   0.941  0.3686 -0.2736  0.4542
21774SOL     OW71283   6.059   5.544   4.021  0.1039 -0.1562 -0.2740
21774SOL    HW171284   6.144   5.572   3.986  1.1969 -0.3326  1.9997
21774SOL    HW271285   6.079   5.519   4.112 -2.6236  1.1219  0.7839
21775SOL     OW71286   2.870   6.892   9.361 -0.3828  0.3714  0.6140
21775SOL    HW171287   2.895   6.954   9.429  0.0513  1.1650 -0.2502
21775SOL    HW271288   2.941   6.896   9.297 -1.1057  0.1571 -0.2264
21776SOL     OW71289   6.993   0.183   5.440  0.2600  0.1427  0.3228
21776SOL    HW171290   7.080   0.213   5.467  0.7799  0.1935 -1.3073
21776SOL    HW271291   6.969   0.241   5.368 -0.1938 -1.2083 -0.6539
21777SOL     OW71292   3.523   7.022   0.046 -0.1153  0.1511  0.0951
21777SOL    HW171293   3.447   7.007   0.103 -1.1584  1.6761 -0.8263
21777SOL    HW271294   3.551   7.111   0.064  1.8136 -0.5461  0.7642
21778SOL     OW71295   4.098   2.025   7.308 -0.2474 -0.9506  0.1542
21778SOL    HW171296   4.053   1.959   7.361 -1.1104 -0.2693  0.2895
21778SOL    HW271297   4.189   2.019   7.335 -0.4069 -1.7242  0.5515
21779SOL     OW71298   6.809   6.604   1.653 -0.2255 -0.4299 -0.4691
21779SOL    HW171299   6.837   6.569   1.569 -0.1302  2.7893 -1.9405
21779SOL    HW271300   6.879   6.665   1.678  0.8366 -2.8174  3.1495
21780SOL     OW71301   0.677   8.159   8.445  0.2659  0.1607  0.1884
21780SOL    HW171302   0.608   8.101   8.478 -0.0745 -0.8287 -2.0356
21780SOL    HW271303   0.749   8.101   8.421 -0.5616  0.3214 -3.2975
21781SOL     OW71304   4.276   1.641   0.557 -0.3492 -0.2226  0.0161
21781SOL    HW171305   4.193   1.630   0.602 -0.4583 -0.5036 -0.2513
21781SOL    HW271306   4.252   1.649   0.464 -0.0585 -0.6455 -0.0995
21782SOL     OW71307   5.132   8.762   2.001 -0.2684 -0.0327  0.1127
21782SOL    HW171308   5.132   8.839   2.057 -1.2219 -0.4762  0.7623
21782SOL    HW271309   5.221   8.728   2.006  0.8127  2.1685 -1.8855
21783SOL     OW71310   5.495   7.079   4.586  0.0681  0.3964 -0.0291
21783SOL    HW171311   5.499   7.131   4.506 -0.5149  1.5148  0.6489
21783SOL    HW271312   5.427   7.014   4.568 -1.8318  2.1637  0.3752
21784SOL     OW71313   5.825   1.590   0.320 -0.2873 -0.0845  0.3356
21784SOL    HW171314   5.772   1.572   0.398  0.1000  0.0359  0.6296
21784SOL    HW271315   5.910   1.616   0.355 -0.1197 -0.0076 -0.1306
21785SOL     OW71316   0.712   5.770   6.584  0.5457 -0.1773 -0.1493
21785SOL    HW171317   0.688   5.827   6.511  0.8183 -1.4658 -1.2948
21785SOL    HW271318   0.637   5.775   6.643  0.0269  0.3922 -0.8331
21786SOL     OW71319   1.459   7.594   4.118  0.2246  0.3265  0.5734
21786SOL    HW171320   1.437   7.679   4.155 -1.0499  0.0438  0.4971
21786SOL    HW271321   1.394   7.580   4.049  1.0145 -0.2769 -0.0653
21787SOL     OW71322   5.098   2.725   5.630  0.1358 -0.4054 -0.0251
21787SOL    HW171323   5.057   2.811   5.636 -0.6856 -0.6802 -1.2742
21787SOL    HW271324   5.191   2.741   5.648 -0.1148  0.6139  0.4424
21788SOL     OW71325   4.103   1.521   4.097  0.6230 -0.5424  0.2470
21788SOL    HW171326   4.161   1.565   4.036 -0.6187  0.0408 -0.5549
21788SOL    HW271327   4.133   1.548   4.183  1.7779 -0.5793 -0.1279
21789SOL     OW71328   0.764   3.512   4.539 -0.2345 -0.7235  0.2368
21789SOL    HW171329   0.672   3.520   4.514 -0.2711 -0.9829  0.2825
21789SOL    HW271330   0.812   3.561   4.473 -0.5832  1.5935  1.5711
21790SOL     OW71331   5.017   8.446   2.117 -0.0793 -0.5202 -0.5560
21790SOL    HW171332   5.094   8.464   2.170  0.9922 -0.8010 -1.9546
21790SOL    HW271333   5.017   8.351   2.105  0.7880 -0.3158 -2.5659
21791SOL     OW71334   3.326   2.511   8.866  0.3707  0.2873 -0.2870
21791SOL    HW171335   3.304   2.590   8.914  1.6279 -0.3771  1.4958
21791SOL    HW271336   3.262   2.446   8.894 -0.3363  0.5170 -1.3408
21792SOL     OW71337   8.823   5.962   4.370 -0.5011  0.0114  0.0112
21792SOL    HW171338   8.887   5.988   4.436 -1.6581  0.7249  0.8913
21792SOL    HW271339   8.873   5.956   4.289  0.3907  2.2912  0.3135
21793SOL     OW71340   6.644   1.988   0.760 -0.3386 -0.0110 -0.0183
21793SOL    HW171341   6.622   1.921   0.825 -0.5322 -1.7330 -1.7892
21793SOL    HW271342   6.564   2.040   0.750 -1.0308 -1.1413 -0.4910
21794SOL     OW71343   4.750   1.426   8.629  0.2549 -0.2177 -0.0730
21794SOL    HW171344   4.833   1.381   8.649  0.2804 -0.5069 -0.7822
21794SOL    HW271345   4.771   1.519   8.635  0.8010 -0.2789 -0.8654
21795SOL     OW71346   3.584   0.702   0.356  0.2297 -0.3335 -0.3673
21795SOL    HW171347   3.610   0.760   0.428 -1.9488 -0.3007  0.4804
21795SOL    HW271348   3.665   0.688   0.306  1.8512 -0.3503  2.0676
21796SOL     OW71349   0.655   4.418   6.478 -0.2638 -0.6233 -0.5974
21796SOL    HW171350   0.610   4.349   6.527 -1.2342 -0.2960 -1.0137
21796SOL    HW271351   0.662   4.491   6.540 -0.3913 -0.6406 -0.5621
21797SOL     OW71352   4.391   9.020   7.146 -0.0649 -0.1107 -0.6621
21797SOL    HW171353   4.458   9.068   7.095  0.4712  0.4024  0.4881
21797SOL    HW271354   4.432   8.936   7.165 -0.6914 -0.7530 -1.9753
21798SOL     OW71355   5.311   3.349   9.231 -0.4730 -0.2346 -0.4585
21798SOL    HW171356   5.248   3.338   9.301 -0.5431 -2.1111 -0.7641
21798SOL    HW271357   5.359   3.428   9.254 -0.1683 -1.0422  1.9691
21799SOL     OW71358   6.993   0.767   3.234  0.0831 -0.8615 -0.2374
21799SOL    HW171359   6.902   0.736   3.238 -0.0862 -0.3541 -0.0675
21799SOL    HW271360   7.042   0.693   3.198 -0.7247 -0.4448 -2.3786
21800SOL     OW71361   6.560   5.451   7.460  0.0866 -0.1090 -0.0407
21800SOL    HW171362   6.479   5.458   7.410  0.9910  0.7669 -1.4639
21800SOL    HW271363   6.532   5.425   7.548 -1.9268  1.9964  0.0395
21801SOL     OW71364   6.720   5.694   4.490 -0.6042 -0.2427 -0.1229
21801SOL    HW171365   6.751   5.618   4.441  0.2108  0.3907 -0.6099
21801SOL    HW271366   6.738   5.673   4.581  1.1495  0.0216 -0.3690
21802SOL     OW71367   0.403   1.574   6.174  0.1934  0.3554 -0.4318
21802SOL    HW171368   0.396   1.482   6.200 -0.2320  0.2903 -0.7607
21802SOL    HW271369   0.319   1.613   6.199  1.1549  1.1830  1.7015
21803SOL     OW71370   4.167   1.053   0.017 -0.7557  0.3002  0.1977
21803SOL    HW171371   4.174   0.957   0.020 -0.4432  0.3393  0.8064
21803SOL    HW271372   4.184   1.081   0.106  0.8122  1.0413 -0.3060
21804SOL     OW71373   9.279   1.507   7.761  0.4522  0.0020  0.1639
21804SOL    HW171374   9.349   1.520   7.826 -1.0818  0.6834  1.7624
21804SOL    HW271375   9.198   1.512   7.812 -0.7486 -2.2771 -1.3825
21805SOL     OW71376   4.647   8.456   3.537  0.3991 -0.3109 -0.4212
21805SOL    HW171377   4.711   8.442   3.607  0.1802 -0.9536 -0.3434
21805SOL    HW271378   4.563   8.458   3.582  0.4885  2.8731 -0.2079
21806SOL     OW71379   6.609   3.232   5.588  0.5409  0.6888 -0.7406
21806SOL    HW171380   6.521   3.201   5.611  0.4492  1.5230  0.0994
21806SOL    HW271381   6.599   3.273   5.502 -0.3909  2.7225  0.2682
21807SOL     OW71382   3.124   7.836   2.080 -0.4765 -0.0296 -0.3610
21807SOL    HW171383   3.066   7.776   2.032  1.0605 -1.3537 -0.6689
21807SOL    HW271384   3.154   7.899   2.014 -0.4372 -0.2367 -0.5431
21808SOL     OW71385   8.255   1.469   9.291 -0.0924  0.0192  0.2587
21808SOL    HW171386   8.294   1.530   9.228  0.8578  0.2709  1.0492
21808SOL    HW271387   8.326   1.451   9.353 -0.2309 -2.2529 -0.1900
21809SOL     OW71388   1.747   4.156   7.718  0.3091 -0.1500 -1.0422
21809SOL    HW171389   1.782   4.151   7.629  0.7826 -2.5757 -0.8045
21809SOL    HW271390   1.804   4.218   7.763 -0.2686  1.5287 -2.5215
21810SOL     OW71391   8.600   2.824   9.000  0.7843 -0.6277  0.1944
21810SOL    HW171392   8.530   2.866   8.950  0.1498 -1.5615  0.2680
21810SOL    HW271393   8.559   2.799   9.083  1.4321 -0.4360  0.5818
21811SOL     OW71394   0.022   3.848   5.121 -0.4014  0.5083 -0.4272
21811SOL    HW171395  -0.043   3.837   5.051 -0.8931  0.9543 -0.0465
21811SOL    HW271396  -0.025   3.827   5.201  0.4157 -0.9516 -0.2851
21812SOL     OW71397   7.453   8.519   8.624  0.2193  0.2401 -0.1571
21812SOL    HW171398   7.492   8.587   8.569  0.4575  0.3859  0.1866
21812SOL    HW271399   7.495   8.530   8.709 -0.7533  0.5720  0.3067
21813SOL     OW71400   0.110   4.109   5.022  0.5043  0.2466 -0.5097
21813SOL    HW171401   0.031   4.164   5.018  0.6659  0.4511 -0.9449
21813SOL    HW271402   0.077   4.019   5.027  0.2267  0.2119 -2.2957
21814SOL     OW71403   8.701   8.568   3.085 -0.0523 -0.1944  0.0625
21814SOL    HW171404   8.613   8.540   3.060  0.0928 -0.6351  0.0328
21814SOL    HW271405   8.718   8.646   3.032 -0.0518 -0.6606 -0.6307
21815SOL     OW71406   1.528   6.926   6.051 -0.2504  0.6344  0.3079
21815SOL    HW171407   1.482   6.974   5.982  0.9557 -1.1186 -1.8678
21815SOL    HW271408   1.600   6.882   6.006 -1.0853 -2.9748  2.0714
21816SOL     OW71409   5.995   0.148   7.432  0.0989  0.1747 -0.1037
21816SOL    HW171410   5.958   0.197   7.505  0.5749  0.1456  0.1594
21816SOL    HW271411   5.993   0.209   7.358 -0.1811  0.2755 -0.0153
21817SOL     OW71412   4.994   3.535   9.092  0.1051  0.2633  0.2100
21817SOL    HW171413   5.037   3.485   9.022 -3.8164 -0.2191 -2.1787
21817SOL    HW271414   4.998   3.477   9.168  0.0686 -1.5502 -1.0869
21818SOL     OW71415   8.271   7.867   4.669 -0.6501 -0.4322 -0.2730
21818SOL    HW171416   8.223   7.873   4.751 -1.7581  1.6903 -1.0248
21818SOL    HW271417   8.205   7.845   4.604  0.1570 -1.7213 -0.6979
21819SOL     OW71418   4.811   6.182   2.714  0.5961 -0.2130  0.5727
21819SOL    HW171419   4.753   6.253   2.687  1.1690  0.5414  1.2661
21819SOL    HW271420   4.884   6.186   2.653  0.0130 -1.0801 -0.2191
21820SOL     OW71421   7.485   7.478   1.903 -0.1916 -0.4611 -0.2635
21820SOL    HW171422   7.566   7.479   1.954 -0.0577 -0.4924 -0.4760
21820SOL    HW271423   7.439   7.399   1.933 -0.1043 -0.4904 -0.2062
21821SOL     OW71424   5.302   7.834   8.161  0.2398 -0.4231 -0.2135
21821SOL    HW171425   5.242   7.766   8.192 -1.0895  0.4905 -0.7112
21821SOL    HW271426   5.284   7.909   8.218  3.0387 -0.9805  1.6296
21822SOL     OW71427   4.130   8.465   7.505 -0.5592 -0.1881 -0.1535
21822SOL    HW171428   4.060   8.530   7.497 -2.9093 -2.6851 -1.5351
21822SOL    HW271429   4.170   8.462   7.418  0.4529  0.2781  0.2725
21823SOL     OW71430   5.582   9.014   7.574 -0.2758  0.0895  0.1551
21823SOL    HW171431   5.531   8.993   7.496  0.1367 -0.0503 -0.0803
21823SOL    HW271432   5.566   9.108   7.589 -0.7551  0.0039  0.2029
21824SOL     OW71433   4.417   1.644   9.162 -0.0071 -0.5242  0.6434
21824SOL    HW171434   4.405   1.558   9.204 -3.2558 -1.4066 -1.7354
21824SOL    HW271435   4.330   1.684   9.163  0.7747  1.4071 -1.0553
21825SOL     OW71436   2.456   4.717   9.296  0.0443 -0.2371  0.9341
21825SOL    HW171437   2.367   4.744   9.321  0.2836  1.4003  0.1462
21825SOL    HW271438   2.462   4.739   9.203  0.3009 -3.0777  0.1798
21826SOL     OW71439   2.138   7.043   6.309 -0.1695  0.1219 -0.0785
21826SOL    HW171440   2.098   7.120   6.349 -1.0659 -0.4623  0.1728
21826SOL    HW271441   2.065   6.999   6.265  0.2769 -0.7544  0.0484
21827SOL     OW71442   1.991   5.458   8.808  0.0568  0.4511  0.1642
21827SOL    HW171443   2.007   5.381   8.754  0.3928  2.2417 -2.4750
21827SOL    HW271444   2.055   5.523   8.778 -1.6055  2.4732  0.7139
21828SOL     OW71445   1.703   8.509   3.459 -0.2342 -0.1527  0.5318
21828SOL    HW171446   1.694   8.431   3.404  0.2473  1.4503 -2.0043
21828SOL    HW271447   1.759   8.568   3.408  0.1653  1.5311  2.7405
21829SOL     OW71448   2.318   4.110   2.933 -0.2682 -0.0093 -0.3927
21829SOL    HW171449   2.334   4.104   2.839 -2.2986  1.1220 -0.8854
21829SOL    HW271450   2.298   4.203   2.948  2.1391  0.2990  1.5873
21830SOL     OW71451   1.059   8.426   8.876  0.6695 -0.2778  0.0460
21830SOL    HW171452   1.121   8.364   8.914 -1.2940 -1.5431  1.3282
21830SOL    HW271453   0.977   8.411   8.922 -0.5090  1.7037 -1.2122
21831SOL     OW71454   3.110   5.743   0.645  0.0659  0.0434 -0.3123
21831SOL    HW171455   3.093   5.769   0.554 -1.0321 -2.4240 -0.9302
21831SOL    HW271456   3.063   5.808   0.698 -0.5386  0.6841 -1.5810
21832SOL     OW71457   5.579   5.822   4.770  0.5614 -0.1172  0.0032
21832SOL    HW171458   5.662   5.777   4.755  1.1414  0.7973  0.3793
21832SOL    HW271459   5.585   5.853   4.860 -0.2478 -0.1549  0.0759
21833SOL     OW71460   1.894   7.826   8.681  0.4569 -0.2391  0.0063
21833SOL    HW171461   1.956   7.764   8.643  0.1846 -0.3365 -0.2887
21833SOL    HW271462   1.947   7.903   8.703  0.7530 -0.4866  0.1588
21834SOL     OW71463   7.848   6.830   4.191 -0.2502  0.1223 -0.1191
21834SOL    HW171464   7.934   6.844   4.151 -1.2019  0.8442 -2.0415
21834SOL    HW271465   7.864   6.837   4.285  1.6785  0.8901 -0.4581
21835SOL     OW71466   3.231   4.941   2.623  0.6442  0.1176  0.2270
21835SOL    HW171467   3.263   5.029   2.601 -0.0776  0.3010 -0.1063
21835SOL    HW271468   3.294   4.882   2.583  1.9841  0.4639  1.6953
21836SOL     OW71469   6.240   7.280   6.569 -0.4068  0.4240  0.1576
21836SOL    HW171470   6.296   7.215   6.528 -1.3476 -0.2724 -0.0552
21836SOL    HW271471   6.208   7.333   6.496 -1.1733 -0.0947  0.1144
21837SOL     OW71472   6.467   8.583   7.075  0.2085  0.6177  0.4637
21837SOL    HW171473   6.502   8.519   7.137  0.5888  1.5183  1.1931
21837SOL    HW271474   6.544   8.614   7.027  0.2263  1.4944  1.0330
21838SOL     OW71475   3.746   4.243   6.859  0.4299 -0.2290 -0.2309
21838SOL    HW171476   3.673   4.197   6.818  0.1225 -1.0323  1.1681
21838SOL    HW271477   3.823   4.191   6.836  0.1517 -1.1846  0.8800
21839SOL     OW71478   8.017   9.168   1.981  0.2564  0.6013 -0.1439
21839SOL    HW171479   8.091   9.227   1.999  1.6246 -1.2128  0.5496
21839SOL    HW271480   7.939   9.221   1.998  1.4310  1.9143  1.5173
21840SOL     OW71481   5.427   9.367   0.037  0.0404 -1.0780 -0.7759
21840SOL    HW171482   5.482   9.404  -0.032  1.1785  1.3358  1.2324
21840SOL    HW271483   5.478   9.295   0.074  1.7187  0.7326  0.6425
21841SOL     OW71484   3.292   4.328   4.666  0.4757 -0.6713  0.3026
21841SOL    HW171485   3.362   4.369   4.718  0.3816 -1.2150  0.8698
21841SOL    HW271486   3.211   4.366   4.700  0.4766 -0.2451 -0.1679
21842SOL     OW71487   2.660   0.574   6.494  0.3526 -0.0224 -0.7196
21842SOL    HW171488   2.752   0.588   6.515  0.2224  0.0221 -0.1562
21842SOL    HW271489   2.628   0.517   6.564 -0.6299  1.8723  0.4650
21843SOL     OW71490   8.450   8.088   0.775 -0.9765 -0.3840 -0.1700
21843SOL    HW171491   8.546   8.096   0.773 -1.0034  0.4367 -2.7665
21843SOL    HW271492   8.433   7.997   0.796  0.4638 -0.8978 -1.0926
21844SOL     OW71493   2.997   5.959   7.008  0.1505  0.3137 -0.2799
21844SOL    HW171494   3.026   6.001   6.926 -0.6894 -2.2472 -2.0319
21844SOL    HW271495   2.917   6.005   7.032 -1.0012 -0.4701 -2.3847
21845SOL     OW71496   3.851   1.793   8.255  0.1233  0.4930 -0.5244
21845SOL    HW171497   3.847   1.724   8.321 -0.0992  1.0644  0.0695
21845SOL    HW271498   3.913   1.857   8.290 -1.1634  1.5494 -0.1362
21846SOL     OW71499   3.802   2.904   7.941  0.2777  0.3736  0.1657
21846SOL    HW171500   3.813   2.913   7.847  0.2012  0.0072  0.1172
21846SOL    HW271501   3.881   2.858   7.970 -0.0364 -0.1879  0.1619
21847SOL     OW71502   1.494   3.000   5.505 -0.4264  0.5042 -0.1189
21847SOL    HW171503   1.537   3.077   5.466 -1.1954  0.6421 -0.7232
21847SOL    HW271504   1.418   2.984   5.449  0.1522 -1.1889 -0.4613
21848SOL     OW71505   8.160   6.650   5.191  0.5389 -0.7557  0.1165
21848SOL    HW171506   8.120   6.564   5.175  0.1776 -0.2975 -1.6718
21848SOL    HW271507   8.128   6.705   5.119  0.9406  0.8268  1.0972
21849SOL     OW71508   5.646   8.183   8.854  0.1432 -0.0661 -0.5349
21849SOL    HW171509   5.577   8.130   8.893 -1.8112  2.1470 -0.7852
21849SOL    HW271510   5.723   8.126   8.853 -1.1090 -1.9265  1.6744
21850SOL     OW71511   6.869   6.320   3.919  0.1404 -0.5479  0.4803
21850SOL    HW171512   6.915   6.316   4.003 -1.2050  1.9333  1.4537
21850SOL    HW271513   6.816   6.400   3.925 -0.1999 -0.4289 -2.6520
21851SOL     OW71514   0.650   8.261   8.884  0.3170 -0.3371 -0.1247
21851SOL    HW171515   0.607   8.228   8.806 -0.3922  0.3862 -0.0475
21851SOL    HW271516   0.737   8.289   8.854 -0.6190  1.7711 -1.1003
21852SOL     OW71517   8.337   2.970   2.127 -0.3742 -0.2654 -0.5407
21852SOL    HW171518   8.417   2.923   2.103 -1.5735 -2.3070 -0.8576
21852SOL    HW271519   8.331   2.959   2.221  0.3091  0.9448 -0.3388
21853SOL     OW71520   4.039   1.900   0.643 -0.4749 -0.1217  0.0694
21853SOL    HW171521   3.992   1.819   0.625 -1.3637  0.2268  0.7799
21853SOL    HW271522   4.037   1.909   0.738 -2.4900  1.9177 -0.0744
21854SOL     OW71523   4.099   0.828   0.370 -0.4565 -0.2589  0.2061
21854SOL    HW171524   4.113   0.916   0.335  3.6329 -1.5469 -2.1097
21854SOL    HW271525   4.137   0.831   0.458 -1.5141  0.5658  0.6457
21855SOL     OW71526   5.923   5.897   7.886 -0.3917 -0.3672 -0.3920
21855SOL    HW171527   5.838   5.937   7.868 -0.3967 -0.4755 -0.6241
21855SOL    HW271528   5.982   5.971   7.899 -0.0556 -0.2261 -2.4253
21856SOL     OW71529   5.625   5.251   2.955  0.1017  0.1422  0.0860
21856SOL    HW171530   5.541   5.254   2.910 -0.3376  1.2968  0.9128
21856SOL    HW271531   5.690   5.243   2.885 -0.7060 -1.7251 -0.5087
21857SOL     OW71532   6.026   6.459   6.250 -0.1330  0.4845 -0.2121
21857SOL    HW171533   5.977   6.392   6.297 -1.8531  1.4426 -0.5781
21857SOL    HW271534   6.093   6.410   6.202 -1.5748 -1.0190 -0.7581
21858SOL     OW71535   7.354   5.062   6.181  0.0023 -0.1670 -0.1320
21858SOL    HW171536   7.429   5.113   6.211  1.1913 -2.0801  0.3830
21858SOL    HW271537   7.306   5.120   6.124  1.4187  1.4139  0.2109
21859SOL     OW71538   6.517   7.357   6.689  0.5521  0.1019  0.2377
21859SOL    HW171539   6.602   7.333   6.726 -1.4063 -1.6337  4.1609
21859SOL    HW271540   6.496   7.286   6.628  1.1524 -0.3783  0.5844
21860SOL     OW71541   3.797   4.411   5.355 -0.5130  0.1358  0.6006
21860SOL    HW171542   3.778   4.494   5.312 -2.0663 -1.5627 -2.2938
21860SOL    HW271543   3.723   4.355   5.332 -0.2925 -1.6640  3.7267
21861SOL     OW71544   6.613   4.571   8.138 -0.1942 -0.5190 -0.1539
21861SOL    HW171545   6.598   4.486   8.179 -0.2336  0.9347  3.1176
21861SOL    HW271546   6.533   4.621   8.156 -0.3249  0.1837 -2.3411
21862SOL     OW71547   5.980   7.345   6.096  0.4533  0.8663 -0.3248
21862SOL    HW171548   5.907   7.298   6.055  0.2563  1.7082 -0.9688
21862SOL    HW271549   6.058   7.296   6.070  0.1367 -0.0105  0.3234
21863SOL     OW71550   1.380   7.949   8.579  0.1348 -0.5284 -0.6563
21863SOL    HW171551   1.441   7.938   8.506  0.0730 -2.0791 -0.5002
21863SOL    HW271552   1.435   7.942   8.658 -0.0288 -0.4132 -0.5298
21864SOL     OW71553   2.930   0.394   2.066 -0.3632  0.1005  0.3252
21864SOL    HW171554   2.916   0.345   1.985 -0.7682  0.1433  0.3699
21864SOL    HW271555   3.019   0.429   2.057  0.4443 -1.6699  0.8223
21865SOL     OW71556   2.411   5.267   1.684  0.0810 -0.3944 -0.3018
21865SOL    HW171557   2.332   5.320   1.680  0.6039  0.3841 -0.6152
21865SOL    HW271558   2.385   5.188   1.730 -0.5737  0.4049  0.7423
21866SOL     OW71559   8.455   3.915   2.221  0.4726  0.1359 -0.0535
21866SOL    HW171560   8.515   3.905   2.294 -0.3025 -1.0481  0.4479
21866SOL    HW271561   8.491   3.859   2.152  0.8397  0.7289 -0.3486
21867SOL     OW71562   1.333   3.195   8.942 -0.1515 -0.0188  0.4749
21867SOL    HW171563   1.319   3.162   8.853  3.0629  1.2317 -0.6234
21867SOL    HW271564   1.301   3.125   8.999 -2.4341 -0.8154 -1.5760
21868SOL     OW71565   5.175   0.361   8.266  0.0484  0.0955 -0.6728
21868SOL    HW171566   5.142   0.304   8.335  0.6143 -0.9268 -1.2351
21868SOL    HW271567   5.205   0.439   8.312 -0.2383 -0.2742  0.1582
21869SOL     OW71568   4.379   5.727   3.447 -0.5698 -0.0153 -0.0925
21869SOL    HW171569   4.446   5.681   3.497  1.6054  1.6768 -1.2762
21869SOL    HW271570   4.364   5.808   3.495 -2.2163 -0.6079  0.4450
21870SOL     OW71571   8.081   0.135   6.415  0.0375 -0.1351 -0.2369
21870SOL    HW171572   8.005   0.110   6.468  0.0906  1.2265  0.5353
21870SOL    HW271573   8.073   0.230   6.406  2.9150  0.4640  1.9760
21871SOL     OW71574   1.340   1.881   5.324 -0.3379 -0.5227  0.6355
21871SOL    HW171575   1.309   1.969   5.302  0.7023 -0.2298  0.2759
21871SOL    HW271576   1.362   1.886   5.417 -1.6972 -0.8525  1.0065
21872SOL     OW71577   5.834   4.034   1.030  0.7747 -0.0917 -0.6704
21872SOL    HW171578   5.792   3.972   0.970  1.7016 -0.1207 -1.3037
21872SOL    HW271579   5.927   4.031   1.008  1.3920 -1.1689  1.7458
21873SOL     OW71580   2.434   9.197   7.337  0.1658 -0.1024 -0.3293
21873SOL    HW171581   2.516   9.165   7.300  0.2540 -1.9880  1.3173
21873SOL    HW271582   2.456   9.223   7.426 -1.1635 -1.7868  0.5643
21874SOL     OW71583   1.508   2.495   3.608  0.0382 -0.0409  0.5152
21874SOL    HW171584   1.502   2.551   3.686 -1.5767  0.4716  0.0596
21874SOL    HW271585   1.497   2.555   3.534  0.0033 -0.7319 -0.0556
21875SOL     OW71586   6.971   1.558   9.346  0.3483 -0.0290  0.4568
21875SOL    HW171587   7.011   1.578   9.431 -0.1922  0.6348  0.5640
21875SOL    HW271588   6.925   1.638   9.322  0.4429 -0.2293 -0.4406
21876SOL     OW71589   7.863   5.446   2.317  0.2967  0.0610  0.0512
21876SOL    HW171590   7.869   5.464   2.223  0.8839  0.0498  0.0844
21876SOL    HW271591   7.783   5.491   2.345  0.7125  1.0125 -0.2384
21877SOL     OW71592   3.070   5.501   0.763  0.5325 -0.2329 -0.5015
21877SOL    HW171593   3.157   5.502   0.803  1.1061 -1.4063 -1.6486
21877SOL    HW271594   3.073   5.572   0.699  0.2369  0.4713  0.2536
21878SOL     OW71595   8.252   4.431   6.545 -0.1419  0.0055 -0.2715
21878SOL    HW171596   8.180   4.453   6.604  1.5977 -1.7466  2.7251
21878SOL    HW271597   8.256   4.335   6.547  1.9119  0.0458 -0.7737
21879SOL     OW71598   0.475   8.450   0.438  0.1329  0.3965 -0.0246
21879SOL    HW171599   0.445   8.464   0.528  3.1851 -1.5904  1.4692
21879SOL    HW271600   0.495   8.537   0.405 -2.3581  1.3062  0.6177
21880SOL     OW71601   3.528   1.678   6.056  0.1550  0.0216 -0.1547
21880SOL    HW171602   3.457   1.616   6.038 -0.2919  0.5857 -0.3669
21880SOL    HW271603   3.590   1.629   6.110 -1.0394 -0.0615  1.1741
21881SOL     OW71604   9.232   6.000   4.704 -0.7396 -0.5186  0.0772
21881SOL    HW171605   9.198   5.916   4.736 -0.5020 -0.5988  0.1254
21881SOL    HW271606   9.327   5.992   4.713 -0.7852  0.4296  1.7159
21882SOL     OW71607   2.524   3.314   2.754  0.1335  0.4737 -0.0515
21882SOL    HW171608   2.513   3.409   2.746 -0.8348  0.1881 -3.6816
21882SOL    HW271609   2.435   3.280   2.748  0.2958 -0.7444  2.6863
21883SOL     OW71610   6.559   6.237   5.672  0.3377 -0.3809  0.0804
21883SOL    HW171611   6.472   6.237   5.631  1.0783 -2.0520 -1.6676
21883SOL    HW271612   6.542   6.240   5.766 -1.6509 -1.3963 -0.2043
21884SOL     OW71613   9.158   1.973   7.823  0.1728  0.0097 -1.1485
21884SOL    HW171614   9.097   1.914   7.868 -0.2370  1.3520  0.1713
21884SOL    HW271615   9.102   2.025   7.765  0.1304  0.7755 -0.4450
21885SOL     OW71616   5.125   1.196   0.910 -0.6190 -0.8455  0.1059
21885SOL    HW171617   5.189   1.175   0.979  0.4502  1.3320 -0.1349
21885SOL    HW271618   5.093   1.111   0.881 -0.0963 -1.9018  2.3375
21886SOL     OW71619   7.350   1.131   4.710  0.1462 -0.0357  0.2233
21886SOL    HW171620   7.357   1.081   4.791 -1.3108  0.6608  0.8203
21886SOL    HW271621   7.306   1.213   4.736 -0.4663  0.1470 -1.2706
21887SOL     OW71622   6.452   4.946   1.185 -0.0871  0.0856  0.1276
21887SOL    HW171623   6.442   4.868   1.239 -2.5238 -0.2023 -0.6323
21887SOL    HW271624   6.530   4.928   1.132 -0.4600 -1.7542  0.1342
21888SOL     OW71625   9.068   2.258   2.350  0.3407 -0.1177  0.3820
21888SOL    HW171626   9.099   2.349   2.351 -1.0068  0.4210 -1.3146
21888SOL    HW271627   9.018   2.251   2.268  0.8294 -2.5383  0.2197
21889SOL     OW71628   2.644   6.390   3.039  0.0922  0.1713 -0.3271
21889SOL    HW171629   2.632   6.297   3.057 -1.2788  0.4129  0.0907
21889SOL    HW271630   2.630   6.398   2.945  2.1754 -0.3133 -0.7255
21890SOL     OW71631   8.174   6.412   7.745 -0.3954  0.4909 -0.0936
21890SOL    HW171632   8.113   6.458   7.687  0.9611  1.9551 -0.3992
21890SOL    HW271633   8.237   6.371   7.686 -0.0171  0.5189  0.2859
21891SOL     OW71634   0.962   3.029   4.403 -0.4687 -0.9035 -0.2185
21891SOL    HW171635   1.028   3.004   4.468 -1.4628  0.2726  1.3308
21891SOL    HW271636   0.972   2.965   4.333  0.9454 -1.9823  0.8993
21892SOL     OW71637   5.555   2.757   6.598 -0.2250  0.1176  0.1653
21892SOL    HW171638   5.481   2.816   6.611  0.2391  0.6885  0.2536
21892SOL    HW271639   5.625   2.794   6.652  0.2726 -0.1371 -0.2992
21893SOL     OW71640   6.917   0.009   4.102  0.4243 -0.4338 -0.3987
21893SOL    HW171641   6.948   0.093   4.135 -2.0734 -0.0242  1.1670
21893SOL    HW271642   6.862  -0.025   4.172 -0.0186 -2.5731 -1.7026
21894SOL     OW71643   8.109   0.620   4.913 -0.1562 -0.4941  0.1744
21894SOL    HW171644   8.167   0.657   4.979 -0.0133 -0.8838  0.2700
21894SOL    HW271645   8.116   0.525   4.925 -0.1133 -0.5717 -0.4081
21895SOL     OW71646   8.443   2.499   5.803  0.2938 -0.7835 -0.2446
21895SOL    HW171647   8.499   2.552   5.859 -0.1611  0.5506 -1.0080
21895SOL    HW271648   8.502   2.467   5.734  0.9900 -2.9425  1.2573
21896SOL     OW71649   5.780   3.916   5.495  0.0338 -0.5972 -0.0671
21896SOL    HW171650   5.865   3.888   5.460  0.5054  1.2575 -0.5515
21896SOL    HW271651   5.747   3.978   5.430 -2.0032 -1.7078 -0.1624
21897SOL     OW71652   8.678   2.126   6.115  0.4243 -0.3692  0.0107
21897SOL    HW171653   8.745   2.195   6.107  1.0784 -0.8030  1.4313
21897SOL    HW271654   8.713   2.053   6.065  0.7481 -0.3983  0.2771
21898SOL     OW71655   8.013   6.506   7.121 -0.1718 -0.2821 -0.1941
21898SOL    HW171656   8.062   6.558   7.185 -1.3062 -0.8253  1.1717
21898SOL    HW271657   8.074   6.436   7.096 -0.9800 -2.6386  3.5838
21899SOL     OW71658   2.959   7.160   3.057 -0.0514 -0.1956  0.1038
21899SOL    HW171659   3.030   7.193   3.001  0.1488  0.6168  0.7998
21899SOL    HW271660   2.891   7.132   2.996  1.3025 -2.0771 -0.6195
21900SOL     OW71661   6.166   0.363   4.716  0.1187  0.2726  0.3750
21900SOL    HW171662   6.169   0.450   4.754  2.0459 -0.0255  0.9847
21900SOL    HW271663   6.240   0.359   4.657  0.0890 -0.9606  0.3801
21901SOL     OW71664   2.514   7.045   1.209 -0.0100  0.3677 -0.0466
21901SOL    HW171665   2.584   7.007   1.262  0.2403  0.1340 -0.5342
21901SOL    HW271666   2.436   6.995   1.231 -0.2825  1.3436  1.3252
21902SOL     OW71667   1.661   2.719   9.232 -0.0026  0.4940  0.0581
21902SOL    HW171668   1.747   2.699   9.194 -0.6645 -1.2914 -0.6077
21902SOL    HW271669   1.612   2.759   9.160 -0.1549  0.2971  0.0533
21903SOL     OW71670   3.708   6.002   5.471 -0.3163 -0.5002  0.1258
21903SOL    HW171671   3.785   6.060   5.470 -1.1114  0.6129  0.6907
21903SOL    HW271672   3.678   6.003   5.562 -1.3857 -0.3615 -0.2115
21904SOL     OW71673   0.667   6.895   7.010 -0.4260  0.2481 -0.1952
21904SOL    HW171674   0.745   6.867   7.059 -0.6668 -1.0312 -0.5126
21904SOL    HW271675   0.694   6.976   6.967  0.8118 -0.2779 -0.4688
21905SOL     OW71676   0.137   4.315   1.881  0.4292 -0.1708  0.5356
21905SOL    HW171677   0.156   4.407   1.898 -0.9656 -0.0964  1.9026
21905SOL    HW271678   0.223   4.273   1.880  1.2399  1.3674 -1.9164
21906SOL     OW71679   2.991   0.776   2.097 -0.1661  0.1395 -0.6694
21906SOL    HW171680   3.034   0.832   2.162 -0.3011  0.0840 -0.5315
21906SOL    HW271681   2.962   0.836   2.029  1.1339  0.0533 -1.3306
21907SOL     OW71682   3.933   2.526   7.618  0.1635  0.0091  0.3796
21907SOL    HW171683   3.924   2.535   7.524  0.1986  0.6849  0.4338
21907SOL    HW271684   4.019   2.564   7.638 -0.1172  0.4625  0.7529
21908SOL     OW71685   3.661   9.176   6.842 -0.0167 -0.2048 -0.0978
21908SOL    HW171686   3.601   9.154   6.913  0.6474  3.4748  1.8524
21908SOL    HW271687   3.620   9.250   6.798  2.7841  2.2999  1.1707
21909SOL     OW71688   7.444   6.602   8.704  0.4588  0.6687  0.0164
21909SOL    HW171689   7.430   6.615   8.798  1.4123  0.2744  0.2207
21909SOL    HW271690   7.388   6.667   8.663 -1.5171 -0.4347  0.7970
21910SOL     OW71691   7.851   1.942   5.810  0.4906  0.3787  0.0787
21910SOL    HW171692   7.793   1.932   5.734  0.2252 -1.3751  0.4779
21910SOL    HW271693   7.902   2.021   5.791  0.2108  0.1514 -1.7833
21911SOL     OW71694   1.254   7.958   2.683 -0.1952  0.0069  0.3501
21911SOL    HW171695   1.225   8.049   2.679 -1.0731 -0.3080 -1.8671
21911SOL    HW271696   1.185   7.909   2.637  1.3987 -1.4514 -0.6001
21912SOL     OW71697   6.620   3.725   9.157  1.0105 -0.1183  0.5508
21912SOL    HW171698   6.547   3.783   9.177  1.5319  1.0547 -0.8240
21912SOL    HW271699   6.688   3.782   9.120  1.4345 -1.6088 -1.1359
21913SOL     OW71700   0.126   4.122   4.415  0.2022 -0.0141 -0.3667
21913SOL    HW171701   0.148   4.084   4.331  1.2915 -1.2368  0.4257
21913SOL    HW271702   0.189   4.194   4.426 -0.0122  0.2145 -0.6492
21914SOL     OW71703   7.711   1.745   0.310 -0.2034 -0.5413 -0.4305
21914SOL    HW171704   7.715   1.757   0.405  0.5065  0.3887 -0.5522
21914SOL    HW271705   7.658   1.667   0.297  0.9272 -1.5605  0.7995
21915SOL     OW71706   2.892   4.006   8.171  0.7913  0.3393  0.6195
21915SOL    HW171707   2.931   4.005   8.083  0.1021 -0.6270  0.3036
21915SOL    HW271708   2.887   3.913   8.195 -0.6824  0.4755  0.9216
21916SOL     OW71709   4.740   4.720   6.689 -0.2827 -0.5568  0.2354
21916SOL    HW171710   4.789   4.794   6.725 -0.7901  1.1235 -2.2533
21916SOL    HW271711   4.651   4.733   6.719 -0.1386 -0.8959  0.8259
21917SOL     OW71712   3.022   6.417   5.652 -0.1107 -0.0269 -0.2711
21917SOL    HW171713   3.028   6.329   5.616  0.3243 -0.0242 -0.2125
21917SOL    HW271714   3.079   6.416   5.729 -1.9520 -0.3761  1.1579
21918SOL     OW71715   7.624   2.906   3.758  0.4648  0.2133 -0.0894
21918SOL    HW171716   7.617   2.977   3.694  1.6640  0.7616  0.3556
21918SOL    HW271717   7.554   2.923   3.821  0.4605  0.7460 -0.2376
21919SOL     OW71718   3.057   5.845   2.456  0.2561 -0.0657 -0.1300
21919SOL    HW171719   3.084   5.886   2.539 -0.8597 -0.4055  0.4270
21919SOL    HW271720   2.998   5.774   2.483  0.7581 -0.8862 -1.1755
21920SOL     OW71721   9.259   6.411   3.057 -0.4718 -0.1254  0.3209
21920SOL    HW171722   9.342   6.364   3.061  0.1223  0.8812  0.0995
21920SOL    HW271723   9.233   6.405   2.965 -0.1825  0.3223  0.2053
21921SOL     OW71724   7.316   0.203   9.297  0.2979  0.3999  0.0490
21921SOL    HW171725   7.350   0.235   9.214 -1.1282 -1.1141 -1.1684
21921SOL    HW271726   7.384   0.142   9.328  0.6032  0.5862 -0.2433
21922SOL     OW71727   2.706   6.676   0.038  0.4918 -0.0730 -0.5800
21922SOL    HW171728   2.660   6.736   0.097 -1.7087 -0.4392 -1.8242
21922SOL    HW271729   2.758   6.734  -0.018  0.7981  0.4330  0.1994
21923SOL     OW71730   3.475   8.737   2.971 -0.0581 -0.5114  0.2927
21923SOL    HW171731   3.474   8.642   2.979 -0.9630 -0.5127  0.2546
21923SOL    HW271732   3.539   8.755   2.903  1.4149 -0.9886  1.4905
21924SOL     OW71733   8.332   4.652   5.421  0.4137 -0.2067  0.8295
21924SOL    HW171734   8.402   4.676   5.360 -0.1065 -0.3100  0.1817
21924SOL    HW271735   8.294   4.735   5.448 -1.4790 -0.1895 -1.5204
21925SOL     OW71736   8.409   2.796   9.218 -0.6178  0.6595  0.3538
21925SOL    HW171737   8.326   2.811   9.173 -0.0273 -0.3298 -1.1656
21925SOL    HW271738   8.400   2.841   9.302 -1.9784  2.1453 -0.5418
21926SOL     OW71739   2.722   8.758   3.270  0.0816  0.2850  0.5230
21926SOL    HW171740   2.663   8.738   3.344 -0.3863 -0.1980  0.0299
21926SOL    HW271741   2.800   8.794   3.312 -0.3242  0.3757  1.2343
21927SOL     OW71742   7.974   9.134   6.270 -0.1329 -0.1997  0.3899
21927SOL    HW171743   7.888   9.133   6.311  0.3996  0.1485  1.5532
21927SOL    HW271744   7.980   9.220   6.228 -0.5635 -0.4442 -0.1857
21928SOL     OW71745   3.184   4.485   0.104 -0.4662  0.2602  0.1415
21928SOL    HW171746   3.109   4.447   0.059  0.1174 -0.8246  0.0494
21928SOL    HW271747   3.230   4.410   0.141  1.4623  0.7083 -1.1826
21929SOL     OW71748   0.411   0.407   2.457  0.0818 -0.1427 -0.0208
21929SOL    HW171749   0.331   0.395   2.508  0.1153  1.8915  0.6071
21929SOL    HW271750   0.383   0.395   2.366 -0.2242 -2.6192  0.3286
21930SOL     OW71751   0.412   2.635   5.320 -0.5341  0.5175 -0.1947
21930SOL    HW171752   0.450   2.722   5.311  0.7011 -0.0268 -0.5506
21930SOL    HW271753   0.320   2.650   5.340 -0.7006  1.8987 -1.8004
21931SOL     OW71754   4.572   2.684   8.633 -0.0523  0.1286  0.4684
21931SOL    HW171755   4.610   2.753   8.578  0.7542 -0.7926 -0.1767
21931SOL    HW271756   4.517   2.633   8.574 -0.0859 -0.1951  0.7728
21932SOL     OW71757   6.743   3.827   5.350 -0.6075  0.2995 -0.6220
21932SOL    HW171758   6.775   3.867   5.269 -2.6260  1.5523 -0.8634
21932SOL    HW271759   6.669   3.773   5.324 -0.4923 -0.3166  0.2527
21933SOL     OW71760   4.103   7.698   7.346 -0.0775 -0.0219  0.3138
21933SOL    HW171761   4.155   7.623   7.376  0.3694 -0.0691 -0.5259
21933SOL    HW271762   4.168   7.760   7.312 -0.2335  1.7829  3.0178
21934SOL     OW71763   6.181   5.062   6.150 -0.1833  0.3452 -0.0881
21934SOL    HW171764   6.093   5.028   6.168  0.8295 -1.6193  1.6261
21934SOL    HW271765   6.221   4.996   6.093  0.4917  0.7234 -0.0582
21935SOL     OW71766   5.571   0.979   7.633 -0.0274 -0.3061  0.3114
21935SOL    HW171767   5.620   0.958   7.713 -2.0069 -1.4818  1.2929
21935SOL    HW271768   5.616   0.932   7.563  1.1768 -0.0293  0.8718
21936SOL     OW71769   3.391   8.589   7.521  0.4171 -0.4316 -0.0339
21936SOL    HW171770   3.378   8.494   7.523 -2.6728 -0.0842  1.5588
21936SOL    HW271771   3.348   8.617   7.440 -0.6865 -0.1821  0.6300
21937SOL     OW71772   9.208   7.456   8.703 -0.0361  0.1224  0.6839
21937SOL    HW171773   9.220   7.550   8.691 -0.9345  0.3985  1.7836
21937SOL    HW271774   9.114   7.441   8.688  0.2382 -0.7622 -0.3544
21938SOL     OW71775   7.580   1.906   2.981  0.1785  0.0722 -0.3746
21938SOL    HW171776   7.615   1.983   2.937  0.2098  0.9879  1.1604
21938SOL    HW271777   7.600   1.921   3.074 -1.6747 -0.7759  0.2039
21939SOL     OW71778   1.301   5.910   1.924 -0.3346  0.0926 -0.2666
21939SOL    HW171779   1.371   5.946   1.868 -0.4270 -1.6447 -1.5767
21939SOL    HW271780   1.305   5.815   1.910 -1.3368 -0.2724  1.5881
21940SOL     OW71781   1.408   3.707   8.011 -0.1054 -0.0742 -0.3585
21940SOL    HW171782   1.337   3.770   8.026  0.8079  0.8117  0.4330
21940SOL    HW271783   1.487   3.755   8.035  0.5489 -1.8835  1.3630
21941SOL     OW71784   5.868   9.309   4.959  0.4972  0.0794 -0.2670
21941SOL    HW171785   5.871   9.348   4.872 -0.9495 -1.8319 -1.2509
21941SOL    HW271786   5.908   9.223   4.949 -1.3848 -0.9493  0.4252
21942SOL     OW71787   1.115   8.164   8.981  0.0064  0.2478 -0.5646
21942SOL    HW171788   1.049   8.101   9.009  2.5385 -1.6877  1.5890
21942SOL    HW271789   1.156   8.124   8.904  1.7782 -1.0019  0.9466
21943SOL     OW71790   7.371   4.376   7.001 -0.3944 -0.1123 -0.5480
21943SOL    HW171791   7.387   4.287   6.972 -0.0816 -0.0339 -0.6149
21943SOL    HW271792   7.450   4.402   7.047 -0.6049  0.0215 -0.2551
21944SOL     OW71793   1.901   0.539   8.041 -0.3538  0.5336  0.5090
21944SOL    HW171794   1.833   0.553   8.107 -0.5875 -0.5130  0.4939
21944SOL    HW271795   1.954   0.468   8.075 -0.0085  0.5080 -0.0669
21945SOL     OW71796   1.588   3.103   4.105  0.8259 -0.1871 -0.2904
21945SOL    HW171797   1.605   3.197   4.104  1.8199 -0.3312 -2.4170
21945SOL    HW271798   1.519   3.091   4.040  0.6383 -0.9337  0.0349
21946SOL     OW71799   5.577   1.773   3.102 -0.0643  0.0835 -0.4868
21946SOL    HW171800   5.515   1.811   3.040 -0.5622 -0.9893 -0.6649
21946SOL    HW271801   5.634   1.718   3.048 -0.5364 -0.9030 -0.0060
21947SOL     OW71802   0.302   4.191   0.238 -0.6543  0.2166 -0.0178
21947SOL    HW171803   0.362   4.264   0.253  0.1680 -0.3424 -0.4908
21947SOL    HW271804   0.226   4.209   0.294 -0.2465  1.1735  0.2338
21948SOL     OW71805   4.888   5.978   6.287 -0.1115 -0.1820 -0.1938
21948SOL    HW171806   4.899   5.970   6.192 -1.7044  1.3099 -0.5540
21948SOL    HW271807   4.861   5.891   6.315  0.5601 -0.6938 -1.0518
21949SOL     OW71808   1.963   2.098   0.550  0.0788 -0.3720  0.2173
21949SOL    HW171809   1.982   2.004   0.552  1.8392 -0.0721 -0.8401
21949SOL    HW271810   1.987   2.126   0.462 -1.6182  0.8615  0.0945
21950SOL     OW71811   6.082   5.370   3.680  0.2439 -0.5489  0.2895
21950SOL    HW171812   6.012   5.427   3.648  0.2407 -1.0063 -0.5599
21950SOL    HW271813   6.036   5.298   3.724  0.1322 -1.1604 -0.7874
21951SOL     OW71814   1.570   2.344   5.388 -0.3652  0.2362  0.1437
21951SOL    HW171815   1.594   2.420   5.335  1.6904 -0.1478  0.4612
21951SOL    HW271816   1.608   2.269   5.342 -1.0755 -0.4357  0.6311
21952SOL     OW71817   0.508   7.511   7.252 -0.0529 -0.3744  0.1334
21952SOL    HW171818   0.448   7.566   7.303  1.2783 -0.9295  2.4716
21952SOL    HW271819   0.525   7.436   7.310  0.1211 -2.0219 -1.9463
21953SOL     OW71820   4.840   5.525   3.474  0.5843  0.0352 -0.2434
21953SOL    HW171821   4.929   5.500   3.498  1.0038  0.2490 -1.4926
21953SOL    HW271822   4.848   5.614   3.441  0.3947 -0.7928 -2.7609
21954SOL     OW71823   0.607   0.420   6.277 -0.8309  0.1616 -0.1184
21954SOL    HW171824   0.686   0.460   6.314 -0.6520  0.5255 -0.8625
21954SOL    HW271825   0.554   0.495   6.248 -1.1606 -0.0976 -0.1889
21955SOL     OW71826   6.765   2.639   9.035 -0.1077 -0.0911  0.5269
21955SOL    HW171827   6.712   2.690   8.973 -0.3374 -0.5971  0.2985
21955SOL    HW271828   6.854   2.672   9.024  0.0238 -0.8247 -0.7665
21956SOL     OW71829   3.936   4.727   7.263 -0.1339  0.3469  0.9713
21956SOL    HW171830   4.003   4.716   7.195  0.2704  0.2976  1.3765
21956SOL    HW271831   3.853   4.711   7.217  0.0791  1.0769  0.3122
21957SOL     OW71832   0.318   9.203   8.924  0.6482 -0.6287 -0.3663
21957SOL    HW171833   0.412   9.207   8.907  0.6704 -0.5753 -0.2256
21957SOL    HW271834   0.283   9.154   8.849  0.6110  0.5312 -1.1337
21958SOL     OW71835   7.190   2.566   7.935 -0.3248 -0.2962 -0.4836
21958SOL    HW171836   7.205   2.644   7.989  0.5557 -0.1206 -0.9703
21958SOL    HW271837   7.213   2.593   7.846  1.0506 -1.4106 -0.4975
21959SOL     OW71838   4.556   9.003   8.722  0.1236 -0.4431 -0.1169
21959SOL    HW171839   4.524   9.094   8.723  1.0980 -0.0849 -0.3511
21959SOL    HW271840   4.544   8.975   8.632 -1.3721 -0.9995  0.2352
21960SOL     OW71841   2.423   8.839   5.933 -0.0771  0.0645  0.1786
21960SOL    HW171842   2.331   8.856   5.911  0.1258  0.1813 -0.5906
21960SOL    HW271843   2.424   8.834   6.029 -0.3056  3.4087  0.4571
21961SOL     OW71844   4.427   1.980   0.402  0.2053 -0.1377  0.1015
21961SOL    HW171845   4.340   1.997   0.439  0.5251 -0.6552  1.1342
21961SOL    HW271846   4.436   2.045   0.332 -1.2638 -0.4920 -0.4494
21962SOL     OW71847   7.580   1.231   2.233  0.1001 -0.2488 -0.1601
21962SOL    HW171848   7.595   1.156   2.290 -1.0107 -0.4991 -0.1868
21962SOL    HW271849   7.501   1.272   2.267  1.0737  1.3474  0.2942
21963SOL     OW71850   2.654   6.041   8.838  0.0249  0.4375 -0.2564
21963SOL    HW171851   2.609   6.023   8.920  1.9540  0.0963  0.7960
21963SOL    HW271852   2.590   6.088   8.785 -1.6124 -0.2342  1.0334
21964SOL     OW71853   6.988   7.531   4.563  0.3831  0.1794 -0.2966
21964SOL    HW171854   6.977   7.530   4.468 -0.1493  0.3548 -0.2408
21964SOL    HW271855   7.004   7.622   4.585 -0.4272  0.2966 -0.1286
21965SOL     OW71856   8.730   8.136   4.560 -0.5995 -0.3718  0.6428
21965SOL    HW171857   8.809   8.157   4.510 -0.1209 -1.2061  1.0104
21965SOL    HW271858   8.728   8.040   4.562 -1.6465 -0.3580  0.6165
21966SOL     OW71859   1.060   2.991   8.370 -0.5939  0.8290  0.1395
21966SOL    HW171860   1.115   2.924   8.330 -0.5280  0.6224  0.5640
21966SOL    HW271861   1.095   3.074   8.337 -0.1521  0.6899  0.2462
21967SOL     OW71862   3.773   9.215   8.493 -0.6070 -0.1578 -0.1329
21967SOL    HW171863   3.766   9.179   8.582  2.0753 -0.4250  0.0671
21967SOL    HW271864   3.706   9.168   8.443 -1.2341 -1.0234  1.4292
21968SOL     OW71865   7.831   9.281   2.787  0.0009 -0.2478 -0.4002
21968SOL    HW171866   7.842   9.376   2.789  1.8115 -0.3965 -1.1121
21968SOL    HW271867   7.900   9.250   2.728 -1.0720 -1.9506 -0.8551
21969SOL     OW71868   3.424   4.984   0.732 -0.1491 -0.0221  0.6195
21969SOL    HW171869   3.410   4.916   0.798  2.2872  0.3338  1.6001
21969SOL    HW271870   3.481   4.943   0.667  0.2309  0.6484  0.5164
21970SOL     OW71871   7.744   4.820   0.779 -0.0622  0.9765  0.3812
21970SOL    HW171872   7.774   4.819   0.688 -0.4707  2.6669  0.1835
21970SOL    HW271873   7.815   4.779   0.828 -0.5794 -1.5826 -0.8427
21971SOL     OW71874   8.344   0.851   2.358 -0.5371  0.3700  0.3351
21971SOL    HW171875   8.425   0.853   2.307 -0.9419  1.0858 -0.3066
21971SOL    HW271876   8.305   0.765   2.340  1.8265 -1.5759  3.5203
21972SOL     OW71877   6.865   5.817   6.791  0.1763 -0.3124  0.2376
21972SOL    HW171878   6.841   5.873   6.717 -0.9851 -0.0622  0.7742
21972SOL    HW271879   6.821   5.734   6.774 -1.1216  0.1376  1.2157
21973SOL     OW71880   1.781   6.245   8.665 -0.3594  0.1373  0.6232
21973SOL    HW171881   1.762   6.338   8.678 -2.4616 -0.3906  1.8744
21973SOL    HW271882   1.727   6.221   8.590  0.5929  0.0133 -0.0377
21974SOL     OW71883   2.669   6.746   6.951  0.2947 -0.0693  0.0509
21974SOL    HW171884   2.602   6.758   6.883  1.8996  1.1576 -1.4077
21974SOL    HW271885   2.752   6.747   6.903  1.3845 -1.5054  1.8009
21975SOL     OW71886   4.518   6.080   4.142  0.1910  0.1260  0.0563
21975SOL    HW171887   4.564   6.164   4.136 -0.0711  0.3413  0.9321
21975SOL    HW271888   4.516   6.060   4.235 -0.1701 -0.6247 -0.1059
21976SOL     OW71889   1.211   9.048   9.344  0.8906  0.1452  0.3229
21976SOL    HW171890   1.281   8.982   9.341  0.4040 -0.3276 -0.8919
21976SOL    HW271891   1.196   9.072   9.253 -0.8462 -0.0932  0.5129
21977SOL     OW71892   2.544   4.973   6.724  0.1320 -0.5901 -0.0215
21977SOL    HW171893   2.482   5.018   6.666  2.3194  1.0079 -1.2873
21977SOL    HW271894   2.560   4.889   6.680 -0.8105 -0.8574  0.1196
21978SOL     OW71895   0.781   2.401   6.244  0.0170 -0.6343  0.0195
21978SOL    HW171896   0.805   2.488   6.275  0.3396 -0.5654 -0.4284
21978SOL    HW271897   0.732   2.363   6.318  0.6364 -0.4092  0.5592
21979SOL     OW71898   4.112   6.118   5.068 -0.0245  0.2201 -0.4874
21979SOL    HW171899   4.115   6.091   4.976 -1.3351  2.6122 -1.3160
21979SOL    HW271900   4.191   6.171   5.080  0.8458 -1.1745  0.2029
21980SOL     OW71901   4.066   2.983   1.868  0.5062  0.7359 -0.3242
21980SOL    HW171902   3.986   2.976   1.816 -0.2980 -0.3080  0.9912
21980SOL    HW271903   4.136   2.961   1.807 -0.2530  1.0777 -1.3497
21981SOL     OW71904   6.982   9.097   3.458 -0.5294 -0.0428  0.0873
21981SOL    HW171905   6.926   9.103   3.536  1.2190  0.6370  1.3642
21981SOL    HW271906   6.996   9.187   3.431 -1.1886 -0.2811 -1.0929
21982SOL     OW71907   8.110   0.972   1.332 -0.1250 -0.2683 -0.2741
21982SOL    HW171908   8.150   1.059   1.339  0.3026 -0.5159  0.5658
21982SOL    HW271909   8.074   0.955   1.419 -1.4449 -0.3604 -0.8197
21983SOL     OW71910   7.301   3.324   0.545 -0.4831  0.1462 -0.4007
21983SOL    HW171911   7.205   3.322   0.539 -0.4451 -2.0262 -1.1437
21983SOL    HW271912   7.318   3.334   0.639 -1.5411 -2.8044  0.2266
21984SOL     OW71913   6.930   8.416   8.746 -0.1535 -0.1112  0.1508
21984SOL    HW171914   6.913   8.325   8.770  2.7793 -0.8347 -0.0902
21984SOL    HW271915   7.003   8.442   8.803 -0.9877  2.1588  0.2772
21985SOL     OW71916   4.573   4.041   1.528 -0.7902  0.0730  0.1345
21985SOL    HW171917   4.495   4.037   1.583 -0.5225  1.0877  0.6143
21985SOL    HW271918   4.560   3.973   1.462 -2.8872  1.3558 -0.8584
21986SOL     OW71919   0.085   0.539   8.127  0.1858 -0.2057  0.2829
21986SOL    HW171920   0.026   0.605   8.163 -0.4492 -1.5679  1.8787
21986SOL    HW271921   0.173   0.575   8.144 -0.0696 -0.8290  3.5028
21987SOL     OW71922   8.941   3.180   0.104 -0.1067  0.0765  0.4821
21987SOL    HW171923   9.036   3.191   0.099 -0.2926  2.0362  0.3549
21987SOL    HW271924   8.925   3.158   0.196  0.4805 -0.4500  0.4670
21988SOL     OW71925   5.422   1.116   2.104 -0.5136  0.4894  0.6287
21988SOL    HW171926   5.490   1.080   2.046  0.0987 -0.1312  1.6970
21988SOL    HW271927   5.372   1.040   2.132 -1.8204  0.9706 -0.3168
21989SOL     OW71928   2.850   4.735   6.852 -0.4280 -0.1182  0.1380
21989SOL    HW171929   2.775   4.676   6.848  0.3417 -1.0980 -0.5844
21989SOL    HW271930   2.852   4.766   6.942 -1.6324 -0.1445  0.1833
21990SOL     OW71931   8.070   2.191   2.032 -0.1320  0.3278 -0.1155
21990SOL    HW171932   8.011   2.158   1.965  0.3042  1.6389 -1.1899
21990SOL    HW271933   8.157   2.159   2.006 -0.1251 -0.2213  0.5455
21991SOL     OW71934   1.482   2.196   8.890  0.7236  0.7161 -0.0323
21991SOL    HW171935   1.534   2.124   8.926  0.9424  0.7210 -0.3341
21991SOL    HW271936   1.395   2.183   8.928  0.8916  0.5887  0.3147
21992SOL     OW71937   4.048   1.361   4.788  0.0306 -0.2705 -0.1462
21992SOL    HW171938   4.116   1.423   4.763  1.3652 -2.1661 -1.5402
21992SOL    HW271939   4.052   1.359   4.884  2.9171 -1.2338 -0.1719
21993SOL     OW71940   1.194   4.528   1.428  0.1934  0.1274 -0.0323
21993SOL    HW171941   1.166   4.589   1.360  1.2936  0.9921  0.2610
21993SOL    HW271942   1.203   4.582   1.507  1.0730 -0.4231  0.2638
21994SOL     OW71943   1.522   5.081   5.209 -0.4827  0.6693 -0.0161
21994SOL    HW171944   1.481   5.000   5.241  0.7709  0.3366  0.7963
21994SOL    HW271945   1.448   5.140   5.192 -1.3321 -0.1432  0.7579
21995SOL     OW71946   7.701   8.331   6.193  0.0049 -0.1898 -0.1463
21995SOL    HW171947   7.705   8.426   6.210  1.1387 -0.0131 -1.2082
21995SOL    HW271948   7.609   8.309   6.201 -0.2842  1.0088  0.0944
21996SOL     OW71949   4.547   6.605   7.924  0.4198  0.1839  0.2119
21996SOL    HW171950   4.470   6.645   7.882  1.1227 -0.1126 -1.4692
21996SOL    HW271951   4.514   6.522   7.959 -0.1851  0.3804  0.1326
21997SOL     OW71952   0.399   5.269   4.637  0.2713  0.0346  0.4381
21997SOL    HW171953   0.470   5.254   4.699  0.8514  0.5235 -0.1019
21997SOL    HW271954   0.422   5.351   4.593 -1.6457  1.3394  1.6958
21998SOL     OW71955   2.431   3.894   8.306 -0.1488 -0.1532 -0.4437
21998SOL    HW171956   2.474   3.877   8.222 -0.0808  1.8371 -0.8585
21998SOL    HW271957   2.499   3.932   8.362 -0.2845 -1.1310  0.4129
21999SOL     OW71958   8.903   4.660   3.707  0.2829  0.1316  0.0886
21999SOL    HW171959   8.887   4.737   3.762  1.3757 -0.4379  1.2337
21999SOL    HW271960   8.970   4.688   3.645  0.6907  0.0917  0.5134
22000SOL     OW71961   3.898   2.333   6.692  0.2167 -0.4736  0.6730
22000SOL    HW171962   3.895   2.262   6.628  0.2451  0.2216 -0.1161
22000SOL    HW271963   3.953   2.400   6.651 -0.7211  0.4717  0.9192
22001SOL     OW71964   8.257   4.240   5.564  0.1859  0.1158 -0.9199
22001SOL    HW171965   8.298   4.301   5.626  0.6050  0.0307 -1.1058
22001SOL    HW271966   8.214   4.175   5.618  0.5139  0.0667 -0.7158
22002SOL     OW71967   9.314   6.323   5.846 -1.1110 -0.3510 -0.2194
22002SOL    HW171968   9.300   6.382   5.772 -0.6391  0.9690  0.7110
22002SOL    HW271969   9.337   6.381   5.919  0.8592 -1.7725  0.3723
22003SOL     OW71970   5.763   5.103   2.472 -0.0846 -0.1767  0.7420
22003SOL    HW171971   5.831   5.037   2.489  0.3881  0.5999  1.9406
22003SOL    HW271972   5.812   5.185   2.462 -0.7732  0.2205  0.6300
22004SOL     OW71973   6.059   3.690   5.615  0.3343  0.4617 -0.6017
22004SOL    HW171974   6.105   3.753   5.671  0.8627  0.3009 -0.8514
22004SOL    HW271975   6.043   3.738   5.534  2.1479 -0.1816 -1.4035
22005SOL     OW71976   3.529   3.009   2.926  0.3217  0.6277  0.0408
22005SOL    HW171977   3.567   2.940   2.873 -1.6363  0.2413 -0.9446
22005SOL    HW271978   3.604   3.050   2.970  1.5838 -1.6474  0.1265
22006SOL     OW71979   5.584   8.227   6.873 -0.6789 -0.0557 -0.3041
22006SOL    HW171980   5.581   8.148   6.928 -2.7427  0.1430 -0.0555
22006SOL    HW271981   5.573   8.299   6.935  0.9645  0.4635 -0.5618
22007SOL     OW71982   5.742   5.147   1.364  0.1015 -0.4325  0.3096
22007SOL    HW171983   5.765   5.055   1.371  1.3966 -0.1425  0.1354
22007SOL    HW271984   5.805   5.193   1.420  0.5618  0.4771 -0.8969
22008SOL     OW71985   7.780   0.945   1.556 -0.0894  0.0028  0.1973
22008SOL    HW171986   7.692   0.980   1.549  0.7534  2.2560  0.1795
22008SOL    HW271987   7.769   0.860   1.599 -2.1005  0.9498  1.6847
22009SOL     OW71988   6.132   8.026   2.094 -0.1410 -0.8192  0.0372
22009SOL    HW171989   6.107   8.034   2.002 -2.6580 -1.1363  0.6383
22009SOL    HW271990   6.149   8.116   2.122 -0.2357 -0.6267 -0.5071
22010SOL     OW71991   5.581   9.161   0.102  0.0898 -0.0076  0.1663
22010SOL    HW171992   5.560   9.072   0.132 -1.5851  0.4156  0.3512
22010SOL    HW271993   5.619   9.203   0.179 -0.0119 -0.2779  0.3676
22011SOL     OW71994   2.928   4.995   8.240 -0.1086 -0.3608  0.4910
22011SOL    HW171995   2.931   4.903   8.217  2.9583 -0.3692  0.5678
22011SOL    HW271996   2.902   4.996   8.333 -1.4646 -0.9956  0.1448
22012SOL     OW71997   1.536   5.793   8.963  0.3402  0.1916 -0.6825
22012SOL    HW171998   1.465   5.794   9.027 -0.4947  0.8362 -1.5694
22012SOL    HW271999   1.551   5.886   8.944  0.4760  0.0062 -1.5061
22013SOL     OW72000   2.404   8.687   8.167 -0.3101 -0.1083  0.3695
22013SOL    HW172001   2.356   8.604   8.168  0.5784 -0.6395  1.6864
22013SOL    HW272002   2.339   8.752   8.140 -0.7894 -1.3506 -1.6032
22014SOL     OW72003   5.934   7.962   4.018 -0.0492 -0.0309  0.0376
22014SOL    HW172004   5.928   8.054   3.990  0.4698 -0.4198 -1.4842
22014SOL    HW272005   5.961   7.916   3.939  0.0735 -1.4501  0.8856
22015SOL     OW72006   0.729   4.982   3.339  0.4987  0.2217  0.3850
22015SOL    HW172007   0.699   4.892   3.355  0.4229  0.3422  0.9836
22015SOL    HW272008   0.677   5.034   3.401  0.8441  0.6248  0.3339
22016SOL     OW72009   3.687   1.791   0.137  0.9023  0.0727 -0.0786
22016SOL    HW172010   3.765   1.825   0.180 -0.5861  0.6565  2.3664
22016SOL    HW272011   3.670   1.707   0.180 -0.6668  0.6985  0.6333
22017SOL     OW72012   3.512   8.284   4.845 -0.3676 -0.4176  0.1025
22017SOL    HW172013   3.429   8.239   4.826  0.7019 -2.6680  0.4706
22017SOL    HW272014   3.491   8.377   4.837 -2.3045 -0.9690 -2.3042
22018SOL     OW72015   5.715   7.916   5.797  0.0914 -0.6948  0.2097
22018SOL    HW172016   5.767   7.847   5.838  1.4494 -1.0372 -1.9178
22018SOL    HW272017   5.776   7.989   5.788 -0.4747 -0.2736 -0.2431
22019SOL     OW72018   5.717   3.084   8.881 -0.2978  0.3015  0.1879
22019SOL    HW172019   5.803   3.081   8.840  0.4691  1.3735  1.6660
22019SOL    HW272020   5.701   3.176   8.900 -0.5940 -0.1291  2.3075
22020SOL     OW72021   8.878   0.029   5.566 -0.6664  0.3777  0.1728
22020SOL    HW172022   8.930  -0.021   5.629 -0.0520  1.4157  0.5064
22020SOL    HW272023   8.939   0.093   5.530 -1.4155  0.8285 -0.3162
22021SOL     OW72024   0.828   3.704   4.320  0.3205  0.3924 -0.1485
22021SOL    HW172025   0.819   3.773   4.255 -3.0158 -0.8307 -1.1650
22021SOL    HW272026   0.867   3.631   4.272 -2.5939 -0.6801 -1.0988
22022SOL     OW72027   4.843   0.133   0.449  0.0734  0.5103 -0.6649
22022SOL    HW172028   4.813   0.043   0.467 -0.7663  1.1603  1.6802
22022SOL    HW272029   4.770   0.188   0.478  1.2515  2.0026 -0.4106
22023SOL     OW72030   5.670   8.391   1.673  0.1476  0.1623  0.2119
22023SOL    HW172031   5.697   8.390   1.765  0.4563 -1.3611  0.1157
22023SOL    HW272032   5.707   8.473   1.639  2.0587 -0.3585  0.8705
22024SOL     OW72033   1.463   7.474   6.737 -0.1511  0.0773 -0.1856
22024SOL    HW172034   1.520   7.400   6.759 -0.5971 -0.1052  0.3880
22024SOL    HW272035   1.380   7.433   6.711 -1.2470  0.3823  2.5071
22025SOL     OW72036   8.324   4.921   6.095 -0.4528  0.1545  0.0066
22025SOL    HW172037   8.280   4.975   6.029 -1.2939  0.7185  0.9991
22025SOL    HW272038   8.297   4.959   6.179  0.1231 -0.9071  0.6916
22026SOL     OW72039   4.028   4.774   0.034 -0.3616 -0.2407 -0.5912
22026SOL    HW172040   4.100   4.821  -0.008  0.3518 -0.2251  0.6108
22026SOL    HW272041   4.033   4.685  -0.001  0.2868 -0.2626 -0.4470
22027SOL     OW72042   8.480   2.915   5.899  0.6632 -0.1240  0.2719
22027SOL    HW172043   8.462   3.009   5.895 -0.4240 -0.3354 -2.9738
22027SOL    HW272044   8.451   2.888   5.986 -1.4534  2.1286  0.3736
22028SOL     OW72045   3.752   7.775   2.391 -0.8557 -0.0623 -0.0463
22028SOL    HW172046   3.767   7.774   2.486 -0.7209  0.5644 -0.0563
22028SOL    HW272047   3.806   7.847   2.359 -1.3589  0.1114 -0.5239
22029SOL     OW72048   4.050   8.611   0.030  0.0038 -0.1321 -0.2156
22029SOL    HW172049   4.062   8.651  -0.056 -0.9334 -1.2385 -0.8859
22029SOL    HW272050   3.958   8.588   0.033  0.0797 -0.3310  1.0008
22030SOL     OW72051   6.799   2.383   8.979  0.5505 -0.0497  0.0613
22030SOL    HW172052   6.785   2.474   9.007  0.5035 -0.5404  1.7762
22030SOL    HW272053   6.894   2.371   8.982  0.6653  0.3395 -1.5697
22031SOL     OW72054   2.911   1.781   8.186  0.1890  0.2542  0.4744
22031SOL    HW172055   2.955   1.786   8.271 -1.2948 -0.5644  1.3228
22031SOL    HW272056   2.829   1.829   8.198 -0.9006 -1.4385  0.0961
22032SOL     OW72057   0.093   1.502   8.647  0.3282 -0.1811 -0.7444
22032SOL    HW172058   0.168   1.558   8.627  0.1738 -0.4589 -2.2368
22032SOL    HW272059   0.054   1.483   8.562 -0.8424 -0.8759 -0.0836
22033SOL     OW72060   5.808   2.474   7.636  0.0488 -0.2961  0.0459
22033SOL    HW172061   5.715   2.485   7.658 -0.3397 -2.8750  0.0458
22033SOL    HW272062   5.855   2.517   7.707 -1.1581 -0.6309  1.0832
22034SOL     OW72063   1.484   0.387   3.862 -0.2372  0.3160  0.3145
22034SOL    HW172064   1.394   0.356   3.871 -0.8065  1.8978  0.4662
22034SOL    HW272065   1.523   0.373   3.949 -0.1676 -0.8072  0.1189
22035SOL     OW72066   0.129   5.498   4.143 -0.6589  0.0451 -0.3841
22035SOL    HW172067   0.121   5.537   4.230 -0.3395 -0.1100 -0.2814
22035SOL    HW272068   0.039   5.495   4.109 -0.6328  1.3665 -0.6254
22036SOL     OW72069   7.399   1.302   0.585  0.3799 -0.1072  0.4302
22036SOL    HW172070   7.306   1.281   0.589 -0.1336  1.5579 -1.5059
22036SOL    HW272071   7.413   1.365   0.655 -0.6404  1.8220 -1.0084
22037SOL     OW72072   0.669   4.320   5.622  0.3192 -0.6506 -0.0432
22037SOL    HW172073   0.741   4.342   5.563  0.0786 -1.8298 -0.7947
22037SOL    HW272074   0.591   4.320   5.566 -0.0340 -0.9642  0.4454
22038SOL     OW72075   9.217   7.175   2.421 -0.1587 -0.1842  0.6710
22038SOL    HW172076   9.141   7.128   2.456 -1.4620 -3.0264 -4.8355
22038SOL    HW272077   9.181   7.230   2.351  2.5475  1.6897  0.5949
22039SOL     OW72078   5.775   9.064   7.929 -0.3757  0.6018 -0.5844
22039SOL    HW172079   5.772   9.158   7.943 -0.0143  1.2280 -3.9143
22039SOL    HW272080   5.854   9.050   7.876 -0.1861 -1.6435  0.2036
22040SOL     OW72081   7.070   6.658   1.739  0.0741  0.1211  0.0559
22040SOL    HW172082   7.157   6.688   1.714  1.1621 -1.9114  1.1186
22040SOL    HW272083   7.063   6.679   1.833  0.1243 -1.1483  0.3685
22041SOL     OW72084   1.249   1.748   8.221  0.0548  0.4421  0.1587
22041SOL    HW172085   1.195   1.807   8.273  0.9811  0.2490  1.3878
22041SOL    HW272086   1.236   1.777   8.130 -1.1641  1.1429  0.5284
22042SOL     OW72087   9.236   0.230   3.102 -0.1493 -0.3655  0.3098
22042SOL    HW172088   9.151   0.249   3.062  0.1014 -2.3212 -1.3245
22042SOL    HW272089   9.298   0.233   3.028  0.8453 -1.0982  1.0837
22043SOL     OW72090   5.670   5.414   3.264 -0.2918  0.0094 -0.2225
22043SOL    HW172091   5.699   5.335   3.218 -0.7067  0.1138 -0.6585
22043SOL    HW272092   5.678   5.391   3.357 -1.2188 -0.8552 -0.3410
22044SOL     OW72093   1.375   6.863   8.371  0.3388  0.0559  0.0379
22044SOL    HW172094   1.368   6.774   8.407 -0.6812 -0.2517 -0.8408
22044SOL    HW272095   1.350   6.921   8.442 -2.7968 -0.5908 -0.3873
22045SOL     OW72096   2.399   4.109   7.197  0.2365  0.0027 -0.9620
22045SOL    HW172097   2.438   4.052   7.263  1.2515  0.3421 -1.2337
22045SOL    HW272098   2.350   4.050   7.139  0.4755 -0.4672 -0.6867
22046SOL     OW72099   2.808   3.716   8.497 -0.7106  0.0201  0.4677
22046SOL    HW172100   2.768   3.669   8.570  0.4580  1.1782  1.9204
22046SOL    HW272101   2.763   3.800   8.496 -0.6667  0.0362 -0.1080
22047SOL     OW72102   4.011   5.230   1.982 -0.0713  0.6003 -0.3154
22047SOL    HW172103   3.987   5.138   1.992 -1.3277  0.6925 -2.0592
22047SOL    HW272104   4.067   5.248   2.058 -0.7844 -1.2524  0.7303
22048SOL     OW72105   4.857   0.047   6.953 -0.0274 -0.0335 -0.0186
22048SOL    HW172106   4.833   0.033   7.045  1.0491 -1.2510  0.1069
22048SOL    HW272107   4.822   0.133   6.932 -1.8353 -0.4603  1.0039
22049SOL     OW72108   6.212   3.677   6.557 -0.3440  0.1305  0.3959
22049SOL    HW172109   6.264   3.597   6.544 -1.3855 -0.4212 -0.5579
22049SOL    HW272110   6.204   3.715   6.470 -0.1774  1.0880  0.7859
22050SOL     OW72111   3.024   3.247   2.600 -0.1053  0.4474  0.4278
22050SOL    HW172112   2.937   3.215   2.621 -0.1864  1.0444  1.0500
22050SOL    HW272113   3.019   3.341   2.616  0.8306  0.3936  1.0902
22051SOL     OW72114   8.914   4.398   3.477  0.3834 -0.6206 -0.0802
22051SOL    HW172115   8.894   4.313   3.516  0.4148 -0.4164  0.3852
22051SOL    HW272116   8.828   4.435   3.456  0.2895 -0.0754  1.2119
22052SOL     OW72117   8.552   7.233   5.093 -0.2229  0.5955 -0.2801
22052SOL    HW172118   8.529   7.276   5.010  0.0878  1.2533 -0.0312
22052SOL    HW272119   8.496   7.156   5.096  0.1054  0.2919 -1.3399
22053SOL     OW72120   0.123   3.343   1.176 -0.2979 -0.4577 -0.5544
22053SOL    HW172121   0.211   3.344   1.214 -0.1478  0.5828 -0.9098
22053SOL    HW272122   0.136   3.363   1.084 -1.0694  2.0940 -0.1914
22054SOL     OW72123   0.221   3.924   9.016 -0.5704 -0.2709  0.2800
22054SOL    HW172124   0.252   3.933   8.926 -0.9053  1.6873  0.3365
22054SOL    HW272125   0.140   3.874   9.009 -0.6128 -0.1023 -0.5058
22055SOL     OW72126   3.389   3.992   2.216 -0.3336 -0.4924 -0.3713
22055SOL    HW172127   3.357   3.948   2.138 -1.8055 -0.0675 -0.0377
22055SOL    HW272128   3.386   4.085   2.194 -2.1159 -0.2749  0.6368
22056SOL     OW72129   3.128   6.492   2.357 -0.1382 -0.1697  0.0127
22056SOL    HW172130   3.213   6.460   2.328  0.1812 -0.1087  0.8675
22056SOL    HW272131   3.066   6.455   2.293  0.5999  0.4936 -1.1271
22057SOL     OW72132   0.779   5.618   6.862  0.3119 -0.3018 -0.5651
22057SOL    HW172133   0.692   5.582   6.843  0.5587 -1.1525 -0.1134
22057SOL    HW272134   0.840   5.551   6.830  0.7886  0.0209 -0.3368
22058SOL     OW72135   4.318   1.781   2.367 -0.1551  0.2720 -0.4690
22058SOL    HW172136   4.313   1.695   2.325 -0.2070 -0.8333  1.6616
22058SOL    HW272137   4.227   1.810   2.372 -0.2954 -0.2715  0.1930
22059SOL     OW72138   5.486   6.024   6.925 -0.5304  0.0588 -0.2890
22059SOL    HW172139   5.428   6.045   6.997 -1.6762 -0.7408 -0.9491
22059SOL    HW272140   5.570   6.002   6.967 -0.6492  1.3158  0.6624
22060SOL     OW72141   8.982   7.425   7.338 -0.2925  0.2649 -0.0442
22060SOL    HW172142   9.069   7.385   7.333  0.1643  1.1610  0.4794
22060SOL    HW272143   8.968   7.441   7.431 -2.6464 -3.2547  0.3783
22061SOL     OW72144   3.323   6.554   6.033 -0.0672 -0.0531  0.0772
22061SOL    HW172145   3.347   6.503   6.110 -0.7377 -1.1024 -0.3854
22061SOL    HW272146   3.347   6.644   6.056  0.8829 -0.5195  1.0181
22062SOL     OW72147   0.530   3.032   1.901  0.0958  0.2202  0.1579
22062SOL    HW172148   0.512   3.066   1.814 -1.8646  0.0960  0.4734
22062SOL    HW272149   0.550   3.110   1.953  2.8020  0.1636 -0.6865
22063SOL     OW72150   8.238   6.830   5.629  0.7048 -0.3183  0.3290
22063SOL    HW172151   8.185   6.791   5.560  1.0594 -1.4757  0.6962
22063SOL    HW272152   8.277   6.907   5.588  0.6870 -0.8269 -0.6826
22064SOL     OW72153   6.132   8.958   2.057  0.1394 -0.0499 -0.7500
22064SOL    HW172154   6.075   9.030   2.031 -0.6095  0.0787  1.0862
22064SOL    HW272155   6.171   8.987   2.139  1.8628 -0.6893 -1.2932
22065SOL     OW72156   7.844   6.048   6.166 -0.2876  0.0606  0.0784
22065SOL    HW172157   7.898   6.122   6.138 -1.0381  0.4978 -0.2247
22065SOL    HW272158   7.781   6.036   6.095 -2.9742  1.8979  2.0047
22066SOL     OW72159   2.418   0.540   1.079 -0.4117 -0.6135  0.3686
22066SOL    HW172160   2.466   0.547   0.997 -3.6586 -1.1792 -1.7546
22066SOL    HW272161   2.383   0.628   1.094 -0.1689 -0.6083  0.9459
22067SOL     OW72162   3.449   4.198   1.336  0.0766 -0.6274 -0.0788
22067SOL    HW172163   3.380   4.213   1.272  2.9588  0.3239 -3.2362
22067SOL    HW272164   3.527   4.239   1.298  2.0236  0.0981  4.1470
22068SOL     OW72165   8.849   2.289   8.925 -0.7180 -0.3769 -0.0172
22068SOL    HW172166   8.913   2.221   8.949 -0.6173 -0.2240  0.1465
22068SOL    HW272167   8.860   2.357   8.991 -1.1954 -0.4437  0.1364
22069SOL     OW72168   8.146   7.896   8.091  0.5830  0.5336  0.1702
22069SOL    HW172169   8.218   7.911   8.152 -0.4511  1.5853  1.1761
22069SOL    HW272170   8.106   7.814   8.119 -1.0408  1.9196  2.1488
22070SOL     OW72171   5.344   9.329   6.611 -0.8014  0.4034  0.0363
22070SOL    HW172172   5.385   9.242   6.611 -0.9187  0.2829 -2.3261
22070SOL    HW272173   5.251   9.312   6.595 -0.6228  0.9874 -1.8044
22071SOL     OW72174   9.116   5.368   0.805 -0.2166 -0.3641 -0.0367
22071SOL    HW172175   9.197   5.343   0.850 -0.2806 -1.6174 -0.5540
22071SOL    HW272176   9.145   5.396   0.718 -0.2483  0.1940  0.1348
22072SOL     OW72177   1.580   5.189   7.316  0.1826 -0.0843  0.0616
22072SOL    HW172178   1.614   5.179   7.405  0.8467  0.5367 -0.1145
22072SOL    HW272179   1.657   5.206   7.262 -0.3190  0.5590 -0.4771
22073SOL     OW72180   6.637   2.254   3.696 -0.2616 -0.5257 -0.2853
22073SOL    HW172181   6.654   2.162   3.674 -0.8896 -0.2981 -1.8565
22073SOL    HW272182   6.557   2.252   3.748 -0.6985 -0.8359 -0.9489
22074SOL     OW72183   0.256   6.569   0.391  0.4661  0.4867  0.0925
22074SOL    HW172184   0.285   6.478   0.396  0.7419  0.4400 -1.7512
22074SOL    HW272185   0.182   6.574   0.452 -1.4199 -1.7450 -1.7764
22075SOL     OW72186   2.807   3.948   8.776  0.6083 -0.5356  0.5394
22075SOL    HW172187   2.854   3.866   8.791  0.3386 -0.6756  0.6255
22075SOL    HW272188   2.786   3.980   8.864  0.3357 -0.5934  0.4957
22076SOL     OW72189   1.760   2.057   7.628  0.2837  0.0507 -0.3260
22076SOL    HW172190   1.724   2.006   7.700 -0.1657 -0.8568 -1.1733
22076SOL    HW272191   1.697   2.129   7.616  0.2888  0.1264  0.0850
22077SOL     OW72192   8.196   4.293   4.426 -0.0309  0.2467  0.2014
22077SOL    HW172193   8.282   4.287   4.467 -0.9424 -0.1562  2.1849
22077SOL    HW272194   8.148   4.218   4.462 -1.0870  0.1824 -1.2431
22078SOL     OW72195   4.148   7.157   5.769  0.5153 -0.2680  0.0411
22078SOL    HW172196   4.156   7.070   5.808 -0.6678 -0.5062 -0.2148
22078SOL    HW272197   4.101   7.208   5.836 -0.2739 -0.2968 -0.4757
22079SOL     OW72198   6.880   3.692   1.007 -0.1575 -0.3549 -0.2943
22079SOL    HW172199   6.944   3.700   0.936  1.4357  0.0899  1.1522
22079SOL    HW272200   6.852   3.601   1.004 -0.4617 -0.2399 -1.7557
22080SOL     OW72201   1.604   4.685   3.240  0.0989 -0.3358  0.6400
22080SOL    HW172202   1.686   4.715   3.280 -1.7527  2.0276  2.9793
22080SOL    HW272203   1.594   4.595   3.272  1.6568 -0.6184  0.4401
22081SOL     OW72204   0.913   5.991   0.760 -0.1924 -0.0318  0.0707
22081SOL    HW172205   0.985   6.054   0.754 -1.1872  1.0708 -0.4187
22081SOL    HW272206   0.863   6.018   0.837  1.1594 -2.1778  1.8391
22082SOL     OW72207   0.372   4.341   7.463 -0.1879 -0.0858  0.5806
22082SOL    HW172208   0.391   4.251   7.436  2.1486  0.5631 -0.1597
22082SOL    HW272209   0.440   4.362   7.527 -0.3127  1.3365  0.2793
22083SOL     OW72210   3.637   8.111   8.799  0.1905 -0.3906 -0.2376
22083SOL    HW172211   3.602   8.185   8.749 -0.9258 -0.3527  0.5888
22083SOL    HW272212   3.686   8.151   8.870  1.7899 -0.4466 -1.2446
22084SOL     OW72213   2.650   0.313   6.060  0.2383 -0.0124  0.0741
22084SOL    HW172214   2.636   0.261   6.139  1.2291 -0.3642  0.0362
22084SOL    HW272215   2.564   0.318   6.019 -0.0886 -0.7031  0.6440
22085SOL     OW72216   0.232   3.355   1.866  0.8527  0.7661  0.5674
22085SOL    HW172217   0.254   3.442   1.833  2.4104 -0.1723 -1.0550
22085SOL    HW272218   0.300   3.297   1.830 -0.9390 -1.3683  0.3838
22086SOL     OW72219   5.394   4.121   0.246 -0.0361  0.1264  0.0319
22086SOL    HW172220   5.322   4.148   0.189  0.7443  1.0291 -0.5563
22086SOL    HW272221   5.416   4.200   0.296  1.0108  0.0729 -0.3197
22087SOL     OW72222   7.747   2.009   1.375  0.2707 -0.0562 -0.3182
22087SOL    HW172223   7.718   2.069   1.444  0.4805  0.4647 -0.6805
22087SOL    HW272224   7.763   2.065   1.299  0.9879 -0.4969 -0.5012
22088SOL     OW72225   8.677   7.178   3.608 -0.2828  0.2319 -0.0805
22088SOL    HW172226   8.733   7.243   3.650  0.8365 -0.0256 -1.0960
22088SOL    HW272227   8.634   7.226   3.537 -3.3250  1.0410  2.1356
22089SOL     OW72228   3.445   3.050   8.234  0.0880  0.0675 -0.1788
22089SOL    HW172229   3.368   3.064   8.289  0.8515  1.4472  0.6144
22089SOL    HW272230   3.436   3.115   8.164  0.0532 -0.4273 -0.6397
22090SOL     OW72231   1.172   5.350   1.095 -0.5079  0.3101 -1.1192
22090SOL    HW172232   1.151   5.346   1.001 -0.8338  1.6519 -1.1234
22090SOL    HW272233   1.090   5.377   1.136  0.5192  3.5175 -0.8977
22091SOL     OW72234   8.927   2.676   2.367 -0.1519  0.5803  0.9231
22091SOL    HW172235   8.884   2.760   2.350  0.3889  0.7821  0.5072
22091SOL    HW272236   8.857   2.618   2.396 -0.6365  1.0059  0.6121
22092SOL     OW72237   6.983   4.716   1.333 -0.4807  0.2775 -0.1902
22092SOL    HW172238   7.057   4.661   1.358 -0.5965 -0.0901 -0.6370
22092SOL    HW272239   6.954   4.757   1.415 -1.0273 -1.1169  0.3458
22093SOL     OW72240   4.266   3.139   0.143  0.4384 -0.1253  0.5538
22093SOL    HW172241   4.350   3.185   0.137  0.3133  0.2270  1.3395
22093SOL    HW272242   4.224   3.154   0.058  1.5081 -1.0089 -0.1718
22094SOL     OW72243   0.255   7.905   5.818 -0.0668  0.2354  0.1002
22094SOL    HW172244   0.315   7.894   5.892  1.2787  0.2853 -0.9492
22094SOL    HW272245   0.168   7.888   5.855  0.7758 -2.2163  1.1401
22095SOL     OW72246   4.090   1.412   8.609 -0.2429 -0.0251 -0.2109
22095SOL    HW172247   4.060   1.424   8.699 -0.9900 -0.3654 -0.4081
22095SOL    HW272248   4.087   1.499   8.571 -2.4386 -0.2257 -0.6544
22096SOL     OW72249   0.733   0.289   1.778 -0.8047  0.0404  0.2032
22096SOL    HW172250   0.681   0.335   1.711  0.1888  2.1187  0.7667
22096SOL    HW272251   0.810   0.258   1.731 -0.7263  0.3424  0.1313
22097SOL     OW72252   3.257   6.695   1.481  0.4176  0.2255 -0.0915
22097SOL    HW172253   3.241   6.727   1.392  2.3384 -0.1210 -0.6219
22097SOL    HW272254   3.230   6.603   1.479 -2.6427  1.0137  0.6859
22098SOL     OW72255   8.975   8.682   5.260  0.1227  0.4490 -0.2147
22098SOL    HW172256   8.917   8.682   5.184 -2.1503  0.7187  1.4100
22098SOL    HW272257   8.916   8.685   5.335  2.2620  2.6895  1.5566
22099SOL     OW72258   5.614   1.248   3.010  0.2855  0.4900 -0.4049
22099SOL    HW172259   5.627   1.160   3.047 -0.7133 -0.4728 -2.2202
22099SOL    HW272260   5.699   1.290   3.017  1.6383 -1.7331 -2.2292
22100SOL     OW72261   2.686   0.033   0.655  0.0680  0.0659  0.1555
22100SOL    HW172262   2.776   0.009   0.673 -0.5106 -1.0692  1.7442
22100SOL    HW272263   2.651  -0.040   0.604  0.0345  0.5252 -0.5022
22101SOL     OW72264   8.631   2.899   6.202 -0.2904  0.1632  0.1903
22101SOL    HW172265   8.615   2.977   6.256 -1.7562 -1.6512  2.5960
22101SOL    HW272266   8.544   2.872   6.172  0.3725  0.3602 -2.0712
22102SOL     OW72267   8.889   4.891   6.027 -0.4390  0.4993 -0.8487
22102SOL    HW172268   8.880   4.946   5.950 -1.6251 -0.3194 -1.3392
22102SOL    HW272269   8.812   4.834   6.025  1.0648 -1.6706 -0.7678
22103SOL     OW72270   6.448   5.426   2.628  0.4510  0.2217  0.4231
22103SOL    HW172271   6.460   5.520   2.643 -2.3944  0.4816  1.7438
22103SOL    HW272272   6.354   5.413   2.634  0.6571 -2.5785 -0.9089
22104SOL     OW72273   4.324   9.102   2.767  0.2296  0.3880 -0.0740
22104SOL    HW172274   4.291   9.092   2.857 -0.6847  0.4903 -0.3888
22104SOL    HW272275   4.417   9.080   2.773  0.0640 -0.1183  0.8038
22105SOL     OW72276   3.562   3.092   0.424  0.2070 -0.4556 -0.5348
22105SOL    HW172277   3.497   3.097   0.493  0.1685  0.6876 -0.6405
22105SOL    HW272278   3.575   2.998   0.410 -0.9364 -0.6939 -0.0698
22106SOL     OW72279   2.509   7.841   9.306  0.1321  0.3702 -0.1960
22106SOL    HW172280   2.434   7.787   9.282  1.1928 -1.2342 -0.0473
22106SOL    HW272281   2.550   7.864   9.222 -0.0505  0.5482 -0.2371
22107SOL     OW72282   3.251   2.820   3.887  0.2568  0.6344 -0.2733
22107SOL    HW172283   3.200   2.885   3.838 -0.3922  1.3497  1.2770
22107SOL    HW272284   3.302   2.775   3.821 -0.4714  1.6572 -1.5867
22108SOL     OW72285   7.632   7.031   7.110 -0.9377 -0.1350  0.3254
22108SOL    HW172286   7.553   6.991   7.146 -1.1516 -0.3576 -0.3847
22108SOL    HW272287   7.684   7.055   7.187 -1.2787 -0.8258  0.7753
22109SOL     OW72288   3.748   2.171   3.224  0.4758 -0.4834  0.2127
22109SOL    HW172289   3.679   2.214   3.174  1.4905  1.2664  0.2361
22109SOL    HW272290   3.704   2.137   3.302 -0.6838 -1.1618 -0.7069
22110SOL     OW72291   4.349   4.427   0.981 -0.4454  0.6984  0.3076
22110SOL    HW172292   4.343   4.520   1.004  0.5233  0.6400  0.8588
22110SOL    HW272293   4.436   4.418   0.942 -0.4347 -0.0215  0.4858
22111SOL     OW72294   3.095   1.620   0.644 -0.3923 -0.0139 -0.0097
22111SOL    HW172295   3.099   1.667   0.561 -1.8164 -0.9859 -0.6743
22111SOL    HW272296   3.115   1.686   0.710 -0.8307  1.1606 -1.0049
22112SOL     OW72297   6.686   6.864   8.040  0.2246  1.0142 -0.8911
22112SOL    HW172298   6.646   6.822   7.964 -0.2235 -1.1475  0.4370
22112SOL    HW272299   6.614   6.872   8.103  1.3987 -1.5268  0.9719
22113SOL     OW72300   4.862   5.967   7.934  0.0627 -0.1777  0.2242
22113SOL    HW172301   4.875   5.934   8.023  2.9718  1.7530  0.6370
22113SOL    HW272302   4.842   6.060   7.946  1.4513  0.3251 -1.1508
22114SOL     OW72303   6.840   0.777   3.944  0.2108 -0.2071  0.2991
22114SOL    HW172304   6.932   0.771   3.969  0.5157 -3.1385 -1.1145
22114SOL    HW272305   6.839   0.838   3.871  0.4397  2.3568  2.2685
22115SOL     OW72306   6.249   2.570   6.544  0.4399  0.7280  0.3117
22115SOL    HW172307   6.158   2.581   6.515  0.6832 -0.0208 -0.8267
22115SOL    HW272308   6.297   2.639   6.498  0.1539  2.6386  2.6930
22116SOL     OW72309   6.132   0.354   4.064  0.2297  0.2205 -0.1250
22116SOL    HW172310   6.164   0.444   4.061 -0.3257  0.4746  0.9593
22116SOL    HW272311   6.140   0.330   4.157 -0.0823 -0.6753 -0.3246
22117SOL     OW72312   2.224   3.994   5.673  0.7185 -0.2361 -0.2338
22117SOL    HW172313   2.172   3.995   5.754  0.2799 -0.9369 -0.5053
22117SOL    HW272314   2.198   4.074   5.627 -0.6121 -0.8956 -0.6687
22118SOL     OW72315   8.993   5.669   3.671  0.3887  0.2052 -0.5828
22118SOL    HW172316   8.898   5.663   3.681  0.3246  2.7795  1.5723
22118SOL    HW272317   9.005   5.729   3.597  0.1690  2.0549  0.7916
22119SOL     OW72318   4.439   8.439   8.213  0.5470 -0.6004 -0.4114
22119SOL    HW172319   4.381   8.374   8.173  0.0014 -0.3595 -0.0239
22119SOL    HW272320   4.455   8.503   8.144 -0.0818 -0.3886 -0.3718
22120SOL     OW72321   1.144   2.423   3.174  0.3699  0.3066 -0.0489
22120SOL    HW172322   1.147   2.442   3.268  0.1638  1.0760 -0.1939
22120SOL    HW272323   1.056   2.448   3.146  0.6519  0.7255 -0.5794
22121SOL     OW72324   2.555   5.519   2.700  0.2253 -0.0324 -0.0517
22121SOL    HW172325   2.588   5.433   2.674 -0.6070 -0.4142  0.1360
22121SOL    HW272326   2.633   5.567   2.730  0.6134 -0.9164  0.3783
22122SOL     OW72327   6.577   2.854   6.607 -0.0713 -0.0124 -0.3677
22122SOL    HW172328   6.559   2.942   6.640 -1.2532 -0.0349 -0.9199
22122SOL    HW272329   6.608   2.806   6.684  1.6356  1.1346 -0.2580
22123SOL     OW72330   4.310   0.396   5.410 -0.0022  0.2976 -0.6782
22123SOL    HW172331   4.383   0.361   5.462 -0.9578 -0.5928  0.1107
22123SOL    HW272332   4.250   0.322   5.401  0.1561  0.4034 -3.1484
22124SOL     OW72333   5.401   3.087   4.539 -0.1652 -0.5781  0.4970
22124SOL    HW172334   5.474   3.034   4.505  1.7352  0.2976  2.8376
22124SOL    HW272335   5.371   3.038   4.616 -0.0788  0.4402  1.2075
22125SOL     OW72336   5.166   3.802   0.312  0.0949  0.3229  0.2297
22125SOL    HW172337   5.156   3.709   0.291 -0.6176  0.2374  0.9281
22125SOL    HW272338   5.212   3.838   0.236 -0.3862 -0.4319 -0.4390
22126SOL     OW72339   5.674   8.094   0.970 -0.2719  0.4396  0.3301
22126SOL    HW172340   5.613   8.156   1.009 -2.3892 -0.2872 -1.5454
22126SOL    HW272341   5.750   8.146   0.945 -0.7280  1.6854  1.4514
22127SOL     OW72342   7.433   6.771   2.650  0.3937  0.0567 -0.0840
22127SOL    HW172343   7.513   6.817   2.676  0.9470 -0.7358 -0.3218
22127SOL    HW272344   7.464   6.703   2.589 -0.2235 -1.3613  1.1019
22128SOL     OW72345   8.359   1.114   0.099  0.0588  0.3774 -0.1750
22128SOL    HW172346   8.310   1.039   0.133 -0.2326  0.3934 -0.5582
22128SOL    HW272347   8.366   1.174   0.173  1.7763 -0.7563  0.6592
22129SOL     OW72348   4.737   0.451   1.772 -0.5810  0.3330 -0.6419
22129SOL    HW172349   4.718   0.544   1.777  1.7702  0.8527 -0.2005
22129SOL    HW272350   4.809   0.444   1.709 -0.0022 -1.0476  0.1211
22130SOL     OW72351   3.817   6.123   7.807  0.0874 -0.0666  0.0958
22130SOL    HW172352   3.905   6.105   7.838 -0.1574 -0.8118  0.3945
22130SOL    HW272353   3.761   6.061   7.856 -0.4991 -0.1406 -0.6464
22131SOL     OW72354   5.592   4.161   5.980 -0.1900 -0.6535  0.3262
22131SOL    HW172355   5.612   4.104   6.055  1.4212  1.3702  1.5565
22131SOL    HW272356   5.670   4.216   5.971 -0.6567 -0.3301 -2.4176
22132SOL     OW72357   5.236   5.759   7.872 -0.1833  1.0613 -0.0316
22132SOL    HW172358   5.297   5.804   7.931 -0.6303 -0.6213  1.8374
22132SOL    HW272359   5.185   5.830   7.832  0.4796  2.3213  1.2363
22133SOL     OW72360   3.091   1.203   0.755 -0.2581 -0.4699 -0.2903
22133SOL    HW172361   3.172   1.184   0.801 -1.0293 -1.0668  0.8769
22133SOL    HW272362   3.047   1.269   0.808  0.1491  1.0329 -1.7412
22134SOL     OW72363   4.067   0.014   5.588 -0.0628  0.6887  0.0213
22134SOL    HW172364   4.097   0.046   5.503 -0.5536  0.1044 -0.3818
22134SOL    HW272365   3.980  -0.023   5.570  1.0760 -2.2823  0.1360
22135SOL     OW72366   5.949   1.884   2.122 -0.1333  0.4312  0.4609
22135SOL    HW172367   6.009   1.934   2.177  0.7930  0.9100 -0.9364
22135SOL    HW272368   5.986   1.796   2.121  1.2113  0.9537 -1.2228
22136SOL     OW72369   0.101   0.918   3.566  0.2043 -0.1843 -0.2554
22136SOL    HW172370   0.189   0.952   3.551  0.6778 -1.7314 -1.1638
22136SOL    HW272371   0.053   0.938   3.486 -0.9084  2.3417  0.9181
22137SOL     OW72372   8.892   2.331   1.317  0.4065 -0.7464  0.2084
22137SOL    HW172373   8.870   2.342   1.225 -1.0932  0.6155  0.6896
22137SOL    HW272374   8.968   2.271   1.316  1.3872  0.3964 -1.9707
22138SOL     OW72375   1.366   4.919   8.540  0.5056 -0.0376 -0.4542
22138SOL    HW172376   1.392   4.988   8.479 -0.0319  0.8649  0.3025
22138SOL    HW272377   1.447   4.895   8.585  0.4826  1.1081  0.2485
22139SOL     OW72378   4.201   3.925   4.582  0.1849  0.0216  0.3225
22139SOL    HW172379   4.266   3.907   4.515 -1.6570 -0.4782 -1.4333
22139SOL    HW272380   4.163   4.009   4.557  0.8840  0.8817  1.9772
22140SOL     OW72381   7.083   7.085   7.475  0.2818 -0.7636  0.1847
22140SOL    HW172382   7.098   6.997   7.441  1.9264  0.1443 -1.6269
22140SOL    HW272383   7.170   7.126   7.476 -0.6337  1.3506 -0.5457
22141SOL     OW72384   6.248   8.761   3.889  0.0043  0.0947 -0.3106
22141SOL    HW172385   6.262   8.686   3.832 -2.0319 -1.1076  0.6550
22141SOL    HW272386   6.190   8.820   3.840 -1.4963 -0.7975  0.3007
22142SOL     OW72387   6.353   3.258   0.272  0.6410 -0.0575  0.1773
22142SOL    HW172388   6.330   3.192   0.207  0.9018 -0.0207  0.0475
22142SOL    HW272389   6.332   3.341   0.230 -0.7267 -0.0864  0.7455
22143SOL     OW72390   5.232   2.404   5.787 -0.0730  0.7197  0.2171
22143SOL    HW172391   5.167   2.410   5.858 -0.2605 -3.6554  0.7181
22143SOL    HW272392   5.316   2.418   5.830 -0.3636  1.1873  0.6456
22144SOL     OW72393   3.300   4.184   1.956 -0.5355 -0.2129 -0.7416
22144SOL    HW172394   3.213   4.219   1.939 -1.2060 -1.2217  0.4481
22144SOL    HW272395   3.324   4.219   2.042  0.4312  0.4052 -1.2478
22145SOL     OW72396   7.109   8.338   0.169 -0.2578 -0.0984 -0.0709
22145SOL    HW172397   7.033   8.312   0.117  0.2041  1.1813 -1.4551
22145SOL    HW272398   7.182   8.338   0.107  0.3964  1.0212  0.6619
22146SOL     OW72399   4.172   2.619   8.253 -0.5331  0.5049  0.3881
22146SOL    HW172400   4.131   2.543   8.293 -1.4567  1.2155  0.8167
22146SOL    HW272401   4.131   2.626   8.166 -0.4771  0.5360  0.3635
22147SOL     OW72402   6.513   6.930   0.671 -0.2546  0.5035 -0.4530
22147SOL    HW172403   6.569   6.973   0.735 -0.4986  1.7124 -1.0323
22147SOL    HW272404   6.455   6.999   0.640 -0.5930 -0.2270 -1.4869
22148SOL     OW72405   7.267   8.840   0.438 -0.1300  0.6971  0.3547
22148SOL    HW172406   7.272   8.887   0.355  0.3943 -0.4607 -0.3003
22148SOL    HW272407   7.240   8.751   0.414 -1.1696  0.6570  1.5537
22149SOL     OW72408   6.651   8.556   9.291  0.4019  0.4391 -0.5136
22149SOL    HW172409   6.739   8.591   9.302  0.6618 -0.9272  3.1886
22149SOL    HW272410   6.594   8.621   9.332 -0.0343  0.1475 -0.6498
22150SOL     OW72411   6.786   0.788   3.518  0.8068 -0.5487  0.4483
22150SOL    HW172412   6.692   0.808   3.513  0.6381 -0.8793  1.8845
22150SOL    HW272413   6.807   0.750   3.432 -0.0654  0.7356 -0.3559
22151SOL     OW72414   4.092   8.907   1.512  0.2442 -0.2155  0.2169
22151SOL    HW172415   4.018   8.887   1.455  1.8076 -3.8743 -0.8261
22151SOL    HW272416   4.064   8.877   1.599 -0.2116  0.4484  0.3134
22152SOL     OW72417   8.737   0.719   7.808 -0.4279  0.3581  0.6154
22152SOL    HW172418   8.682   0.765   7.744 -0.9155  0.5499  1.1663
22152SOL    HW272419   8.823   0.759   7.798  0.0250 -0.9488 -1.2985
22153SOL     OW72420   3.682   2.903   1.537 -0.4754 -0.0103  0.3221
22153SOL    HW172421   3.597   2.915   1.579 -0.1193 -1.2373  1.4508
22153SOL    HW272422   3.662   2.858   1.455 -0.9648  0.3034  0.2650
22154SOL     OW72423   7.746   7.250   2.934 -0.0844 -0.0483  0.1394
22154SOL    HW172424   7.756   7.314   3.005 -0.6621 -1.6037  1.6879
22154SOL    HW272425   7.669   7.279   2.886  0.3129  1.0265  0.1072
22155SOL     OW72426   6.718   4.626   4.372 -0.0942  0.8119 -0.0365
22155SOL    HW172427   6.780   4.612   4.443  1.7207  0.3475 -1.6336
22155SOL    HW272428   6.632   4.623   4.414  0.8322 -1.0349  1.8735
22156SOL     OW72429   6.774   5.140   2.266 -0.1815  0.1116 -0.4351
22156SOL    HW172430   6.699   5.195   2.291 -1.3396 -0.6048 -2.1707
22156SOL    HW272431   6.761   5.058   2.313 -1.1016 -0.4022 -1.5539
22157SOL     OW72432   5.071   0.067   5.441 -0.0523  0.2077 -0.2266
22157SOL    HW172433   5.159   0.070   5.478  0.6212  0.0472 -1.7228
22157SOL    HW272434   5.051   0.158   5.420  0.3052  0.1139 -1.0399
22158SOL     OW72435   5.531   1.465   0.263  0.3779 -0.2618 -0.5353
22158SOL    HW172436   5.470   1.396   0.288 -0.3610  0.0169 -1.4899
22158SOL    HW272437   5.574   1.490   0.344 -1.4002  0.1169  0.3431
22159SOL     OW72438   0.954   7.002   2.546  0.2761 -0.0402  0.0922
22159SOL    HW172439   0.916   6.986   2.460  0.7557  0.2668 -0.1811
22159SOL    HW272440   0.977   6.915   2.579 -2.5089 -0.5009  1.1622
22160SOL     OW72441   7.001   1.783   8.628  0.7141  0.2175 -0.1684
22160SOL    HW172442   7.015   1.741   8.543 -0.4082  0.4493 -0.4746
22160SOL    HW272443   6.909   1.808   8.629 -0.1689 -2.4400  2.2828
22161SOL     OW72444   6.414   6.186   6.344  0.6868  0.7362 -0.5070
22161SOL    HW172445   6.415   6.230   6.429 -1.3944  0.6989 -0.4137
22161SOL    HW272446   6.440   6.096   6.364 -1.8000  0.1590  0.5172
22162SOL     OW72447   4.005   5.887   0.509 -0.2202  0.6016  0.1762
22162SOL    HW172448   4.067   5.957   0.490 -0.8613  0.9235 -0.7701
22162SOL    HW272449   3.981   5.900   0.601 -1.0350  2.1822 -0.2386
22163SOL     OW72450   2.116   6.443   6.762  0.0995  0.2254  0.1730
22163SOL    HW172451   2.139   6.410   6.849  0.7654 -0.1690 -0.1407
22163SOL    HW272452   2.200   6.445   6.715 -0.1474  1.0657 -0.2532
22164SOL     OW72453   5.179   7.917   8.628  0.4016  0.0410 -0.2397
22164SOL    HW172454   5.191   7.827   8.659  1.5027  0.4373  0.5571
22164SOL    HW272455   5.257   7.963   8.657 -0.1398  1.2648 -0.6441
22165SOL     OW72456   9.306   2.912   3.290  0.0603 -0.2069 -0.5024
22165SOL    HW172457   9.320   3.007   3.285 -1.8058  0.2150  1.1580
22165SOL    HW272458   9.241   2.894   3.222  0.1061 -0.2374 -0.5384
22166SOL     OW72459   4.059   6.732   7.425 -0.2875  0.2112 -0.5736
22166SOL    HW172460   3.997   6.668   7.391  0.9027 -2.0825  1.2517
22166SOL    HW272461   4.017   6.767   7.503 -0.2853  0.4609 -0.6848
22167SOL     OW72462   4.807   2.739   5.840 -0.0086  0.0233 -0.3147
22167SOL    HW172463   4.746   2.667   5.855 -0.3489  0.5160  0.7900
22167SOL    HW272464   4.774   2.782   5.761 -1.7855  0.9350  0.8397
22168SOL     OW72465   1.035   2.055   8.922 -0.1477  0.4458 -0.0568
22168SOL    HW172466   0.992   2.135   8.892 -0.7043  0.0659 -0.2967
22168SOL    HW272467   0.963   1.995   8.941  0.2702 -0.1971 -0.4431
22169SOL     OW72468   6.583   5.409   2.387  0.5184 -0.2527 -0.2287
22169SOL    HW172469   6.549   5.331   2.343 -0.7373  0.7269 -1.0485
22169SOL    HW272470   6.535   5.413   2.469  0.1692 -0.0367 -0.4413
22170SOL     OW72471   6.308   6.829   0.841  0.1675  0.2457 -0.3054
22170SOL    HW172472   6.391   6.876   0.844 -0.3562  1.1603  0.4402
22170SOL    HW272473   6.263   6.853   0.923 -0.8693 -0.1592 -0.7277
22171SOL     OW72474   6.394   7.786   1.336 -0.8022 -0.1071 -0.9320
22171SOL    HW172475   6.400   7.844   1.412  0.6755 -0.8073 -0.4566
22171SOL    HW272476   6.315   7.735   1.351 -1.2619  0.7037 -0.5635
22172SOL     OW72477   1.376   2.445   7.369  0.2436 -0.1236 -0.1608
22172SOL    HW172478   1.338   2.429   7.282  1.1455 -0.0889 -0.5731
22172SOL    HW272479   1.393   2.539   7.371  0.8342 -0.2214 -0.2142
22173SOL     OW72480   8.213   6.807   8.243  0.2129  0.5225 -0.0889
22173SOL    HW172481   8.148   6.848   8.300  0.7885  0.2317  0.8036
22173SOL    HW272482   8.282   6.779   8.303 -0.2261 -1.9227 -0.6307
22174SOL     OW72483   1.410   1.155   8.746 -0.0205  0.2325  0.3262
22174SOL    HW172484   1.361   1.084   8.705 -1.1681  1.5723 -0.7479
22174SOL    HW272485   1.450   1.116   8.823 -0.7596 -1.5183 -0.1277
22175SOL     OW72486   6.962   2.979   0.022  0.4372 -0.6559  0.1246
22175SOL    HW172487   7.031   2.998  -0.042  0.9464 -1.6001  0.3767
22175SOL    HW272488   6.881   2.994  -0.025  0.8024  0.9300 -0.0435
22176SOL     OW72489   5.200   7.367   8.423 -0.1587  0.4069  0.0026
22176SOL    HW172490   5.247   7.331   8.348 -1.5393  1.3633 -1.3893
22176SOL    HW272491   5.179   7.457   8.397 -1.6144  0.4163  1.0739
22177SOL     OW72492   0.073   5.651   5.299 -0.2292 -0.1358  0.3045
22177SOL    HW172493   0.128   5.620   5.227  1.5520  1.1451  1.0433
22177SOL    HW272494   0.130   5.706   5.351 -1.4673 -0.9850  2.7237
22178SOL     OW72495   5.637   8.910   2.381 -0.0358  0.4594 -0.5129
22178SOL    HW172496   5.597   8.893   2.296 -1.4210 -0.5085  0.2840
22178SOL    HW272497   5.730   8.898   2.366 -0.1666  1.1530 -2.0815
22179SOL     OW72498   2.091   6.891   1.506 -0.0788 -0.3296 -0.5209
22179SOL    HW172499   2.165   6.863   1.560  0.5715 -0.1092 -1.2858
22179SOL    HW272500   2.052   6.810   1.474 -0.5531 -0.4683  0.3761
22180SOL     OW72501   9.352   7.230   8.688 -0.8872  0.0518  0.2982
22180SOL    HW172502   9.372   7.242   8.595 -0.6791  0.2965  0.3715
22180SOL    HW272503   9.286   7.297   8.707 -0.8867  0.0400  0.3398
22181SOL     OW72504   8.367   7.912   8.251 -0.8328 -0.5344  0.1840
22181SOL    HW172505   8.401   7.858   8.180  1.3248  0.8151  0.1375
22181SOL    HW272506   8.444   7.944   8.297 -2.0394  1.8740  0.6996
22182SOL     OW72507   7.273   5.051   3.661 -0.1414 -0.1305 -0.3152
22182SOL    HW172508   7.230   5.032   3.745 -0.0704  0.0943 -0.2268
22182SOL    HW272509   7.255   4.974   3.607 -0.4460 -0.1462 -0.1960
22183SOL     OW72510   3.253   4.894   2.032  0.3108  0.0333 -0.1161
22183SOL    HW172511   3.274   4.813   2.079 -0.6629 -0.9832 -1.3575
22183SOL    HW272512   3.249   4.868   1.940  0.5496  1.6263 -0.6102
22184SOL     OW72513   7.331   4.716   1.159  0.4635 -0.1516 -0.0458
22184SOL    HW172514   7.391   4.770   1.211 -2.0213  2.3239  0.5400
22184SOL    HW272515   7.269   4.681   1.223 -1.5891  1.4752 -1.0303
22185SOL     OW72516   2.146   3.058   8.435 -0.5224 -0.1918 -0.2865
22185SOL    HW172517   2.121   2.995   8.503  0.1078 -1.1878 -0.9527
22185SOL    HW272518   2.092   3.034   8.359  0.3025 -0.4453 -0.7998
22186SOL     OW72519   6.057   4.975   7.927 -0.2323  0.5034  0.2107
22186SOL    HW172520   6.064   5.051   7.868  1.3739 -0.6656 -1.2081
22186SOL    HW272521   5.989   4.921   7.888  1.3786 -0.6626 -1.1720
22187SOL     OW72522   5.623   2.172   1.580 -0.7253  0.1683 -0.0352
22187SOL    HW172523   5.647   2.155   1.489  0.7456 -1.4843  0.6115
22187SOL    HW272524   5.641   2.090   1.626  0.1655  1.4418  2.0516
22188SOL     OW72525   8.127   8.029   0.973  0.2404 -0.2010 -0.0110
22188SOL    HW172526   8.119   7.979   1.054 -1.1329  1.6813  1.1029
22188SOL    HW272527   8.177   7.972   0.915 -1.1523 -2.8433  1.1597
22189SOL     OW72528   9.255   4.669   4.531  0.2387 -0.4428  0.2116
22189SOL    HW172529   9.269   4.600   4.596  1.0619  1.0257  1.6844
22189SOL    HW272530   9.340   4.681   4.490  0.4805  0.5736  0.9428
22190SOL     OW72531   4.831   7.716   7.466  0.0285 -0.0059  0.1121
22190SOL    HW172532   4.773   7.685   7.536  0.7951 -1.7120  0.0501
22190SOL    HW272533   4.877   7.790   7.504 -0.3806 -0.2119  1.0303
22191SOL     OW72534   7.758   6.209   0.366 -0.1226  0.4779  0.0658
22191SOL    HW172535   7.843   6.254   0.372 -0.0795  0.5063 -0.6372
22191SOL    HW272536   7.695   6.272   0.398 -0.0219  0.9251 -0.6026
22192SOL     OW72537   5.469   0.147   0.282 -0.4003  0.4276 -0.2128
22192SOL    HW172538   5.468   0.096   0.201 -1.1576  0.5609 -0.2955
22192SOL    HW272539   5.449   0.083   0.350  2.2062 -0.1154  0.1671
22193SOL     OW72540   5.054   2.264   8.535 -0.0860 -0.2334 -0.1848
22193SOL    HW172541   5.055   2.280   8.441  1.4574 -0.6016 -0.2617
22193SOL    HW272542   4.985   2.199   8.547  0.0053 -0.5264 -1.1293
22194SOL     OW72543   7.759   6.319   0.714  0.2100 -0.0811  0.2993
22194SOL    HW172544   7.707   6.240   0.702  1.9915 -1.3848  0.6738
22194SOL    HW272545   7.809   6.328   0.633  0.6854  0.1277  0.6080
22195SOL     OW72546   8.074   5.874   6.064 -0.2316 -0.8491 -0.6905
22195SOL    HW172547   8.118   5.934   6.004  0.7628 -0.6307  0.2113
22195SOL    HW272548   7.999   5.922   6.097 -1.0781 -1.1511 -2.1154
22196SOL     OW72549   7.798   6.315   3.742 -0.0362  0.4279  0.3826
22196SOL    HW172550   7.833   6.372   3.811 -0.5192  0.7390  0.3756
22196SOL    HW272551   7.853   6.334   3.666  0.0544  0.5972  0.4890
22197SOL     OW72552   3.565   4.810   2.957  0.1585  0.3990  0.1688
22197SOL    HW172553   3.648   4.792   2.913 -0.1803 -1.0340  0.0627
22197SOL    HW272554   3.589   4.821   3.049  0.3577 -1.2965  0.3563
22198SOL     OW72555   2.677   2.622   6.203 -0.0108  0.6147  0.2785
22198SOL    HW172556   2.598   2.569   6.196  0.1993  0.2835  0.3695
22198SOL    HW272557   2.647   2.707   6.234 -0.5960  1.1459 -1.5901
22199SOL     OW72558   8.353   5.962   4.254 -0.0432 -0.0188  0.0336
22199SOL    HW172559   8.289   5.894   4.233 -0.3398  0.5093 -0.7913
22199SOL    HW272560   8.342   5.978   4.348  0.1374 -1.2125  0.2774
22200SOL     OW72561   2.283   8.132   2.257 -0.1403  0.1092  0.1466
22200SOL    HW172562   2.272   8.051   2.207  0.1714  0.9224 -1.2662
22200SOL    HW272563   2.220   8.193   2.219 -0.7904  0.3839  1.5847
22201SOL     OW72564   2.617   0.157   9.337  0.1808 -0.2073  0.4704
22201SOL    HW172565   2.610   0.199   9.423  0.3184 -0.7093  0.7278
22201SOL    HW272566   2.547   0.091   9.336 -0.8778  0.8741 -0.4248
22202SOL     OW72567   3.535   1.321   6.851  0.2954  0.0669  0.0952
22202SOL    HW172568   3.527   1.404   6.805  1.5003  1.2187  1.8660
22202SOL    HW272569   3.545   1.256   6.781  1.8516  1.7022 -1.2872
22203SOL     OW72570   6.234   7.944   4.379 -0.2458 -0.1559 -0.1283
22203SOL    HW172571   6.152   7.982   4.347  0.4395  1.4671 -0.0091
22203SOL    HW272572   6.266   7.891   4.306 -1.0848 -0.3223 -0.3856
22204SOL     OW72573   4.054   7.266   8.023 -0.4055 -0.6164 -0.1358
22204SOL    HW172574   4.012   7.274   8.109  0.4443  0.2419  0.2178
22204SOL    HW272575   4.110   7.343   8.017 -1.0509 -0.2394 -1.8054
22205SOL     OW72576   2.259   8.824   8.459  0.4667 -0.0489  0.6932
22205SOL    HW172577   2.264   8.919   8.448  0.4760 -0.0699  0.5176
22205SOL    HW272578   2.259   8.789   8.370 -0.2687 -0.1806  0.7367
22206SOL     OW72579   9.306   8.304   1.534  0.1276 -0.3092  0.0929
22206SOL    HW172580   9.248   8.264   1.599 -0.1361 -0.8810 -0.4830
22206SOL    HW272581   9.391   8.260   1.547  0.2348 -0.0106  0.4291
22207SOL     OW72582   2.308   3.481   8.625 -0.0714  0.3483 -0.0512
22207SOL    HW172583   2.371   3.463   8.695  0.3647 -0.2440 -0.5808
22207SOL    HW272584   2.272   3.395   8.603 -2.5048  0.8643  1.5326
22208SOL     OW72585   5.721   1.419   5.547 -0.7537 -0.8801  0.2742
22208SOL    HW172586   5.795   1.475   5.570 -0.5215 -1.9215  2.3161
22208SOL    HW272587   5.646   1.478   5.546 -0.4690 -0.4263  2.1260
22209SOL     OW72588   7.186   0.132   8.889  0.6565 -0.0105 -0.0606
22209SOL    HW172589   7.253   0.178   8.940  1.4663 -1.6924  0.4587
22209SOL    HW272590   7.235   0.071   8.834 -0.3876 -0.3666 -0.6170
22210SOL     OW72591   4.240   4.414   6.848  0.0742  0.0778  0.5304
22210SOL    HW172592   4.240   4.383   6.757  0.4374 -0.9837  0.8855
22210SOL    HW272593   4.310   4.479   6.850 -0.3549  0.5832 -0.0921
22211SOL     OW72594   1.928   6.602   2.154  0.0330 -0.3740  0.6621
22211SOL    HW172595   1.911   6.509   2.144  1.7069 -0.7281  0.8186
22211SOL    HW272596   1.842   6.641   2.170 -0.6233 -1.9680  1.1786
22212SOL     OW72597   7.249   3.034   5.029 -0.0643  0.5721  0.3217
22212SOL    HW172598   7.256   3.108   4.968 -1.6566  2.4742  2.2577
22212SOL    HW272599   7.181   3.061   5.091 -1.6028 -3.0898  0.4674
22213SOL     OW72600   8.306   3.705   3.115 -0.5515 -0.3087 -0.2402
22213SOL    HW172601   8.390   3.746   3.093 -0.2756  0.2986  1.7344
22213SOL    HW272602   8.243   3.746   3.056  0.4269 -0.3180 -1.3249
22214SOL     OW72603   3.544   4.939   2.494 -0.0429  0.1881 -0.4883
22214SOL    HW172604   3.497   4.945   2.411 -1.6804  0.6259  0.4265
22214SOL    HW272605   3.519   5.018   2.542  1.2729  0.1927  0.2316
22215SOL     OW72606   8.299   6.270   4.197  0.1828 -0.5075  0.0445
22215SOL    HW172607   8.225   6.269   4.137 -1.2982  0.5746  1.7654
22215SOL    HW272608   8.262   6.294   4.281  2.4155 -0.5197  1.1095
22216SOL     OW72609   0.258   6.283   5.278  0.8743 -0.2904 -0.0027
22216SOL    HW172610   0.192   6.345   5.245  1.1813  1.3988  2.3032
22216SOL    HW272611   0.266   6.218   5.209 -0.2136  1.6944 -2.1337
22217SOL     OW72612   2.156   9.175   4.810  0.3781 -0.7202  0.9618
22217SOL    HW172613   2.173   9.135   4.895  1.0718 -1.2177  0.6031
22217SOL    HW272614   2.224   9.243   4.802  0.7191 -1.1008  0.5442
22218SOL     OW72615   4.340   1.171   6.195 -0.1281 -0.0643 -0.4276
22218SOL    HW172616   4.259   1.220   6.206 -0.9492 -1.5758  0.5832
22218SOL    HW272617   4.334   1.133   6.107 -0.8972 -0.8053 -0.0648
22219SOL     OW72618   4.786   5.059   3.815 -0.4517 -0.3340 -0.3486
22219SOL    HW172619   4.869   5.104   3.825 -0.8500  1.2809 -3.1608
22219SOL    HW272620   4.809   4.967   3.801  0.9030  0.1550 -1.4813
22220SOL     OW72621   6.255   0.263   1.798 -0.1890 -0.3489 -0.8233
22220SOL    HW172622   6.202   0.227   1.727 -0.8074 -1.4187  0.1462
22220SOL    HW272623   6.248   0.199   1.869 -0.6581  1.2872  0.6896
22221SOL     OW72624   2.923   9.356   7.689  0.1497  0.2055 -0.5697
22221SOL    HW172625   2.988   9.293   7.661 -0.1779 -1.1213  1.4505
22221SOL    HW272626   2.955   9.389   7.773 -2.8247 -2.4445  1.8803
22222SOL     OW72627   8.520   1.152   6.107  0.3115 -0.2996  0.4813
22222SOL    HW172628   8.436   1.139   6.152  0.5669 -0.7767  0.8270
22222SOL    HW272629   8.504   1.116   6.019  0.2433 -0.6791  0.6438
22223SOL     OW72630   4.722   0.034   1.267  0.1570  0.2650  0.2450
22223SOL    HW172631   4.789  -0.034   1.264  0.3778  0.2847  2.6007
22223SOL    HW272632   4.660   0.009   1.199  1.5621 -0.8106 -0.7146
22224SOL     OW72633   7.208   0.346   1.602  0.5090  0.0654  0.2746
22224SOL    HW172634   7.254   0.301   1.531  0.2328  0.2686 -0.0395
22224SOL    HW272635   7.217   0.289   1.677  0.4639 -0.3483 -0.0301
22225SOL     OW72636   2.934   2.869   4.794  0.8210 -0.5287  0.5671
22225SOL    HW172637   3.002   2.925   4.756  1.2675  0.1075  2.2146
22225SOL    HW272638   2.978   2.822   4.865  0.4624 -3.0535 -0.7621
22226SOL     OW72639   2.858   5.373   7.292 -0.4522 -0.4517  0.4989
22226SOL    HW172640   2.787   5.355   7.353 -0.1535 -0.1772  0.9365
22226SOL    HW272641   2.816   5.412   7.216 -0.9217 -1.5322  0.1905
22227SOL     OW72642   0.161   8.535   6.534  0.2932 -0.2104 -0.5200
22227SOL    HW172643   0.084   8.501   6.487 -0.3943 -0.5476  0.8036
22227SOL    HW272644   0.126   8.564   6.618  0.8537  3.6258 -1.4210
22228SOL     OW72645   6.917   4.213   5.668 -0.3238  0.5625 -0.5866
22228SOL    HW172646   6.911   4.172   5.582 -0.9826  0.0022 -0.2782
22228SOL    HW272647   6.835   4.261   5.678 -1.1584 -1.0231  0.5524
22229SOL     OW72648   1.971   6.907   7.252  0.6230 -0.3764 -0.2909
22229SOL    HW172649   2.044   6.919   7.191  0.7038  0.7361 -0.0091
22229SOL    HW272650   2.009   6.928   7.338 -0.0674  0.4546 -0.1733
22230SOL     OW72651   1.493   7.178   1.337  0.3898 -0.3206  0.3141
22230SOL    HW172652   1.524   7.165   1.426  0.5783 -2.0345  0.0450
22230SOL    HW272653   1.565   7.147   1.281 -0.1949 -0.4499 -0.3921
22231SOL     OW72654   8.524   3.190   6.736 -0.2436 -0.1432  0.1458
22231SOL    HW172655   8.465   3.218   6.666 -1.3541  0.2952  1.2192
22231SOL    HW272656   8.597   3.252   6.733 -0.7040  0.3901 -0.0820
22232SOL     OW72657   1.024   3.216   0.172 -0.8849  0.5241 -0.3909
22232SOL    HW172658   1.020   3.143   0.109 -0.4219 -0.4057  0.6233
22232SOL    HW272659   0.937   3.256   0.167 -0.7613  0.6451 -1.8146
22233SOL     OW72660   6.167   6.146   2.397  0.5933 -0.9027  0.3349
22233SOL    HW172661   6.253   6.105   2.394  1.3699  0.5964  0.8252
22233SOL    HW272662   6.183   6.237   2.374 -0.8184 -0.5257  0.7163
22234SOL     OW72663   2.182   3.407   4.764  0.0582  0.0635  0.0175
22234SOL    HW172664   2.248   3.465   4.726  1.3185 -2.3228 -1.6558
22234SOL    HW272665   2.099   3.440   4.728  0.6664  1.1306 -0.4728
22235SOL     OW72666   3.681   5.573   4.010  0.6098  0.6772  0.4583
22235SOL    HW172667   3.597   5.552   3.970 -0.1135  1.3176  1.5984
22235SOL    HW272668   3.668   5.559   4.103  2.3721 -1.1324  0.5077
22236SOL     OW72669   2.730   5.208   4.582  0.0633 -0.8576  0.0624
22236SOL    HW172670   2.825   5.217   4.592  0.0139 -1.0153  0.7294
22236SOL    HW272671   2.704   5.283   4.528  0.5621 -0.7955 -0.0960
22237SOL     OW72672   0.560   1.506   8.809  0.6520 -0.0098 -0.5501
22237SOL    HW172673   0.493   1.481   8.745  1.2248  0.1381 -1.2272
22237SOL    HW272674   0.562   1.602   8.805 -0.0191  0.0617  0.4493
22238SOL     OW72675   5.467   8.042   4.423 -0.1396 -0.0624 -0.4352
22238SOL    HW172676   5.533   7.993   4.374 -0.3621 -1.1369  0.3091
22238SOL    HW272677   5.405   8.072   4.357  0.0199 -0.7663 -0.9099
22239SOL     OW72678   7.759   4.384   4.056 -0.0342 -0.3598  0.3843
22239SOL    HW172679   7.764   4.306   4.110 -1.3666 -0.2572  0.6955
22239SOL    HW272680   7.843   4.387   4.009  0.3320 -1.5385  0.9370
22240SOL     OW72681   7.758   3.161   1.885 -0.1528 -0.4226 -0.2603
22240SOL    HW172682   7.854   3.156   1.878 -0.2224 -0.4434 -1.3932
22240SOL    HW272683   7.737   3.108   1.962  0.5917 -2.3141 -1.2776
22241SOL     OW72684   8.346   1.489   2.603 -0.4898 -0.3184  0.1072
22241SOL    HW172685   8.322   1.396   2.607 -0.9600 -0.2065 -0.0864
22241SOL    HW272686   8.384   1.500   2.516  0.6889 -0.5887  0.5638
22242SOL     OW72687   3.497   8.769   2.169  0.0701 -0.1631  0.0522
22242SOL    HW172688   3.530   8.859   2.163  1.8465 -0.7529  0.4335
22242SOL    HW272689   3.520   8.741   2.257 -2.2876 -0.3633  0.6669
22243SOL     OW72690   4.207   2.093   7.595  0.6173  0.3720  0.1606
22243SOL    HW172691   4.272   2.158   7.568  1.7292 -0.0794  1.6519
22243SOL    HW272692   4.136   2.145   7.634  1.2950  0.7350  0.9339
22244SOL     OW72693   1.593   1.941   4.744  0.0124  0.2162 -0.1491
22244SOL    HW172694   1.539   1.967   4.669 -0.0610 -0.3290 -0.2906
22244SOL    HW272695   1.652   2.015   4.759  0.2519  0.1964 -0.9599
22245SOL     OW72696   4.256   5.811   6.282  0.0593 -0.6829 -0.4576
22245SOL    HW172697   4.277   5.798   6.189  0.0306 -3.4530 -0.1602
22245SOL    HW272698   4.161   5.828   6.282  0.0907 -0.4990 -0.9681
22246SOL     OW72699   9.342   6.198   6.321  0.5855 -0.0653  0.3518
22246SOL    HW172700   9.430   6.206   6.284  0.2911  0.2800 -0.3035
22246SOL    HW272701   9.306   6.287   6.318 -0.0605 -0.3312 -0.1135
22247SOL     OW72702   1.414   4.632   1.016  0.9055 -0.1834 -0.0736
22247SOL    HW172703   1.338   4.690   1.021  1.0900  0.0377  0.1716
22247SOL    HW272704   1.419   4.608   0.923 -0.0283 -0.9646  0.0725
22248SOL     OW72705   1.743   7.534   2.988 -0.5981  0.3728  0.3814
22248SOL    HW172706   1.701   7.448   2.994 -2.2823  1.1022 -0.4056
22248SOL    HW272707   1.820   7.527   3.046  0.7578 -2.4555 -1.4996
22249SOL     OW72708   8.914   5.191   0.864  0.0074  0.6623 -0.2999
22249SOL    HW172709   8.956   5.106   0.860 -1.4734 -0.1606  0.6138
22249SOL    HW272710   8.985   5.254   0.851  1.1194 -0.6878 -1.0915
22250SOL     OW72711   3.311   3.854   7.612 -0.3075 -0.4557 -0.2470
22250SOL    HW172712   3.402   3.878   7.629  0.4396 -2.3949 -1.1802
22250SOL    HW272713   3.269   3.858   7.698  1.4926 -2.7018  0.8414
22251SOL     OW72714   7.207   1.092   5.592  0.4433 -0.0979  0.0707
22251SOL    HW172715   7.167   1.085   5.505 -2.5323  2.0160  1.1325
22251SOL    HW272716   7.135   1.077   5.653  2.0795  0.2078  2.1904
22252SOL     OW72717   7.020   2.302   8.125  0.1294  0.1801  0.0347
22252SOL    HW172718   6.967   2.381   8.115 -0.6828 -0.5309 -1.7089
22252SOL    HW272719   7.055   2.285   8.038 -0.0153 -1.5744  0.2670
22253SOL     OW72720   3.066   3.530   8.547 -0.2001  0.1895 -0.3927
22253SOL    HW172721   3.133   3.547   8.613 -0.8628  1.9991 -0.1482
22253SOL    HW272722   2.985   3.518   8.597 -0.6980  1.5149 -0.8347
22254SOL     OW72723   2.978   9.125   1.658  0.0468  0.3074 -0.5561
22254SOL    HW172724   2.928   9.177   1.721  0.3074  0.4586 -0.4697
22254SOL    HW272725   2.912   9.075   1.610 -0.1041 -0.5872  0.5333
22255SOL     OW72726   8.662   0.562   2.024 -0.0908  0.7224  0.0610
22255SOL    HW172727   8.630   0.484   2.069  0.7672  0.8501  0.9198
22255SOL    HW272728   8.735   0.531   1.970 -0.8841  0.6331 -0.9994
22256SOL     OW72729   3.648   4.241   4.279 -0.1119  0.3692  0.0984
22256SOL    HW172730   3.688   4.327   4.294  0.6846  0.6968 -3.2581
22256SOL    HW272731   3.554   4.257   4.282  0.0286  1.3971 -0.6710
22257SOL     OW72732   4.606   2.485   4.478 -0.1265 -0.5230 -0.8100
22257SOL    HW172733   4.534   2.492   4.541  0.5562  1.1415 -0.1619
22257SOL    HW272734   4.639   2.574   4.469  1.8189 -1.2196 -1.1232
22258SOL     OW72735   6.780   1.263   3.939 -0.4888 -0.2229 -0.3209
22258SOL    HW172736   6.765   1.174   3.972  0.8498 -0.1533  0.5432
22258SOL    HW272737   6.749   1.320   4.009  0.2022 -0.0365 -0.1630
22259SOL     OW72738   6.726   2.978   7.734  0.0307  0.3878 -0.3344
22259SOL    HW172739   6.728   3.058   7.785 -3.4211  0.3191  0.1361
22259SOL    HW272740   6.668   2.919   7.782  1.5655 -2.0436 -1.2334
22260SOL     OW72741   2.863   8.991   0.999 -0.8262  0.0138 -0.1147
22260SOL    HW172742   2.774   8.960   0.987 -0.7047 -0.3485 -0.0766
22260SOL    HW272743   2.911   8.915   1.031 -0.6994  0.4382  0.7220
22261SOL     OW72744   9.163   1.487   7.123  0.1867 -0.4526 -0.3396
22261SOL    HW172745   9.077   1.524   7.140 -0.2096 -1.5672  0.1361
22261SOL    HW272746   9.164   1.404   7.170  1.6636 -0.2904 -0.0172
22262SOL     OW72747   0.783   9.152   0.203  0.2272  0.2557 -0.1096
22262SOL    HW172748   0.830   9.180   0.282 -0.2971 -0.8770  0.6425
22262SOL    HW272749   0.849   9.103   0.153 -0.0768 -1.2586  0.9039
22263SOL     OW72750   7.931   1.046   1.112  0.3304 -0.1302 -0.0698
22263SOL    HW172751   7.950   1.139   1.100 -1.3572  0.7928  3.1543
22263SOL    HW272752   7.991   1.019   1.182  0.6612 -1.4682 -0.8384
22264SOL     OW72753   0.027   4.989   1.491  0.0943 -0.0594 -0.7373
22264SOL    HW172754  -0.063   4.976   1.460 -0.0757 -1.3892  0.2348
22264SOL    HW272755   0.038   5.084   1.494 -1.0818  0.1136 -1.4276
22265SOL     OW72756   6.335   2.854   6.482  0.2705  0.1933 -0.2654
22265SOL    HW172757   6.287   2.889   6.557 -0.3603  0.6871 -0.8875
22265SOL    HW272758   6.425   2.846   6.513  0.0264  0.4424  0.5297
22266SOL     OW72759   0.243   4.296   9.263 -0.3920  0.0437  0.5607
22266SOL    HW172760   0.175   4.263   9.205  1.0000 -0.9524 -0.5923
22266SOL    HW272761   0.296   4.354   9.207 -0.0534  0.4824  1.3149
22267SOL     OW72762   7.111   1.605   3.264 -0.1644 -0.1368 -0.1781
22267SOL    HW172763   7.114   1.688   3.216 -0.9699  0.1998  0.3324
22267SOL    HW272764   7.032   1.561   3.231  0.3432 -0.7841 -0.5607
22268SOL     OW72765   8.423   3.154   2.495 -0.5387  0.0449 -0.2337
22268SOL    HW172766   8.372   3.192   2.423 -0.0204  1.8471  0.3122
22268SOL    HW272767   8.368   3.167   2.572  0.8313  2.4260  0.4407
22269SOL     OW72768   0.400   0.434   7.298  0.0704 -0.2781  0.2257
22269SOL    HW172769   0.446   0.516   7.316 -0.8971  1.3559 -3.6625
22269SOL    HW272770   0.317   0.442   7.344  0.4607  0.3665  0.8385
22270SOL     OW72771   2.389   4.659   6.073 -0.0266 -0.0123 -0.0672
22270SOL    HW172772   2.413   4.698   6.157 -0.3683  0.0701 -0.0044
22270SOL    HW272773   2.472   4.639   6.030  0.1480  0.1960  0.1761
22271SOL     OW72774   3.699   7.455   8.800  0.3263 -0.0192 -0.4889
22271SOL    HW172775   3.672   7.511   8.872 -1.1796 -1.5630  0.2189
22271SOL    HW272776   3.736   7.377   8.842 -2.2308 -1.7692 -1.2269
22272SOL     OW72777   5.773   4.989   4.540  0.2181 -0.3135  0.6946
22272SOL    HW172778   5.696   4.993   4.483 -0.6814  1.0273  1.9403
22272SOL    HW272779   5.833   4.931   4.494 -1.8387 -2.0680  0.0611
22273SOL     OW72780   2.537   2.676   7.087 -0.6553 -0.2302 -0.1918
22273SOL    HW172781   2.563   2.608   7.150 -1.6026  0.3259  0.8335
22273SOL    HW272782   2.619   2.719   7.063 -0.3593  0.0775  1.2964
22274SOL     OW72783   4.424   7.101   5.295  0.0200  0.1531  0.1533
22274SOL    HW172784   4.381   7.112   5.380  0.3638 -1.0619  0.5032
22274SOL    HW272785   4.503   7.050   5.315  1.0625  1.3643 -0.6331
22275SOL     OW72786   8.679   5.376   1.092  0.5945  0.4232 -0.8288
22275SOL    HW172787   8.610   5.334   1.141  0.9907 -1.8836 -2.0923
22275SOL    HW272788   8.699   5.456   1.141  0.0197 -1.0087  1.9078
22276SOL     OW72789   8.237   7.400   0.051  0.3077 -0.0006  0.4251
22276SOL    HW172790   8.223   7.493   0.037  0.9705  0.2328  1.2543
22276SOL    HW272791   8.313   7.379  -0.003 -2.0358 -0.9299 -2.8206
22277SOL     OW72792   0.028   3.536   4.089  0.6717  0.3120 -0.4015
22277SOL    HW172793   0.038   3.526   3.994 -1.3030  1.0538 -0.7247
22277SOL    HW272794  -0.065   3.553   4.102  0.5699 -1.4875  1.8576
22278SOL     OW72795   7.849   8.010   6.329  0.1982 -0.5996 -0.3804
22278SOL    HW172796   7.856   8.102   6.356 -0.0801 -1.0412  1.3005
22278SOL    HW272797   7.868   7.960   6.409  1.9256 -2.0516 -1.6320
22279SOL     OW72798   5.648   5.631   7.634  0.1023  0.9705 -0.1071
22279SOL    HW172799   5.688   5.718   7.637  2.0569  0.1988 -1.6372
22279SOL    HW272800   5.641   5.611   7.541  0.1674 -0.7233  0.2233
22280SOL     OW72801   5.183   9.300   3.112  0.6826  0.2812  0.0819
22280SOL    HW172802   5.087   9.291   3.107  0.5437  1.7036 -0.1235
22280SOL    HW272803   5.215   9.242   3.043 -0.1894  1.8226 -1.7239
22281SOL     OW72804   2.990   8.374   9.013  0.1231 -0.1149  0.2477
22281SOL    HW172805   2.926   8.443   8.997  0.2932  0.2141  0.9779
22281SOL    HW272806   3.059   8.390   8.949 -0.1362  0.0128 -0.0021
22282SOL     OW72807   4.244   4.280   4.103 -0.0119  0.1984 -0.2014
22282SOL    HW172808   4.264   4.252   4.192 -0.2608  0.2065 -0.1433
22282SOL    HW272809   4.179   4.349   4.113  1.3986  1.6191 -0.2630
22283SOL     OW72810   1.087   4.012   7.870 -0.3330 -0.1930  0.5042
22283SOL    HW172811   1.129   3.977   7.948 -2.2261  0.1968  1.7744
22283SOL    HW272812   1.102   4.107   7.875 -0.1413 -0.2049  0.1854
22284SOL     OW72813   5.735   6.671   8.464  0.3933  0.0473  0.0714
22284SOL    HW172814   5.716   6.598   8.404  0.3800  0.3049 -0.2423
22284SOL    HW272815   5.703   6.749   8.418  0.1135  0.2125  0.5517
22285SOL     OW72816   7.785   5.432   3.480  0.1521  0.5063  0.2776
22285SOL    HW172817   7.859   5.492   3.493 -0.1277  0.9978 -0.3354
22285SOL    HW272818   7.708   5.488   3.484 -0.1383  0.1232  0.0976
22286SOL     OW72819   3.558   5.671   3.135 -0.5180 -0.2522 -0.1643
22286SOL    HW172820   3.483   5.717   3.174 -0.0147 -0.0009  0.5246
22286SOL    HW272821   3.632   5.730   3.148  0.0429 -1.0262  0.2807
22287SOL     OW72822   1.980   4.904   2.070  0.1399  0.2122  0.6305
22287SOL    HW172823   1.908   4.846   2.047  0.4878 -0.1522  0.4383
22287SOL    HW272824   2.015   4.934   1.986 -0.5357  1.3330  0.7378
22288SOL     OW72825   4.840   3.301   7.718  0.0331 -0.1229  0.1591
22288SOL    HW172826   4.786   3.347   7.782  1.1643  0.7515  0.5010
22288SOL    HW272827   4.896   3.243   7.769 -0.7028 -1.2052 -0.2107
22289SOL     OW72828   0.345   8.292   8.768  0.7417 -0.0269  0.0301
22289SOL    HW172829   0.380   8.365   8.716  0.4428 -0.7168 -1.1900
22289SOL    HW272830   0.406   8.220   8.751  0.6856 -0.2448  0.7259
22290SOL     OW72831   6.283   8.600   8.666  0.2072 -0.0270 -1.0373
22290SOL    HW172832   6.201   8.628   8.708 -0.5576  0.7084 -2.9247
22290SOL    HW272833   6.347   8.666   8.692  0.0737 -0.2587 -0.0621
22291SOL     OW72834   0.855   8.884   8.458  0.4228  0.3398 -0.5075
22291SOL    HW172835   0.914   8.837   8.399 -0.3093 -0.2871 -0.7632
22291SOL    HW272836   0.858   8.975   8.429  2.4622  0.6382  0.4853
22292SOL     OW72837   5.523   5.136   8.731  0.1375  0.4005 -0.2557
22292SOL    HW172838   5.457   5.161   8.666  0.7638 -0.0443 -1.0884
22292SOL    HW272839   5.587   5.084   8.681  1.3879  1.2490  0.4068
22293SOL     OW72840   1.498   4.380   6.105 -0.4320 -0.1867 -0.1639
22293SOL    HW172841   1.587   4.411   6.092  0.3415 -2.4099 -0.6131
22293SOL    HW272842   1.458   4.385   6.018 -0.4998  0.0553 -0.1202
22294SOL     OW72843   6.755   3.235   7.828  0.4083 -0.0209 -0.0697
22294SOL    HW172844   6.688   3.285   7.875 -0.0714 -1.4205  0.7956
22294SOL    HW272845   6.837   3.254   7.874  0.0698 -0.7519  0.8758
22295SOL     OW72846   6.257   2.149   1.989 -0.2350 -0.1834  0.0096
22295SOL    HW172847   6.272   2.241   1.966  0.8268 -0.3742 -0.1081
22295SOL    HW272848   6.288   2.100   1.913 -2.1734 -0.6153 -0.5741
22296SOL     OW72849   7.098   2.472   9.267 -0.3384 -0.1572 -0.2249
22296SOL    HW172850   7.081   2.421   9.188 -2.1549 -1.5417  0.9851
22296SOL    HW272851   7.115   2.406   9.335  0.7800  0.9837  0.6578
22297SOL     OW72852   7.552   0.836   7.828  0.2314  0.2203 -0.3092
22297SOL    HW172853   7.609   0.842   7.904 -0.1854  1.8891 -0.0893
22297SOL    HW272854   7.547   0.925   7.795  0.5925 -0.4983 -2.4627
22298SOL     OW72855   4.587   5.832   2.003 -0.2371  0.0355 -0.6233
22298SOL    HW172856   4.631   5.790   2.077  1.4428  1.2077 -0.9038
22298SOL    HW272857   4.498   5.846   2.033  0.1722 -0.3208  0.8584
22299SOL     OW72858   2.257   8.953   3.858  0.2172 -0.1200  0.2829
22299SOL    HW172859   2.262   9.027   3.918 -0.8082  1.0491 -1.0159
22299SOL    HW272860   2.314   8.977   3.786 -0.4186 -0.4182 -0.3260
22300SOL     OW72861   6.764   1.112   1.634  0.2632 -0.3895  0.6611
22300SOL    HW172862   6.846   1.114   1.585  0.0901 -1.2017  0.3131
22300SOL    HW272863   6.711   1.045   1.590 -0.1046 -0.7602  1.6237
22301SOL     OW72864   2.298   4.198   8.795  0.4153  0.1214 -0.2530
22301SOL    HW172865   2.390   4.185   8.814 -0.0226  0.0885  2.1962
22301SOL    HW272866   2.282   4.290   8.815  0.3240  0.7836 -2.9075
22302SOL     OW72867   3.293   4.857   5.344  0.0268 -0.0618 -0.3627
22302SOL    HW172868   3.219   4.826   5.396  1.0912 -2.1976  0.0033
22302SOL    HW272869   3.256   4.876   5.258 -1.0503 -0.4793 -0.0067
22303SOL     OW72870   2.797   2.292   1.812  0.2576 -0.5047 -0.5723
22303SOL    HW172871   2.744   2.286   1.732 -0.2140 -0.9815 -0.2314
22303SOL    HW272872   2.845   2.209   1.815  1.2332  0.0297 -1.0142
22304SOL     OW72873   9.138   6.504   5.463  0.1358  0.1586 -0.0374
22304SOL    HW172874   9.185   6.587   5.453 -0.8573  0.8288  0.7302
22304SOL    HW272875   9.132   6.470   5.374  1.1925  0.5439 -0.2741
22305SOL     OW72876   1.466   1.386   6.173 -0.1521 -0.3983 -0.7243
22305SOL    HW172877   1.513   1.392   6.256  0.7718  2.2388 -1.3481
22305SOL    HW272878   1.376   1.412   6.195 -0.2776 -1.1468 -0.3158
22306SOL     OW72879   7.118   3.826   0.396  0.8210  0.8703  0.0536
22306SOL    HW172880   7.204   3.787   0.415  0.4504  0.2848  0.5521
22306SOL    HW272881   7.105   3.892   0.464  0.7668  0.7808  0.1308
22307SOL     OW72882   4.513   0.213   8.649 -0.2373  0.6057 -0.1150
22307SOL    HW172883   4.517   0.307   8.635  2.0262  0.3821 -1.3760
22307SOL    HW272884   4.511   0.175   8.561 -0.8430 -0.5304  0.3675
22308SOL     OW72885   7.441   6.581   8.396  0.6526 -0.0332  0.0421
22308SOL    HW172886   7.438   6.677   8.394 -1.2832 -0.0079  1.2579
22308SOL    HW272887   7.494   6.561   8.474 -1.2981  0.1398  1.4840
22309SOL     OW72888   7.975   4.914   2.653 -0.3635  0.2142 -0.5263
22309SOL    HW172889   7.962   5.009   2.650 -1.3346  0.0833 -0.8488
22309SOL    HW272890   7.911   4.884   2.718 -1.9620 -0.4886 -2.3346
22310SOL     OW72891   8.590   2.722   3.377 -0.3982  0.6291  0.4762
22310SOL    HW172892   8.557   2.808   3.353 -0.6293  1.0867  2.2556
22310SOL    HW272893   8.670   2.740   3.427 -0.4318 -0.1898  0.8485
22311SOL     OW72894   4.773   8.644   8.955  0.2704  0.1294 -0.3251
22311SOL    HW172895   4.834   8.717   8.962 -1.5140  1.6227  0.8223
22311SOL    HW272896   4.791   8.590   9.032 -1.2224  1.7667  1.2639
22312SOL     OW72897   8.031   2.265   4.180 -0.0526  0.2939 -0.7537
22312SOL    HW172898   7.943   2.235   4.159 -0.4974  0.8194  0.3135
22312SOL    HW272899   8.069   2.288   4.095 -0.2604 -1.6944 -1.4370
22313SOL     OW72900   2.886   6.321   4.434 -0.6064  0.6529 -0.3582
22313SOL    HW172901   2.864   6.343   4.525 -3.0004  1.1471 -0.9947
22313SOL    HW272902   2.803   6.297   4.394  0.6491 -1.2917 -2.0108
22314SOL     OW72903   6.518   8.427   6.341 -0.1287  0.0293 -0.0170
22314SOL    HW172904   6.542   8.334   6.343 -0.0895 -0.0745 -2.2341
22314SOL    HW272905   6.566   8.466   6.413 -1.2663 -1.8822  1.9006
22315SOL     OW72906   4.921   3.934   6.236 -0.5362  0.5757  0.2789
22315SOL    HW172907   5.011   3.946   6.206  0.0233 -1.0364  1.2211
22315SOL    HW272908   4.898   3.845   6.209 -1.3980  0.5255  1.1478
22316SOL     OW72909   2.700   8.092   8.786  0.3693  0.7272 -0.3217
22316SOL    HW172910   2.693   8.123   8.877 -0.5985  1.8543 -0.7645
22316SOL    HW272911   2.730   8.001   8.795  1.3460  1.1414  1.0828
22317SOL     OW72912   1.625   7.747   9.070  0.7826  0.0648  0.0926
22317SOL    HW172913   1.592   7.688   9.003 -0.4050  1.0463 -0.2302
22317SOL    HW272914   1.719   7.754   9.052  0.1263  2.5663 -3.3893
22318SOL     OW72915   2.983   2.809   2.026 -0.6756  0.7966  0.0825
22318SOL    HW172916   2.929   2.875   2.071  0.9228  0.2414  3.0992
22318SOL    HW272917   2.921   2.740   2.002 -1.9086  2.0257 -0.4272
22319SOL     OW72918   1.702   6.701   9.100  0.5322 -0.1552  0.5689
22319SOL    HW172919   1.689   6.715   9.007 -0.2408 -0.7978  0.5667
22319SOL    HW272920   1.795   6.717   9.114  0.5680  0.3781 -0.2248
22320SOL     OW72921   2.015   5.944   7.955 -0.8389 -0.0521 -0.2020
22320SOL    HW172922   1.941   5.890   7.926  1.3816 -1.9524 -2.8986
22320SOL    HW272923   2.091   5.888   7.943  1.2174  2.2387  1.2402
22321SOL     OW72924   8.441   7.293   4.855 -0.3884  0.1384 -0.2229
22321SOL    HW172925   8.435   7.224   4.789  1.7278 -0.1231 -0.2352
22321SOL    HW272926   8.351   7.314   4.878 -1.1476 -3.4369  0.6140
22322SOL     OW72927   6.574   1.457   8.186 -0.2836 -0.2050 -0.3730
22322SOL    HW172928   6.532   1.542   8.168 -0.5249 -0.3398 -0.4533
22322SOL    HW272929   6.515   1.393   8.147 -0.5109 -0.4673  0.3869
22323SOL     OW72930   7.863   5.945   8.225 -0.1385  0.4494 -0.7529
22323SOL    HW172931   7.907   5.874   8.271 -1.2228  0.6408  0.6232
22323SOL    HW272932   7.875   6.022   8.281 -2.1780  0.5015 -0.3222
22324SOL     OW72933   1.458   1.072   8.272 -0.7562 -0.7761 -0.0237
22324SOL    HW172934   1.406   1.141   8.312 -0.4085 -1.1730  1.1519
22324SOL    HW272935   1.405   1.041   8.199 -1.6749 -0.4276  0.4812
22325SOL     OW72936   2.469   1.107   0.182  0.4267  0.1499 -0.3021
22325SOL    HW172937   2.538   1.173   0.191 -0.9045  1.3122  2.1577
22325SOL    HW272938   2.428   1.127   0.098  0.2682  2.2686  0.2377
22326SOL     OW72939   4.986   5.011   7.050  0.0602 -0.7398  0.0978
22326SOL    HW172940   4.990   4.920   7.081 -0.5523 -0.8491 -0.1320
22326SOL    HW272941   4.938   5.057   7.119 -0.0835 -0.6955 -0.0340
22327SOL     OW72942   6.196   6.855   2.788 -0.1379  0.1869 -0.2942
22327SOL    HW172943   6.253   6.922   2.827 -0.0448  0.1402 -0.3503
22327SOL    HW272944   6.150   6.901   2.718 -1.1270  0.5625  0.5742
22328SOL     OW72945   5.105   0.002   8.346  0.1419  0.3490  0.3717
22328SOL    HW172946   5.118  -0.093   8.341  1.0103  0.5193 -0.9958
22328SOL    HW272947   5.189   0.036   8.376  0.2513  0.7930 -0.4281
22329SOL     OW72948   0.187   0.376   7.132 -0.3513 -0.2930 -0.2180
22329SOL    HW172949   0.264   0.412   7.177  0.5032 -0.9098 -1.1563
22329SOL    HW272950   0.221   0.341   7.050 -1.7187 -0.1447 -0.8784
22330SOL     OW72951   1.898   3.253   4.079  0.7154  0.2375 -0.7405
22330SOL    HW172952   1.964   3.313   4.112  0.3886 -0.4208  1.2769
22330SOL    HW272953   1.818   3.279   4.125  0.7344 -2.1745  0.8413
22331SOL     OW72954   6.453   8.948   0.609 -0.3762  0.1047 -0.1304
22331SOL    HW172955   6.520   8.891   0.647  0.6968  1.0467 -0.5538
22331SOL    HW272956   6.432   9.010   0.679  1.3332  1.6076 -0.8446
22332SOL     OW72957   5.577   5.315   0.379 -0.6457 -0.1564  0.2045
22332SOL    HW172958   5.654   5.359   0.343  0.2287 -0.3880  1.7000
22332SOL    HW272959   5.518   5.386   0.403 -0.8019  0.0344 -0.7311
22333SOL     OW72960   9.209   3.201   8.955  0.3719  0.1264  0.3074
22333SOL    HW172961   9.273   3.202   9.026 -0.0927 -1.2256  0.7814
22333SOL    HW272962   9.173   3.290   8.954 -0.2271 -0.0470  2.3362
22334SOL     OW72963   7.254   5.586   0.015  0.0843 -0.4027  0.3718
22334SOL    HW172964   7.317   5.514   0.022  1.6821  0.9836  0.8624
22334SOL    HW272965   7.304   5.658  -0.024 -1.7835  0.1165 -1.2141
22335SOL     OW72966   4.224   0.851   5.090 -0.4142 -0.1379  0.2950
22335SOL    HW172967   4.224   0.789   5.018  1.8776 -0.8320  0.8047
22335SOL    HW272968   4.273   0.808   5.159  0.9205  2.0533  0.8183
22336SOL     OW72969   4.482   7.605   1.734 -0.6955  0.3857  0.9036
22336SOL    HW172970   4.405   7.551   1.720 -1.3918  1.4111  0.6345
22336SOL    HW272971   4.552   7.543   1.755 -1.7715 -0.5099  1.9797
22337SOL     OW72972   6.068   5.438   6.789  0.0717  0.0959 -0.2351
22337SOL    HW172973   6.048   5.457   6.697 -1.5046  1.5724  0.3623
22337SOL    HW272974   6.152   5.481   6.805 -0.9845  2.3122 -0.2952
22338SOL     OW72975   4.044   1.544   1.331  0.3379 -0.5818  0.3533
22338SOL    HW172976   3.993   1.470   1.299 -0.7737  0.1233  0.4608
22338SOL    HW272977   4.108   1.560   1.262  0.3441 -1.3888  0.1577
22339SOL     OW72978   1.261   5.450   8.248  0.3390  0.1911  0.1891
22339SOL    HW172979   1.239   5.442   8.155  1.9058  0.8780 -0.2785
22339SOL    HW272980   1.210   5.525   8.279  1.9371  1.8195 -0.8889
22340SOL     OW72981   5.715   5.902   5.003 -0.1235  0.0523  0.3062
22340SOL    HW172982   5.722   5.996   5.016 -0.2177  0.0843  0.1228
22340SOL    HW272983   5.774   5.864   5.068 -0.2817  0.2286  0.5539
22341SOL     OW72984   8.859   7.721   2.124 -0.2574 -0.0984  0.3905
22341SOL    HW172985   8.918   7.768   2.184  0.5954 -0.6440 -0.0059
22341SOL    HW272986   8.894   7.739   2.037 -1.0350  0.0527  0.1026
22342SOL     OW72987   6.686   7.630   5.395  0.0469 -0.2648 -0.6771
22342SOL    HW172988   6.778   7.654   5.405  0.1533  0.4055 -2.7909
22342SOL    HW272989   6.683   7.538   5.421  1.3501 -0.3421 -0.7197
22343SOL     OW72990   3.146   6.150   1.933 -0.2328  0.0659  0.3002
22343SOL    HW172991   3.127   6.210   1.861 -1.1700  0.9752  1.2614
22343SOL    HW272992   3.068   6.095   1.940  0.1411 -0.4818  0.1788
22344SOL     OW72993   2.647   4.941   4.155 -0.1192 -0.1090  0.1313
22344SOL    HW172994   2.649   4.976   4.244  0.6909  0.4717 -0.0994
22344SOL    HW272995   2.711   4.870   4.155  0.9140  0.7951 -0.3286
22345SOL     OW72996   4.960   2.622   5.395 -0.2167 -0.1208  0.3968
22345SOL    HW172997   4.951   2.677   5.473  0.6265 -1.0925  1.2015
22345SOL    HW272998   5.054   2.624   5.376 -0.6952  2.6601 -2.5280
22346SOL     OW72999   9.125   7.547   5.293 -0.1985  0.4382  0.6100
22346SOL    HW173000   9.105   7.614   5.358  1.6118  0.8887  0.7550
22346SOL    HW273001   9.137   7.467   5.345 -0.3353  0.4487  0.6582
22347SOL     OW73002   5.070   7.277   2.353  0.1348  0.7133  0.9771
22347SOL    HW173003   5.018   7.239   2.423 -2.2602  1.2180 -0.3986
22347SOL    HW273004   5.129   7.338   2.397  0.0692 -0.4111  2.6854
22348SOL     OW73005   5.026   7.368   6.036  0.7369 -0.3247 -0.0423
22348SOL    HW173006   5.010   7.339   5.946  0.3984 -1.2411  0.3014
22348SOL    HW273007   5.036   7.287   6.085 -0.4125  0.1352  0.9895
22349SOL     OW73008   5.070   6.193   7.339  0.3445  0.8370 -0.8386
22349SOL    HW173009   5.122   6.262   7.298  1.1539  1.8020  1.6224
22349SOL    HW273010   4.991   6.237   7.370  0.3891  0.4652 -0.1558
22350SOL     OW73011   2.540   2.846   7.450 -0.1460 -0.7233  0.3816
22350SOL    HW173012   2.550   2.916   7.385  0.1710  0.3282  1.5175
22350SOL    HW273013   2.627   2.836   7.488 -0.7258  0.0814  2.0071
22351SOL     OW73014   1.468   0.730   7.728 -0.0439  0.1846  0.1148
22351SOL    HW173015   1.495   0.734   7.820 -0.4054 -0.7965  0.2768
22351SOL    HW273016   1.538   0.775   7.680  0.4893  0.0981  0.8013
22352SOL     OW73017   0.245   7.745   2.430 -0.5116  0.0603  0.0249
22352SOL    HW173018   0.300   7.682   2.476 -0.0549 -0.6140 -1.3868
22352SOL    HW273019   0.157   7.707   2.433 -0.3951 -0.2200 -0.0835
22353SOL     OW73020   6.980   3.625   1.279  0.5490 -0.0709  0.8506
22353SOL    HW173021   6.927   3.691   1.234 -2.3624 -1.7431  1.5480
22353SOL    HW273022   7.052   3.607   1.218 -1.5502 -0.0752 -1.8641
22354SOL     OW73023   8.859   6.925   0.082 -0.0064  0.5444  0.3888
22354SOL    HW173024   8.784   6.900   0.028  0.2569 -1.6796  0.9514
22354SOL    HW273025   8.926   6.952   0.020 -1.1804  2.5205 -0.1263
22355SOL     OW73026   7.237   7.425   4.103  0.0589  0.0135  0.6658
22355SOL    HW173027   7.197   7.404   4.018  1.4999  0.6649 -0.2011
22355SOL    HW273028   7.253   7.340   4.144  0.3421 -0.3496 -0.1894
22356SOL     OW73029   5.781   0.712   1.400  0.3528  0.0521 -0.2385
22356SOL    HW173030   5.731   0.633   1.382 -0.0038  0.1676  0.2133
22356SOL    HW273031   5.861   0.682   1.443 -0.4145  0.0164  1.2265
22357SOL     OW73032   6.534   7.230   1.011 -0.2473 -0.0781  0.7562
22357SOL    HW173033   6.554   7.182   0.931  1.4703  0.4804  0.8144
22357SOL    HW273034   6.438   7.239   1.011 -0.7347 -3.7516  0.9111
22358SOL     OW73035   4.076   2.039   8.173  0.0036  0.2605  0.9693
22358SOL    HW173036   4.094   1.951   8.206 -0.3473  0.1131  0.7666
22358SOL    HW273037   4.003   2.070   8.226  1.5661  1.3257  2.6171
22359SOL     OW73038   5.277   7.115   3.458  0.5085  0.4456 -0.3457
22359SOL    HW173039   5.247   7.181   3.520 -0.9349 -0.4103 -0.0903
22359SOL    HW273040   5.303   7.041   3.513  1.7937  0.6333 -0.6504
22360SOL     OW73041   2.113   1.044   6.738 -0.2644  0.0650 -0.2025
22360SOL    HW173042   2.021   1.047   6.711 -0.5092  0.5603  0.6501
22360SOL    HW273043   2.150   1.126   6.706  0.3339 -0.8363 -2.0031
22361SOL     OW73044   7.160   3.885   6.645  0.7274 -0.8506  0.1255
22361SOL    HW173045   7.153   3.832   6.565  1.6351 -1.5795  0.5096
22361SOL    HW273046   7.081   3.940   6.645  1.5740  0.5130 -2.2338
22362SOL     OW73047   1.378   1.740   3.087  0.0798  0.2038  0.0009
22362SOL    HW173048   1.435   1.778   3.020  3.3564  1.2530  3.0822
22362SOL    HW273049   1.330   1.814   3.124 -2.3171 -0.4706 -1.5304
22363SOL     OW73050   6.174   6.569   9.218  0.1473  0.4483 -0.6183
22363SOL    HW173051   6.118   6.641   9.246 -1.2226  1.1835 -4.6822
22363SOL    HW273052   6.235   6.609   9.156  1.4298 -1.3847 -0.6027
22364SOL     OW73053   7.300   5.328   1.640  0.0631  0.3618  0.2029
22364SOL    HW173054   7.297   5.305   1.733  1.5846 -1.0006 -0.0273
22364SOL    HW273055   7.209   5.339   1.614 -0.3299  1.9758  2.1177
22365SOL     OW73056   1.763   7.144   5.222 -0.8308  0.0692 -0.3151
22365SOL    HW173057   1.804   7.209   5.279  0.3944 -0.9166 -0.0093
22365SOL    HW273058   1.715   7.195   5.157 -2.5701  1.2614  1.7453
22366SOL     OW73059   4.248   3.162   3.183  0.3548  0.9591  0.0124
22366SOL    HW173060   4.175   3.195   3.131  0.2405 -0.4120 -0.7389
22366SOL    HW273061   4.221   3.176   3.274 -1.6176 -0.9860 -0.1846
22367SOL     OW73062   8.940   4.621   4.562 -0.4059 -0.0552  0.0100
22367SOL    HW173063   8.942   4.638   4.656 -0.6683 -0.3646  0.0751
22367SOL    HW273064   9.032   4.615   4.537 -0.2702 -2.5841  0.7548
22368SOL     OW73065   5.686   6.303   6.635  0.0052  0.9352  0.4128
22368SOL    HW173066   5.724   6.299   6.548 -0.5854 -0.2186  0.1891
22368SOL    HW273067   5.592   6.313   6.620 -0.3081 -0.8866  0.8386
22369SOL     OW73068   4.408   0.936   4.735 -0.0899  0.2429 -0.7263
22369SOL    HW173069   4.449   0.975   4.811 -0.8883  1.0131 -0.6785
22369SOL    HW273070   4.428   0.842   4.742  0.3285  0.3883  0.1097
22370SOL     OW73071   7.063   9.168   1.748 -0.1902 -0.9170  0.1695
22370SOL    HW173072   7.089   9.225   1.675 -2.8329  1.0078  0.5698
22370SOL    HW273073   7.104   9.209   1.824 -1.6121  0.2315  0.3753
22371SOL     OW73074   5.007   8.594   3.059  0.2274  0.0632 -0.3005
22371SOL    HW173075   4.930   8.630   3.102  0.2025  0.5313 -0.7202
22371SOL    HW273076   4.982   8.585   2.967  0.6581  0.2017 -0.4385
22372SOL     OW73077   4.454   1.060   5.216  0.2122 -0.1765  0.3132
22372SOL    HW173078   4.416   1.082   5.131  0.2846 -2.3106 -0.3208
22372SOL    HW273079   4.533   1.113   5.221 -0.3625  0.7899 -0.4447
22373SOL     OW73080   4.383   0.327   2.156  0.2116 -0.4692  0.0442
22373SOL    HW173081   4.330   0.331   2.076  0.2965  1.0169  0.0330
22373SOL    HW273082   4.459   0.274   2.132 -0.8165 -1.8850 -0.1950
22374SOL     OW73083   5.072   4.883   0.134 -0.2701  0.5951  0.5060
22374SOL    HW173084   5.163   4.902   0.110 -0.9750  2.4792 -0.9911
22374SOL    HW273085   5.064   4.788   0.127  1.6406  0.3626  0.9892
22375SOL     OW73086   6.660   3.985   3.092  0.7062  0.3743 -0.0763
22375SOL    HW173087   6.699   4.069   3.115  2.0648 -0.2331 -0.0746
22375SOL    HW273088   6.620   3.955   3.174 -0.5070  1.3676 -0.2760
22376SOL     OW73089   8.345   4.468   8.521 -0.4686  0.0840  0.1619
22376SOL    HW173090   8.325   4.394   8.580  0.3653 -0.3528 -0.0942
22376SOL    HW273091   8.416   4.437   8.466  0.2650  1.2715  0.4024
22377SOL     OW73092   3.698   4.415   3.614 -0.9269  0.4689  0.3008
22377SOL    HW173093   3.647   4.343   3.651 -2.0472  1.1136  0.0792
22377SOL    HW273094   3.701   4.480   3.685 -1.7924  1.0818 -0.1958
22378SOL     OW73095   5.444   7.246   2.383 -0.6557 -0.1430 -0.3897
22378SOL    HW173096   5.524   7.277   2.426  0.4447 -1.8722 -1.1083
22378SOL    HW273097   5.374   7.269   2.444  0.6160 -0.5231  1.2849
22379SOL     OW73098   4.138   0.209   7.611 -0.3070  0.2805 -0.7349
22379SOL    HW173099   4.062   0.197   7.666 -0.2544  2.3238 -0.1088
22379SOL    HW273100   4.111   0.177   7.525 -1.1178 -0.9678 -0.0440
22380SOL     OW73101   3.526   8.258   1.512 -0.0574  0.0160  0.2038
22380SOL    HW173102   3.448   8.259   1.568  0.3822  0.3251  0.8313
22380SOL    HW273103   3.502   8.204   1.437 -0.4662 -0.9111  0.9839
22381SOL     OW73104   3.129   8.793   3.852  0.1827 -0.0195 -0.4388
22381SOL    HW173105   3.082   8.876   3.856 -0.6400 -0.5230  2.3814
22381SOL    HW273106   3.062   8.728   3.834  0.1395 -0.4440  1.0811
22382SOL     OW73107   6.510   0.956   3.810 -0.3611 -0.2785 -0.2154
22382SOL    HW173108   6.580   0.988   3.867  1.2204 -1.4235 -1.4314
22382SOL    HW273109   6.434   1.009   3.833  0.7360  0.5954  1.5766
22383SOL     OW73110   1.738   6.053   6.488  0.0856 -0.7614 -0.6093
22383SOL    HW173111   1.706   6.065   6.578  1.7270  0.1398 -0.1102
22383SOL    HW273112   1.660   6.062   6.434 -0.7041  0.2471  0.6313
22384SOL     OW73113   4.752   6.357   3.207  0.0025  0.3128 -0.0141
22384SOL    HW173114   4.761   6.312   3.123 -1.4224 -0.2313  0.0941
22384SOL    HW273115   4.761   6.288   3.272 -2.1793  0.1246  0.1565
22385SOL     OW73116   1.081   5.939   5.512 -0.5436 -0.2962 -0.2467
22385SOL    HW173117   1.142   5.874   5.477 -0.2153 -0.3952  0.5016
22385SOL    HW273118   1.136   6.013   5.538 -0.9628  0.5785 -1.6603
22386SOL     OW73119   2.684   7.122   2.913 -0.0962  0.1385  0.0915
22386SOL    HW173120   2.654   7.177   2.841  1.4000  0.6750 -0.1525
22386SOL    HW273121   2.677   7.032   2.878 -1.7236  0.1998  0.1903
22387SOL     OW73122   5.051   4.922   7.377  0.0165 -0.0925 -0.2323
22387SOL    HW173123   4.991   4.873   7.321  0.1431 -1.8003  1.0379
22387SOL    HW273124   5.018   5.012   7.376 -1.3200 -0.5738 -1.1798
22388SOL     OW73125   0.188   4.411   6.451 -0.5299 -0.1116 -0.1112
22388SOL    HW173126   0.269   4.455   6.425 -0.2933  0.5463  1.6637
22388SOL    HW273127   0.210   4.318   6.446  0.3445  0.0552  0.3484
22389SOL     OW73128   2.869   6.694   5.873  0.5032 -0.2941 -0.2068
22389SOL    HW173129   2.835   6.782   5.890  1.8782  0.3981 -0.8714
22389SOL    HW273130   2.808   6.657   5.809  0.6344  0.6921 -0.9247
22390SOL     OW73131   6.343   9.167   5.331  0.3993  0.4171  0.5979
22390SOL    HW173132   6.353   9.254   5.293  0.4854  0.4381  0.6674
22390SOL    HW273133   6.369   9.178   5.422 -0.0100  0.4106  0.7140
22391SOL     OW73134   1.337   8.873   0.965 -0.4765 -0.0726 -0.1618
22391SOL    HW173135   1.303   8.959   0.939 -1.1815  0.1280  1.3330
22391SOL    HW273136   1.334   8.821   0.885 -0.6160  1.1100 -0.9514
22392SOL     OW73137   2.973   6.336   2.200  0.1186  0.0489  0.4058
22392SOL    HW173138   2.981   6.246   2.231 -4.6186 -0.0030  2.2407
22392SOL    HW273139   2.946   6.328   2.109 -2.5776 -0.6587  1.1772
22393SOL     OW73140   2.988   4.999   4.165 -0.8385 -0.5449 -0.4061
22393SOL    HW173141   2.906   5.035   4.197 -1.5194 -0.9678 -1.6016
22393SOL    HW273142   2.964   4.950   4.087  0.2412 -2.4223  0.3557
22394SOL     OW73143   1.840   3.532   7.927  0.1650  0.4429 -0.5434
22394SOL    HW173144   1.878   3.450   7.959  0.2602  1.2212  1.5098
22394SOL    HW273145   1.899   3.561   7.858  1.5492 -0.0021  0.4070
22395SOL     OW73146   3.322   5.056   6.389 -0.0919 -0.3148 -0.2479
22395SOL    HW173147   3.329   5.150   6.377 -1.4622 -0.0584  0.6938
22395SOL    HW273148   3.242   5.032   6.342  0.3538 -1.0469 -0.6488
22396SOL     OW73149   6.246   4.496   7.767  0.2357 -0.1312 -0.5414
22396SOL    HW173150   6.232   4.572   7.823  1.7255 -1.2928  1.5268
22396SOL    HW273151   6.321   4.519   7.712 -1.2464  1.0194 -2.1999
22397SOL     OW73152   3.069   6.952   0.829 -0.5261  0.3350  0.2900
22397SOL    HW173153   2.981   6.944   0.792  0.0175  0.6810 -1.1368
22397SOL    HW273154   3.057   6.935   0.923 -2.2262  1.1405  0.2615
22398SOL     OW73155   7.694   0.380   1.946  0.8094  0.0063  0.2612
22398SOL    HW173156   7.705   0.439   2.020  1.1617  1.1040 -0.6404
22398SOL    HW273157   7.606   0.399   1.913  0.6253 -0.5309  0.4253
22399SOL     OW73158   3.826   8.685   7.763 -0.4056  0.0521  0.1705
22399SOL    HW173159   3.866   8.655   7.682  1.0445  0.7450  0.5985
22399SOL    HW273160   3.856   8.622   7.829 -0.5542  0.2001  0.3805
22400SOL     OW73161   2.133   2.930   1.611 -0.1502 -0.0889  0.2657
22400SOL    HW173162   2.080   2.988   1.664 -1.3379 -1.4563  0.6408
22400SOL    HW273163   2.096   2.937   1.523 -0.3030 -0.2966  0.3142
22401SOL     OW73164   4.575   5.513   3.554  0.6232 -0.5199  0.5409
22401SOL    HW173165   4.585   5.497   3.648  1.6147  2.1099  0.9470
22401SOL    HW273166   4.664   5.517   3.520  0.3806  1.0808 -0.0008
22402SOL     OW73167   0.915   2.741   1.216  0.4885 -0.5097  0.4485
22402SOL    HW173168   0.915   2.825   1.170 -0.8526 -1.0145 -0.5135
22402SOL    HW273169   0.884   2.762   1.304 -0.1112 -0.0465  0.1292
22403SOL     OW73170   8.199   4.099   7.490 -0.5673 -0.1776  0.4279
22403SOL    HW173171   8.153   4.168   7.538  0.7438 -0.2694  1.9038
22403SOL    HW273172   8.205   4.132   7.401 -1.2163  0.9763  0.7857
22404SOL     OW73173   4.885   4.055   2.643 -0.4424  0.3792 -0.2727
22404SOL    HW173174   4.825   4.048   2.569 -0.1404 -1.2249 -0.3905
22404SOL    HW273175   4.844   4.003   2.712 -0.1628  0.9401  0.3300
22405SOL     OW73176   2.062   5.423   0.698 -0.2534  0.0418  0.2380
22405SOL    HW173177   2.140   5.459   0.656 -0.9971  2.6924  0.9469
22405SOL    HW273178   1.994   5.427   0.631 -0.4068  0.1472  0.4014
22406SOL     OW73179   9.040   7.953   8.471  0.1921 -0.1630  0.0581
22406SOL    HW173180   9.100   7.949   8.546  1.4342 -0.7159 -0.9227
22406SOL    HW273181   9.068   7.881   8.414  0.5853  1.4202 -1.8694
22407SOL     OW73182   1.173   0.717   1.201 -0.4327 -0.3236  0.2834
22407SOL    HW173183   1.120   0.793   1.225  0.2867  0.1346  0.4803
22407SOL    HW273184   1.115   0.642   1.211 -1.1762  0.2095  0.0117
22408SOL     OW73185   6.044   5.969   4.279  0.3802  0.1407 -0.5093
22408SOL    HW173186   6.069   6.037   4.341  1.0925  0.0956 -0.7352
22408SOL    HW273187   6.043   5.888   4.331  0.2321  0.2166 -0.3949
22409SOL     OW73188   8.445   3.843   0.928 -0.7112 -0.1327 -0.2942
22409SOL    HW173189   8.489   3.762   0.952 -2.0617 -1.6139 -2.4364
22409SOL    HW273190   8.503   3.883   0.863 -0.7229 -0.1352 -0.3061
22410SOL     OW73191   4.177   1.694   5.549 -0.0437  0.5928 -0.1509
22410SOL    HW173192   4.116   1.645   5.605 -0.6071 -0.5350 -1.6959
22410SOL    HW273193   4.137   1.781   5.541 -0.8370  0.2311 -0.1752
22411SOL     OW73194   6.796   4.337   8.780 -0.1165  0.1312  0.0512
22411SOL    HW173195   6.754   4.317   8.697 -0.2414  0.7613 -0.0398
22411SOL    HW273196   6.864   4.269   8.790 -1.1170 -0.8799  0.1962
22412SOL     OW73197   2.999   8.486   1.838  0.4200  0.7380  0.1238
22412SOL    HW173198   3.057   8.499   1.913 -0.6696 -0.3278  1.1958
22412SOL    HW273199   2.913   8.518   1.868 -0.4499 -1.3513  0.0337
22413SOL     OW73200   1.343   6.522   2.560  0.0993 -0.2198 -0.1049
22413SOL    HW173201   1.364   6.457   2.627  2.0720  0.0017 -0.4445
22413SOL    HW273202   1.311   6.471   2.486  1.8518 -0.8907 -0.4588
22414SOL     OW73203   5.515   2.644   9.228  0.1124 -0.3401 -0.3517
22414SOL    HW173204   5.508   2.705   9.301 -1.1851 -0.2836 -0.4996
22414SOL    HW273205   5.447   2.579   9.244  1.8513 -2.1674  0.1423
22415SOL     OW73206   9.360   6.814   5.985 -0.6660  0.2110  0.2824
22415SOL    HW173207   9.324   6.797   6.073 -0.1394 -0.1226  0.4373
22415SOL    HW273208   9.283   6.832   5.931 -0.9947  0.4564  0.8207
22416SOL     OW73209   7.901   3.205   3.662 -0.7422 -0.2375 -0.3358
22416SOL    HW173210   7.904   3.281   3.720  0.0180 -0.2146 -0.3936
22416SOL    HW273211   7.811   3.202   3.630 -1.3192 -0.5358  1.2245
22417SOL     OW73212   1.438   5.803   5.793 -0.4627  0.4834 -0.3503
22417SOL    HW173213   1.392   5.794   5.876 -0.1778 -1.0683 -0.3215
22417SOL    HW273214   1.475   5.716   5.777  1.4914  1.3494 -0.9217
22418SOL     OW73215   3.620   5.330   2.443  0.2142  0.8719  0.4440
22418SOL    HW173216   3.683   5.287   2.501 -0.9540 -0.2524  0.9269
22418SOL    HW273217   3.643   5.423   2.448  1.2886  0.5779  1.2808
22419SOL     OW73218   3.796   0.541   1.560 -0.5902  0.1418 -0.0918
22419SOL    HW173219   3.844   0.558   1.641 -0.6996  1.1740 -0.2343
22419SOL    HW273220   3.863   0.543   1.492 -0.6787  0.5646 -0.1704
22420SOL     OW73221   4.268   2.606   6.445  0.2073 -0.6979  0.0117
22420SOL    HW173222   4.228   2.690   6.468  1.9351  0.1318  0.1360
22420SOL    HW273223   4.319   2.582   6.522 -0.8773 -2.3002  0.2896
22421SOL     OW73224   7.799   7.820   4.309 -0.4613 -0.3673 -0.5989
22421SOL    HW173225   7.722   7.873   4.329 -1.4662 -1.5271 -1.1879
22421SOL    HW273226   7.803   7.756   4.380  0.0158 -0.2549 -0.5227
22422SOL     OW73227   1.998   3.317   2.939  0.1395 -0.2097 -0.1382
22422SOL    HW173228   2.027   3.266   2.864 -0.7785  0.6038 -1.0722
22422SOL    HW273229   1.978   3.404   2.904 -2.7150 -0.4973  0.5081
22423SOL     OW73230   7.374   8.166   0.980 -0.1002  0.2373  0.6933
22423SOL    HW173231   7.426   8.232   1.026 -0.4842  0.9053  0.1948
22423SOL    HW273232   7.357   8.098   1.046  1.0557  0.1951  0.9620
22424SOL     OW73233   8.529   4.648   4.948  0.1661 -0.3726  0.3719
22424SOL    HW173234   8.484   4.660   4.864 -0.1710 -2.3108  0.2322
22424SOL    HW273235   8.605   4.706   4.943 -1.1838  1.4425 -0.2238
22425SOL     OW73236   2.824   6.322   0.266  0.0697  0.3293 -0.0046
22425SOL    HW173237   2.850   6.320   0.174  0.3412 -0.2361  0.0845
22425SOL    HW273238   2.884   6.262   0.310 -0.7008 -0.1805  0.3747
22426SOL     OW73239   1.720   4.067   2.247 -0.3800  0.4557  0.6231
22426SOL    HW173240   1.712   3.972   2.234 -1.4229  0.8093 -1.9568
22426SOL    HW273241   1.677   4.084   2.330  0.9743 -1.4377  1.8041
22427SOL     OW73242   5.574   0.088   9.197 -0.1019  0.5900  0.0279
22427SOL    HW173243   5.654   0.139   9.190  0.4342 -0.2066  0.2118
22427SOL    HW273244   5.572   0.036   9.117 -2.0887  2.8599 -1.5579
22428SOL     OW73245   3.331   8.904   0.459 -0.5234  0.2263  0.1588
22428SOL    HW173246   3.269   8.919   0.388  1.2501 -1.8248 -1.9658
22428SOL    HW273247   3.311   8.816   0.491  1.4478 -0.6619 -0.8653
22429SOL     OW73248   6.196   4.092   1.641  0.2526 -0.0864  0.1553
22429SOL    HW173249   6.155   4.171   1.606 -0.3119  0.1942  1.3859
22429SOL    HW273250   6.216   4.114   1.732 -1.3086 -1.8411  1.0036
22430SOL     OW73251   8.348   1.983   0.572 -0.1410 -0.1176 -0.0914
22430SOL    HW173252   8.368   1.970   0.479  2.6073 -0.3474  0.4454
22430SOL    HW273253   8.332   2.077   0.580  0.3466  0.0237 -0.6985
22431SOL     OW73254   6.826   4.616   8.761  0.6271 -0.6535  0.3489
22431SOL    HW173255   6.835   4.639   8.669  0.0617  0.8449  0.6371
22431SOL    HW273256   6.820   4.520   8.762  1.6968 -0.7534 -1.0621
22432SOL     OW73257   0.398   0.955   3.244  0.0963  0.6644  0.8942
22432SOL    HW173258   0.350   0.891   3.296  0.5191 -0.1651  0.2895
22432SOL    HW273259   0.350   1.037   3.257 -1.5606 -0.1486  0.2456
22433SOL     OW73260   7.130   2.390   1.458 -0.8995  0.3922  0.2054
22433SOL    HW173261   7.191   2.439   1.402 -1.1692  0.9342  0.3813
22433SOL    HW273262   7.094   2.456   1.517 -1.8204  0.1050 -0.0350
22434SOL     OW73263   0.007   7.113   1.839  0.9337  0.7327  0.4614
22434SOL    HW173264   0.004   7.164   1.920 -1.4643  3.2440 -1.0351
22434SOL    HW273265  -0.027   7.172   1.772 -1.4122 -2.5734 -1.5822
22435SOL     OW73266   1.832   1.455   2.182 -0.3158  0.0822 -0.6078
22435SOL    HW173267   1.863   1.487   2.097 -0.3317 -1.8148 -1.3783
22435SOL    HW273268   1.902   1.399   2.214 -0.1222  1.1378  0.8827
22436SOL     OW73269   5.507   5.563   7.021 -0.1235 -0.0498 -0.3147
22436SOL    HW173270   5.421   5.601   7.039  0.1165  1.8513 -2.6784
22436SOL    HW273271   5.493   5.508   6.945  0.9291  1.4049 -1.6322
22437SOL     OW73272   0.836   5.635   4.766 -0.5839  0.2555  0.6817
22437SOL    HW173273   0.775   5.562   4.780  1.0750 -1.0388  1.6006
22437SOL    HW273274   0.839   5.680   4.850 -0.4453  0.4572  0.5688
22438SOL     OW73275   4.518   5.146   4.300  0.5886 -0.0033 -0.1006
22438SOL    HW173276   4.607   5.141   4.337  0.2496 -0.4465  0.6858
22438SOL    HW273277   4.517   5.078   4.233  0.6480 -0.4569  0.3463
22439SOL     OW73278   2.109   4.020   0.685  0.3734  0.2862 -0.7140
22439SOL    HW173279   2.052   3.961   0.637  0.1973  0.8467 -1.2124
22439SOL    HW273280   2.084   4.009   0.777  1.9194 -2.1098 -0.4931
22440SOL     OW73281   4.310   7.176   5.067 -0.4592 -0.0975 -0.3615
22440SOL    HW173282   4.337   7.132   5.148  0.1404 -1.0743 -1.0739
22440SOL    HW273283   4.362   7.256   5.065  0.4806 -0.6861 -0.3966
22441SOL     OW73284   6.348   3.509   0.161 -0.2826  0.5150 -0.0527
22441SOL    HW173285   6.435   3.541   0.134 -0.3465  0.6226 -0.1310
22441SOL    HW273286   6.294   3.588   0.166 -0.5464  0.3780 -0.6319
22442SOL     OW73287   1.905   4.993   5.460 -0.5048  0.0032  0.2034
22442SOL    HW173288   1.826   4.963   5.504 -0.2622  1.7143  1.9491
22442SOL    HW273289   1.897   5.089   5.457  1.6823  0.2803  0.9246
22443SOL     OW73290   1.062   7.654   7.808  0.2427  0.1526 -0.5521
22443SOL    HW173291   1.041   7.587   7.874 -0.5272 -0.1651 -1.1023
22443SOL    HW273292   1.095   7.728   7.859 -0.1869 -0.1474  0.1796
22444SOL     OW73293   3.734   1.489   1.536 -0.0054  0.1178 -0.6458
22444SOL    HW173294   3.718   1.470   1.444 -0.8812  1.4589 -0.7837
22444SOL    HW273295   3.818   1.535   1.537  1.1720 -1.8836 -0.4959
22445SOL     OW73296   5.800   7.028   8.490  0.0095  0.2523  0.1346
22445SOL    HW173297   5.832   7.116   8.468 -1.0816  1.4736  2.9378
22445SOL    HW273298   5.875   6.971   8.477  0.2240  1.1402 -3.7364
22446SOL     OW73299   0.308   7.751   0.562  0.3135  0.4531  0.4600
22446SOL    HW173300   0.338   7.815   0.498  0.1812  0.7234  0.6673
22446SOL    HW273301   0.388   7.724   0.608  0.1259  2.0321  1.8038
22447SOL     OW73302   4.717   8.049   2.554 -0.0498  0.3484  0.4867
22447SOL    HW173303   4.658   8.071   2.481  0.7608  1.8001  0.2247
22447SOL    HW273304   4.674   7.977   2.599  0.0576 -1.5616 -2.2170
22448SOL     OW73305   2.352   0.599   9.248  0.6623  0.0324 -0.0063
22448SOL    HW173306   2.271   0.619   9.201 -1.0597 -0.7559  2.4410
22448SOL    HW273307   2.355   0.504   9.251 -0.4783 -0.0075  3.2175
22449SOL     OW73308   9.201   7.948   2.615  0.4159  0.1053 -1.1785
22449SOL    HW173309   9.138   7.924   2.682  1.3089  0.8431 -0.0351
22449SOL    HW273310   9.163   7.915   2.533 -1.5570  0.7845 -0.5807
22450SOL     OW73311   4.266   6.199   3.253 -0.6531 -0.0272 -0.4265
22450SOL    HW173312   4.355   6.186   3.285 -1.2592 -1.2770  0.8354
22450SOL    HW273313   4.248   6.121   3.201 -0.9182  0.3816 -0.9637
22451SOL     OW73314   8.243   2.331   3.190 -0.0003 -0.2494 -0.3400
22451SOL    HW173315   8.185   2.256   3.181  1.1319 -0.9749 -2.2106
22451SOL    HW273316   8.328   2.300   3.158  1.0635  1.2030  0.8903
22452SOL     OW73317   6.170   5.825   6.415 -0.2766  0.0507 -0.1517
22452SOL    HW173318   6.192   5.902   6.466  2.6787 -0.7238 -0.0539
22452SOL    HW273319   6.154   5.858   6.327  1.8300  0.7661 -0.3197
22453SOL     OW73320   7.446   9.103   5.410 -0.3213  0.5811 -0.6628
22453SOL    HW173321   7.419   9.181   5.360 -1.6387  1.7683  1.6895
22453SOL    HW273322   7.364   9.071   5.448  0.5906 -0.3404  0.5658
22454SOL     OW73323   5.563   4.023   0.035 -0.3603  0.6340  0.2002
22454SOL    HW173324   5.524   4.042   0.121 -1.2603 -0.4568  0.0560
22454SOL    HW273325   5.546   4.102  -0.017 -6.0011 -0.9817 -1.0978
22455SOL     OW73326   1.860   4.721   1.405 -0.0169 -0.1414 -0.1179
22455SOL    HW173327   1.857   4.652   1.472 -0.7846 -1.0369 -1.0483
22455SOL    HW273328   1.791   4.697   1.343 -0.3994  1.5686 -0.3792
22456SOL     OW73329   7.298   9.326   7.205 -0.0992 -0.4319  0.1117
22456SOL    HW173330   7.212   9.285   7.212 -1.1038  1.5010 -0.0982
22456SOL    HW273331   7.326   9.309   7.115 -0.3848 -0.8242  0.0959
22457SOL     OW73332   5.495   3.722   1.238 -0.2401 -0.1296  0.1350
22457SOL    HW173333   5.533   3.668   1.307 -1.5017 -0.2468  0.7567
22457SOL    HW273334   5.455   3.796   1.284  1.0274  1.1190 -0.6631
22458SOL     OW73335   5.804   9.071   0.469 -0.3087  0.2578  0.4694
22458SOL    HW173336   5.802   9.097   0.377  0.1884  1.7048  0.8271
22458SOL    HW273337   5.862   8.995   0.471  0.1819  0.5923 -0.3329
22459SOL     OW73338   4.137   4.088   2.219  0.1442 -0.4591  0.2532
22459SOL    HW173339   4.125   4.057   2.308 -1.0800 -1.6908 -0.3037
22459SOL    HW273340   4.105   4.016   2.164  0.2103  0.5471 -1.1596
22460SOL     OW73341   8.593   5.237   4.909  0.4895  0.3081 -0.3170
22460SOL    HW173342   8.530   5.268   4.844 -0.1468 -1.0186 -0.3561
22460SOL    HW273343   8.604   5.144   4.890  0.5506 -0.0350  1.2561
22461SOL     OW73344   0.738   6.475   3.365 -0.1724 -0.0356 -0.3985
22461SOL    HW173345   0.659   6.529   3.363  0.8787  1.5204 -1.0048
22461SOL    HW273346   0.758   6.457   3.273 -0.1628 -0.9734 -0.2256
22462SOL     OW73347   0.738   4.166   4.803 -0.1303 -0.1462  0.3222
22462SOL    HW173348   0.698   4.232   4.747 -0.2766 -0.0058  0.5875
22462SOL    HW273349   0.791   4.217   4.865 -2.8120  0.0557  2.7031
22463SOL     OW73350   9.114   8.510   1.868  0.0227  0.0865  0.2326
22463SOL    HW173351   9.042   8.506   1.930 -0.4542 -3.5791 -0.3285
22463SOL    HW273352   9.100   8.434   1.810  2.4008  1.2700 -2.1060
22464SOL     OW73353   3.904   0.007   3.577  0.2126  0.2968  0.1611
22464SOL    HW173354   3.921  -0.050   3.503  0.4832  1.4745 -0.7066
22464SOL    HW273355   3.936  -0.042   3.653  1.8158 -0.0955 -0.7280
22465SOL     OW73356   1.015   4.955   1.929 -0.3473  0.0518  0.0556
22465SOL    HW173357   1.110   4.963   1.920  0.0678 -2.0512  1.7217
22465SOL    HW273358   0.997   4.862   1.914 -2.0207  0.2278  0.7615
22466SOL     OW73359   6.143   3.898   4.511  0.2944 -0.0648  0.0344
22466SOL    HW173360   6.185   3.966   4.564  0.0718 -0.6650  1.0128
22466SOL    HW273361   6.113   3.833   4.575  1.1214 -1.4344 -0.9202
22467SOL     OW73362   7.139   5.436   4.485 -0.3282 -0.0381 -0.4739
22467SOL    HW173363   7.156   5.394   4.569  0.9296 -0.3178 -0.8355
22467SOL    HW273364   7.125   5.528   4.507  3.1148  0.5689 -0.1129
22468SOL     OW73365   7.741   2.474   2.042  0.1118  0.4224  0.3199
22468SOL    HW173366   7.816   2.452   2.096  0.6518  2.7029  0.6133
22468SOL    HW273367   7.775   2.480   1.953 -0.5409 -2.1552 -0.1973
22469SOL     OW73368   8.645   3.555   1.627 -0.0821  0.3976  0.2180
22469SOL    HW173369   8.683   3.643   1.638  1.1055 -0.1577  0.7582
22469SOL    HW273370   8.658   3.535   1.534 -0.1189  0.6924  0.1483
22470SOL     OW73371   7.386   4.818   6.607 -0.0321  0.2459  0.5319
22470SOL    HW173372   7.294   4.794   6.619  0.1272  0.4929  2.5703
22470SOL    HW273373   7.391   4.907   6.641  1.1586 -0.1430  1.4196
22471SOL     OW73374   1.106   7.143   3.017  0.4803  0.0474  0.3990
22471SOL    HW173375   1.110   7.089   3.096  1.8668 -0.4499  0.0111
22471SOL    HW273376   1.106   7.233   3.049  0.7498 -0.1567  0.9728
22472SOL     OW73377   4.840   6.598   8.579  0.0732 -0.2078  0.6393
22472SOL    HW173378   4.768   6.614   8.518  0.5420 -1.4469 -0.2707
22472SOL    HW273379   4.822   6.657   8.652 -0.2852  1.6074 -0.8412
22473SOL     OW73380   2.288   1.952   4.074 -0.1753 -0.0538  0.1217
22473SOL    HW173381   2.332   1.873   4.104 -0.5134 -0.0690  0.5981
22473SOL    HW273382   2.242   1.984   4.152 -0.7702  0.1139 -0.2930
22474SOL     OW73383   6.635   8.521   3.248 -0.0131  0.4796 -0.2022
22474SOL    HW173384   6.584   8.524   3.329 -0.5364 -2.1980 -0.3295
22474SOL    HW273385   6.588   8.580   3.188 -0.7561  0.9695  0.8235
22475SOL     OW73386   7.530   2.940   6.571  0.0022 -0.3967  0.3026
22475SOL    HW173387   7.524   3.036   6.565  0.0422 -0.4309 -0.2706
22475SOL    HW273388   7.521   2.922   6.665 -0.2828  0.1503  0.3859
22476SOL     OW73389   5.931   8.423   0.171  0.0345 -0.2718 -0.6775
22476SOL    HW173390   5.838   8.433   0.188 -0.0477 -0.0418 -1.2582
22476SOL    HW273391   5.974   8.473   0.241 -0.2729 -0.3869 -0.4054
22477SOL     OW73392   8.051   5.387   1.184 -0.5683  0.5067 -0.5181
22477SOL    HW173393   8.098   5.458   1.229  1.7994  0.3407 -2.5095
22477SOL    HW273394   8.102   5.308   1.206 -0.7223  0.0889 -1.6200
22478SOL     OW73395   9.175   0.082   0.005 -0.0216 -0.0059 -0.0281
22478SOL    HW173396   9.148   0.169   0.034 -2.0097 -0.2848 -0.8589
22478SOL    HW273397   9.116   0.062  -0.068 -0.8611 -2.7540  1.2515
22479SOL     OW73398   8.210   7.121   5.429  0.6454  0.0385  0.0064
22479SOL    HW173399   8.248   7.051   5.376 -0.0396  0.3464 -0.9185
22479SOL    HW273400   8.157   7.172   5.368 -0.4429  0.2221  1.0448
22480SOL     OW73401   6.267   3.498   7.951  0.1695  0.6021  0.8096
22480SOL    HW173402   6.333   3.495   7.882  0.4061  0.5172  1.0397
22480SOL    HW273403   6.184   3.499   7.903  0.3474  1.5392  0.5077
22481SOL     OW73404   7.188   5.991   2.007 -0.0236 -0.0350 -0.3087
22481SOL    HW173405   7.111   5.986   1.951  0.5149  1.4840 -1.2495
22481SOL    HW273406   7.224   5.903   2.008 -1.1276 -0.5010 -0.7753
22482SOL     OW73407   7.713   3.248   8.019 -0.3520  0.1644  0.2645
22482SOL    HW173408   7.711   3.295   8.103 -0.8888 -1.0805  0.9760
22482SOL    HW273409   7.688   3.158   8.041  0.4286 -0.4178 -1.0902
22483SOL     OW73410   5.804   5.216   2.774  0.0540 -0.1014 -0.6641
22483SOL    HW173411   5.895   5.246   2.765  0.2300 -1.1531 -3.0612
22483SOL    HW273412   5.799   5.138   2.719 -2.7003  0.8183 -1.8608
22484SOL     OW73413   2.697   5.249   6.822  0.3323  0.2854 -0.0159
22484SOL    HW173414   2.769   5.187   6.829 -1.2227 -1.5936  0.1850
22484SOL    HW273415   2.638   5.226   6.894 -1.7124  0.0089 -1.6872
22485SOL     OW73416   3.825   1.675   6.673  0.2603 -0.2201  0.3016
22485SOL    HW173417   3.866   1.591   6.696  0.9231 -0.6073 -1.9973
22485SOL    HW273418   3.899   1.735   6.664 -0.0881  0.2393  0.5189
22486SOL     OW73419   9.133   8.207   1.721  0.7106 -0.2783 -0.6142
22486SOL    HW173420   9.047   8.247   1.731  1.1371  0.2621  1.4705
22486SOL    HW273421   9.122   8.118   1.754  0.8072 -0.4153 -0.9503
22487SOL     OW73422   8.271   4.503   7.735 -0.5064  0.4866 -0.3347
22487SOL    HW173423   8.261   4.598   7.730 -2.0896  0.4474  1.2350
22487SOL    HW273424   8.303   4.486   7.824  0.1275 -0.4495 -0.7144
22488SOL     OW73425   8.541   6.289   6.126  0.0517 -0.2044  0.0665
22488SOL    HW173426   8.629   6.255   6.106  0.3416  1.2708 -1.3213
22488SOL    HW273427   8.548   6.383   6.113 -1.8149 -0.0883 -0.3280
22489SOL     OW73428   7.597   5.184   8.654 -0.4122 -0.2822 -0.1910
22489SOL    HW173429   7.554   5.267   8.633 -2.2943 -0.6774  1.7661
22489SOL    HW273430   7.527   5.119   8.655  1.0004 -1.9649 -1.6408
22490SOL     OW73431   6.320   2.591   0.758 -0.0814 -0.1264 -0.0117
22490SOL    HW173432   6.309   2.518   0.698  0.3438 -0.8919  0.8106
22490SOL    HW273433   6.234   2.602   0.799 -0.7209  1.1933 -1.5859
22491SOL     OW73434   6.406   4.828   7.525 -0.1624 -0.3761  0.5768
22491SOL    HW173435   6.324   4.873   7.548  0.3920  0.7853  0.3518
22491SOL    HW273436   6.445   4.882   7.457  0.7428 -0.9863  0.5928
22492SOL     OW73437   9.076   5.040   3.705 -0.0919 -0.0977 -0.0088
22492SOL    HW173438   9.038   5.057   3.791  0.5782  0.8218  0.1204
22492SOL    HW273439   9.003   5.003   3.654 -1.4163  2.2494  0.0266
22493SOL     OW73440   0.668   8.103   6.361 -0.2607  0.0232 -0.2220
22493SOL    HW173441   0.693   8.171   6.424 -0.5129  1.0461 -1.1992
22493SOL    HW273442   0.750   8.064   6.333  0.1286  1.7113 -1.5887
22494SOL     OW73443   6.390   2.887   0.757  0.3966  0.1734 -0.1286
22494SOL    HW173444   6.406   2.888   0.662  0.6941 -1.7733 -0.1288
22494SOL    HW273445   6.375   2.795   0.778  3.5846  0.0530  2.2615
22495SOL     OW73446   3.305   9.046   9.187  0.0201 -0.0219 -0.5479
22495SOL    HW173447   3.255   8.964   9.194  0.4724 -0.1968  1.1041
22495SOL    HW273448   3.253   9.109   9.237  0.5374  0.2540 -0.3597
22496SOL     OW73449   0.071   9.057   4.501  0.3404  0.1625 -0.6224
22496SOL    HW173450   0.083   9.087   4.591  0.3211 -1.8907  0.1186
22496SOL    HW273451   0.099   9.131   4.447 -0.2089  1.6632  1.0424
22497SOL     OW73452   0.156   8.786   6.755  0.3260  0.0386  0.3100
22497SOL    HW173453   0.094   8.824   6.693 -0.5096 -1.1804  0.3543
22497SOL    HW273454   0.150   8.841   6.833 -1.5134 -0.6316  0.6999
22498SOL     OW73455   0.464   1.672   0.952  0.2777 -0.0097 -0.3553
22498SOL    HW173456   0.407   1.595   0.958 -0.9862  0.7697 -1.7485
22498SOL    HW273457   0.541   1.648   1.004 -0.8697 -1.4804  0.7756
22499SOL     OW73458   9.108   8.753   3.472 -0.6731 -0.3067  0.2820
22499SOL    HW173459   9.152   8.677   3.510  1.4540 -0.9731 -3.1067
22499SOL    HW273460   9.044   8.715   3.412 -1.0398  0.6222  0.0765
22500SOL     OW73461   0.869   0.223   1.138  0.0504 -0.7729  0.3700
22500SOL    HW173462   0.805   0.152   1.144  0.9005 -1.4509  3.0553
22500SOL    HW273463   0.953   0.178   1.131  0.3710  0.0866 -1.8401
22501SOL     OW73464   2.380   6.276   3.353  0.0624  0.1978  0.1689
22501SOL    HW173465   2.473   6.293   3.367 -0.0908  0.3513  1.0492
22501SOL    HW273466   2.375   6.239   3.265  0.8025  1.4557 -0.4237
22502SOL     OW73467   5.029   7.919   1.299  0.1800  0.3132 -0.1088
22502SOL    HW173468   5.043   7.841   1.353  0.8443 -0.6819 -1.6644
22502SOL    HW273469   5.064   7.895   1.213  0.0450  2.2028 -0.7212
22503SOL     OW73470   3.013   8.437   0.373  0.2772 -0.4599 -0.4298
22503SOL    HW173471   2.939   8.477   0.328  0.5939  0.2458 -0.3317
22503SOL    HW273472   3.060   8.510   0.413  0.2607 -1.0233  0.6625
22504SOL     OW73473   8.080   1.851   8.552  0.1333  0.0794 -0.0516
22504SOL    HW173474   8.040   1.814   8.473  0.6827 -0.2075 -0.1981
22504SOL    HW273475   8.020   1.826   8.622  1.0181 -2.0710  0.0247
22505SOL     OW73476   3.308   7.319   6.936  0.1975  0.1096 -0.0095
22505SOL    HW173477   3.379   7.335   6.998  0.0798 -0.7996  0.3797
22505SOL    HW273478   3.352   7.310   6.852  0.1665  3.9000 -0.6103
22506SOL     OW73479   1.592   2.021   5.805 -0.1146 -0.2934  0.0402
22506SOL    HW173480   1.551   1.937   5.829 -0.1696 -0.2290  0.1743
22506SOL    HW273481   1.624   2.056   5.888 -0.7827  0.1886  0.1065
22507SOL     OW73482   1.813   6.009   0.984 -0.2068 -0.1378 -0.5725
22507SOL    HW173483   1.897   6.001   1.030 -0.1317  2.0483 -0.2287
22507SOL    HW273484   1.747   6.003   1.053 -0.2416  0.1328 -0.5833
22508SOL     OW73485   1.218   4.638   6.647  0.7496 -0.0240 -0.7261
22508SOL    HW173486   1.185   4.555   6.613 -1.6147  1.0737 -1.2660
22508SOL    HW273487   1.304   4.649   6.605  0.6360 -1.6810 -1.4364
22509SOL     OW73488   3.822   6.392   5.190  0.5246 -0.6477  0.3600
22509SOL    HW173489   3.893   6.427   5.136 -0.1386  0.8079  0.3735
22509SOL    HW273490   3.866   6.341   5.258  1.3816 -2.6750 -1.5896
22510SOL     OW73491   5.671   2.536   3.027 -0.1482  0.7419 -0.7773
22510SOL    HW173492   5.750   2.549   2.975 -0.3586  1.3274 -0.9572
22510SOL    HW273493   5.703   2.515   3.115  0.2123  0.9733 -0.8519
22511SOL     OW73494   7.290   0.172   7.478  0.0872  0.4592  0.2845
22511SOL    HW173495   7.268   0.135   7.563  1.4480 -0.4368  0.2736
22511SOL    HW273496   7.386   0.173   7.476  0.0780  0.8771 -1.0642
22512SOL     OW73497   7.370   3.395   3.250  0.0727 -0.0494 -0.0327
22512SOL    HW173498   7.451   3.346   3.235  0.0673 -0.1786  0.3479
22512SOL    HW273499   7.355   3.389   3.344 -0.8008 -0.7120 -0.1911
22513SOL     OW73500   5.127   2.532   2.678  0.1291  0.1157  0.0078
22513SOL    HW173501   5.131   2.464   2.746  0.7354  0.2788  0.1383
22513SOL    HW273502   5.218   2.560   2.667 -0.1582  1.1322  0.1825
22514SOL     OW73503   8.105   7.103   4.227  0.1748 -0.0591  0.1785
22514SOL    HW173504   8.101   7.194   4.198  2.9988 -0.4994 -2.0054
22514SOL    HW273505   8.187   7.097   4.275  0.3916 -1.5925 -0.3337
22515SOL     OW73506   3.921   0.321   7.037  0.0314 -0.0345  0.0905
22515SOL    HW173507   3.886   0.260   6.972 -0.3325  0.5011 -0.2197
22515SOL    HW273508   3.967   0.265   7.099  0.5992 -0.5255 -0.7604
22516SOL     OW73509   1.044   8.845   0.820 -0.5091 -0.3446  0.1070
22516SOL    HW173510   0.953   8.862   0.844 -0.4004  0.2023  0.1331
22516SOL    HW273511   1.083   8.932   0.810  0.4509 -0.5586  1.7194
22517SOL     OW73512   5.304   0.369   0.876  0.1253  0.1786  0.2867
22517SOL    HW173513   5.315   0.321   0.794 -2.4777 -1.1050  0.5824
22517SOL    HW273514   5.311   0.302   0.944 -0.0442  0.8291  0.9583
22518SOL     OW73515   7.953   6.861   4.809 -0.7003  0.2453 -0.0499
22518SOL    HW173516   8.005   6.884   4.732  0.1732 -0.9877  0.1470
22518SOL    HW273517   7.907   6.942   4.832  0.1293  1.0093 -1.0115
22519SOL     OW73518   4.820   2.631   9.173  0.4720 -0.4533  0.7860
22519SOL    HW173519   4.811   2.683   9.253 -0.7828  1.5649 -0.5825
22519SOL    HW273520   4.732   2.598   9.156  0.4141  0.2837 -0.4731
22520SOL     OW73521   6.835   8.714   8.145  0.0782  0.0407 -0.2845
22520SOL    HW173522   6.852   8.664   8.225 -2.0195  0.6812  0.6329
22520SOL    HW273523   6.842   8.650   8.074 -1.4013 -1.3569  0.7488
22521SOL     OW73524   1.182   9.272   0.231  0.0739  0.0979  0.5590
22521SOL    HW173525   1.237   9.221   0.171  0.0424 -0.0432  0.6499
22521SOL    HW273526   1.112   9.212   0.255 -0.1819  0.3139  0.3562
22522SOL     OW73527   5.598   5.493   8.991  0.6023 -0.1678  0.0962
22522SOL    HW173528   5.549   5.543   8.926  0.1582 -1.4722 -0.6048
22522SOL    HW273529   5.646   5.559   9.041  0.2802  0.9256 -0.9929
22523SOL     OW73530   6.839   7.738   6.794  0.2701 -0.4192  0.0452
22523SOL    HW173531   6.917   7.789   6.775  0.0636 -0.5638 -1.2681
22523SOL    HW273532   6.783   7.798   6.844  0.7917  0.0262  0.1027
22524SOL     OW73533   6.670   7.930   7.833  0.1158  0.0848  0.3366
22524SOL    HW173534   6.738   7.996   7.846  0.6750 -0.5949  0.9611
22524SOL    HW273535   6.715   7.846   7.845 -1.0208 -0.3658  1.7496
22525SOL     OW73536   0.398   5.883   5.204  0.3045 -0.3327 -0.1503
22525SOL    HW173537   0.440   5.958   5.245  1.5017 -2.0697  2.0493
22525SOL    HW273538   0.317   5.870   5.254  0.6693 -1.1633  0.2377
22526SOL     OW73539   8.895   4.213   2.742 -0.1105  0.0718 -0.3593
22526SOL    HW173540   8.910   4.183   2.832 -2.0377  0.6512  0.1985
22526SOL    HW273541   8.807   4.249   2.743  0.6356  2.1361 -1.9530
22527SOL     OW73542   2.069   1.988   6.055 -0.1626  0.4217 -0.1758
22527SOL    HW173543   1.978   2.015   6.065 -0.6544 -0.5454 -1.7391
22527SOL    HW273544   2.108   2.055   5.998 -0.3868 -0.1078 -0.9674
22528SOL     OW73545   1.358   5.393   2.128  0.7678  0.2521 -0.1014
22528SOL    HW173546   1.431   5.437   2.086  0.4928  1.1959  0.3923
22528SOL    HW273547   1.297   5.463   2.152  0.3655 -0.3741  0.7848
22529SOL     OW73548   7.286   1.783   1.627 -0.1687 -0.2582  0.0036
22529SOL    HW173549   7.356   1.829   1.673 -0.4448  0.7018 -0.4915
22529SOL    HW273550   7.246   1.850   1.572 -1.2588 -0.8620  0.0210
22530SOL     OW73551   7.219   0.055   0.466 -0.5266 -0.1066  0.5090
22530SOL    HW173552   7.271   0.136   0.467  0.2176 -0.5732  2.1829
22530SOL    HW273553   7.129   0.084   0.451 -0.3266  1.0777  1.4785
22531SOL     OW73554   1.606   2.829   3.525 -0.0701 -0.3816 -0.4008
22531SOL    HW173555   1.619   2.779   3.606 -2.7997 -2.0033 -0.8106
22531SOL    HW273556   1.627   2.767   3.456 -1.1882 -0.2009 -0.9200
22532SOL     OW73557   1.439   6.865   4.884 -0.1467  0.2118 -0.3273
22532SOL    HW173558   1.451   6.864   4.979  1.3366  0.9712 -0.4819
22532SOL    HW273559   1.436   6.773   4.859  1.3730 -0.0124  0.2442
22533SOL     OW73560   0.958   8.086   3.635  0.3189  0.0925 -0.6304
22533SOL    HW173561   0.989   8.093   3.726  0.6231  0.7028 -0.7761
22533SOL    HW273562   0.869   8.051   3.643  0.8918 -1.3137 -0.1886
22534SOL     OW73563   4.773   7.030   4.434  0.0470  0.7280  0.3480
22534SOL    HW173564   4.701   7.042   4.497 -1.1407  0.7666 -0.9559
22534SOL    HW273565   4.730   7.031   4.349  1.0948 -2.8636 -0.3730
22535SOL     OW73566   8.685   2.002   0.815  0.3480  0.1102  0.1714
22535SOL    HW173567   8.646   2.058   0.882 -0.8103  0.9187 -1.1154
22535SOL    HW273568   8.668   2.049   0.733 -2.3356 -2.9254 -1.2342
22536SOL     OW73569   6.198   0.488   2.096 -0.0532 -0.7327 -0.0055
22536SOL    HW173570   6.256   0.460   2.025 -0.0695 -3.5474  0.9794
22536SOL    HW273571   6.252   0.547   2.149 -0.0879  1.5793 -2.3145
22537SOL     OW73572   5.839   2.808   5.580 -0.2539 -0.0878 -0.1497
22537SOL    HW173573   5.771   2.781   5.642 -1.3296  2.5519 -0.0502
22537SOL    HW273574   5.819   2.759   5.500 -1.6370 -0.1665  0.2105
22538SOL     OW73575   0.578   6.630   0.630 -1.0056 -0.5147 -0.3525
22538SOL    HW173576   0.540   6.543   0.618 -0.5844 -0.7631  0.0902
22538SOL    HW273577   0.649   6.634   0.566 -0.2258 -0.9779  0.4536
22539SOL     OW73578   0.628   7.389   3.359 -0.0291 -0.6304  0.2547
22539SOL    HW173579   0.570   7.315   3.344 -0.6758 -0.3248  1.1553
22539SOL    HW273580   0.570   7.463   3.374  0.5155  0.8762 -3.8934
22540SOL     OW73581   5.091   6.020   1.856 -0.2972 -0.0119 -0.1723
22540SOL    HW173582   5.000   5.993   1.856 -0.8543  1.3745 -3.3763
22540SOL    HW273583   5.135   5.959   1.797  0.2569  0.8377 -0.6765
22541SOL     OW73584   1.247   3.705   5.728 -0.3293  0.5164 -0.1751
22541SOL    HW173585   1.336   3.683   5.701 -0.1855 -0.2465  0.8393
22541SOL    HW273586   1.258   3.769   5.798 -0.6240  1.0720 -0.6249
22542SOL     OW73587   4.290   4.961   8.479 -0.5790 -0.3235 -0.3174
22542SOL    HW173588   4.208   4.977   8.433  0.1039  2.2836 -0.8105
22542SOL    HW273589   4.266   4.905   8.553 -2.3983 -1.3066 -1.5777
22543SOL     OW73590   5.876   9.238   0.678 -0.0760 -0.3951  0.5322
22543SOL    HW173591   5.889   9.178   0.605 -1.5764 -0.8581  0.6126
22543SOL    HW273592   5.895   9.324   0.643  0.0419 -0.7035 -0.1720
22544SOL     OW73593   8.538   4.080   1.239  0.2187 -0.1025  0.2680
22544SOL    HW173594   8.532   4.074   1.334  0.7568  0.4153  0.3356
22544SOL    HW273595   8.453   4.047   1.208 -1.3407  2.8594  1.0345
22545SOL     OW73596   7.317   4.418   5.058 -0.5459 -0.1169 -0.3658
22545SOL    HW173597   7.405   4.432   5.025 -0.4240  1.4473  0.5329
22545SOL    HW273598   7.324   4.434   5.152 -1.7210 -0.3130 -0.2301
22546SOL     OW73599   4.368   4.098   5.456 -0.5020 -0.1124  0.2789
22546SOL    HW173600   4.450   4.145   5.474 -0.0245 -1.0852  0.6698
22546SOL    HW273601   4.333   4.141   5.378 -0.1903  1.0378  0.7426
22547SOL     OW73602   5.881   7.133   0.854 -0.7218 -0.2747  0.5524
22547SOL    HW173603   5.817   7.064   0.835 -0.8837 -0.5496  1.9860
22547SOL    HW273604   5.939   7.133   0.778 -1.9275 -0.5792 -0.3982
22548SOL     OW73605   9.129   1.920   9.317 -0.2957 -0.0723  0.5288
22548SOL    HW173606   9.069   1.930   9.390 -0.0077  0.2361  0.7251
22548SOL    HW273607   9.157   1.829   9.321  1.0700  0.3721  1.8633
22549SOL     OW73608   7.558   7.083   5.327 -0.8898  0.5319 -0.2230
22549SOL    HW173609   7.611   7.127   5.393  0.8511  0.4145 -1.4751
22549SOL    HW273610   7.540   6.997   5.364 -0.7326  0.7878  0.4643
22550SOL     OW73611   1.796   9.111   2.008 -0.7073 -0.3928 -0.1208
22550SOL    HW173612   1.815   9.041   2.070 -1.1634 -0.0984  0.3597
22550SOL    HW273613   1.861   9.100   1.938  0.2581 -0.2979  0.7427
22551SOL     OW73614   6.135   7.996   6.472 -0.2730 -0.0157  0.1288
22551SOL    HW173615   6.044   7.975   6.489 -0.3278 -0.1036 -0.2549
22551SOL    HW273616   6.153   8.073   6.526 -0.3836 -0.3905  0.7003
22552SOL     OW73617   3.444   3.277   8.077 -0.2978  0.0369 -0.4016
22552SOL    HW173618   3.490   3.316   8.003 -0.1885 -0.4930 -0.6134
22552SOL    HW273619   3.353   3.275   8.050 -0.3842  0.6399 -0.1744
22553SOL     OW73620   0.242   9.058   7.374 -0.0066  0.3806  0.1901
22553SOL    HW173621   0.166   9.068   7.316  0.1011  1.4390  0.2153
22553SOL    HW273622   0.205   9.049   7.461 -0.1392 -0.4156  0.0613
22554SOL     OW73623   4.760   7.286   6.975  0.7804 -0.5728  1.0220
22554SOL    HW173624   4.849   7.277   6.942  0.0298 -0.7418 -1.1119
22554SOL    HW273625   4.718   7.202   6.958  0.0298 -0.2935  1.4070
22555SOL     OW73626   7.719   2.071   5.337  0.6242 -0.2776 -0.5833
22555SOL    HW173627   7.670   2.037   5.262 -1.0389  0.9782 -0.1330
22555SOL    HW273628   7.690   2.162   5.346  2.3508  0.2337  0.3291
22556SOL     OW73629   2.037   6.466   6.363  0.2070  0.2357  0.4160
22556SOL    HW173630   2.117   6.438   6.318 -0.5521 -0.7474 -0.3913
22556SOL    HW273631   1.987   6.385   6.375 -0.4158  0.7514  1.4280
22557SOL     OW73632   8.779   1.972   8.853 -0.2410 -0.0889  0.0420
22557SOL    HW173633   8.732   2.035   8.907  1.1692  0.7624  0.3260
22557SOL    HW273634   8.818   1.910   8.915  0.7513  0.4511 -0.0150
22558SOL     OW73635   4.721   7.844   5.469 -0.1177  0.1049 -0.0520
22558SOL    HW173636   4.757   7.760   5.498  1.2721  0.9997  0.8991
22558SOL    HW273637   4.797   7.898   5.449 -0.9283  1.6656  0.8686
22559SOL     OW73638   1.639   7.872   8.692 -0.3414 -0.5004  0.4322
22559SOL    HW173639   1.713   7.812   8.694 -2.6120 -3.4857  0.8204
22559SOL    HW273640   1.672   7.949   8.644  2.8886 -1.7257  0.4654
22560SOL     OW73641   6.662   1.213   1.268 -0.6536 -0.1084 -0.0894
22560SOL    HW173642   6.668   1.143   1.203 -0.5269 -1.1200  0.9826
22560SOL    HW273643   6.653   1.293   1.216 -0.7833 -0.9077 -1.3429
22561SOL     OW73644   5.473   8.201   3.069  0.1978  0.4847  0.0272
22561SOL    HW173645   5.515   8.285   3.087  0.0430  0.9847 -1.7598
22561SOL    HW273646   5.485   8.188   2.975  1.1434 -2.0185  0.4111
22562SOL     OW73647   7.619   7.521   0.790 -0.2610 -0.1016  0.4610
22562SOL    HW173648   7.680   7.536   0.718  0.0473 -0.9995  0.5150
22562SOL    HW273649   7.546   7.474   0.749 -1.0630  1.2057  0.3409
22563SOL     OW73650   6.872   7.683   7.420 -0.0302  0.4534 -0.6005
22563SOL    HW173651   6.834   7.693   7.333 -0.4382 -0.2591 -0.5115
22563SOL    HW273652   6.909   7.595   7.420  1.9445  1.2340 -0.8023
22564SOL     OW73653   1.083   0.855   0.393 -0.5605 -0.1205 -0.0240
22564SOL    HW173654   1.024   0.794   0.437 -0.0043  0.5287  1.7021
22564SOL    HW273655   1.091   0.929   0.453  1.4515  0.1359 -0.5210
22565SOL     OW73656   7.758   0.961   8.888  0.2839 -0.8808  0.4926
22565SOL    HW173657   7.840   0.932   8.849  0.8346  1.5580 -0.3132
22565SOL    HW273658   7.783   0.995   8.974  0.0222 -0.6769  0.4893
22566SOL     OW73659   0.079   2.181   5.464  0.0125  0.6824 -0.5076
22566SOL    HW173660   0.066   2.088   5.480  2.5128  0.4720  0.8655
22566SOL    HW273661   0.083   2.190   5.369  0.5242 -0.7347 -0.6323
22567SOL     OW73662   1.769   6.027   5.352  0.2462 -0.7992  0.1392
22567SOL    HW173663   1.864   6.029   5.354  0.2571  1.1203  2.6295
22567SOL    HW273664   1.743   6.119   5.344 -1.3980 -1.1920  0.5886
22568SOL     OW73665   0.692   5.432   7.806  0.3472  1.1392  0.0805
22568SOL    HW173666   0.720   5.341   7.805 -0.5176  0.8654 -0.3098
22568SOL    HW273667   0.647   5.443   7.889 -2.8666  0.1141 -1.3418
22569SOL     OW73668   1.114   6.996   6.674 -0.5877  0.0571 -0.1197
22569SOL    HW173669   1.128   6.964   6.763 -1.8327 -0.9834 -0.2686
22569SOL    HW273670   1.157   6.931   6.618  0.1398  0.6762 -0.2858
22570SOL     OW73671   6.828   6.069   6.892  0.5122 -0.3088  0.2209
22570SOL    HW173672   6.743   6.088   6.933  0.9432 -1.0747  1.5334
22570SOL    HW273673   6.855   5.986   6.932  1.2453 -0.7860 -1.2114
22571SOL     OW73674   5.551   7.610   8.989 -0.1528 -0.1574  0.1739
22571SOL    HW173675   5.613   7.537   8.984  1.1555  0.9730 -1.2550
22571SOL    HW273676   5.492   7.597   8.915 -2.4295 -1.8216  2.1367
22572SOL     OW73677   5.067   5.363   6.175 -0.0029  0.3243 -0.1134
22572SOL    HW173678   5.075   5.331   6.265  1.4472  0.3076 -0.2312
22572SOL    HW273679   5.020   5.293   6.129  1.3188 -0.7491  0.1088
22573SOL     OW73680   6.100   6.370   7.092 -0.7773 -0.0333  0.0210
22573SOL    HW173681   6.087   6.277   7.074  0.0109 -0.7709  2.7967
22573SOL    HW273682   6.040   6.389   7.164 -1.4431  1.8254 -0.9756
22574SOL     OW73683   3.235   0.366   7.393  0.2991 -0.2250  0.6592
22574SOL    HW173684   3.293   0.298   7.358 -0.0842 -1.0998  1.6571
22574SOL    HW273685   3.163   0.317   7.434 -1.9518  0.8168 -1.7768
22575SOL     OW73686   8.635   0.263   7.952 -0.2753  0.1178 -0.0363
22575SOL    HW173687   8.678   0.328   7.897  1.7787 -2.1163 -1.2137
22575SOL    HW273688   8.689   0.258   8.030 -0.2286 -0.4223 -0.1024
22576SOL     OW73689   0.571   2.787   4.661  0.3377  0.1989 -0.2537
22576SOL    HW173690   0.613   2.846   4.599 -0.1668  1.3654  0.4928
22576SOL    HW273691   0.542   2.713   4.607 -0.6623  1.4742 -1.5648
22577SOL     OW73692   7.745   0.472   0.119  0.2560 -0.5262 -0.0567
22577SOL    HW173693   7.766   0.413   0.192 -0.2841  0.1697  0.6780
22577SOL    HW273694   7.808   0.449   0.051  1.9951  0.0146  1.2766
22578SOL     OW73695   9.016   3.855   6.334  0.1450 -0.3606 -0.3017
22578SOL    HW173696   8.980   3.935   6.371 -0.2395 -0.6968  0.0629
22578SOL    HW273697   9.110   3.861   6.352 -0.0569 -0.6038  0.9207
22579SOL     OW73698   0.866   3.020   5.761 -0.0867  0.4582  0.0554
22579SOL    HW173699   0.916   3.073   5.824  0.8490 -1.2719  0.8425
22579SOL    HW273700   0.809   2.965   5.816 -1.0051  0.5926 -0.7366
22580SOL     OW73701   5.898   1.447   0.817  0.5306  0.4114  0.1709
22580SOL    HW173702   5.868   1.536   0.833  0.8391  0.5988 -0.2822
22580SOL    HW273703   5.941   1.421   0.899 -2.1538 -0.4320  1.4384
22581SOL     OW73704   5.964   4.741   6.771  0.0278 -0.8688  0.1100
22581SOL    HW173705   5.961   4.816   6.831 -0.9300 -1.4293  0.7884
22581SOL    HW273706   5.977   4.780   6.684  2.1579 -0.0844  0.7252
22582SOL     OW73707   8.006   5.712   1.081 -0.0975  0.2580  0.3453
22582SOL    HW173708   8.052   5.792   1.104 -2.1227  1.7805 -0.6061
22582SOL    HW273709   8.019   5.654   1.156  1.8356  1.2597  0.8255
22583SOL     OW73710   0.991   4.148   5.871 -0.4687  0.0532 -0.1057
22583SOL    HW173711   1.043   4.073   5.899  0.0808  0.5590  0.2577
22583SOL    HW273712   0.987   4.140   5.776  1.2768  0.6284 -0.2601
22584SOL     OW73713   3.883   1.562   1.903 -0.1310  0.0967  0.0129
22584SOL    HW173714   3.955   1.533   1.848 -0.3905  1.5779 -1.1444
22584SOL    HW273715   3.883   1.657   1.896 -0.5063  0.3115  2.1736
22585SOL     OW73716   7.856   3.552   4.742 -0.4799  0.0491 -0.0661
22585SOL    HW173717   7.817   3.477   4.786  0.3469 -0.5187 -0.2941
22585SOL    HW273718   7.868   3.524   4.651 -0.8134  0.7024 -0.3227
22586SOL     OW73719   0.330   4.006   1.667 -0.5853 -0.0190 -0.7193
22586SOL    HW173720   0.394   3.960   1.613  0.2032  0.7029 -0.4150
22586SOL    HW273721   0.266   3.939   1.690 -0.8299 -0.3938 -2.3666
22587SOL     OW73722   7.808   5.936   6.992 -0.1360  0.3004  0.0864
22587SOL    HW173723   7.768   5.849   6.986 -0.0607  0.3395 -1.1373
22587SOL    HW273724   7.741   5.991   7.033 -1.8331  0.6320 -2.9090
22588SOL     OW73725   5.365   0.358   1.790  0.4728 -0.0026 -0.1003
22588SOL    HW173726   5.382   0.300   1.716 -2.0553 -0.8522 -0.1189
22588SOL    HW273727   5.409   0.316   1.864 -1.2266 -2.0186 -0.1257
22589SOL     OW73728   1.519   9.305   6.702 -0.3644  0.1996  0.0024
22589SOL    HW173729   1.458   9.245   6.658 -0.0914 -0.9541  1.1562
22589SOL    HW273730   1.603   9.291   6.657 -0.4135  0.0870 -0.0532
22590SOL     OW73731   6.702   2.852   8.125 -1.2269 -0.2075  0.1604
22590SOL    HW173732   6.701   2.830   8.219  1.1249  3.1326  1.1791
22590SOL    HW273733   6.790   2.889   8.111 -2.6198  2.4755 -2.5108
22591SOL     OW73734   7.497   7.632   9.122 -0.5333  0.1993  0.0558
22591SOL    HW173735   7.500   7.717   9.080  0.4116 -0.1088 -0.5299
22591SOL    HW273736   7.588   7.602   9.124 -0.7005 -0.2868  1.3129
22592SOL     OW73737   1.189   1.743   2.482  0.2462 -0.0923 -0.1202
22592SOL    HW173738   1.167   1.652   2.499  0.7859 -0.3562 -0.7721
22592SOL    HW273739   1.264   1.760   2.539 -1.0797  0.5659  1.5021
22593SOL     OW73740   4.499   2.232   8.487  0.2291  0.3091  0.2586
22593SOL    HW173741   4.540   2.279   8.414  1.3341  0.7847  1.1474
22593SOL    HW273742   4.573   2.189   8.532 -0.6147 -1.3059  0.1680
22594SOL     OW73743   4.040   6.493   1.926 -0.1313  0.0864 -0.6938
22594SOL    HW173744   3.983   6.547   1.981  0.4511 -0.6762  0.7116
22594SOL    HW273745   4.105   6.555   1.891 -0.4800  0.5838 -0.4737
22595SOL     OW73746   7.902   4.298   8.071 -0.2020  0.5416  0.8033
22595SOL    HW173747   7.879   4.297   7.978  3.7053 -2.5634 -0.3963
22595SOL    HW273748   7.893   4.207   8.099  0.2419  1.1237  3.0173
22596SOL     OW73749   3.521   6.297   4.981 -0.0528  0.2993  0.0254
22596SOL    HW173750   3.487   6.335   5.061 -0.0707  0.7268 -0.1813
22596SOL    HW273751   3.445   6.260   4.937  0.3163 -2.4799  1.5280
22597SOL     OW73752   2.499   7.078   1.715 -0.2089 -0.5903 -0.4582
22597SOL    HW173753   2.545   7.111   1.637  1.4331  1.9927  1.4225
22597SOL    HW273754   2.565   7.025   1.760 -0.6660 -0.8433 -0.0815
22598SOL     OW73755   2.455   5.072   7.855  0.1629  0.5382 -0.3486
22598SOL    HW173756   2.401   5.085   7.777  0.3345 -0.8525 -0.7103
22598SOL    HW273757   2.394   5.084   7.929 -0.6055 -0.7583 -0.7440
22599SOL     OW73758   0.230   7.997   7.183  0.0391  0.2912 -0.0406
22599SOL    HW173759   0.242   8.055   7.109  1.1014  0.4359  0.2317
22599SOL    HW273760   0.284   7.920   7.163 -0.9035 -0.3720 -0.1379
22600SOL     OW73761   8.186   1.196   8.945  0.2238  0.3890  0.5288
22600SOL    HW173762   8.121   1.266   8.951 -0.1573  0.0436  0.5836
22600SOL    HW273763   8.231   1.198   9.030 -0.9706 -0.5336  1.2240
22601SOL     OW73764   8.011   0.787   7.543  0.2226 -0.0564 -0.4209
22601SOL    HW173765   7.945   0.804   7.610  0.0481 -1.5167 -0.1999
22601SOL    HW273766   7.988   0.847   7.471 -0.7087  0.1886  0.0651
22602SOL     OW73767   1.837   6.826   1.951  0.0784  0.4478  0.2278
22602SOL    HW173768   1.867   6.749   1.903 -1.8547  0.7092 -1.5462
22602SOL    HW273769   1.772   6.792   2.012 -1.4317  0.6709 -1.1631
22603SOL     OW73770   2.759   2.386   8.626  0.6669 -0.3573 -0.2605
22603SOL    HW173771   2.699   2.435   8.569  0.3371 -0.9201 -0.4060
22603SOL    HW273772   2.827   2.450   8.650  1.6496 -0.4832 -2.4719
22604SOL     OW73773   7.226   5.494   1.284 -0.4781 -0.0363  0.0450
22604SOL    HW173774   7.134   5.519   1.291 -0.2188  0.8852  0.2706
22604SOL    HW273775   7.250   5.514   1.194 -0.4349 -0.0506  0.0533
22605SOL     OW73776   8.783   2.548   6.772  0.3429 -0.9822  0.2765
22605SOL    HW173777   8.821   2.498   6.843  1.0502 -1.3680 -0.3559
22605SOL    HW273778   8.740   2.483   6.717  0.9753 -0.8681 -0.3689
22606SOL     OW73779   8.401   7.054   7.279  0.1335 -0.1869 -0.5197
22606SOL    HW173780   8.362   7.087   7.359 -1.4586 -0.1708 -1.2624
22606SOL    HW273781   8.457   7.125   7.248  0.2205  0.0685  0.2022
22607SOL     OW73782   7.421   4.460   4.436 -0.1368 -0.0085 -0.3152
22607SOL    HW173783   7.412   4.552   4.412 -1.6353 -0.7157 -2.7589
22607SOL    HW273784   7.332   4.429   4.447  0.3738 -0.8969  1.9791
22608SOL     OW73785   4.144   8.879   7.451  0.0773  0.3222  0.3885
22608SOL    HW173786   4.230   8.841   7.468 -0.0465  0.5744  1.6809
22608SOL    HW273787   4.101   8.881   7.536 -2.4868 -2.7691 -0.5898
22609SOL     OW73788   6.044   1.731   0.406 -0.0124 -0.2959  0.3669
22609SOL    HW173789   6.025   1.822   0.381  1.1014 -0.6316 -1.9192
22609SOL    HW273790   6.065   1.737   0.500  1.5283  2.0708 -0.0275
22610SOL     OW73791   0.332   5.551   2.390 -0.1159 -0.4130  0.3939
22610SOL    HW173792   0.402   5.550   2.456 -0.8731 -2.1135  1.2200
22610SOL    HW273793   0.344   5.469   2.342 -0.4420  0.1540 -0.6864
22611SOL     OW73794   1.023   2.113   3.429  0.0855 -0.6196 -0.6810
22611SOL    HW173795   0.965   2.150   3.362  0.3119 -0.2945 -0.6966
22611SOL    HW273796   1.106   2.100   3.384  0.0772 -0.9225 -0.6105
22612SOL     OW73797   8.025   8.373   7.981  0.5154  0.3220 -0.5231
22612SOL    HW173798   7.968   8.370   7.903 -0.3199  0.2958  0.0714
22612SOL    HW273799   8.005   8.292   8.028 -0.7442  1.4105  0.9022
22613SOL     OW73800   0.208   0.452   5.193  0.8621 -0.0395 -0.0479
22613SOL    HW173801   0.133   0.452   5.252  0.3320 -1.4309 -0.6810
22613SOL    HW273802   0.175   0.489   5.111  0.7041 -1.1310 -0.4927
22614SOL     OW73803   5.617   7.059   4.150  0.4351 -0.1139 -0.0512
22614SOL    HW173804   5.565   7.014   4.217  0.7301 -1.0118 -0.4141
22614SOL    HW273805   5.591   7.151   4.157  0.1008 -0.2714  0.9668
22615SOL     OW73806   8.971   4.962   5.034 -0.0831 -0.4984  0.1248
22615SOL    HW173807   8.915   4.935   5.106 -0.6780 -1.2219 -0.5816
22615SOL    HW273808   8.970   5.058   5.037 -1.8370 -0.4619 -0.1969
22616SOL     OW73809   8.978   0.123   0.902 -0.3819  0.3573 -0.4136
22616SOL    HW173810   8.883   0.129   0.895 -0.3898  3.7161  0.5325
22616SOL    HW273811   9.000   0.186   0.971  2.4880 -0.9892  0.0345
22617SOL     OW73812   7.149   9.150   5.871  0.1049  0.0762  0.1609
22617SOL    HW173813   7.195   9.074   5.834  1.9760  0.4143  1.6839
22617SOL    HW273814   7.071   9.112   5.911  0.2523 -0.8437 -0.3712
22618SOL     OW73815   2.472   6.721   3.333 -1.0227  0.0750  0.2477
22618SOL    HW173816   2.561   6.699   3.303 -0.8121 -0.2780  1.0841
22618SOL    HW273817   2.480   6.809   3.369 -1.3308  0.5961 -0.9426
22619SOL     OW73818   7.415   4.019   0.763  0.1987 -0.6229 -0.8036
22619SOL    HW173819   7.457   4.104   0.755  0.9724 -0.9116  0.0182
22619SOL    HW273820   7.322   4.037   0.754  0.0883  0.7507  2.1098
22620SOL     OW73821   7.166   0.499   7.766  0.0634 -0.1676  0.2126
22620SOL    HW173822   7.181   0.583   7.809  0.7692  0.2841 -0.8719
22620SOL    HW273823   7.199   0.434   7.828 -0.9369  0.2908  1.2793
22621SOL     OW73824   2.918   8.137   8.094  0.7727 -0.0743 -0.2112
22621SOL    HW173825   2.979   8.120   8.023 -0.0507  1.5047 -1.3696
22621SOL    HW273826   2.972   8.168   8.167  1.5317 -0.7190 -0.5014
22622SOL     OW73827   4.329   7.199   6.837 -0.0547  0.6612  0.2510
22622SOL    HW173828   4.317   7.104   6.840  0.2343  0.6362  0.7514
22622SOL    HW273829   4.289   7.226   6.754 -0.6930  0.1823  0.3940
22623SOL     OW73830   7.726   1.341   3.495  0.7856 -0.0650  0.8172
22623SOL    HW173831   7.638   1.316   3.524  0.6144  0.3407  0.6522
22623SOL    HW273832   7.762   1.393   3.566  0.6372  0.3268  0.6107
22624SOL     OW73833   7.170   0.533   5.812  0.1961 -0.6301  0.6796
22624SOL    HW173834   7.136   0.622   5.816 -0.4629 -0.8155 -0.4732
22624SOL    HW273835   7.264   0.543   5.827  0.1884  0.3113  0.1451
22625SOL     OW73836   7.768   2.952   4.016 -0.3251 -0.4028 -0.6437
22625SOL    HW173837   7.765   3.004   3.936 -1.0098  0.4629 -0.0699
22625SOL    HW273838   7.733   3.010   4.084 -0.0629 -1.2333  0.2235
22626SOL     OW73839   5.645   8.462   3.045  0.2430  0.3501  0.3324
22626SOL    HW173840   5.666   8.554   3.054  0.4699  0.2614  0.6823
22626SOL    HW273841   5.654   8.445   2.951  1.6928  0.3173  0.4606
22627SOL     OW73842   6.390   1.099   1.059  0.3939  0.0358  0.7446
22627SOL    HW173843   6.377   1.005   1.073 -1.5855  0.4006  1.6187
22627SOL    HW273844   6.443   1.104   0.980 -1.3466 -1.8059 -0.6425
22628SOL     OW73845   5.488   5.881   3.415 -0.2623  0.6112 -0.0709
22628SOL    HW173846   5.519   5.802   3.460 -1.1168  0.7072  0.7016
22628SOL    HW273847   5.515   5.867   3.324 -1.4371 -1.1446 -0.1988
22629SOL     OW73848   0.051   0.254   1.806  0.1188 -0.1321  0.3004
22629SOL    HW173849   0.062   0.181   1.745  0.4163 -0.2246  0.4625
22629SOL    HW273850   0.139   0.267   1.843 -0.3208 -0.9062  1.6631
22630SOL     OW73851   3.312   6.928   2.300  0.3791  0.0415  0.1698
22630SOL    HW173852   3.368   7.002   2.322 -0.1628  1.0337 -1.5895
22630SOL    HW273853   3.372   6.860   2.268  0.7939  0.0126  0.9697
22631SOL     OW73854   3.075   7.592   3.487  0.2503 -0.1323  0.2406
22631SOL    HW173855   3.166   7.608   3.510  0.1347  1.7498 -0.4838
22631SOL    HW273856   3.079   7.522   3.421  1.1550 -0.1023  0.2637
22632SOL     OW73857   1.550   7.202   6.836  0.1906  0.0025  0.2937
22632SOL    HW173858   1.641   7.177   6.849 -0.0158 -1.5132 -0.8931
22632SOL    HW273859   1.502   7.154   6.903  0.2402  0.8904  0.9935
22633SOL     OW73860   5.952   4.523   3.546  0.1476 -0.1170 -0.5622
22633SOL    HW173861   5.862   4.517   3.514 -1.3517 -1.0281  3.2410
22633SOL    HW273862   5.950   4.596   3.609  2.3539  0.4296 -1.0431
22634SOL     OW73863   9.140   9.109   4.605  0.3149 -0.3461 -0.5618
22634SOL    HW173864   9.179   9.037   4.655  0.5627  0.7162  0.8091
22634SOL    HW273865   9.211   9.140   4.549  0.6840 -0.1594 -0.0068
22635SOL     OW73866   8.198   5.380   6.089 -0.0833  0.1635 -0.4050
22635SOL    HW173867   8.226   5.442   6.022 -1.2332 -0.7001 -1.7482
22635SOL    HW273868   8.164   5.435   6.160 -1.7636  1.1079 -1.8676
22636SOL     OW73869   9.349   7.018   5.463  0.4172  0.1386  0.4348
22636SOL    HW173870   9.397   7.026   5.380 -1.8052 -1.0007 -1.0493
22636SOL    HW273871   9.401   7.070   5.525  2.9612 -0.1631 -1.2781
22637SOL     OW73872   2.084   8.006   8.791  0.1773 -0.0843 -0.5417
22637SOL    HW173873   2.167   8.002   8.743  0.5082  0.2258 -0.0007
22637SOL    HW273874   2.100   8.068   8.862 -0.1030 -1.0194  0.3653
22638SOL     OW73875   0.606   1.421   0.472  0.4181  0.6167  0.5393
22638SOL    HW173876   0.656   1.339   0.480  0.4222  0.6123  0.4672
22638SOL    HW273877   0.526   1.405   0.523 -0.5848 -0.2081 -1.2160
22639SOL     OW73878   1.122   2.755   2.684 -0.4112  0.1389  0.2690
22639SOL    HW173879   1.146   2.782   2.772 -1.1805 -1.0861  0.8687
22639SOL    HW273880   1.038   2.711   2.693 -1.0021  0.8775 -1.2294
22640SOL     OW73881   6.322   3.119   3.552 -0.1589 -0.0726 -0.0502
22640SOL    HW173882   6.410   3.155   3.549 -0.1910  0.2508  1.6501
22640SOL    HW273883   6.266   3.189   3.518  0.2689 -0.5489 -1.8411
22641SOL     OW73884   2.230   4.361   3.812 -0.9489 -0.1879  0.6565
22641SOL    HW173885   2.146   4.331   3.845 -0.5139 -1.2945  0.8123
22641SOL    HW273886   2.279   4.386   3.890 -0.2833 -1.8558  0.8278
22642SOL     OW73887   5.372   4.501   4.516 -0.6389  0.2236 -0.3656
22642SOL    HW173888   5.347   4.471   4.603  0.5994 -1.0090 -0.3971
22642SOL    HW273889   5.401   4.591   4.529  1.2350 -0.4923  0.8935
22643SOL     OW73890   7.524   1.200   0.182 -0.0872  0.4058  0.3575
22643SOL    HW173891   7.597   1.155   0.140 -1.1047 -1.8516  0.8512
22643SOL    HW273892   7.525   1.287   0.144  1.9866  0.0040 -0.6935
22644SOL     OW73893   5.934   4.389   5.879  0.2681 -0.0552  0.6586
22644SOL    HW173894   6.010   4.427   5.834 -0.7912  0.0754 -1.1568
22644SOL    HW273895   5.879   4.464   5.900 -0.0563 -0.2692  0.5799
22645SOL     OW73896   6.817   9.074   1.773 -0.6849 -0.2197  0.2308
22645SOL    HW173897   6.818   8.985   1.808  0.2204 -0.1541  0.3879
22645SOL    HW273898   6.908   9.103   1.778 -0.6119  0.0077 -1.5960
22646SOL     OW73899   4.958   1.151   1.258 -0.0366  0.0931 -0.1837
22646SOL    HW173900   4.892   1.179   1.195  0.1902  0.3030 -0.3281
22646SOL    HW273901   4.916   1.079   1.306 -0.7481  0.8924  0.4195
22647SOL     OW73902   1.222   6.015   9.062 -0.0958  0.0378  0.1584
22647SOL    HW173903   1.262   5.999   8.977 -1.4341  0.1545 -0.5200
22647SOL    HW273904   1.208   6.109   9.065 -2.4417 -0.2182 -0.6610
22648SOL     OW73905   3.057   4.552   5.106 -0.0003 -0.1501 -0.0948
22648SOL    HW173906   2.983   4.506   5.145  1.3804 -2.2984  0.1345
22648SOL    HW273907   3.041   4.546   5.011 -0.4781  0.0541 -0.0324
22649SOL     OW73908   7.992   3.658   3.632 -0.3163  0.2493  0.5129
22649SOL    HW173909   8.069   3.610   3.603 -0.6327 -0.2847  0.5363
22649SOL    HW273910   8.008   3.748   3.604  2.1388  1.0671  3.9411
22650SOL     OW73911   3.621   7.015   4.504 -0.1374 -0.2982 -0.6616
22650SOL    HW173912   3.545   6.969   4.466 -0.1602  0.6571 -1.8331
22650SOL    HW273913   3.652   6.956   4.573 -1.6934 -0.8974 -0.4260
22651SOL     OW73914   8.904   2.529   4.538  0.3987 -0.4080  0.5518
22651SOL    HW173915   8.852   2.604   4.510  1.4441  0.6045  1.2475
22651SOL    HW273916   8.927   2.548   4.629  2.7681 -0.3238  0.0021
22652SOL     OW73917   6.490   2.196   2.359 -0.0492 -0.1429  0.3535
22652SOL    HW173918   6.551   2.159   2.295 -0.1724  1.4532 -0.7420
22652SOL    HW273919   6.544   2.212   2.437  1.0134  1.3293 -0.6233
22653SOL     OW73920   6.639   3.524   7.012  0.9281 -0.6590 -0.6920
22653SOL    HW173921   6.727   3.558   6.995  0.8343 -0.9918 -1.8741
22653SOL    HW273922   6.595   3.595   7.059  1.6242 -0.2478 -0.6463
22654SOL     OW73923   7.854   1.214   5.687 -0.0294 -0.3984 -0.1119
22654SOL    HW173924   7.932   1.161   5.701 -0.9432 -1.3741  1.6183
22654SOL    HW273925   7.886   1.304   5.681  1.2396 -0.8082  0.3557
22655SOL     OW73926   1.596   0.149   8.483 -0.1291 -0.1207 -0.0334
22655SOL    HW173927   1.663   0.148   8.414 -0.1343  0.0997 -0.0404
22655SOL    HW273928   1.602   0.062   8.522  0.2871 -0.0400  0.0888
22656SOL     OW73929   5.062   4.312   1.399 -0.3677 -0.5117 -0.1317
22656SOL    HW173930   5.124   4.302   1.327 -0.5381 -0.3933 -0.2962
22656SOL    HW273931   5.094   4.253   1.467  0.9218  0.8137  0.4682
22657SOL     OW73932   3.319   8.208   9.091  0.3043  0.0020  0.3653
22657SOL    HW173933   3.242   8.247   9.132  0.3643 -0.5533  1.0152
22657SOL    HW273934   3.331   8.124   9.136  0.4463 -0.5702 -0.6957
22658SOL     OW73935   3.113   5.440   7.201  0.6411 -0.4408 -0.1264
22658SOL    HW173936   3.166   5.467   7.276  1.9864 -0.7795 -0.9060
22658SOL    HW273937   3.028   5.417   7.238  0.7660  0.9063  1.0677
22659SOL     OW73938   8.979   2.739   7.305 -0.4410  0.3780 -0.0364
22659SOL    HW173939   8.979   2.644   7.321 -1.9437  0.4081  0.2326
22659SOL    HW273940   8.949   2.777   7.387  0.8293  1.1636  0.0913
22660SOL     OW73941   0.236   7.949   0.876  0.1994 -0.4393 -0.0453
22660SOL    HW173942   0.316   7.897   0.882  0.8155  0.5144  0.2386
22660SOL    HW273943   0.190   7.912   0.801  1.6028 -0.0967 -1.1304
22661SOL     OW73944   2.469   5.528   3.883  0.1438  0.5327 -0.6164
22661SOL    HW173945   2.495   5.438   3.865  0.4785  0.6197 -0.5742
22661SOL    HW273946   2.393   5.520   3.941  1.7629  0.2749  1.6092
22662SOL     OW73947   8.201   1.934   3.446 -0.2259  0.0017  0.1676
22662SOL    HW173948   8.106   1.939   3.436 -0.1828  0.2468 -0.1467
22662SOL    HW273949   8.228   1.869   3.380 -0.2796 -0.8434  0.9556
22663SOL     OW73950   9.121   7.160   4.818  0.1512  0.1153 -0.3070
22663SOL    HW173951   9.059   7.233   4.813 -0.4818 -0.3862 -0.0010
22663SOL    HW273952   9.207   7.201   4.827 -0.2485  0.8174  0.3641
22664SOL     OW73953   6.032   1.798   7.431 -0.1365  0.1389 -0.3893
22664SOL    HW173954   5.952   1.772   7.476 -0.2920  0.3142 -0.5639
22664SOL    HW273955   6.014   1.886   7.398  0.6454  0.7777  0.8345
22665SOL     OW73956   6.837   4.622   3.826 -0.2725  0.1229  0.0544
22665SOL    HW173957   6.758   4.605   3.876  0.1305  0.3306  0.7814
22665SOL    HW273958   6.843   4.718   3.823 -0.3127  0.1130 -0.4263
22666SOL     OW73959   4.987   4.830   9.066  0.0289 -0.1470  0.1479
22666SOL    HW173960   4.982   4.926   9.062  0.0622 -0.1317  0.4472
22666SOL    HW273961   5.051   4.807   8.998  0.3754  0.0781  0.3884
22667SOL     OW73962   7.249   5.738   0.532 -0.5419 -0.3090  0.1112
22667SOL    HW173963   7.331   5.700   0.563 -0.9539 -0.0503  1.5904
22667SOL    HW273964   7.197   5.662   0.503  0.1064 -0.4964 -0.5722
22668SOL     OW73965   1.399   0.926   4.144  0.1853 -0.3677  0.0924
22668SOL    HW173966   1.456   0.951   4.071  2.8492 -1.5137  1.6502
22668SOL    HW273967   1.360   0.843   4.117 -1.7331  0.9244 -1.4216
22669SOL     OW73968   3.752   6.710   7.988 -0.4989 -0.0058  0.2690
22669SOL    HW173969   3.840   6.743   7.967  0.0358 -1.3599  0.2851
22669SOL    HW273970   3.716   6.777   8.047  0.0036  1.2178 -0.7545
22670SOL     OW73971   8.388   8.740   3.388 -0.0797  0.5828  0.3272
22670SOL    HW173972   8.429   8.809   3.336  1.2066  0.0749  0.6417
22670SOL    HW273973   8.313   8.782   3.430 -0.7944  1.1504 -1.4466
22671SOL     OW73974   1.338   7.279   0.115  0.0612  0.0433  0.2109
22671SOL    HW173975   1.300   7.239   0.193  0.1881  0.4955  0.5078
22671SOL    HW273976   1.429   7.249   0.115  0.0516  0.0146  0.2213
22672SOL     OW73977   7.365   0.538   6.244  0.2331  0.2524  0.1780
22672SOL    HW173978   7.368   0.476   6.172  0.3945  0.1164  0.3021
22672SOL    HW273979   7.295   0.599   6.220 -0.0574 -0.0896  0.1487
22673SOL     OW73980   2.365   0.931   9.289  0.2308 -0.4747  0.0504
22673SOL    HW173981   2.351   0.906   9.380  0.8562  1.1916  0.6560
22673SOL    HW273982   2.319   0.865   9.238 -0.4493 -1.2356  1.5852
22674SOL     OW73983   4.979   8.853   4.839  1.0110  0.1595  0.1245
22674SOL    HW173984   4.899   8.871   4.790  1.7218  1.5593 -0.5805
22674SOL    HW273985   4.971   8.761   4.864  0.0826 -0.2821 -1.6030
22675SOL     OW73986   4.147   8.273   7.141 -0.0697  0.1130 -0.2782
22675SOL    HW173987   4.222   8.332   7.148  0.6444 -0.6908 -0.9235
22675SOL    HW273988   4.093   8.311   7.072  0.3929  0.0198 -0.7020
22676SOL     OW73989   5.232   0.524   4.916  1.0476 -0.0985  0.0016
22676SOL    HW173990   5.314   0.568   4.893  1.0352 -0.1024 -0.0505
22676SOL    HW273991   5.211   0.556   5.004  1.1782 -0.2048  0.0713
22677SOL     OW73992   6.381   1.609   4.403  0.0444  0.2244  0.4187
22677SOL    HW173993   6.337   1.678   4.355  0.4032  0.4347  0.3869
22677SOL    HW273994   6.446   1.654   4.457  0.9238 -0.1487 -0.2999
22678SOL     OW73995   0.536   6.166   3.145  0.4086  0.4270 -0.1977
22678SOL    HW173996   0.628   6.165   3.173  0.3885  1.9601  0.0406
22678SOL    HW273997   0.495   6.094   3.192  1.7106 -1.0410 -1.1873
22679SOL     OW73998   2.268   7.889   6.836  0.2004 -0.1504 -0.0768
22679SOL    HW173999   2.309   7.812   6.876 -1.6030 -1.2663 -0.2195
22679SOL    HW274000   2.314   7.901   6.753  1.7877  0.1523  0.8185
22680SOL     OW74001   2.308   4.393   4.395  0.4629 -0.4664  0.3610
22680SOL    HW174002   2.232   4.337   4.407  0.0034  0.1125  0.2208
22680SOL    HW274003   2.381   4.343   4.430 -0.2975 -0.2203  2.4685
22681SOL     OW74004   3.586   7.330   4.234 -0.4506 -0.5739  0.2198
22681SOL    HW174005   3.642   7.257   4.261 -1.8339 -1.1422  1.6916
22681SOL    HW274006   3.620   7.406   4.282 -1.3440 -1.0716  1.7104
22682SOL     OW74007   4.185   6.279   1.861  0.1844  0.0497 -0.3482
22682SOL    HW174008   4.122   6.351   1.871  0.2793  0.0980 -0.0832
22682SOL    HW274009   4.202   6.275   1.767  1.0140  1.0989 -0.2659
22683SOL     OW74010   4.779   6.920   6.763 -0.2012 -0.4514 -0.1612
22683SOL    HW174011   4.773   7.015   6.768  3.0204 -0.1252 -0.0641
22683SOL    HW274012   4.776   6.890   6.854  0.4849 -0.2527 -0.0685
22684SOL     OW74013   2.324   1.524   0.068  0.5789  0.4772 -0.3124
22684SOL    HW174014   2.411   1.552   0.097  1.4113 -0.8932 -1.3342
22684SOL    HW274015   2.292   1.470   0.140  0.2631  1.5123  0.3505
22685SOL     OW74016   2.080   7.257   2.989  0.3530 -0.1099 -0.1230
22685SOL    HW174017   2.095   7.345   3.023  1.2817 -1.0030  1.9838
22685SOL    HW274018   2.098   7.263   2.895 -0.4020  2.0862 -0.1790
22686SOL     OW74019   0.440   5.795   1.741 -0.1282  0.1622 -0.6711
22686SOL    HW174020   0.533   5.808   1.761 -0.1032 -1.3329  0.3360
22686SOL    HW274021   0.438   5.779   1.647  0.5261  0.9831 -0.8425
22687SOL     OW74022   4.770   8.946   9.089 -0.1908 -0.7710  0.3098
22687SOL    HW174023   4.745   8.876   9.150 -0.2621 -0.5218  0.5681
22687SOL    HW274024   4.750   8.910   9.003  1.5502 -1.8270  0.2840
22688SOL     OW74025   5.096   7.580   1.717  0.2048 -0.3592  0.2810
22688SOL    HW174026   5.083   7.602   1.810  0.9935 -1.1435  0.5936
22688SOL    HW274027   5.174   7.525   1.717 -0.5042 -1.3957 -0.7076
22689SOL     OW74028   8.477   1.351   6.345  0.1032  0.0454  0.1754
22689SOL    HW174029   8.485   1.266   6.390 -1.1741  0.2835  0.8827
22689SOL    HW274030   8.485   1.416   6.415  1.9008  0.5716 -0.4645
22690SOL     OW74031   3.574   6.352   8.697  0.0097  0.0032  0.2428
22690SOL    HW174032   3.601   6.260   8.705  0.1855  0.1139  1.0920
22690SOL    HW274033   3.558   6.365   8.604 -0.4648 -1.0148  0.1714
22691SOL     OW74034   8.184   4.482   3.231  0.1789 -0.0533  0.3599
22691SOL    HW174035   8.265   4.459   3.186 -0.0216  1.4519 -0.8949
22691SOL    HW274036   8.117   4.430   3.188 -0.0468  1.5554 -1.3723
22692SOL     OW74037   5.275   3.093   6.377  0.2051  0.5796  0.4096
22692SOL    HW174038   5.275   3.185   6.353 -1.4169  0.3965 -0.4249
22692SOL    HW274039   5.183   3.068   6.377  0.6930 -1.6199 -1.6855
22693SOL     OW74040   3.702   4.613   6.504 -0.9073 -0.6901  0.3504
22693SOL    HW174041   3.738   4.524   6.511  0.5655 -0.0711  1.2710
22693SOL    HW274042   3.777   4.670   6.521 -1.5420  0.7774 -1.4537
22694SOL     OW74043   1.464   1.344   6.764  0.3513 -0.0880  0.6096
22694SOL    HW174044   1.517   1.274   6.802  0.8117  0.3591  0.7854
22694SOL    HW274045   1.489   1.345   6.671  1.1995  0.6214  0.8426
22695SOL     OW74046   4.152   7.997   1.546 -0.3317 -0.0532 -0.5819
22695SOL    HW174047   4.219   7.967   1.485  0.5950 -0.1114  0.4173
22695SOL    HW274048   4.143   7.925   1.609  0.2275  0.7681  0.4931
22696SOL     OW74049   0.076   4.618   9.022 -0.1799 -0.0278 -0.3909
22696SOL    HW174050  -0.005   4.615   8.971 -1.6528  0.1971  1.7679
22696SOL    HW274051   0.099   4.711   9.024 -0.7840  0.1219  0.2647
22697SOL     OW74052   6.060   8.326   2.379 -0.8608 -0.2484  0.3643
22697SOL    HW174053   6.030   8.293   2.464  0.8969 -0.1337  1.0724
22697SOL    HW274054   6.155   8.329   2.387 -0.7486  1.2605 -1.0646
22698SOL     OW74055   0.548   3.739   4.599 -0.2544 -0.1055 -0.1797
22698SOL    HW174056   0.537   3.812   4.538  0.5101 -0.1314 -0.3673
22698SOL    HW274057   0.565   3.781   4.684  0.0556 -0.0589 -0.2622
22699SOL     OW74058   7.706   9.354   3.367 -0.3342  0.3056  0.1472
22699SOL    HW174059   7.697   9.370   3.273  0.0352 -2.0306 -0.3523
22699SOL    HW274060   7.799   9.369   3.385 -0.2871  0.1883  0.0048
22700SOL     OW74061   0.521   8.899   1.794  0.5837  0.3927  0.2024
22700SOL    HW174062   0.570   8.954   1.856  0.7716  0.2424  0.1887
22700SOL    HW274063   0.533   8.942   1.709  0.2688  0.6369  0.2793
22701SOL     OW74064   1.964   3.837   0.539 -0.4846 -0.2585  0.4056
22701SOL    HW174065   1.909   3.790   0.601 -0.4457 -1.4205 -0.4183
22701SOL    HW274066   1.909   3.910   0.509 -0.7899 -0.1588  1.1752
22702SOL     OW74067   8.087   5.429   8.801  0.0976 -0.1201 -0.1749
22702SOL    HW174068   8.078   5.507   8.856  0.2864  0.6738 -1.2504
22702SOL    HW274069   7.998   5.395   8.793  0.1299 -0.5757  1.0504
22703SOL     OW74070   8.477   4.360   5.848  1.0833  0.5210 -0.0841
22703SOL    HW174071   8.437   4.296   5.906 -0.1253  1.0692 -0.2863
22703SOL    HW274072   8.535   4.411   5.905  0.1792  0.8219  0.5988
22704SOL     OW74073   0.399   3.373   2.701 -0.0576 -0.1718 -0.7287
22704SOL    HW174074   0.479   3.355   2.650  1.4784 -1.0122  1.7967
22704SOL    HW274075   0.389   3.296   2.757 -0.8768  1.2455  1.1652
22705SOL     OW74076   3.380   1.209   0.032 -0.4118 -0.7623 -0.0976
22705SOL    HW174077   3.389   1.257  -0.050  1.7418  1.5022  1.3300
22705SOL    HW274078   3.461   1.159   0.039 -2.1840 -4.1069 -1.0620
22706SOL     OW74079   6.163   3.494   4.583  0.0364  0.2550  0.2533
22706SOL    HW174080   6.176   3.437   4.659  0.3954  0.6301  0.4728
22706SOL    HW274081   6.078   3.467   4.548 -0.1029  0.0344  0.7464
22707SOL     OW74082   8.530   2.947   2.669  0.1135 -0.0341  0.0475
22707SOL    HW174083   8.539   2.989   2.755 -2.0347 -0.1933  0.3914
22707SOL    HW274084   8.536   3.019   2.606  0.0593  0.3021  0.4261
22708SOL     OW74085   8.140   8.449   0.109 -0.4688 -0.0830  0.4092
22708SOL    HW174086   8.055   8.434   0.066  0.2947  0.1101 -1.2421
22708SOL    HW274087   8.118   8.495   0.190 -1.7813  2.4416 -1.2445
22709SOL     OW74088   0.486   6.847   2.809  0.0361 -0.0556 -0.7458
22709SOL    HW174089   0.544   6.923   2.808 -0.3475  0.2382 -0.6835
22709SOL    HW274090   0.414   6.871   2.752  0.1535 -0.5637 -1.1117
22710SOL     OW74091   2.111   1.690   4.290  0.3014  0.1692 -0.0037
22710SOL    HW174092   2.094   1.784   4.293  0.1277  0.1876 -1.0848
22710SOL    HW274093   2.032   1.650   4.327 -0.9799  0.3654 -2.2913
22711SOL     OW74094   2.156   2.472   7.892 -0.0104  0.7287 -0.6114
22711SOL    HW174095   2.086   2.505   7.948  1.3069  1.7238  0.5286
22711SOL    HW274096   2.157   2.378   7.909  0.7587  1.0711  1.6080
22712SOL     OW74097   1.071   9.026   7.569  0.0816 -0.0678  0.5450
22712SOL    HW174098   1.032   8.949   7.610  0.4516 -0.5245  0.0568
22712SOL    HW274099   1.055   9.015   7.475 -0.8931  1.0408  0.5487
22713SOL     OW74100   5.715   1.163   1.203 -0.4251 -0.6675 -0.5625
22713SOL    HW174101   5.779   1.222   1.242 -0.4628  0.3173 -1.9178
22713SOL    HW274102   5.726   1.081   1.251 -0.9775  0.6443  1.9893
22714SOL     OW74103   3.965   4.846   7.512 -0.5872  0.1031  0.3309
22714SOL    HW174104   3.958   4.807   7.425 -1.4149 -1.4652  1.0572
22714SOL    HW274105   4.058   4.865   7.522  0.0532 -2.5073  0.2115
22715SOL     OW74106   7.788   7.210   4.016  0.0453 -0.0205 -0.1837
22715SOL    HW174107   7.762   7.196   4.107 -2.6657  1.6158 -0.5934
22715SOL    HW274108   7.782   7.123   3.976 -0.1611 -0.5084  0.8826
22716SOL     OW74109   8.229   8.061   1.551 -0.2129  0.3069 -0.0866
22716SOL    HW174110   8.189   8.018   1.627  0.9015 -2.0139 -0.7384
22716SOL    HW274111   8.159   8.065   1.486 -1.0639  1.9531  0.8671
22717SOL     OW74112   0.035   8.741   2.031 -0.1376 -0.1486  0.4723
22717SOL    HW174113   0.008   8.777   1.946 -0.9748 -0.6160  0.5257
22717SOL    HW274114   0.129   8.759   2.036  0.0620 -0.7010 -0.8577
22718SOL     OW74115   5.615   6.547   7.442  0.1569 -0.2932  0.2322
22718SOL    HW174116   5.628   6.571   7.534 -0.1598  0.2371  0.1455
22718SOL    HW274117   5.529   6.506   7.439  1.0611 -2.3036  0.5304
22719SOL     OW74118   7.722   9.150   2.291  0.5881 -0.1700 -0.2319
22719SOL    HW174119   7.702   9.065   2.252 -1.0874  0.0372  0.0993
22719SOL    HW274120   7.640   9.178   2.331  1.2998  1.2853  0.2889
22720SOL     OW74121   6.896   0.141   6.653  0.4175 -0.2056 -0.2930
22720SOL    HW174122   6.960   0.194   6.702  0.8973 -1.6236  0.6778
22720SOL    HW274123   6.814   0.188   6.663  1.0169  0.8688 -0.2854
22721SOL     OW74124   7.857   2.902   5.525  0.6029  0.2700  0.3148
22721SOL    HW174125   7.781   2.961   5.522 -0.3875 -0.9800  0.2040
22721SOL    HW274126   7.924   2.947   5.474  0.7087  2.4120  2.1679
22722SOL     OW74127   2.992   0.090   6.665 -0.2068  0.7530  0.0789
22722SOL    HW174128   3.032   0.013   6.705  0.0662  0.6475 -0.3902
22722SOL    HW274129   2.987   0.154   6.736 -0.5187  0.2793  0.4956
22723SOL     OW74130   0.857   7.506   2.785 -0.1786  0.1998 -0.0400
22723SOL    HW174131   0.936   7.488   2.835 -0.8128 -0.8628  0.6372
22723SOL    HW274132   0.875   7.473   2.697 -0.0409 -0.4986  0.2484
22724SOL     OW74133   7.736   7.681   0.536  0.3680  0.4141 -0.1400
22724SOL    HW174134   7.823   7.713   0.557  0.0063  0.5018  1.3039
22724SOL    HW274135   7.684   7.760   0.520  0.1599  0.4455  0.6496
22725SOL     OW74136   3.612   2.928   8.512 -0.1060 -0.3830 -0.0946
22725SOL    HW174137   3.615   2.929   8.416 -1.8867  0.1330 -0.1842
22725SOL    HW274138   3.637   2.839   8.536 -1.6569 -1.1458 -1.1628
22726SOL     OW74139   5.013   8.861   1.149  0.0349 -0.0349  0.3387
22726SOL    HW174140   4.955   8.815   1.210  1.2870 -2.2793 -0.0444
22726SOL    HW274141   4.958   8.882   1.074 -0.6997 -0.4865  0.7376
22727SOL     OW74142   8.601   6.877   8.799 -0.1604 -0.0946  0.0504
22727SOL    HW174143   8.568   6.962   8.829  1.7120 -0.4852  3.6942
22727SOL    HW274144   8.555   6.813   8.853  1.2225 -1.1048  0.0799
22728SOL     OW74145   9.313   1.319   3.311  0.5998  0.4740  0.2132
22728SOL    HW174146   9.330   1.373   3.234 -0.3057  0.3396 -0.0882
22728SOL    HW274147   9.243   1.365   3.358  2.0223  1.2731  1.6920
22729SOL     OW74148   1.787   9.037   8.159  0.2677 -0.6113  0.2381
22729SOL    HW174149   1.784   9.112   8.099 -1.1820 -0.9080 -0.1021
22729SOL    HW274150   1.738   9.066   8.236  0.0208 -1.0773  0.2584
22730SOL     OW74151   2.949   1.905   2.465 -0.1900 -0.1509  0.1178
22730SOL    HW174152   2.915   1.916   2.554  0.4797 -0.7215  0.4495
22730SOL    HW274153   2.871   1.888   2.412 -0.6046  0.2786  0.5728
22731SOL     OW74154   6.302   4.161   7.852  0.1285  0.1656  0.8424
22731SOL    HW174155   6.253   4.172   7.771  0.2162  1.4385  0.9334
22731SOL    HW274156   6.235   4.159   7.920  0.0397 -1.1586  0.7266
22732SOL     OW74157   3.966   4.885   3.957  0.4032 -0.5484  0.3906
22732SOL    HW174158   4.050   4.874   3.911  0.6014 -0.0276  0.6177
22732SOL    HW274159   3.946   4.978   3.947  0.4721 -0.4119  1.3890
22733SOL     OW74160   8.179   2.877   1.826 -0.1956  0.1274 -0.4802
22733SOL    HW174161   8.190   2.835   1.741 -0.3827  0.9800 -0.9298
22733SOL    HW274162   8.118   2.949   1.811 -1.8695 -0.9551  0.8019
22734SOL     OW74163   6.026   1.818   4.280  0.0683 -0.4600  0.2985
22734SOL    HW174164   5.972   1.855   4.210  0.3775 -0.0374  0.2814
22734SOL    HW274165   6.061   1.737   4.243 -0.9825 -1.0312  0.4984
22735SOL     OW74166   4.494   9.141   0.210  0.0415  0.2092  0.1372
22735SOL    HW174167   4.403   9.167   0.191  0.0119 -0.1300 -0.1943
22735SOL    HW274168   4.545   9.182   0.141  0.2845  1.2975  0.9290
22736SOL     OW74169   1.093   3.655   7.427 -0.1232  0.2613  0.4875
22736SOL    HW174170   1.004   3.629   7.402 -0.3359  1.0226  0.4147
22736SOL    HW274171   1.148   3.620   7.357 -0.4108  0.0859  0.3470
22737SOL     OW74172   7.375   2.493   0.725  0.4479 -0.2755 -0.4300
22737SOL    HW174173   7.369   2.417   0.783 -0.9055 -0.6844 -1.0826
22737SOL    HW274174   7.447   2.544   0.762 -0.0056 -0.7866  1.2865
22738SOL     OW74175   2.989   6.765   2.948 -0.1954 -0.0242 -0.2196
22738SOL    HW174176   3.085   6.764   2.946 -0.1639  1.0414  0.2690
22738SOL    HW274177   2.967   6.766   3.041 -0.6174  2.2954 -0.2955
22739SOL     OW74178   4.415   5.682   1.769 -0.0357 -0.6112 -0.3128
22739SOL    HW174179   4.461   5.765   1.755 -0.9849 -0.3206 -1.9668
22739SOL    HW274180   4.324   5.701   1.745 -0.6041 -1.7210  0.8567
22740SOL     OW74181   1.470   3.366   3.521 -0.4238 -0.4175 -0.3040
22740SOL    HW174182   1.531   3.372   3.448 -0.3764  1.1489 -0.1618
22740SOL    HW274183   1.383   3.374   3.481 -0.4302 -0.2861 -0.2640
22741SOL     OW74184   3.832   1.379   8.327 -0.5439  0.6730 -0.1340
22741SOL    HW174185   3.877   1.400   8.246 -1.0756 -0.1382 -0.6597
22741SOL    HW274186   3.817   1.284   8.322 -0.7789  0.6508  0.8096
22742SOL     OW74187   0.017   5.355   6.275  0.4364  0.2964 -0.2663
22742SOL    HW174188  -0.021   5.335   6.189  1.3566  0.2568 -0.6782
22742SOL    HW274189  -0.058   5.376   6.330 -0.4343 -2.4514 -0.2877
22743SOL     OW74190   2.767   8.008   0.815 -0.2088 -0.5874  0.0754
22743SOL    HW174191   2.732   8.084   0.769 -0.0719 -0.5084  0.1021
22743SOL    HW274192   2.702   7.989   0.883 -0.8313 -1.2126 -0.6728
22744SOL     OW74193   2.333   5.247   0.623  0.1695  0.0145 -0.3683
22744SOL    HW174194   2.341   5.322   0.683  1.1091 -0.3417 -0.0325
22744SOL    HW274195   2.423   5.226   0.599 -0.1550 -0.3050 -1.3574
22745SOL     OW74196   7.114   7.153   2.748 -0.6547  0.1258 -0.1853
22745SOL    HW174197   7.029   7.129   2.711  0.2126 -0.6333 -1.7652
22745SOL    HW274198   7.101   7.241   2.784 -1.7109  0.6411 -1.7504
22746SOL     OW74199   5.045   7.024   7.081  0.6043  0.2055 -0.5359
22746SOL    HW174200   5.131   7.021   7.122  0.9067  1.6747 -1.0260
22746SOL    HW274201   5.050   7.096   7.018 -1.2722  0.9566  0.1064
22747SOL     OW74202   1.726   4.057   9.339 -0.0421 -0.1044 -0.0374
22747SOL    HW174203   1.711   4.071   9.245  0.7143  0.9887 -0.0253
22747SOL    HW274204   1.821   4.066   9.350 -0.2706  1.4160  1.0508
22748SOL     OW74205   5.796   6.068   4.332 -0.2307 -0.1597 -0.1849
22748SOL    HW174206   5.887   6.048   4.309 -0.0983  0.4602 -0.2106
22748SOL    HW274207   5.800   6.148   4.383 -0.7717 -0.0803 -0.2540
22749SOL     OW74208   1.238   5.347   2.962  0.4410  0.5293  0.0660
22749SOL    HW174209   1.230   5.425   3.018 -0.7590  0.2686  0.2960
22749SOL    HW274210   1.168   5.289   2.992  0.9895 -0.4225 -0.4547
22750SOL     OW74211   8.304   2.679   7.626  0.2152  0.1484 -0.0928
22750SOL    HW174212   8.388   2.723   7.634  0.2554 -0.1930  1.8079
22750SOL    HW274213   8.279   2.691   7.535  2.1029  0.6412 -0.5794
22751SOL     OW74214   4.029   5.995   3.498 -0.1332  0.6175 -0.2532
22751SOL    HW174215   3.966   5.942   3.547 -0.2790  0.8563 -0.1825
22751SOL    HW274216   4.089   5.931   3.459  1.4013  0.4875  2.1287
22752SOL     OW74217   2.117   9.176   6.561  0.0308 -0.7275  0.3294
22752SOL    HW174218   2.022   9.181   6.568 -0.2763 -0.5535 -2.7293
22752SOL    HW274219   2.147   9.267   6.574 -0.5599 -0.1899 -1.7566
22753SOL     OW74220   2.565   5.741   3.314  0.3788  0.4600 -0.1571
22753SOL    HW174221   2.497   5.805   3.292 -2.1465 -0.8890  2.9143
22753SOL    HW274222   2.560   5.676   3.245 -3.1629 -0.7047  0.9483
22754SOL     OW74223   3.721   1.765   4.917  0.2957 -0.2415 -0.3231
22754SOL    HW174224   3.746   1.820   4.991 -0.8401 -1.2554  0.8533
22754SOL    HW274225   3.626   1.760   4.921  0.2262 -0.6018 -1.6654
22755SOL     OW74226   8.439   1.176   0.417 -0.1022  0.2548 -0.0992
22755SOL    HW174227   8.515   1.223   0.451  0.0486  0.3504 -0.5639
22755SOL    HW274228   8.402   1.132   0.494  0.0974  0.6558  0.2278
22756SOL     OW74229   3.912   6.562   5.569 -0.0246  0.3517  0.2954
22756SOL    HW174230   3.918   6.469   5.547 -1.7100  0.0473  0.9506
22756SOL    HW274231   3.822   6.573   5.600  0.8541  1.6400  2.7113
22757SOL     OW74232   2.671   6.699   5.131  0.6691 -0.2828 -0.1841
22757SOL    HW174233   2.613   6.775   5.140  1.6764  0.5079 -0.2565
22757SOL    HW274234   2.617   6.625   5.158  0.0445  0.5975  1.0898
22758SOL     OW74235   4.731   8.948   7.989 -0.9332 -0.4434  0.2862
22758SOL    HW174236   4.700   8.992   7.910 -1.8523 -3.0623 -0.9227
22758SOL    HW274237   4.708   9.007   8.060 -1.0958  1.4868 -1.2872
22759SOL     OW74238   7.416   0.979   8.179 -0.3581 -0.8164  0.2015
22759SOL    HW174239   7.389   0.894   8.214 -1.0005 -0.1425  1.4276
22759SOL    HW274240   7.417   1.037   8.255 -1.2014  0.5836 -0.7995
22760SOL     OW74241   6.000   1.471   2.743 -0.0839 -0.0543 -0.1574
22760SOL    HW174242   6.074   1.464   2.682 -0.3801 -0.0912 -0.5152
22760SOL    HW274243   5.979   1.564   2.744  0.6779  0.1253  0.8027
22761SOL     OW74244   7.859   0.340   5.728  0.2154 -0.7060 -0.8384
22761SOL    HW174245   7.916   0.412   5.703  0.6266 -0.7025  0.1090
22761SOL    HW274246   7.871   0.276   5.658 -0.3711  0.2389 -1.8427
22762SOL     OW74247   0.833   8.485   8.245  0.2067 -0.0944  0.0846
22762SOL    HW174248   0.901   8.488   8.312  0.5470  3.9886 -0.1640
22762SOL    HW274249   0.754   8.457   8.291 -0.1578  4.7249  3.0716
22763SOL     OW74250   4.601   6.802   3.685  0.3692 -0.4096 -0.4434
22763SOL    HW174251   4.605   6.895   3.664 -0.7410  0.2315  1.9298
22763SOL    HW274252   4.678   6.764   3.641  1.7688  1.8882 -0.1121
22764SOL     OW74253   3.721   9.277   4.174  0.4773 -0.5965 -0.0606
22764SOL    HW174254   3.632   9.292   4.142  1.2506  2.5762 -1.1159
22764SOL    HW274255   3.760   9.219   4.108 -0.7954 -2.2874  0.5814
22765SOL     OW74256   1.994   5.287   7.360 -0.3088  0.4353  0.1424
22765SOL    HW174257   2.063   5.329   7.411 -0.3223 -0.5422  0.9924
22765SOL    HW274258   2.017   5.194   7.360 -0.3369  0.3851 -1.6077
22766SOL     OW74259   2.303   5.795   1.241 -0.1740  0.1419  0.2526
22766SOL    HW174260   2.283   5.726   1.177  2.6806  0.8473 -1.5728
22766SOL    HW274261   2.276   5.876   1.198  0.3005  0.5022  0.6237
22767SOL     OW74262   5.450   3.073   0.870 -0.6487  0.0581  0.5639
22767SOL    HW174263   5.543   3.072   0.892 -0.1118 -0.7498 -1.4867
22767SOL    HW274264   5.411   3.005   0.924  0.2262 -0.5438  0.4503
22768SOL     OW74265   2.103   5.493   3.607  0.0567  0.0624  0.0535
22768SOL    HW174266   2.195   5.470   3.620 -0.4960 -1.2814  2.1426
22768SOL    HW274267   2.058   5.454   3.681 -2.2311  0.6767 -0.9156
22769SOL     OW74268   0.606   6.913   5.801  0.4195  0.6338 -0.1139
22769SOL    HW174269   0.683   6.871   5.838 -1.1737  0.5563  3.5081
22769SOL    HW274270   0.581   6.856   5.728  2.2486 -0.8247  0.3291
22770SOL     OW74271   4.211   0.065   8.892  0.1193 -0.4038  0.1333
22770SOL    HW174272   4.199  -0.003   8.957 -0.7672  0.2910  0.7121
22770SOL    HW274273   4.292   0.109   8.918  0.1015 -0.5323  0.4057
22771SOL     OW74274   8.871   9.209   8.221 -0.1152 -0.1685 -0.1293
22771SOL    HW174275   8.927   9.134   8.242 -0.4128 -1.1692 -2.6323
22771SOL    HW274276   8.929   9.285   8.226  0.3234 -0.5826  1.8791
22772SOL     OW74277   6.986   8.719   3.611  0.2643 -0.4443  0.6434
22772SOL    HW174278   6.923   8.663   3.657  1.1000  0.1052  2.5480
22772SOL    HW274279   7.069   8.671   3.617  0.7871  0.5283  1.4774
22773SOL     OW74280   3.017   8.664   0.851 -0.0054 -0.3847  0.1754
22773SOL    HW174281   3.003   8.717   0.930  0.6409 -0.6311  0.4591
22773SOL    HW274282   2.930   8.631   0.829  0.0362 -1.6448  1.7302
22774SOL     OW74283   0.377   3.741   3.894 -0.1254  0.1075  0.3688
22774SOL    HW174284   0.303   3.756   3.836  0.0701 -0.4203 -0.0285
22774SOL    HW274285   0.339   3.740   3.982 -0.9847 -2.3872  0.0449
22775SOL     OW74286   4.669   3.550   4.828 -0.1623 -0.1567  0.2861
22775SOL    HW174287   4.714   3.520   4.907  0.1954 -0.1457  0.0857
22775SOL    HW274288   4.739   3.563   4.764  0.1174  3.5874  1.1103
22776SOL     OW74289   4.349   3.690   2.997 -0.1957 -0.1887  0.1980
22776SOL    HW174290   4.397   3.634   2.937 -0.4539  2.0046 -2.2072
22776SOL    HW274291   4.262   3.652   3.002 -0.7332  0.5705 -2.3631
22777SOL     OW74292   4.658   2.537   2.406  0.1453  0.3794 -0.2858
22777SOL    HW174293   4.716   2.611   2.389 -2.4663  3.0548  1.5341
22777SOL    HW274294   4.623   2.514   2.319  3.3146 -1.0174 -1.3590
22778SOL     OW74295   8.514   4.350   4.824 -0.4147  0.5881 -0.1379
22778SOL    HW174296   8.453   4.422   4.837 -0.3186  0.4189  1.3650
22778SOL    HW274297   8.527   4.312   4.911  0.0985 -0.7935 -0.7772
22779SOL     OW74298   5.507   6.995   3.887 -0.0188  0.1192  0.4411
22779SOL    HW174299   5.542   6.916   3.845 -0.8363  0.5376 -1.0893
22779SOL    HW274300   5.553   6.999   3.971  0.5430 -1.6034  0.2666
22780SOL     OW74301   6.340   5.883   4.554  0.2195 -0.0448 -0.1394
22780SOL    HW174302   6.315   5.965   4.596 -1.6942 -0.4538 -0.3894
22780SOL    HW274303   6.427   5.900   4.519 -0.5201  2.2439 -1.0844
22781SOL     OW74304   0.904   4.827   8.876  0.3029 -0.4894  0.4030
22781SOL    HW174305   0.946   4.902   8.918  1.5912 -0.4884 -0.8138
22781SOL    HW274306   0.944   4.750   8.918 -1.4789 -0.5703  2.1075
22782SOL     OW74307   0.507   3.781   0.576  0.1171 -0.3250  0.7192
22782SOL    HW174308   0.457   3.860   0.597 -0.7056 -0.9032  0.9718
22782SOL    HW274309   0.549   3.757   0.659 -1.3198 -1.3283  1.1829
22783SOL     OW74310   5.210   4.204   9.127 -0.0225 -0.2512 -0.2098
22783SOL    HW174311   5.304   4.212   9.111  0.9875 -3.1593  2.9173
22783SOL    HW274312   5.180   4.293   9.142  2.0860  0.8031 -1.7248
22784SOL     OW74313   7.328   8.156   4.197  0.0559  0.0287 -0.0385
22784SOL    HW174314   7.251   8.208   4.172  0.5850  0.6609 -0.3774
22784SOL    HW274315   7.293   8.069   4.217 -0.8056  0.4346  0.2454
22785SOL     OW74316   6.298   6.383   9.353 -0.0792 -0.6249 -0.1571
22785SOL    HW174317   6.241   6.448   9.311 -0.6131 -1.3440 -0.5791
22785SOL    HW274318   6.249   6.356   9.431  0.8569  0.6213  0.9123
22786SOL     OW74319   3.643   8.648   5.936  0.6430  0.5763  0.2001
22786SOL    HW174320   3.726   8.684   5.907  1.8296  0.7724  3.4503
22786SOL    HW274321   3.622   8.696   6.016 -2.8658  0.8369 -0.6797
22787SOL     OW74322   2.115   9.177   3.348  0.4570  0.9542  0.2045
22787SOL    HW174323   2.127   9.235   3.423 -1.0390  2.2602 -0.4976
22787SOL    HW274324   2.065   9.103   3.382  0.6812  1.0378  0.7169
22788SOL     OW74325   3.927   5.223   6.115 -0.2820 -0.1945  0.1981
22788SOL    HW174326   3.990   5.157   6.145  0.9865  0.6776 -0.4122
22788SOL    HW274327   3.884   5.182   6.039 -1.6723 -1.4206  1.5811
22789SOL     OW74328   1.686   4.210   3.086 -0.0501 -0.6586 -0.1239
22789SOL    HW174329   1.721   4.166   3.009  1.1940 -2.7712  1.5082
22789SOL    HW274330   1.747   4.282   3.103  1.6193 -2.1547  0.6463
22790SOL     OW74331   0.488   8.968   5.689 -0.7734  0.6954  0.4861
22790SOL    HW174332   0.490   9.029   5.615  1.9828  0.2169  0.0515
22790SOL    HW274333   0.408   8.917   5.675 -0.1310  0.2661 -2.5416
22791SOL     OW74334   4.639   7.244   0.698  0.6078  0.2191 -0.8732
22791SOL    HW174335   4.567   7.264   0.757 -0.4471 -0.1358 -1.9902
22791SOL    HW274336   4.598   7.195   0.626  1.4996  2.0728 -2.7578
22792SOL     OW74337   5.957   3.957   8.718  0.0005 -0.0433  0.6176
22792SOL    HW174338   5.904   3.902   8.661  0.0781  0.4408  0.0633
22792SOL    HW274339   5.931   3.932   8.807 -0.4809 -0.4601  0.3671
22793SOL     OW74340   8.786   1.900   1.490  0.1793  0.2339  0.2464
22793SOL    HW174341   8.705   1.863   1.524  0.9066  0.2979  2.1806
22793SOL    HW274342   8.848   1.827   1.492  0.0619 -0.0106 -1.8963
22794SOL     OW74343   7.418   9.277   9.010  0.0592 -0.4902  0.5217
22794SOL    HW174344   7.494   9.231   9.045  0.5276 -1.2470 -1.3553
22794SOL    HW274345   7.343   9.229   9.047  0.4341  0.3744  2.5232
22795SOL     OW74346   5.574   4.680   0.925  0.4100 -0.3668  0.3901
22795SOL    HW174347   5.572   4.756   0.868  2.9325  0.4033  1.1843
22795SOL    HW274348   5.522   4.704   1.001 -0.0179 -0.0234 -0.0104
22796SOL     OW74349   3.367   8.011   0.583  0.4341 -0.2546  0.4356
22796SOL    HW174350   3.396   7.923   0.559 -1.7488 -0.5102 -1.6213
22796SOL    HW274351   3.353   8.055   0.500  0.5050  1.7272  1.4187
22797SOL     OW74352   5.637   4.992   3.825  0.0231  0.1530  0.7758
22797SOL    HW174353   5.631   4.924   3.891  0.5705  0.4967  1.1911
22797SOL    HW274354   5.629   5.074   3.874  0.5097  0.4151  0.4248
22798SOL     OW74355   6.033   4.325   6.955 -0.2092 -0.2151 -0.0264
22798SOL    HW174356   5.968   4.386   6.920  0.1985 -0.0048 -0.4200
22798SOL    HW274357   6.008   4.240   6.919  0.0300 -0.0512 -0.5786
22799SOL     OW74358   4.294   3.704   1.942 -0.1235 -0.3056  0.0184
22799SOL    HW174359   4.213   3.668   1.906 -0.0646 -1.0736  0.6250
22799SOL    HW274360   4.350   3.718   1.866 -0.2715 -1.2093 -0.2738
22800SOL     OW74361   7.508   6.072   7.594  0.2477  0.2357 -0.1373
22800SOL    HW174362   7.537   6.135   7.660 -0.9581  0.0507  0.5964
22800SOL    HW274363   7.439   6.118   7.546 -0.5775 -0.4719  0.3438
22801SOL     OW74364   4.409   0.529   0.710  0.2680 -0.1284 -0.0004
22801SOL    HW174365   4.436   0.503   0.798 -1.9850  0.2443  0.8802
22801SOL    HW274366   4.382   0.448   0.668  1.4539 -0.3229 -0.4283
22802SOL     OW74367   2.227   7.421   8.924  0.8953 -0.4159  0.9431
22802SOL    HW174368   2.187   7.507   8.906 -1.6773 -1.6617  0.1360
22802SOL    HW274369   2.223   7.412   9.019  1.0310  0.3020  1.0194
22803SOL     OW74370   2.465   3.417   3.147  0.8352 -0.5595  0.2261
22803SOL    HW174371   2.410   3.435   3.071  2.2803  0.2506 -0.6686
22803SOL    HW274372   2.437   3.331   3.177 -1.0802 -0.0684 -0.0346
22804SOL     OW74373   7.026   4.697   5.603  0.5351  0.1972 -0.3272
22804SOL    HW174374   7.010   4.775   5.656  0.9569  2.2299 -2.9562
22804SOL    HW274375   6.947   4.644   5.611 -0.2739  1.5169  0.5606
22805SOL     OW74376   2.394   2.665   5.308  0.4642 -0.2243 -0.3031
22805SOL    HW174377   2.402   2.668   5.403  0.1907  2.3111 -0.2973
22805SOL    HW274378   2.475   2.705   5.276  0.3363 -0.6117 -1.1434
22806SOL     OW74379   9.234   4.228   0.687 -0.2059  0.1088 -0.0410
22806SOL    HW174380   9.156   4.248   0.636 -0.6533 -0.8540  0.2367
22806SOL    HW274381   9.282   4.164   0.634  0.6911  1.1128 -0.4677
22807SOL     OW74382   0.299   7.458   1.097  0.0034 -0.0653  0.1582
22807SOL    HW174383   0.256   7.496   1.174  3.3328  2.1597  1.1587
22807SOL    HW274384   0.379   7.419   1.131  0.9433 -0.1940 -2.0301
22808SOL     OW74385   4.778   1.646   4.559 -0.2986  0.3477  0.3646
22808SOL    HW174386   4.757   1.673   4.469 -1.8492 -1.2261  0.1985
22808SOL    HW274387   4.849   1.705   4.585  1.3203 -0.1695 -2.4424
22809SOL     OW74388   5.878   7.813   6.022  0.2814 -0.4129 -0.1214
22809SOL    HW174389   5.899   7.764   6.102 -1.6384 -0.0142  0.6716
22809SOL    HW274390   5.942   7.781   5.958  2.4683 -0.1046  1.7629
22810SOL     OW74391   4.929   7.780   0.087 -0.6152  0.4497 -0.0880
22810SOL    HW174392   4.856   7.836   0.060 -1.5629 -0.9756 -0.5720
22810SOL    HW274393   4.987   7.779   0.011 -0.5837  0.7660 -0.0720
22811SOL     OW74394   2.828   1.299   5.272  0.3219  0.3459 -0.1896
22811SOL    HW174395   2.912   1.258   5.254  0.7611  1.0716  0.1649
22811SOL    HW274396   2.841   1.391   5.252 -0.7458  0.2889 -1.2635
22812SOL     OW74397   5.292   1.045   9.044  0.1594 -0.5217 -0.0402
22812SOL    HW174398   5.316   1.135   9.064 -0.1463 -0.4950  0.2189
22812SOL    HW274399   5.375   0.999   9.032  0.3281 -0.3843  0.6173
22813SOL     OW74400   0.517   6.054   7.014  0.1880  0.0200 -0.1149
22813SOL    HW174401   0.564   6.083   6.935 -0.0368 -1.0971 -0.6817
22813SOL    HW274402   0.586   6.039   7.079  0.6901 -1.6983 -0.9706
22814SOL     OW74403   8.148   6.154   4.779  0.3238 -0.1183  0.5803
22814SOL    HW174404   8.170   6.068   4.744 -1.1043  0.1155 -1.0311
22814SOL    HW274405   8.066   6.141   4.827 -1.1208  0.6384 -1.5067
22815SOL     OW74406   4.649   6.474   6.459  0.1630  0.3336 -0.2697
22815SOL    HW174407   4.625   6.483   6.551 -1.3694  0.2864 -0.6381
22815SOL    HW274408   4.601   6.544   6.415 -0.0961 -0.4011 -1.1816
22816SOL     OW74409   1.371   8.812   7.053 -0.2040 -0.8435  0.1809
22816SOL    HW174410   1.389   8.750   7.123 -0.6229 -2.2659 -0.9300
22816SOL    HW274411   1.350   8.894   7.099  0.5150 -1.4485  1.6694
22817SOL     OW74412   3.501   7.329   7.124 -0.4224 -0.0682  0.4313
22817SOL    HW174413   3.516   7.412   7.169 -1.6225  1.0062 -1.0216
22817SOL    HW274414   3.588   7.299   7.097  0.0740  0.4269  1.4571
22818SOL     OW74415   6.311   3.872   7.674  0.4256  0.3743 -0.3179
22818SOL    HW174416   6.231   3.819   7.683 -1.3573  3.1224  1.5081
22818SOL    HW274417   6.280   3.960   7.655  3.1137  1.3744 -0.5288
22819SOL     OW74418   4.594   1.285   3.209  0.8029  0.2003  0.0652
22819SOL    HW174419   4.584   1.380   3.208  0.4764  0.1690 -0.8065
22819SOL    HW274420   4.687   1.270   3.228  1.3806  0.7711 -2.0414
22820SOL     OW74421   0.643   7.781   2.196 -0.5465  0.2431 -0.5070
22820SOL    HW174422   0.677   7.715   2.256  0.0974  0.5958 -0.4807
22820SOL    HW274423   0.559   7.746   2.167 -1.5401  0.6641  1.6375
22821SOL     OW74424   8.745   7.261   5.941 -0.9301 -0.6447 -0.2243
22821SOL    HW174425   8.838   7.241   5.949 -0.6304  0.8618  0.4460
22821SOL    HW274426   8.718   7.220   5.859  0.1707 -1.6103 -0.1207
22822SOL     OW74427   7.645   3.670   5.065  0.0900  0.2873  0.0235
22822SOL    HW174428   7.597   3.741   5.023  0.5857 -0.0990 -1.2350
22822SOL    HW274429   7.708   3.641   4.999  0.0622 -1.1642  0.6008
22823SOL     OW74430   2.977   8.013   3.572  0.4090  0.6305  0.4815
22823SOL    HW174431   2.927   8.017   3.491  1.8324 -0.3741 -0.4998
22823SOL    HW274432   2.992   8.104   3.596 -0.8151  0.9416  0.1375
22824SOL     OW74433   7.142   7.020   5.408  0.1735  0.7617 -0.0646
22824SOL    HW174434   7.129   6.979   5.322 -0.7409  0.1029  0.3842
22824SOL    HW274435   7.187   7.102   5.388  1.3396 -0.0754 -1.0455
22825SOL     OW74436   0.809   7.153   5.281 -0.3707 -0.4383  0.1230
22825SOL    HW174437   0.787   7.245   5.292  2.0595  0.3283 -0.9253
22825SOL    HW274438   0.752   7.124   5.210  0.3758  0.9014 -1.0822
22826SOL     OW74439   5.063   8.113   4.079 -0.1267 -0.0855  0.1423
22826SOL    HW174440   5.057   8.060   4.000 -1.4271  2.1761 -1.4111
22826SOL    HW274441   4.972   8.136   4.099  0.3700  1.5114  0.7035
22827SOL     OW74442   5.773   3.342   0.123  0.2720  0.5869 -0.1659
22827SOL    HW174443   5.833   3.404   0.163  1.3065  0.3647 -1.3131
22827SOL    HW274444   5.830   3.273   0.088 -0.6244  0.4315 -1.3805
22828SOL     OW74445   9.335   4.384   6.577  0.1161 -0.3750  0.1449
22828SOL    HW174446   9.301   4.341   6.498  0.9672 -0.5940 -0.1095
22828SOL    HW274447   9.425   4.408   6.554  0.0620  0.4099  0.7276
22829SOL     OW74448   3.590   8.529   7.715 -0.0636 -0.3131  0.7055
22829SOL    HW174449   3.670   8.581   7.725 -0.5810  0.6641  0.0116
22829SOL    HW274450   3.529   8.589   7.672 -2.0736 -0.1375  3.5227
22830SOL     OW74451   8.250   0.011   1.345 -0.4341  0.6115  0.2949
22830SOL    HW174452   8.225   0.094   1.304 -0.6973  0.3622 -0.0653
22830SOL    HW274453   8.173  -0.045   1.332  0.1788 -0.0665 -0.5373
22831SOL     OW74454   0.701   4.265   2.314 -0.4285 -0.7783  0.8592
22831SOL    HW174455   0.776   4.312   2.277 -0.0349 -1.7457  0.4101
22831SOL    HW274456   0.625   4.312   2.280 -0.0576  0.5688  1.7807
22832SOL     OW74457   0.513   4.863   6.133  0.1679  0.2417  0.0343
22832SOL    HW174458   0.438   4.923   6.135 -0.2566 -0.0041 -2.9371
22832SOL    HW274459   0.474   4.776   6.137  0.4841  0.1250  0.6357
22833SOL     OW74460   3.351   1.660   8.270 -0.2491 -0.0798 -0.1722
22833SOL    HW174461   3.301   1.599   8.215  1.1628 -0.8517 -0.6482
22833SOL    HW274462   3.308   1.655   8.356 -2.6200  1.3099 -1.1850
22834SOL     OW74463   1.006   1.612   0.808 -0.5662  0.2125  0.1609
22834SOL    HW174464   1.075   1.610   0.874 -0.5565 -1.3491  0.1491
22834SOL    HW274465   0.994   1.520   0.783 -2.3233  0.4924 -0.1787
22835SOL     OW74466   8.609   5.999   0.879  0.6571  0.8220 -0.0357
22835SOL    HW174467   8.558   6.067   0.924  0.6960  1.2133 -0.5771
22835SOL    HW274468   8.673   6.047   0.827  1.4285  0.3361  0.4476
22836SOL     OW74469   7.026   5.746   2.371  0.0292 -0.4350 -0.4689
22836SOL    HW174470   7.000   5.737   2.279 -2.1114 -1.3237  0.1682
22836SOL    HW274471   7.070   5.664   2.391 -0.6513 -0.7859 -0.3757
22837SOL     OW74472   2.993   5.071   1.368 -0.3769 -0.2147 -0.0439
22837SOL    HW174473   3.067   5.104   1.419 -0.7954 -0.6825  0.8839
22837SOL    HW274474   2.937   5.027   1.432 -1.7114  0.5489 -0.6475
22838SOL     OW74475   8.723   8.366   4.358 -0.0138 -0.6251 -0.0051
22838SOL    HW174476   8.692   8.395   4.443  2.0245 -0.3447  0.7014
22838SOL    HW274477   8.738   8.446   4.308  0.6067 -0.6879  0.0682
22839SOL     OW74478   5.379   0.312   5.535  0.0708 -0.3543 -0.6682
22839SOL    HW174479   5.458   0.324   5.588 -0.0401 -0.1500 -0.5493
22839SOL    HW274480   5.408   0.326   5.444  0.7261 -2.7830 -0.8921
22840SOL     OW74481   2.126   7.131   7.723 -0.1403  0.1848 -0.1012
22840SOL    HW174482   2.179   7.098   7.795 -0.0491 -1.7361 -0.9976
22840SOL    HW274483   2.140   7.069   7.652 -1.9825  0.7628 -1.0340
22841SOL     OW74484   6.360   2.319   0.316  0.0428 -0.1272  0.1321
22841SOL    HW174485   6.403   2.322   0.231  1.0692  0.6000  0.6481
22841SOL    HW274486   6.329   2.229   0.325 -1.2041  0.1047 -1.5379
22842SOL     OW74487   2.871   4.464   5.750 -0.1823  0.0554  0.2374
22842SOL    HW174488   2.866   4.456   5.655 -0.1328 -0.2455  0.2578
22842SOL    HW274489   2.889   4.375   5.781  1.6765  0.4648  0.4076
22843SOL     OW74490   5.794   5.485   0.337  0.2200 -0.1377 -0.0752
22843SOL    HW174491   5.825   5.506   0.249 -1.4618  0.4448 -0.5748
22843SOL    HW274492   5.869   5.445   0.380  1.8096  1.6545 -1.0020
22844SOL     OW74493   0.006   1.903   6.701  0.3247  0.3310 -0.8121
22844SOL    HW174494  -0.005   1.964   6.629  0.7189 -0.2371 -1.3574
22844SOL    HW274495  -0.083   1.886   6.732 -0.1706 -1.6354 -3.0237
22845SOL     OW74496   7.262   1.748   4.172  0.7177 -0.7792  0.1981
22845SOL    HW174497   7.292   1.662   4.141 -0.8504 -0.8071 -1.3646
22845SOL    HW274498   7.316   1.810   4.123  0.6769 -0.8516  0.0607
22846SOL     OW74499   3.539   6.939   1.616  0.4801  0.4239  0.3451
22846SOL    HW174500   3.457   6.963   1.573  0.4571 -0.6755 -0.2386
22846SOL    HW274501   3.512   6.891   1.694  0.5734 -0.0044  0.1128
22847SOL     OW74502   8.110   8.375   3.418  0.2760 -0.0428 -0.5096
22847SOL    HW174503   8.180   8.315   3.442 -0.7287 -0.0586  2.8308
22847SOL    HW274504   8.036   8.318   3.397  0.0163 -0.0390  0.3421
22848SOL     OW74505   8.013   1.620   4.323 -0.1948  0.0437 -0.1568
22848SOL    HW174506   8.031   1.704   4.281 -1.0417  0.2397 -0.1357
22848SOL    HW274507   7.967   1.643   4.404  0.7493 -0.3708  0.5163
22849SOL     OW74508   1.528   7.624   6.324 -0.4610 -0.0179  0.2575
22849SOL    HW174509   1.577   7.590   6.250 -1.2235 -0.2274 -0.1539
22849SOL    HW274510   1.554   7.569   6.398 -0.1955 -0.2229  0.0110
22850SOL     OW74511   3.018   4.559   8.477 -0.4841 -0.3820 -0.6252
22850SOL    HW174512   3.078   4.501   8.429  0.1472  1.8156 -2.6638
22850SOL    HW274513   3.050   4.647   8.458 -2.2862  0.7384  1.1706
22851SOL     OW74514   2.540   8.034   5.259 -0.2819 -0.1851 -0.1097
22851SOL    HW174515   2.478   7.984   5.207  1.5574 -1.6376 -1.0312
22851SOL    HW274516   2.585   7.969   5.313  0.0416  0.8973  0.9869
22852SOL     OW74517   3.676   2.176   7.846  0.5259 -0.2001  0.1802
22852SOL    HW174518   3.705   2.151   7.934  1.5995 -0.5729 -0.2736
22852SOL    HW274519   3.589   2.214   7.860  0.4794 -0.6950  1.3432
22853SOL     OW74520   0.938   0.592   9.323  0.6424 -0.2607 -0.3361
22853SOL    HW174521   0.991   0.595   9.403 -1.5632  0.2683  1.2016
22853SOL    HW274522   0.870   0.526   9.342  0.3145 -0.4251 -1.9570
22854SOL     OW74523   4.213   4.616   8.041 -0.2418  0.2258  0.0204
22854SOL    HW174524   4.198   4.710   8.054 -1.0140 -0.1222  1.8186
22854SOL    HW274525   4.308   4.606   8.046 -0.0471  1.0279 -1.3129
22855SOL     OW74526   1.359   8.646   3.457  0.2939  0.1049 -0.7114
22855SOL    HW174527   1.365   8.584   3.384  0.4602  0.0452 -0.6487
22855SOL    HW274528   1.390   8.596   3.533  1.3458  0.5484 -0.8315
22856SOL     OW74529   5.262   7.643   3.625 -0.1431  0.1332  0.1519
22856SOL    HW174530   5.267   7.556   3.585  2.7037  0.3836 -0.2064
22856SOL    HW274531   5.279   7.628   3.718  0.3804  0.3037  0.0853
22857SOL     OW74532   8.191   6.534   3.700 -0.5109  0.1388 -0.1239
22857SOL    HW174533   8.212   6.511   3.610  2.4522 -1.3600  0.8137
22857SOL    HW274534   8.271   6.515   3.749 -1.6063  2.0468  2.6582
22858SOL     OW74535   4.988   6.086   6.526 -0.1744  0.2922  0.1461
22858SOL    HW174536   4.940   6.052   6.450 -0.7201  0.4812  0.3962
22858SOL    HW274537   4.940   6.052   6.601 -0.1895  0.8653  0.4033
22859SOL     OW74538   5.974   5.416   1.321 -0.4196 -0.2940  0.2135
22859SOL    HW174539   5.921   5.495   1.335 -0.2062 -0.2890  1.0591
22859SOL    HW274540   6.026   5.407   1.401 -0.2742 -1.1660  0.0365
22860SOL     OW74541   3.563   1.085   5.774 -0.1341  0.2861 -0.3109
22860SOL    HW174542   3.649   1.055   5.803 -0.4786 -0.3003  0.1158
22860SOL    HW274543   3.567   1.180   5.783  0.5966  0.2996 -0.6551
22861SOL     OW74544   0.753   8.729   7.631 -0.1495 -0.5042  0.1409
22861SOL    HW174545   0.767   8.636   7.647 -0.8590 -0.5846  0.3181
22861SOL    HW274546   0.736   8.736   7.537 -0.1274 -0.5574  0.1333
22862SOL     OW74547   5.086   0.168   1.726  0.4687 -0.9525  0.3532
22862SOL    HW174548   5.024   0.198   1.660  0.4991 -1.0266  0.2918
22862SOL    HW274549   5.133   0.096   1.685  0.7618 -0.7396  0.3161
22863SOL     OW74550   8.727   2.937   3.555 -0.1078  0.2193 -0.8961
22863SOL    HW174551   8.676   2.967   3.631 -0.4293 -0.2853 -0.9060
22863SOL    HW274552   8.731   3.013   3.498  1.9364  1.2758  0.5402
22864SOL     OW74553   7.857   1.964   8.982  0.4177  0.2189 -0.0533
22864SOL    HW174554   7.880   1.932   8.895 -0.1753  0.4913 -0.3169
22864SOL    HW274555   7.764   1.944   8.991  0.4031  0.4723  0.3902
22865SOL     OW74556   8.009   3.977   8.894 -0.0985  0.5706 -0.3352
22865SOL    HW174557   8.039   3.961   8.804  0.0801  0.5136 -0.2672
22865SOL    HW274558   7.982   4.069   8.894  0.2649  0.6813 -0.3502
22866SOL     OW74559   2.165   1.591   8.359  0.0731 -0.0614 -0.1611
22866SOL    HW174560   2.190   1.681   8.339 -0.7225  0.2566  0.2378
22866SOL    HW274561   2.183   1.581   8.453 -0.1937 -0.1853 -0.1201
22867SOL     OW74562   5.966   5.159   1.565 -0.8837  0.6209  0.5357
22867SOL    HW174563   5.918   5.125   1.641 -2.1323 -0.6444 -0.7582
22867SOL    HW274564   6.022   5.087   1.537 -1.1356  0.7365 -0.2989
22868SOL     OW74565   1.981   5.600   2.158  0.0274  0.1115  0.2238
22868SOL    HW174566   1.895   5.614   2.198  0.1400  0.0059  0.5067
22868SOL    HW274567   1.964   5.599   2.064  0.1672  3.4070  0.0507
22869SOL     OW74568   6.443   2.141   0.936  0.2839 -0.1755  0.4952
22869SOL    HW174569   6.469   2.214   0.878  0.3083 -1.2110 -0.8502
22869SOL    HW274570   6.489   2.159   1.018  0.2761  1.3314  0.2071
22870SOL     OW74571   2.173   4.231   0.285 -0.4360  0.5292  0.5484
22870SOL    HW174572   2.186   4.240   0.190  0.0692  0.5676  0.6197
22870SOL    HW274573   2.087   4.190   0.293 -0.6677  0.9042  0.0813
22871SOL     OW74574   8.200   7.914   7.796  0.3763  0.4278 -0.2150
22871SOL    HW174575   8.117   7.962   7.799  0.6358  0.9113 -0.6174
22871SOL    HW274576   8.208   7.875   7.883  0.8318  2.2876  0.6403
22872SOL     OW74577   9.266   1.886   7.127  0.2376 -0.4434 -0.5597
22872SOL    HW174578   9.316   1.852   7.202  0.1097  1.3961  0.4237
22872SOL    HW274579   9.182   1.911   7.164  0.2118  0.6044 -1.2783
22873SOL     OW74580   8.602   2.979   7.226 -0.1489 -0.1967  0.5721
22873SOL    HW174581   8.625   3.064   7.265 -0.6031 -0.0060  0.4302
22873SOL    HW274582   8.531   2.947   7.282 -3.0753  1.5251 -1.8481
22874SOL     OW74583   2.908   2.625   2.711  0.2986  0.1312  0.0137
22874SOL    HW174584   2.899   2.628   2.616 -0.7453  0.6247  0.1124
22874SOL    HW274585   2.926   2.716   2.736  0.9656 -0.0649  0.2508
22875SOL     OW74586   2.285   5.781   7.191 -0.3545 -0.1140  0.0533
22875SOL    HW174587   2.278   5.687   7.206 -0.8838 -0.1966 -0.7161
22875SOL    HW274588   2.364   5.806   7.240  0.6769 -1.2153 -0.9670
22876SOL     OW74589   6.347   9.175   5.905 -0.0382  0.2170  0.0057
22876SOL    HW174590   6.295   9.095   5.895  1.2430 -0.4110 -2.4660
22876SOL    HW274591   6.414   9.152   5.969 -0.5479 -0.2165  0.3889
22877SOL     OW74592   0.644   3.982   0.178 -0.2821 -0.2878 -0.3826
22877SOL    HW174593   0.585   3.911   0.207 -0.5199 -0.2809 -0.8363
22877SOL    HW274594   0.588   4.059   0.174  0.4583  0.4796  2.3382
22878SOL     OW74595   7.500   5.880   1.056  0.4678 -0.1849  0.2755
22878SOL    HW174596   7.471   5.885   0.965 -1.0646  2.2787  0.8047
22878SOL    HW274597   7.528   5.789   1.067  0.3821 -0.6484 -2.5294
22879SOL     OW74598   4.458   1.425   0.564 -0.2504  0.1890  0.1522
22879SOL    HW174599   4.516   1.440   0.489  0.1443  0.3617  0.4855
22879SOL    HW274600   4.411   1.508   0.574 -0.9561 -0.1241 -0.4474
22880SOL     OW74601   6.249   8.695   0.531  0.2254 -0.3748  0.4958
22880SOL    HW174602   6.240   8.757   0.603 -0.4871  0.2316 -0.1002
22880SOL    HW274603   6.236   8.609   0.571  1.0881 -0.1424  1.3022
22881SOL     OW74604   1.091   4.315   5.589 -0.0376  0.2681 -0.1157
22881SOL    HW174605   1.038   4.236   5.589  1.7112 -0.9750  0.3210
22881SOL    HW274606   1.178   4.285   5.564  0.6919  2.0485  0.1646
22882SOL     OW74607   6.135   0.686   7.235  0.4390 -0.4917  0.6585
22882SOL    HW174608   6.163   0.604   7.194  2.4198  1.3289 -1.9797
22882SOL    HW274609   6.198   0.701   7.305  1.1183 -0.4328  0.0455
22883SOL     OW74610   8.423   1.085   6.532 -0.3849  0.4013 -0.7879
22883SOL    HW174611   8.370   1.081   6.612 -0.6702  3.3158 -0.7320
22883SOL    HW274612   8.481   1.009   6.538 -3.1031 -1.7999  0.1410
22884SOL     OW74613   9.059   8.943   6.907 -0.5450 -0.0148  0.4564
22884SOL    HW174614   9.094   8.854   6.917  0.0443  0.3409  1.7993
22884SOL    HW274615   9.000   8.937   6.832  2.2427 -0.7075 -1.8562
22885SOL     OW74616   1.787   9.023   8.786  0.1262 -0.0436 -0.0377
22885SOL    HW174617   1.715   9.083   8.801 -0.4472  0.1849 -3.0571
22885SOL    HW274618   1.753   8.960   8.722  2.5754  0.1376 -1.6727
22886SOL     OW74619   1.333   3.454   2.265 -0.6670 -0.0291  0.1350
22886SOL    HW174620   1.376   3.422   2.186 -2.5418 -0.1767 -0.9073
22886SOL    HW274621   1.340   3.550   2.259  0.4772 -0.0811  0.5705
22887SOL     OW74622   5.744   2.642   6.932 -0.2438 -0.3535  0.1151
22887SOL    HW174623   5.699   2.634   7.017  0.7482  0.6699  0.7679
22887SOL    HW274624   5.751   2.551   6.901 -0.4601 -0.7774  1.2232
22888SOL     OW74625   8.198   2.390   1.473  0.0360 -0.9164 -0.6526
22888SOL    HW174626   8.118   2.411   1.521  0.6611  1.2796 -0.4326
22888SOL    HW274627   8.245   2.329   1.529  0.7280  1.5354  1.6641
22889SOL     OW74628   4.168   6.598   1.537 -0.0302  0.0299  0.1884
22889SOL    HW174629   4.218   6.578   1.458 -0.5715 -1.7910  0.2445
22889SOL    HW274630   4.078   6.606   1.506 -0.3759 -1.5752  0.6942
22890SOL     OW74631   5.669   1.294   8.206 -0.1414 -0.2280 -0.2380
22890SOL    HW174632   5.645   1.382   8.177  2.0405  1.0996  1.6017
22890SOL    HW274633   5.765   1.292   8.199  0.0233 -1.7109  1.6473
22891SOL     OW74634   4.640   3.508   8.933 -0.4758 -0.3978  0.1646
22891SOL    HW174635   4.627   3.603   8.928  0.2748 -0.3403 -1.6021
22891SOL    HW274636   4.554   3.473   8.958 -1.1435  0.6530 -0.5634
22892SOL     OW74637   3.496   8.983   0.075  0.1006  0.6308  0.5992
22892SOL    HW174638   3.557   8.927   0.027  0.9674  0.7443  1.5177
22892SOL    HW274639   3.422   8.926   0.096  0.3461  0.2106  0.3394
22893SOL     OW74640   8.311   8.428   0.825 -0.2928 -0.1077  0.4099
22893SOL    HW174641   8.406   8.425   0.811 -0.5239  0.5104 -1.6595
22893SOL    HW274642   8.290   8.521   0.823 -0.8541 -0.1899  1.7666
22894SOL     OW74643   2.787   7.368   7.166 -0.6191  0.3231 -0.7078
22894SOL    HW174644   2.743   7.285   7.145 -0.5738  0.7213 -2.5444
22894SOL    HW274645   2.841   7.386   7.090  0.7403  1.1797  0.4221
22895SOL     OW74646   7.573   8.371   8.081 -0.1450  0.0961 -0.9339
22895SOL    HW174647   7.486   8.358   8.119  0.6339  0.4919  1.0658
22895SOL    HW274648   7.601   8.283   8.054 -1.4698  0.0790 -2.3706
22896SOL     OW74649   7.051   4.266   9.034  0.1859 -0.2231  0.2846
22896SOL    HW174650   6.959   4.272   9.060  0.4939  0.0794  1.3712
22896SOL    HW274651   7.100   4.293   9.112  1.2943 -3.1189  0.7376
22897SOL     OW74652   5.412   0.853   7.966 -0.0627  0.7308  0.4796
22897SOL    HW174653   5.326   0.814   7.980 -0.5112  1.2814 -0.6438
22897SOL    HW274654   5.454   0.798   7.900 -0.6178  1.9687 -0.9582
22898SOL     OW74655   0.018   8.793   1.762 -0.0068 -0.3246 -0.5361
22898SOL    HW174656  -0.044   8.865   1.750 -0.8710 -0.6151  1.6753
22898SOL    HW274657  -0.030   8.715   1.735 -0.5830 -0.5194  0.9443
22899SOL     OW74658   7.895   4.710   0.521  0.0100 -0.2199 -0.3288
22899SOL    HW174659   7.882   4.771   0.449  0.2790  1.0182  0.6284
22899SOL    HW274660   7.980   4.670   0.504 -0.0804 -0.1939 -0.8626
22900SOL     OW74661   0.362   1.284   1.123 -0.3407 -0.1005  0.0486
22900SOL    HW174662   0.315   1.367   1.120 -0.2234 -0.0364  0.0039
22900SOL    HW274663   0.335   1.239   1.043 -0.7254 -0.2797  0.2745
22901SOL     OW74664   0.793   1.691   8.286 -0.4228  0.3824  0.2974
22901SOL    HW174665   0.858   1.761   8.297  0.6899 -0.6366  0.3535
22901SOL    HW274666   0.816   1.650   8.203  0.4368 -1.4094  1.3564
22902SOL     OW74667   9.278   3.829   5.584  0.0068 -0.0383  0.1724
22902SOL    HW174668   9.216   3.874   5.642 -1.0870 -0.3320 -0.7485
22902SOL    HW274669   9.304   3.751   5.633 -1.4121 -0.6233  0.0315
22903SOL     OW74670   2.871   9.343   0.003  0.2409 -0.3416 -0.3238
22903SOL    HW174671   2.863   9.434  -0.026  0.9577  0.9329  3.0330
22903SOL    HW274672   2.848   9.345   0.096 -0.4602 -3.7788 -0.2876
22904SOL     OW74673   6.351   1.311   1.939  0.2660 -0.2210 -0.1824
22904SOL    HW174674   6.329   1.254   1.866  0.6071 -0.5217 -0.0536
22904SOL    HW274675   6.343   1.256   2.017 -0.4922  0.2060  0.0509
22905SOL     OW74676   3.574   6.283   8.040 -0.1396  0.5231 -0.3441
22905SOL    HW174677   3.576   6.375   8.012 -2.0841  0.2912 -1.3695
22905SOL    HW274678   3.661   6.269   8.080  1.3464  1.9621 -2.8037
22906SOL     OW74679   8.934   4.602   3.031  0.3252  0.0194 -0.0302
22906SOL    HW174680   8.971   4.565   2.951  0.9867  0.3640  0.1114
22906SOL    HW274681   8.841   4.583   3.025  0.0767  1.5550 -1.7155
22907SOL     OW74682   5.763   3.016   5.222 -0.0638  0.6004 -0.2683
22907SOL    HW174683   5.773   2.960   5.145  0.2998  1.0632 -0.5658
22907SOL    HW274684   5.738   3.101   5.187  0.7666  0.9941  0.0658
22908SOL     OW74685   2.259   6.853   3.237 -0.7712  0.1811  0.4257
22908SOL    HW174686   2.178   6.823   3.279 -0.1361  0.3378  1.8163
22908SOL    HW274687   2.324   6.787   3.260  0.2006  1.6053  1.9250
22909SOL     OW74688   3.902   7.724   1.154 -0.3678  0.1942  0.7339
22909SOL    HW174689   3.907   7.736   1.059  1.2362 -0.0256  0.7645
22909SOL    HW274690   3.853   7.801   1.185 -2.0861 -0.3896 -0.3506
22910SOL     OW74691   7.068   8.959   8.987  0.4520 -0.6404 -0.3179
22910SOL    HW174692   7.105   8.876   8.956  0.8420 -1.3987  1.9863
22910SOL    HW274693   7.143   9.017   8.995  0.7500 -1.2358  1.5032
22911SOL     OW74694   4.697   7.771   0.743  0.1486  0.6169 -0.8125
22911SOL    HW174695   4.757   7.795   0.673  1.6430 -0.4850  0.0261
22911SOL    HW274696   4.706   7.840   0.808  0.3652  0.5564 -0.7777
22912SOL     OW74697   4.548   2.439   7.259 -0.5308  0.3541 -0.5507
22912SOL    HW174698   4.573   2.348   7.274 -0.0053  0.7300  0.9111
22912SOL    HW274699   4.606   2.491   7.314 -2.7207  1.4019  0.9312
22913SOL     OW74700   7.228   0.825   8.357 -0.2602 -0.0484  0.2616
22913SOL    HW174701   7.190   0.755   8.410 -1.3176  0.3592  0.0780
22913SOL    HW274702   7.234   0.787   8.269 -1.1667  0.1794  0.0838
22914SOL     OW74703   1.297   1.806   2.728  0.2567 -0.3630  0.0339
22914SOL    HW174704   1.212   1.781   2.763  0.5039 -1.7256 -0.2932
22914SOL    HW274705   1.329   1.875   2.787 -0.2294 -1.1666  1.2576
22915SOL     OW74706   5.719   0.918   9.213  0.0026  0.2935  0.3034
22915SOL    HW174707   5.802   0.874   9.236  1.7623  2.5971 -1.2045
22915SOL    HW274708   5.683   0.945   9.297  0.3675 -1.3550  1.0501
22916SOL     OW74709   8.900   7.954   4.354  0.1941 -0.0028  0.0198
22916SOL    HW174710   8.835   7.884   4.345 -1.4488  1.1665  1.7189
22916SOL    HW274711   8.945   7.957   4.270 -1.7289 -1.1306 -1.1322
22917SOL     OW74712   0.138   3.230   2.684 -0.2101 -0.4629  0.5823
22917SOL    HW174713   0.214   3.207   2.738  1.5042  1.6148 -0.7879
22917SOL    HW274714   0.153   3.183   2.602 -0.0319  0.4768  0.0693
22918SOL     OW74715   1.145   2.666   6.151 -0.7522 -0.2879 -0.0614
22918SOL    HW174716   1.184   2.579   6.147 -0.5523 -0.1775 -0.6430
22918SOL    HW274717   1.087   2.670   6.075  0.5274  0.6714 -1.0579
22919SOL     OW74718   6.333   7.709   1.900  0.1926 -0.3459  0.2424
22919SOL    HW174719   6.327   7.772   1.972  0.5076 -0.5183  0.4175
22919SOL    HW274720   6.426   7.701   1.882  0.1577 -0.8536  0.2948
22920SOL     OW74721   0.870   2.088   4.250 -0.4781 -0.3966 -0.0408
22920SOL    HW174722   0.802   2.044   4.199 -0.8887  0.2362 -0.0565
22920SOL    HW274723   0.822   2.136   4.317  0.0319 -0.8264  0.6402
22921SOL     OW74724   3.919   8.201   3.157 -0.3597  0.6814 -0.4779
22921SOL    HW174725   3.977   8.158   3.094  0.1445  0.5559  0.0591
22921SOL    HW274726   3.977   8.228   3.228 -1.0709 -0.2121  0.4734
22922SOL     OW74727   5.404   2.696   8.149 -0.8368  0.4694 -0.7715
22922SOL    HW174728   5.369   2.725   8.233  0.7076 -0.9522  0.4221
22922SOL    HW274729   5.344   2.628   8.120 -0.5738 -0.0807 -0.0561
22923SOL     OW74730   5.690   2.824   2.283  0.5557  0.1388  0.2590
22923SOL    HW174731   5.655   2.829   2.372 -1.4325  0.9972 -0.4985
22923SOL    HW274732   5.613   2.807   2.228  1.4764  1.1203 -1.4420
22924SOL     OW74733   5.650   0.210   2.913  0.6793  0.0598  0.1033
22924SOL    HW174734   5.637   0.276   2.845  1.8056  0.1865 -0.0164
22924SOL    HW274735   5.608   0.132   2.879 -1.1108  0.8266  0.4655
22925SOL     OW74736   2.284   6.092   8.213  0.3218 -0.0476 -0.1516
22925SOL    HW174737   2.304   6.097   8.119  0.4080  0.8747 -0.0934
22925SOL    HW274738   2.190   6.112   8.218  0.8297  2.5971  0.1603
22926SOL     OW74739   6.344   4.084   1.399  0.2918  0.2190  0.2629
22926SOL    HW174740   6.398   4.041   1.464  0.1413  0.3643  0.4857
22926SOL    HW274741   6.259   4.097   1.442  0.7298  1.9656  0.7088
22927SOL     OW74742   8.665   6.175   1.629 -0.1993 -0.1740  0.2998
22927SOL    HW174743   8.627   6.133   1.707 -2.0498 -1.2311 -1.0811
22927SOL    HW274744   8.589   6.213   1.584  0.8673  0.6058 -0.9034
22928SOL     OW74745   5.290   8.502   2.276 -0.0571 -0.1307  0.0640
22928SOL    HW174746   5.278   8.512   2.371  0.8516 -1.1414  0.3080
22928SOL    HW274747   5.365   8.443   2.268  0.3240  0.5114 -1.3017
22929SOL     OW74748   3.733   5.671   7.509  0.5453  0.2782 -0.0347
22929SOL    HW174749   3.693   5.690   7.424 -1.1966 -0.2828  0.6081
22929SOL    HW274750   3.690   5.731   7.570 -0.1579 -1.0742  0.8684
22930SOL     OW74751   7.864   4.023   2.886 -0.5915 -0.6444 -0.0465
22930SOL    HW174752   7.797   4.070   2.936  1.8726  2.7650  0.4315
22930SOL    HW274753   7.835   4.031   2.795 -1.0543  0.4551  0.1777
22931SOL     OW74754   8.702   3.901   8.462 -0.3559 -0.1993  0.2841
22931SOL    HW174755   8.763   3.925   8.393 -0.8902 -0.1786 -0.1836
22931SOL    HW274756   8.745   3.930   8.543  0.9292 -1.4886  0.1143
22932SOL     OW74757   7.215   9.136   9.120 -0.1313 -0.3355  0.1337
22932SOL    HW174758   7.198   9.111   9.211 -1.0684  0.6077  0.2371
22932SOL    HW274759   7.149   9.202   9.101  0.9234  0.4930 -0.7956
22933SOL     OW74760   9.028   3.719   0.885 -0.1670 -0.5774  0.6054
22933SOL    HW174761   8.964   3.706   0.955 -0.9967 -0.2952 -0.0812
22933SOL    HW274762   9.112   3.698   0.926 -0.7126 -1.2114  1.4544
22934SOL     OW74763   3.284   2.746   0.834 -0.0399  0.5859 -0.6598
22934SOL    HW174764   3.220   2.674   0.829 -0.5628  0.9697  0.2997
22934SOL    HW274765   3.296   2.773   0.743 -0.9456  0.2390 -0.8950
22935SOL     OW74766   1.348   9.088   7.168 -0.1811 -1.0425  0.0914
22935SOL    HW174767   1.369   9.180   7.152 -0.2084 -1.2880 -1.4443
22935SOL    HW274768   1.253   9.086   7.175 -0.1273 -0.8324  1.0797
22936SOL     OW74769   1.008   4.678   1.286  0.2204 -0.0716  0.2019
22936SOL    HW174770   0.985   4.637   1.203  1.5178 -0.5412  0.0526
22936SOL    HW274771   0.924   4.707   1.322 -0.3968 -0.1074 -1.1267
22937SOL     OW74772   7.696   6.056   4.553  0.8472  0.5526  0.2896
22937SOL    HW174773   7.708   6.114   4.477 -1.4114  1.5100  0.5660
22937SOL    HW274774   7.777   6.006   4.558  2.2047  2.4672 -1.0307
22938SOL     OW74775   2.385   4.445   8.314  0.2967  0.2437  0.4239
22938SOL    HW174776   2.381   4.351   8.302 -0.3238  0.3177 -0.0190
22938SOL    HW274777   2.370   4.459   8.408  0.3648 -0.0884  0.4827
22939SOL     OW74778   1.989   1.947   8.093  0.2822 -0.0962  0.5057
22939SOL    HW174779   1.952   1.925   8.179 -0.3058 -0.1294  0.2483
22939SOL    HW274780   1.939   2.024   8.064 -0.3852 -0.8291 -0.3522
22940SOL     OW74781   3.583   3.904   0.268  0.2403  0.1743  0.0171
22940SOL    HW174782   3.546   3.926   0.354  0.2323  0.0129  0.0561
22940SOL    HW274783   3.547   3.817   0.249 -1.3449  1.0087 -1.0328
22941SOL     OW74784   8.287   8.088   4.374  0.5002 -0.5861 -0.9869
22941SOL    HW174785   8.252   8.004   4.347 -0.7907  0.2309 -1.9703
22941SOL    HW274786   8.382   8.080   4.361  0.8202 -2.8822  1.8547
22942SOL     OW74787   3.021   8.181   6.602 -0.3229  0.1257  0.1599
22942SOL    HW174788   2.989   8.154   6.689  1.1144 -0.7417  0.4630
22942SOL    HW274789   2.987   8.114   6.543 -1.5145  0.8546 -0.0121
22943SOL     OW74790   0.384   2.945   6.172 -0.1422 -0.6308 -0.0961
22943SOL    HW174791   0.391   3.038   6.149  1.2566 -1.3897 -3.3003
22943SOL    HW274792   0.311   2.912   6.120  1.8040 -2.0417 -2.0921
22944SOL     OW74793   1.980   5.015   7.388 -0.6375  0.1120  0.5677
22944SOL    HW174794   1.908   4.998   7.449 -0.7033 -0.2128  0.4030
22944SOL    HW274795   1.945   4.991   7.302 -0.8176  1.3162  0.2784
22945SOL     OW74796   6.108   6.496   8.143 -0.4100  0.3705 -0.3709
22945SOL    HW174797   6.203   6.491   8.145 -0.1988  3.2015  0.9850
22945SOL    HW274798   6.080   6.469   8.230 -0.5897  2.3233  0.2112
22946SOL     OW74799   3.910   3.719   0.330  0.3371  0.1136 -0.3202
22946SOL    HW174800   3.859   3.787   0.287  1.3447  0.6117 -0.7710
22946SOL    HW274801   3.846   3.652   0.354 -0.7293  1.3351  0.3979
22947SOL     OW74802   7.277   9.009   7.325 -0.3666  0.0897  0.8353
22947SOL    HW174803   7.271   8.927   7.375 -1.7042 -0.2500  0.1516
22947SOL    HW274804   7.246   9.076   7.385 -0.4159 -0.0785  0.9986
22948SOL     OW74805   2.717   9.016   5.971 -0.2239  0.0386  0.0267
22948SOL    HW174806   2.740   9.002   6.063  0.6199 -0.0183 -0.1889
22948SOL    HW274807   2.776   8.959   5.923  0.2803  1.0934 -0.6307
22949SOL     OW74808   1.060   6.180   5.173 -0.0239  0.5935 -0.2006
22949SOL    HW174809   1.075   6.241   5.245  1.1175 -0.8670  0.8603
22949SOL    HW274810   1.118   6.106   5.192  1.5513  0.8401 -3.4779
22950SOL     OW74811   6.332   4.584   4.061  0.3446  0.5144  0.0689
22950SOL    HW174812   6.305   4.581   3.970  2.0544  1.4494 -0.5142
22950SOL    HW274813   6.407   4.525   4.066  0.1460  0.3135  0.9246
22951SOL     OW74814   3.881   8.073   0.516 -0.3392 -0.3965  0.0501
22951SOL    HW174815   3.812   8.019   0.477  0.8463 -2.0208  0.1032
22951SOL    HW274816   3.944   8.010   0.553  2.0500  0.9275 -1.4744
22952SOL     OW74817   8.377   0.199   0.973 -0.2408 -0.3794  0.4134
22952SOL    HW174818   8.412   0.238   0.893  0.3669  0.2969  0.9808
22952SOL    HW274819   8.367   0.106   0.953  2.5505 -0.7617  0.3778
22953SOL     OW74820   0.737   0.445   0.976  0.1445  0.2952 -0.5976
22953SOL    HW174821   0.778   0.398   1.049  1.1878 -0.4421 -1.6236
22953SOL    HW274822   0.649   0.464   1.007  1.0925  1.5958  1.5475
22954SOL     OW74823   3.822   0.967   6.611 -0.7352 -0.1940 -0.3670
22954SOL    HW174824   3.869   0.891   6.579 -1.1518 -1.6077  2.0914
22954SOL    HW274825   3.830   1.032   6.542 -0.4947 -2.5010 -2.6395
22955SOL     OW74826   2.258   3.517   6.397  0.3235 -0.4925  0.3535
22955SOL    HW174827   2.252   3.613   6.395 -1.0018 -0.4577  2.7074
22955SOL    HW274828   2.180   3.487   6.351 -0.8853 -0.3511  2.2073
22956SOL     OW74829   1.029   8.397   1.920 -0.9108 -0.1727 -0.4313
22956SOL    HW174830   1.053   8.326   1.861 -0.9805 -0.2672 -0.3460
22956SOL    HW274831   0.939   8.377   1.947 -0.1019 -1.4626  1.6240
22957SOL     OW74832   5.232   4.011   5.291  0.3933  0.1331 -0.1785
22957SOL    HW174833   5.184   3.947   5.238  0.9015 -0.1322 -0.3326
22957SOL    HW274834   5.250   4.083   5.231  1.3718 -0.3694 -0.5126
22958SOL     OW74835   7.699   4.029   2.639  0.1845  0.1282  0.2488
22958SOL    HW174836   7.707   3.945   2.593  0.6419 -0.8363  1.9943
22958SOL    HW274837   7.729   4.094   2.576  0.1639 -1.0520 -1.0299
22959SOL     OW74838   5.443   7.604   1.740  0.4279 -0.7282  0.2018
22959SOL    HW174839   5.376   7.540   1.719  1.2348 -1.3710 -0.4670
22959SOL    HW274840   5.487   7.621   1.657  0.2609  0.6800  0.3626
22960SOL     OW74841   3.481   4.161   8.705  0.1795 -0.6093 -0.2381
22960SOL    HW174842   3.494   4.212   8.785 -0.3605  1.2654 -1.2734
22960SOL    HW274843   3.386   4.148   8.701  0.1623 -0.3647 -0.7397
22961SOL     OW74844   2.902   5.593   3.440 -0.2280  0.1545 -0.1304
22961SOL    HW174845   2.920   5.656   3.510 -0.9195  1.0791 -0.7576
22961SOL    HW274846   2.810   5.569   3.453 -0.9527  1.7737 -1.7784
22962SOL     OW74847   2.478   1.995   4.395  0.4536 -0.1376 -0.3021
22962SOL    HW174848   2.475   1.908   4.355  0.1141 -0.1562 -0.2342
22962SOL    HW274849   2.570   2.007   4.418  0.4967 -0.4946 -0.2800
22963SOL     OW74850   3.068   1.215   8.988 -0.4586 -0.3283 -0.3142
22963SOL    HW174851   3.014   1.255   8.920 -1.6737  1.6037  1.6592
22963SOL    HW274852   3.027   1.130   9.006 -0.8818 -0.2904 -1.0850
22964SOL     OW74853   1.166   1.505   5.664  0.4370 -0.4470  0.3709
22964SOL    HW174854   1.156   1.572   5.732  1.2258 -0.9464  0.9942
22964SOL    HW274855   1.211   1.550   5.593 -0.6016  0.1423  0.0551
22965SOL     OW74856   9.184   2.417   8.579 -0.2731  0.4103 -0.1139
22965SOL    HW174857   9.187   2.474   8.656  0.6854  0.2400 -0.0178
22965SOL    HW274858   9.151   2.333   8.611 -2.6558  1.1526 -0.4334
22966SOL     OW74859   2.840   7.204   7.952 -0.3669 -0.4566  0.3157
22966SOL    HW174860   2.798   7.142   8.012 -0.7074 -0.1669  0.3821
22966SOL    HW274861   2.768   7.260   7.922  0.1002  0.5679  1.0551
22967SOL     OW74862   6.854   5.218   1.705 -0.1499 -0.5940  0.1111
22967SOL    HW174863   6.848   5.195   1.612 -2.4958  4.0517 -1.2013
22967SOL    HW274864   6.763   5.219   1.735  0.3124  0.8433  1.5844
22968SOL     OW74865   2.320   1.066   2.632 -0.4893 -0.1195  0.1964
22968SOL    HW174866   2.377   0.992   2.614  0.5023  0.5423  0.5122
22968SOL    HW274867   2.345   1.132   2.567 -1.0195  0.1098  0.2200
22969SOL     OW74868   7.687   1.238   3.809 -0.1036  0.1317  0.1558
22969SOL    HW174869   7.610   1.288   3.783  0.0771  0.6049  0.5113
22969SOL    HW274870   7.687   1.242   3.905  0.1609 -0.1785  0.1728
22970SOL     OW74871   8.046   8.056   3.481 -0.2873  0.3020  0.5121
22970SOL    HW174872   8.018   8.096   3.399 -0.5195 -0.2061  0.3330
22970SOL    HW274873   8.130   8.096   3.501 -0.9233  1.5171  0.8089
22971SOL     OW74874   0.119   2.740   4.687 -0.0057  0.7059 -0.2791
22971SOL    HW174875   0.040   2.793   4.678 -1.2987 -1.3986 -2.6517
22971SOL    HW274876   0.088   2.653   4.712  1.8155  0.4062  1.1628
22972SOL     OW74877   4.743   2.438   8.432  1.1567 -0.0124 -0.0760
22972SOL    HW174878   4.748   2.344   8.452 -1.5494 -0.0819  0.6922
22972SOL    HW274879   4.747   2.443   8.337  3.9087 -0.6031 -0.0810
22973SOL     OW74880   9.242   8.725   6.927 -0.3984  0.1895  0.2857
22973SOL    HW174881   9.294   8.669   6.869 -1.2494 -0.7741  0.4255
22973SOL    HW274882   9.195   8.664   6.984  0.0291  1.0952  1.6698
22974SOL     OW74883   5.159   6.157   5.277 -0.3192  0.4370  0.8092
22974SOL    HW174884   5.090   6.093   5.293  0.8143 -0.9601  0.3180
22974SOL    HW274885   5.232   6.105   5.242  0.9254  1.8847  1.1716
22975SOL     OW74886   6.180   5.394   4.606 -0.5474 -0.5220  0.1409
22975SOL    HW174887   6.101   5.426   4.649 -1.6543 -1.9388 -0.7333
22975SOL    HW274888   6.226   5.344   4.673 -0.4713  0.1885  0.6180
22976SOL     OW74889   6.221   4.963   1.755  0.1852  0.2450  0.3588
22976SOL    HW174890   6.206   5.052   1.724  0.5547  0.4261  0.6950
22976SOL    HW274891   6.195   4.907   1.681 -0.3988  0.6124  0.2814
22977SOL     OW74892   4.783   8.419   7.964 -0.1154 -0.0464  0.0709
22977SOL    HW174893   4.722   8.492   7.977 -0.7990 -0.3385 -1.2929
22977SOL    HW274894   4.818   8.402   8.051 -1.8565  0.2412  0.8885
22978SOL     OW74895   0.103   8.124   8.840 -0.5688  0.0514 -0.6934
22978SOL    HW174896   0.100   8.175   8.921  0.9997 -0.5677 -0.2186
22978SOL    HW274897   0.144   8.182   8.776  1.6776 -0.6967 -0.0251
22979SOL     OW74898   8.743   2.361   1.089 -0.1582  0.5763  0.4198
22979SOL    HW174899   8.689   2.429   1.049 -0.1509 -0.0452 -0.6727
22979SOL    HW274900   8.701   2.279   1.063  1.0550  0.0970 -0.0791
22980SOL     OW74901   7.570   1.528   3.053  0.3735 -0.5638 -0.3905
22980SOL    HW174902   7.516   1.460   3.095 -2.5259 -0.3123 -3.3400
22980SOL    HW274903   7.558   1.605   3.109  1.3971 -1.6342  1.4239
22981SOL     OW74904   2.276   3.624   2.679 -0.0403  0.2426  0.1133
22981SOL    HW174905   2.294   3.710   2.718 -2.2515  0.7965  0.0652
22981SOL    HW274906   2.189   3.633   2.640  1.1693 -0.9329 -3.1916
22982SOL     OW74907   9.279   6.915   0.814 -0.2103  0.1143  0.0075
22982SOL    HW174908   9.263   6.985   0.751  0.2762  0.6305  0.4492
22982SOL    HW274909   9.192   6.891   0.847 -0.4415  0.0199 -0.6610
22983SOL     OW74910   0.134   8.159   4.119 -0.6188 -0.2448  0.0124
22983SOL    HW174911   0.221   8.177   4.155 -0.5826  0.5393 -0.4465
22983SOL    HW274912   0.139   8.068   4.090 -0.5467 -0.7804  1.6433
22984SOL     OW74913   0.270   0.621   0.670 -0.3189 -0.4759  0.5607
22984SOL    HW174914   0.362   0.606   0.648 -0.6652  0.4405 -1.8368
22984SOL    HW274915   0.232   0.533   0.675 -0.0824 -0.8406 -2.4013
22985SOL     OW74916   2.549   9.178   1.117  0.0557 -0.1386  0.1162
22985SOL    HW174917   2.520   9.102   1.067  0.5525 -0.5635  0.4508
22985SOL    HW274918   2.551   9.250   1.054 -1.9166 -0.0236  0.1258
22986SOL     OW74919   2.608   8.225   6.788  0.3950  0.5156  0.1738
22986SOL    HW174920   2.606   8.227   6.884 -0.4895  0.4932  0.1698
22986SOL    HW274921   2.691   8.267   6.764  0.1374  1.5030  0.9342
22987SOL     OW74922   2.018   9.094   1.836 -0.0065  0.3702  0.3811
22987SOL    HW174923   2.003   9.060   1.748 -0.3970 -1.9068  1.2804
22987SOL    HW274924   2.090   9.157   1.825  0.1471 -0.0709 -1.4951
22988SOL     OW74925   2.550   7.161   7.489  0.1088  0.3246 -0.0366
22988SOL    HW174926   2.463   7.200   7.505 -1.0232 -2.4491  1.2481
22988SOL    HW274927   2.548   7.136   7.396 -0.7004 -0.1407  0.0916
22989SOL     OW74928   7.012   9.256   7.045 -0.1598 -0.0873  0.2102
22989SOL    HW174929   7.007   9.163   7.021  2.1607 -0.2722  0.1572
22989SOL    HW274930   7.089   9.288   6.998 -1.5647  2.2144 -0.7095
22990SOL     OW74931   1.814   3.054   2.293 -0.0435  0.7453 -0.5712
22990SOL    HW174932   1.784   3.144   2.307 -0.9659  0.5588 -1.2649
22990SOL    HW274933   1.867   3.059   2.213  0.6740  0.8231 -0.1041
22991SOL     OW74934   4.781   6.662   0.265  0.6610  0.0932  0.2266
22991SOL    HW174935   4.840   6.666   0.340  0.0435  0.2070  0.7113
22991SOL    HW274936   4.815   6.728   0.204  0.8856  0.3356  0.6126
22992SOL     OW74937   8.297   5.381   1.457  0.2381 -0.4907 -0.6409
22992SOL    HW174938   8.268   5.457   1.407  0.1008  0.0740  0.2797
22992SOL    HW274939   8.363   5.415   1.516 -1.3244 -0.6195  1.2775
22993SOL     OW74940   7.103   1.902   0.940 -0.1154 -0.2282  0.6980
22993SOL    HW174941   7.164   1.857   0.998  1.8084  0.3594 -0.7466
22993SOL    HW274942   7.025   1.847   0.938  0.6188 -1.3641  2.0943
22994SOL     OW74943   3.441   9.366   4.087  0.6285 -0.5074  0.5682
22994SOL    HW174944   3.386   9.381   4.164  1.6800 -2.2791  1.7437
22994SOL    HW274945   3.416   9.435   4.025 -1.7046 -0.2721  1.6867
22995SOL     OW74946   7.239   7.375   5.858 -0.4905 -0.0785  1.0574
22995SOL    HW174947   7.172   7.363   5.792  1.8479  1.1926 -1.7426
22995SOL    HW274948   7.315   7.326   5.826  0.8708  0.8766  2.6056
22996SOL     OW74949   7.441   6.296   4.234  0.3365 -0.1823  0.6729
22996SOL    HW174950   7.501   6.272   4.163 -0.1362  1.3626 -0.2959
22996SOL    HW274951   7.465   6.385   4.257 -0.4947 -0.1428  1.4335
22997SOL     OW74952   7.913   1.919   7.893 -0.2331  0.3150 -0.2116
22997SOL    HW174953   7.904   1.897   7.800 -1.8016 -0.0904  0.0016
22997SOL    HW274954   7.905   1.835   7.939 -1.3077  0.7064  0.3613
22998SOL     OW74955   8.139   3.295   8.242 -0.3219 -0.1202  0.3368
22998SOL    HW174956   8.073   3.348   8.198 -0.5223 -0.4699  0.2121
22998SOL    HW274957   8.094   3.213   8.263 -0.0513 -0.1932  0.6383
22999SOL     OW74958   0.534   0.641   5.374 -0.3405 -0.3381  0.0068
22999SOL    HW174959   0.482   0.562   5.385  0.2674 -1.1868 -2.4680
22999SOL    HW274960   0.473   0.705   5.338 -0.9317  0.5211  2.3972
23000SOL     OW74961   6.587   6.636   4.179 -0.0020  0.6434  0.5129
23000SOL    HW174962   6.605   6.557   4.230 -0.2874  0.2201 -0.0244
23000SOL    HW274963   6.556   6.603   4.094 -1.0000  1.3281  0.5893
23001SOL     OW74964   6.540   5.064   6.618 -0.3195 -0.2548 -0.0006
23001SOL    HW174965   6.526   5.061   6.523  0.5518 -0.4319 -0.1354
23001SOL    HW274966   6.564   4.974   6.641  0.7600  0.0604  0.1660
23002SOL     OW74967   3.706   7.523   5.776  0.1686  0.8895  0.2667
23002SOL    HW174968   3.632   7.483   5.823 -0.4834  0.6444 -0.9139
23002SOL    HW274969   3.664   7.575   5.707  1.1147  0.4299 -0.6711
23003SOL     OW74970   8.882   0.049   8.797 -0.5035  0.1062  0.1922
23003SOL    HW174971   8.966   0.014   8.768 -0.1911  1.1410 -0.2234
23003SOL    HW274972   8.886   0.142   8.772 -1.7574  0.1710  0.2002
23004SOL     OW74973   6.414   7.995   8.751  0.3710  0.4893  0.0752
23004SOL    HW174974   6.320   8.015   8.758  0.2714  1.6993 -3.1088
23004SOL    HW274975   6.419   7.901   8.765 -1.1228  0.5628  1.4816
23005SOL     OW74976   5.505   0.567   7.302  0.3297 -0.4454  0.3354
23005SOL    HW174977   5.584   0.553   7.251 -0.0526 -0.8787 -0.1444
23005SOL    HW274978   5.506   0.497   7.368 -0.5741 -1.5980 -0.8235
23006SOL     OW74979   3.603   9.104   7.663  0.0810  0.3281 -0.6709
23006SOL    HW174980   3.634   9.033   7.719  0.4491  1.6310  0.8465
23006SOL    HW274981   3.677   9.165   7.660 -1.0446  1.7859  0.0572
23007SOL     OW74982   1.805   4.348   5.554 -0.4455  0.8572  0.2713
23007SOL    HW174983   1.844   4.409   5.492  1.3236 -0.4041  0.0766
23007SOL    HW274984   1.878   4.296   5.587 -1.9195 -1.6874 -0.1560
23008SOL     OW74985   3.537   4.682   6.095  0.0714  0.4139  0.3444
23008SOL    HW174986   3.505   4.770   6.073  0.1868  0.3474 -0.1132
23008SOL    HW274987   3.513   4.670   6.186 -1.3508  0.3091 -0.0190
23009SOL     OW74988   0.006   7.976   1.907  0.7223  0.1172  0.2639
23009SOL    HW174989  -0.032   8.063   1.902 -1.4576 -0.7415  0.8616
23009SOL    HW274990  -0.020   7.934   1.825 -0.5927 -0.8332  1.1391
23010SOL     OW74991   2.268   2.381   1.998 -0.4294 -0.1718 -0.2033
23010SOL    HW174992   2.334   2.319   1.968  0.3334 -0.7927  2.4758
23010SOL    HW274993   2.318   2.454   2.034 -1.2313  0.1706  0.2392
23011SOL     OW74994   4.581   7.230   8.484  0.1851  0.3863 -0.0251
23011SOL    HW174995   4.671   7.248   8.456  0.1650  1.9933  0.8127
23011SOL    HW274996   4.582   7.138   8.510  1.2321  0.0061 -1.2919
23012SOL     OW74997   2.704   4.824   6.548 -0.3914  0.1021 -0.0893
23012SOL    HW174998   2.748   4.852   6.468 -0.1987  0.9685  0.3146
23012SOL    HW274999   2.742   4.738   6.567 -2.0154 -1.1482 -2.1223
23013SOL     OW75000   0.204   1.776   5.789  0.3032 -0.0280 -0.4644
23013SOL    HW175001   0.273   1.719   5.824  0.8051 -0.0451 -1.4432
23013SOL    HW275002   0.133   1.716   5.765 -1.2378  0.1895  3.0077
23014SOL     OW75003   5.584   0.475   1.036  0.1857  0.6462  0.0754
23014SOL    HW175004   5.508   0.467   0.978  0.2822  0.8921 -0.0860
23014SOL    HW275005   5.658   0.492   0.977  0.0918  2.1625  0.3456
23015SOL     OW75006   8.953   1.041   0.777 -0.6655 -0.3163 -0.1536
23015SOL    HW175007   8.933   1.133   0.761  0.1340  0.2454  1.7914
23015SOL    HW275008   9.007   1.015   0.702  0.2423  1.1849 -0.0616
23016SOL     OW75009   0.522   6.318   0.131 -0.4613 -0.1585 -0.0501
23016SOL    HW175010   0.464   6.391   0.107 -1.5052 -0.7632  0.5703
23016SOL    HW275011   0.548   6.337   0.221 -0.1400 -0.1827 -0.1356
23017SOL     OW75012   6.646   4.889   4.886 -0.0376  0.1296 -0.3175
23017SOL    HW175013   6.671   4.877   4.978  0.6010  0.5363 -0.4257
23017SOL    HW275014   6.634   4.984   4.876  1.1804  0.2438 -0.9492
23018SOL     OW75015   1.200   4.841   0.057 -0.3502 -0.1773  0.2178
23018SOL    HW175016   1.165   4.752   0.068  0.9756 -0.7656 -0.1726
23018SOL    HW275017   1.285   4.839   0.100  1.0407  0.0139 -2.3392
23019SOL     OW75018   3.685   2.817   1.020  0.2526 -0.3330  0.3114
23019SOL    HW175019   3.645   2.842   0.937  1.5631 -2.3225 -1.0014
23019SOL    HW275020   3.758   2.877   1.031 -0.2799  0.3183  0.3582
23020SOL     OW75021   8.053   2.984   3.802  0.1325 -0.2153 -0.7399
23020SOL    HW175022   8.019   3.072   3.790 -0.1772  0.1732  2.2388
23020SOL    HW275023   7.987   2.927   3.763 -0.6986  0.8130 -0.8693
23021SOL     OW75024   7.384   2.894   6.220  0.1106  0.4670 -0.1299
23021SOL    HW175025   7.345   2.892   6.132  0.3692 -0.8858 -0.2348
23021SOL    HW275026   7.441   2.971   6.219  0.1344  0.4528 -1.1493
23022SOL     OW75027   3.638   7.343   8.522 -0.0664  0.4004 -0.3401
23022SOL    HW175028   3.669   7.383   8.603  2.5024  0.3226 -1.1977
23022SOL    HW275029   3.612   7.255   8.548  1.1504  0.2179  0.3578
23023SOL     OW75030   2.457   5.571   8.125 -0.0355 -0.1108  0.0894
23023SOL    HW175031   2.374   5.592   8.082 -0.7926 -0.4578  1.3224
23023SOL    HW275032   2.478   5.648   8.177  0.5161  0.0410 -0.3451
23024SOL     OW75033   0.745   5.125   2.803 -0.4240 -0.0958  0.6649
23024SOL    HW175034   0.750   5.198   2.865 -1.5701  0.0723  0.5804
23024SOL    HW275035   0.729   5.167   2.718 -0.1833 -0.4059  0.4642
23025SOL     OW75036   5.816   1.012   1.399  0.4821  0.4139  0.3013
23025SOL    HW175037   5.756   1.010   1.474  2.0672  0.7526  1.6454
23025SOL    HW275038   5.845   0.921   1.390 -1.2297 -0.0542 -1.2826
23026SOL     OW75039   4.052   8.063   4.078  0.0465  0.1650  0.2967
23026SOL    HW175040   3.961   8.059   4.049  0.3467 -0.4713 -0.6394
23026SOL    HW275041   4.049   8.048   4.172 -0.8881  1.1345  0.4310
23027SOL     OW75042   1.224   0.727   6.944  0.3417 -0.3555  0.2099
23027SOL    HW175043   1.233   0.769   7.030  1.8178  0.1271 -0.1431
23027SOL    HW275044   1.178   0.792   6.891 -1.3672 -1.0009  0.8345
23028SOL     OW75045   8.596   8.459   6.329 -0.0686  0.1767  0.0316
23028SOL    HW175046   8.508   8.425   6.314 -0.1617 -0.2289  1.3188
23028SOL    HW275047   8.648   8.382   6.348  0.9521  0.2414 -2.2015
23029SOL     OW75048   5.317   6.106   8.944  0.0986  0.6765  0.5833
23029SOL    HW175049   5.354   6.189   8.916 -0.1201  0.4609 -0.4054
23029SOL    HW275050   5.233   6.100   8.898  0.9121 -0.8808 -0.8078
23030SOL     OW75051   7.458   5.100   2.939  0.0914 -0.2511 -0.3840
23030SOL    HW175052   7.515   5.177   2.932 -1.2617  0.8253 -0.1653
23030SOL    HW275053   7.370   5.134   2.920 -0.7436 -1.4481  1.1058
23031SOL     OW75054   9.034   4.366   3.221  0.3819 -0.0540 -0.4806
23031SOL    HW175055   9.128   4.382   3.225  0.5663 -1.2372  1.1689
23031SOL    HW275056   9.007   4.356   3.313 -1.4232  0.5991 -0.8879
23032SOL     OW75057   8.983   7.135   2.611  0.8002  0.7561 -0.3530
23032SOL    HW175058   8.949   7.223   2.594 -2.7730 -0.6503 -1.3906
23032SOL    HW275059   8.984   7.128   2.707 -0.0453  1.5327 -0.2753
23033SOL     OW75060   7.051   5.635   7.469 -0.0786  0.0635 -0.2527
23033SOL    HW175061   6.964   5.600   7.449  0.1354 -1.6585  1.4706
23033SOL    HW275062   7.051   5.645   7.564  0.8624  2.2671 -0.4179
23034SOL     OW75063   7.718   4.494   0.653  0.5189  0.4022  0.2110
23034SOL    HW175064   7.749   4.575   0.613  1.3791  0.3072  0.6682
23034SOL    HW275065   7.675   4.522   0.734 -0.2894  0.5009 -0.2405
23035SOL     OW75066   7.143   7.793   6.105  0.4724 -0.1086 -0.2496
23035SOL    HW175067   7.202   7.718   6.092  1.4542  0.8522 -1.6085
23035SOL    HW275068   7.191   7.851   6.164  0.6264  0.3849 -0.8507
23036SOL     OW75069   6.893   3.377   8.096 -0.1563 -0.1572 -0.5842
23036SOL    HW175070   6.910   3.288   8.065  0.1019  0.4168 -2.1809
23036SOL    HW275071   6.798   3.387   8.090 -0.1077 -0.0542 -1.1956
23037SOL     OW75072   6.422   8.900   8.411  0.0856 -0.3969  0.2396
23037SOL    HW175073   6.487   8.845   8.455 -0.9286 -1.3327  0.6182
23037SOL    HW275074   6.341   8.848   8.412 -1.0860  1.3083  1.1421
23038SOL     OW75075   3.446   5.972   2.238  0.2470  0.2762 -0.1513
23038SOL    HW175076   3.519   5.910   2.247 -0.9383 -1.1542 -0.0497
23038SOL    HW275077   3.435   6.009   2.326 -0.8501 -1.5278  0.5221
23039SOL     OW75078   8.526   3.901   2.645 -0.0938 -0.4681  0.0811
23039SOL    HW175079   8.546   3.845   2.570 -1.2478 -0.9117  0.0695
23039SOL    HW275080   8.431   3.911   2.641  0.1177  1.8651 -0.1591
23040SOL     OW75081   1.467   4.390   1.160 -0.8269 -0.9630  0.3943
23040SOL    HW175082   1.427   4.467   1.120 -0.4593 -0.8285  0.2839
23040SOL    HW275083   1.477   4.328   1.088  1.5250 -0.0507 -0.1509
23041SOL     OW75084   3.574   1.464   8.177 -0.2218 -0.2395 -0.6186
23041SOL    HW175085   3.616   1.520   8.242  1.4657 -0.5240 -1.4077
23041SOL    HW275086   3.521   1.403   8.229  2.8484 -1.9772  0.7718
23042SOL     OW75087   2.056   5.364   4.674 -0.5638 -0.3392 -0.0997
23042SOL    HW175088   2.119   5.296   4.653 -0.0184 -0.8865  2.8910
23042SOL    HW275089   1.974   5.317   4.689 -0.6930 -0.0924 -0.0235
23043SOL     OW75090   0.808   6.772   8.542 -0.3235  0.1626 -0.1631
23043SOL    HW175091   0.813   6.690   8.590 -1.4981  1.0930  1.6742
23043SOL    HW275092   0.714   6.788   8.531 -0.1165  1.2713 -0.4582
23044SOL     OW75093   1.249   1.607   2.177 -0.2594 -0.8343  0.4639
23044SOL    HW175094   1.303   1.661   2.234  0.7984  0.1170 -1.3355
23044SOL    HW275095   1.285   1.621   2.089 -1.8703 -2.1389 -0.4780
23045SOL     OW75096   4.724   8.428   6.816  0.0252 -0.2741  0.6462
23045SOL    HW175097   4.630   8.442   6.809  0.2652  1.3936  0.4008
23045SOL    HW275098   4.733   8.333   6.823 -1.6032 -0.5398 -0.2332
23046SOL     OW75099   8.815   5.651   7.420  0.4830 -0.5057 -0.0213
23046SOL    HW175100   8.852   5.731   7.458  0.9254 -1.9367  2.7593
23046SOL    HW275101   8.721   5.660   7.434  0.4705 -0.2414 -0.2492
23047SOL     OW75102   7.674   4.333   2.820  0.0517 -0.2484  0.5328
23047SOL    HW175103   7.750   4.384   2.791  0.4965 -0.4925  1.2451
23047SOL    HW275104   7.608   4.348   2.752 -0.7195  3.1521  1.8271
23048SOL     OW75105   5.997   0.787   5.879  0.6834 -0.1207  0.4516
23048SOL    HW175106   6.005   0.830   5.964 -0.4155 -1.2368  1.1576
23048SOL    HW275107   6.077   0.736   5.870 -0.2442 -2.0091  2.0486
23049SOL     OW75108   6.241   8.442   6.087  0.0923  0.3206  0.1692
23049SOL    HW175109   6.218   8.449   5.994 -1.0820  0.1203  0.4172
23049SOL    HW275110   6.207   8.355   6.112  2.3603 -0.5928  0.2760
23050SOL     OW75111   2.915   4.917   5.906 -0.2038 -0.0634 -0.5553
23050SOL    HW175112   2.834   4.892   5.950  0.2405 -0.1308  0.2527
23050SOL    HW275113   2.984   4.875   5.958  0.4864  1.7790  0.1202
23051SOL     OW75114   9.103   8.967   4.220 -0.4384 -0.0097 -0.3941
23051SOL    HW175115   9.108   8.904   4.291 -2.2712  0.0698 -0.1374
23051SOL    HW275116   9.019   8.949   4.178 -1.5512  2.8777  0.3280
23052SOL     OW75117   5.690   7.358   9.025  0.5756  0.1934  0.6144
23052SOL    HW175118   5.751   7.348   8.952  0.6147 -2.8395  0.9545
23052SOL    HW275119   5.737   7.324   9.101 -0.9716 -0.7450  1.1909
23053SOL     OW75120   0.401   8.977   6.801  0.5605  0.3529 -0.2863
23053SOL    HW175121   0.387   9.066   6.832  1.6546  0.7944 -1.0284
23053SOL    HW275122   0.360   8.922   6.868  1.3482  1.3424  1.0490
23054SOL     OW75123   4.166   1.485   1.083  0.4165 -0.2083  0.2301
23054SOL    HW175124   4.147   1.550   1.015 -1.6263 -0.5388  0.4249
23054SOL    HW275125   4.129   1.404   1.049 -0.9600 -0.3097  1.8340
23055SOL     OW75126   8.754   4.990   3.276  0.0320  0.1484 -0.2312
23055SOL    HW175127   8.672   5.035   3.295  0.3512  0.7301 -0.1946
23055SOL    HW275128   8.807   5.055   3.230  0.6917 -0.0253  0.2549
23056SOL     OW75129   9.232   8.496   6.030 -0.2940  0.0642 -0.1037
23056SOL    HW175130   9.303   8.432   6.037 -0.6553 -0.4589 -1.0282
23056SOL    HW275131   9.252   8.547   5.951 -0.8458  0.0299 -0.2724
23057SOL     OW75132   8.880   8.500   8.487  0.9408  0.7579  0.5753
23057SOL    HW175133   8.884   8.530   8.396  4.0156  0.3415  0.4686
23057SOL    HW275134   8.886   8.404   8.481  0.2095  0.6668  1.1979
23058SOL     OW75135   2.067   5.517   6.375  0.8991  0.1020  0.5717
23058SOL    HW175136   2.152   5.545   6.409  0.7768 -0.6536  1.5430
23058SOL    HW275137   2.043   5.584   6.312  1.4533  1.2107  1.5044
23059SOL     OW75138   0.994   2.830   8.827  0.3759  0.1720  0.2312
23059SOL    HW175139   0.992   2.883   8.748 -1.5122  0.3735  0.3650
23059SOL    HW275140   1.066   2.865   8.878  0.0560  1.6772 -0.3106
23060SOL     OW75141   5.097   9.195   4.213  0.4596 -1.2552 -0.2436
23060SOL    HW175142   5.188   9.219   4.231  0.3115  0.0720 -1.0924
23060SOL    HW275143   5.100   9.154   4.126  0.0784  0.3134 -1.0487
23061SOL     OW75144   7.517   1.092   0.716 -0.0359  0.2021  0.2164
23061SOL    HW175145   7.434   1.139   0.719  0.3818  1.0051 -0.3940
23061SOL    HW275146   7.568   1.137   0.649  0.0426 -1.7347 -1.1007
23062SOL     OW75147   5.652   7.702   4.165  0.0057 -0.1678 -0.5995
23062SOL    HW175148   5.613   7.755   4.096 -2.1900  0.3203  0.8991
23062SOL    HW275149   5.619   7.614   4.149 -1.7394  0.2183  0.5859
23063SOL     OW75150   8.840   1.103   1.399  0.1496  0.3076 -0.0165
23063SOL    HW175151   8.852   1.052   1.479  0.1643  1.1820  0.5589
23063SOL    HW275152   8.925   1.147   1.386  0.0256  0.4676 -0.3064
23064SOL     OW75153   5.636   6.556   9.220 -0.6157  0.2425 -0.6908
23064SOL    HW175154   5.600   6.588   9.302  1.1875 -0.1852  0.3153
23064SOL    HW275155   5.602   6.467   9.211  0.9349 -0.5605  0.7996
23065SOL     OW75156   3.902   6.033   8.542 -0.4825  0.7348  0.2160
23065SOL    HW175157   3.902   6.019   8.637 -1.5714 -2.0635 -0.0951
23065SOL    HW275158   3.824   6.086   8.525 -1.0630  0.0958  0.7988
23066SOL     OW75159   4.203   3.323   0.475  0.6870 -0.0915 -0.3523
23066SOL    HW175160   4.188   3.401   0.422  0.4821  0.0966 -0.0175
23066SOL    HW275161   4.228   3.356   0.561 -0.7784 -0.3648  0.2109
23067SOL     OW75162   3.406   6.747   2.638  0.4245 -0.1545  0.4826
23067SOL    HW175163   3.421   6.658   2.669 -0.5001  0.1552  1.9576
23067SOL    HW275164   3.313   6.749   2.615  0.2452  0.6202  1.2097
23068SOL     OW75165   8.045   5.275   0.915 -0.3413  0.8494 -0.0369
23068SOL    HW175166   8.088   5.353   0.878  1.5672 -1.2334 -2.5647
23068SOL    HW275167   8.087   5.262   0.999  0.5544  1.5799 -0.3577
23069SOL     OW75168   1.392   3.037   4.818 -0.4900  0.2227 -0.5864
23069SOL    HW175169   1.359   2.959   4.773 -0.2867 -0.0416 -0.2853
23069SOL    HW275170   1.474   3.057   4.774 -1.2642  1.1720 -1.6604
23070SOL     OW75171   8.103   0.185   7.526  0.1032 -0.2916  0.0727
23070SOL    HW175172   8.071   0.143   7.606 -0.5647  1.4589  0.7748
23070SOL    HW275173   8.104   0.115   7.461 -0.2284 -1.5502  1.3698
23071SOL     OW75174   4.861   0.146   1.519 -0.2839 -0.3273 -0.5079
23071SOL    HW175175   4.808   0.218   1.486 -2.2881 -1.7159 -0.5250
23071SOL    HW275176   4.929   0.133   1.453 -0.4933  0.8863 -0.9862
23072SOL     OW75177   7.317   6.379   3.908  0.2543 -0.1530 -0.3655
23072SOL    HW175178   7.268   6.461   3.906 -0.1609 -0.3490  1.0742
23072SOL    HW275179   7.281   6.328   3.835  1.1149  1.2353 -1.8484
23073SOL     OW75180   0.439   0.602   2.852 -0.1128 -0.2427 -0.0360
23073SOL    HW175181   0.469   0.692   2.838  1.0589 -0.7159 -0.6598
23073SOL    HW275182   0.418   0.599   2.945 -2.0074  1.1909 -0.3321
23074SOL     OW75183   2.208   1.057   5.357  0.5742 -0.2454  0.3140
23074SOL    HW175184   2.278   1.101   5.405 -0.8036  2.7913 -0.2687
23074SOL    HW275185   2.228   1.073   5.265 -0.7760  0.5682  0.1315
23075SOL     OW75186   2.457   2.120   0.565 -0.1916  0.1849  0.2034
23075SOL    HW175187   2.413   2.183   0.621 -0.3330 -0.1082  0.4244
23075SOL    HW275188   2.420   2.035   0.590 -2.2127  0.2676 -2.0769
23076SOL     OW75189   6.625   0.420   2.242 -0.4819 -0.2067  0.4971
23076SOL    HW175190   6.660   0.500   2.202 -1.9749 -0.7943 -2.2621
23076SOL    HW275191   6.626   0.356   2.171 -0.6632 -2.2468  2.2499
23077SOL     OW75192   3.442   4.070   4.917 -0.4265  0.6312  0.2836
23077SOL    HW175193   3.484   4.083   4.832 -0.7006  1.6973  0.2926
23077SOL    HW275194   3.359   4.026   4.896  0.3442 -0.8377  0.2019
23078SOL     OW75195   3.564   2.556   4.592  0.3493  0.0144 -0.5571
23078SOL    HW175196   3.555   2.501   4.515 -1.4441 -0.3937 -0.0943
23078SOL    HW275197   3.503   2.628   4.578 -0.4861 -0.4031  0.7428
23079SOL     OW75198   6.033   2.907   5.391  0.6843 -0.3668 -0.1036
23079SOL    HW175199   5.963   2.939   5.334 -0.8642 -0.4182  1.6365
23079SOL    HW275200   5.988   2.846   5.450  2.5705 -1.7548 -0.0346
23080SOL     OW75201   6.492   4.049   8.087  0.1538  0.1032  0.5312
23080SOL    HW175202   6.521   4.132   8.125  2.3455 -0.7859  0.9672
23080SOL    HW275203   6.487   3.989   8.161  1.3412 -0.8332 -0.1069
23081SOL     OW75204   1.927   7.722   0.052 -0.0126  0.5515  0.0337
23081SOL    HW175205   1.911   7.816   0.051 -0.0283  0.5584  0.5402
23081SOL    HW275206   1.947   7.700  -0.039 -0.7409  0.9141 -0.2209
23082SOL     OW75207   7.296   3.628   7.566  0.2374  0.2829  0.0477
23082SOL    HW175208   7.251   3.577   7.499 -0.2353 -0.5963  1.0060
23082SOL    HW275209   7.330   3.704   7.519 -2.3853  1.0931 -0.7191
23083SOL     OW75210   8.398   7.643   1.413 -0.0260  0.4530 -0.1071
23083SOL    HW175211   8.333   7.574   1.404  0.0772  0.2614  0.6074
23083SOL    HW275212   8.473   7.613   1.361  0.3047 -0.3260  0.8071
23084SOL     OW75213   1.609   5.707   6.065 -0.0961  0.0578 -0.2307
23084SOL    HW175214   1.666   5.779   6.093  1.3157 -1.2349  0.3634
23084SOL    HW275215   1.663   5.656   6.005 -0.4357 -1.4801  0.7279
23085SOL     OW75216   1.969   3.941   4.593 -0.4928  0.6103 -0.5379
23085SOL    HW175217   1.901   3.884   4.629 -0.8006  1.3450  0.0711
23085SOL    HW275218   1.923   4.022   4.571 -0.0697  0.6195 -1.4235
23086SOL     OW75219   4.801   3.638   5.448 -0.1170  0.2290 -0.1701
23086SOL    HW175220   4.748   3.644   5.527  1.3923 -0.5916  0.9706
23086SOL    HW275221   4.891   3.645   5.479  0.4981  0.6371 -1.9198
23087SOL     OW75222   4.957   4.273   7.556  0.1346 -0.1392  0.1229
23087SOL    HW175223   4.924   4.320   7.479 -0.1666 -0.4129  0.0805
23087SOL    HW275224   4.915   4.317   7.630  1.3617  0.9126  0.2343
23088SOL     OW75225   1.116   3.586   0.913 -0.3386  0.1967 -0.4905
23088SOL    HW175226   1.114   3.553   1.002  0.1027 -0.3575 -0.6756
23088SOL    HW275227   1.065   3.523   0.862  0.9847 -0.5472 -0.9476
23089SOL     OW75228   0.628   7.136   3.890 -0.3442 -0.0276  0.1112
23089SOL    HW175229   0.653   7.226   3.868 -0.5360  0.2485  0.9914
23089SOL    HW275230   0.688   7.111   3.959 -0.7860 -0.3080  0.3958
23090SOL     OW75231   0.758   0.534   5.465 -0.0165 -0.1969 -0.0964
23090SOL    HW175232   0.679   0.579   5.436 -0.2232  0.1136  0.9442
23090SOL    HW275233   0.817   0.540   5.390  0.1983  2.3348  0.1921
23091SOL     OW75234   2.838   1.180   0.659 -0.1184  0.0258 -0.2344
23091SOL    HW175235   2.932   1.197   0.649  0.3286 -0.0084  2.8594
23091SOL    HW275236   2.832   1.087   0.681 -0.7691  0.1765  0.2791
23092SOL     OW75237   9.249   8.802   8.351 -0.4590  0.2361  1.0037
23092SOL    HW175238   9.339   8.811   8.381 -0.4255 -1.1362  1.3644
23092SOL    HW275239   9.249   8.721   8.299 -1.4665  0.2710  0.9356
23093SOL     OW75240   2.356   6.135   6.109 -0.3788  0.0228 -0.4108
23093SOL    HW175241   2.327   6.163   6.022  0.8189  0.3999 -0.6994
23093SOL    HW275242   2.446   6.165   6.115 -0.4292 -0.0599  0.9500
23094SOL     OW75243   4.251   6.357   3.982  0.1784  0.2664  0.0715
23094SOL    HW175244   4.336   6.336   4.021 -0.8445  0.5491  2.6859
23094SOL    HW275245   4.228   6.280   3.930  1.2289 -0.5938  0.8350
23095SOL     OW75246   1.705   8.249   1.988  0.5469 -0.0384  0.0092
23095SOL    HW175247   1.677   8.159   1.970 -0.1868  0.2893 -0.5398
23095SOL    HW275248   1.795   8.253   1.956  0.0931 -0.1673 -1.3253
23096SOL     OW75249   5.443   2.278   8.159 -0.4482 -0.7942 -0.0768
23096SOL    HW175250   5.537   2.285   8.140 -1.0709  0.7833 -3.3124
23096SOL    HW275251   5.416   2.198   8.115 -0.9677 -0.0116 -1.2404
23097SOL     OW75252   2.747   7.713   2.235  0.1584 -0.0193 -0.3363
23097SOL    HW175253   2.827   7.763   2.247  0.0745  0.8314 -2.7771
23097SOL    HW275254   2.676   7.777   2.242 -0.2983 -0.6323  1.0470
23098SOL     OW75255   2.333   2.667   9.130 -0.6638 -0.3173 -0.3855
23098SOL    HW175256   2.268   2.613   9.175 -1.0235  0.5456  0.1612
23098SOL    HW275257   2.390   2.699   9.201  0.9761 -1.8176 -0.9389
23099SOL     OW75258   5.218   2.150   4.345  0.1808 -0.0669 -0.2008
23099SOL    HW175259   5.124   2.163   4.355  0.1589 -0.4278  0.0585
23099SOL    HW275260   5.247   2.117   4.429  0.6270  0.5251 -0.1138
23100SOL     OW75261   0.115   5.321   3.816 -0.7351  0.1030 -0.3162
23100SOL    HW175262   0.032   5.300   3.857 -0.7747 -0.2282 -0.5640
23100SOL    HW275263   0.114   5.274   3.733 -0.1024 -0.2864 -0.1128
23101SOL     OW75264   1.062   3.925   2.753 -0.0533 -0.1979 -0.5253
23101SOL    HW175265   1.014   3.984   2.695 -0.9874  1.0207  1.4098
23101SOL    HW275266   0.994   3.870   2.792  0.6523 -1.5603 -1.1518
23102SOL     OW75267   9.121   2.473   3.023  0.1634  0.2972  0.3086
23102SOL    HW175268   9.172   2.486   3.103 -0.6273  1.0900  0.7127
23102SOL    HW275269   9.122   2.379   3.008  2.4611  0.3448 -0.1992
23103SOL     OW75270   1.337   6.513   5.500  0.0712 -0.3781 -0.3439
23103SOL    HW175271   1.320   6.602   5.530 -2.6844 -0.4619 -1.3782
23103SOL    HW275272   1.303   6.457   5.570 -0.3509 -0.5902 -0.7147
23104SOL     OW75273   8.111   3.531   8.526 -0.2109  0.1224 -0.4220
23104SOL    HW175274   8.059   3.454   8.504 -2.4165  0.7968  1.9101
23104SOL    HW275275   8.186   3.496   8.574 -0.2574 -0.6838 -0.9213
23105SOL     OW75276   9.298   6.874   3.307 -0.2110 -0.0787  0.1542
23105SOL    HW175277   9.357   6.876   3.383  1.1984 -1.5774 -0.8333
23105SOL    HW275278   9.293   6.782   3.283 -0.6685  0.3566 -1.5400
23106SOL     OW75279   2.790   0.603   3.560 -0.7528  0.8010 -0.3418
23106SOL    HW175280   2.763   0.542   3.628 -1.2757  1.6972  0.2734
23106SOL    HW275281   2.794   0.550   3.480  0.8269 -0.4842  0.5302
23107SOL     OW75282   5.807   8.967   4.634  0.8899 -0.6586 -0.2123
23107SOL    HW175283   5.851   9.051   4.623 -0.5651  0.1381 -0.1877
23107SOL    HW275284   5.848   8.929   4.712 -1.3749  2.0514  2.5384
23108SOL     OW75285   8.033   7.070   3.072  0.3328  0.5954 -0.5688
23108SOL    HW175286   8.076   7.150   3.040  0.3618  0.3351 -1.1897
23108SOL    HW275287   7.941   7.083   3.051  0.3312  0.4885 -0.6252
23109SOL     OW75288   1.767   7.498   1.108  0.0146 -0.4069 -0.5038
23109SOL    HW175289   1.807   7.497   1.195 -1.5182 -0.4641  0.2379
23109SOL    HW275290   1.808   7.425   1.062  1.8615  0.4646 -0.3476
23110SOL     OW75291   4.020   9.068   2.269 -0.4708  0.3336 -0.3110
23110SOL    HW175292   4.045   9.002   2.205 -1.1017 -0.9527  0.7229
23110SOL    HW275293   4.102   9.098   2.307 -0.2287 -2.3769  1.6205
23111SOL     OW75294   0.193   7.519   5.134 -0.4273 -0.0161 -0.6946
23111SOL    HW175295   0.112   7.514   5.082  0.3479 -1.7825 -1.8137
23111SOL    HW275296   0.185   7.448   5.197  0.3629 -0.4093 -1.0232
23112SOL     OW75297   6.151   4.110   7.226 -0.0261 -0.0490  0.1836
23112SOL    HW175298   6.071   4.060   7.212 -0.0488  0.1565 -0.4262
23112SOL    HW275299   6.127   4.201   7.207  0.2565  0.0661  0.3573
23113SOL     OW75300   0.989   2.954   9.371  0.5616 -0.0056 -0.8120
23113SOL    HW175301   1.068   2.961   9.317 -0.0938 -1.6419 -2.0557
23113SOL    HW275302   1.003   2.875   9.423 -0.3244 -0.3988 -1.1640
23114SOL     OW75303   7.486   5.802   8.758  0.3970 -0.2579 -0.0715
23114SOL    HW175304   7.425   5.838   8.693  0.5637 -0.1723 -0.1805
23114SOL    HW275305   7.484   5.866   8.829  0.9705  0.1553 -0.4231
23115SOL     OW75306   8.154   5.499   3.420 -0.1420  0.2717  0.0142
23115SOL    HW175307   8.070   5.545   3.432  0.0778  0.1654  2.6082
23115SOL    HW275308   8.174   5.464   3.507  2.8689  0.7584 -0.3780
23116SOL     OW75309   0.039   3.801   2.549  0.0584  0.0345 -0.3367
23116SOL    HW175310   0.131   3.777   2.559 -0.3159 -1.1346  0.6466
23116SOL    HW275311   0.026   3.813   2.455  1.3156  0.6745 -0.4375
23117SOL     OW75312   0.061   3.418   2.855  0.6438 -0.2027 -0.1652
23117SOL    HW175313   0.078   3.346   2.794  1.4150 -0.3751  0.2296
23117SOL    HW275314   0.027   3.488   2.800 -0.2780 -0.9163 -0.5370
23118SOL     OW75315   0.057   3.077   1.191 -0.3569 -0.4196 -0.4558
23118SOL    HW175316   0.099   3.162   1.183  0.0741 -0.5402  0.4682
23118SOL    HW275317   0.078   3.047   1.279  0.6886 -2.1042 -1.2146
23119SOL     OW75318   0.476   1.796   2.963 -0.0720  0.7204 -0.7720
23119SOL    HW175319   0.524   1.713   2.957 -1.2956 -0.0522 -0.1555
23119SOL    HW275320   0.498   1.831   3.049 -0.0400  0.7289 -0.7837
23120SOL     OW75321   9.126   1.458   5.602 -0.4155  0.6725 -0.2662
23120SOL    HW175322   9.185   1.399   5.555 -0.9938  0.3514 -0.6040
23120SOL    HW275323   9.176   1.484   5.680  0.1353  0.3442 -0.4988
23121SOL     OW75324   1.965   1.555   9.330 -0.0726 -0.1027 -0.6281
23121SOL    HW175325   1.993   1.478   9.280 -0.8937 -1.3451  0.7657
23121SOL    HW275326   1.880   1.531   9.367  0.8624  0.3829  2.0931
23122SOL     OW75327   4.464   4.694   7.998 -0.2175  0.1684  0.7435
23122SOL    HW175328   4.520   4.628   8.039 -0.5957 -0.6238  0.0178
23122SOL    HW275329   4.500   4.705   7.910 -1.4669 -0.7201  0.0912
23123SOL     OW75330   4.148   6.553   4.193  0.0339 -0.2168  0.7081
23123SOL    HW175331   4.204   6.576   4.268  1.4845  0.8140 -0.6214
23123SOL    HW275332   4.195   6.482   4.150 -1.1121 -1.2314  1.0860
23124SOL     OW75333   3.340   6.858   1.794  0.5377 -0.5724 -0.4270
23124SOL    HW175334   3.268   6.883   1.852  2.0542  1.2140  0.8211
23124SOL    HW275335   3.314   6.774   1.758 -1.1330 -1.0979  1.7831
23125SOL     OW75336   5.565   9.252   8.006  0.2804  0.1696  1.1332
23125SOL    HW175337   5.556   9.157   8.001 -4.1621  0.4254 -1.0272
23125SOL    HW275338   5.607   9.277   7.924  1.9104  0.1325  1.9187
23126SOL     OW75339   4.344   1.958   8.414  0.5370 -0.0966  0.0126
23126SOL    HW175340   4.435   1.990   8.415  0.4090  0.3837 -1.3954
23126SOL    HW275341   4.292   2.037   8.400 -0.1031 -0.3957  0.6540
23127SOL     OW75342   5.169   0.170   3.414  0.4652 -0.0517 -0.4255
23127SOL    HW175343   5.122   0.099   3.459  0.3137  0.1534 -0.2572
23127SOL    HW275344   5.105   0.242   3.411  0.0099 -0.4903 -2.1167
23128SOL     OW75345   6.559   6.751   8.581 -0.0156 -1.0804 -0.2747
23128SOL    HW175346   6.642   6.715   8.551  0.3519 -0.0656 -0.5349
23128SOL    HW275347   6.574   6.846   8.582 -0.4269 -0.9923  1.8849
23129SOL     OW75348   5.543   5.590   4.432  0.2058  0.2611 -0.5735
23129SOL    HW175349   5.546   5.656   4.501 -1.0709 -0.0469 -0.2011
23129SOL    HW275350   5.566   5.637   4.352 -0.4945  1.1157 -0.2817
23130SOL     OW75351   7.028   8.624   3.223 -0.0580  0.6017  0.0389
23130SOL    HW175352   7.102   8.601   3.279  1.1455 -0.6166 -1.9129
23130SOL    HW275353   6.962   8.659   3.283  1.5237  0.3402  2.0398
23131SOL     OW75354   2.384   7.544   2.331 -0.9189  0.0925  0.0395
23131SOL    HW175355   2.385   7.506   2.243 -0.1395 -0.8604  0.4469
23131SOL    HW275356   2.409   7.636   2.318 -0.9261 -0.0097 -0.7405
23132SOL     OW75357   6.665   8.162   6.618 -0.1250 -0.3933 -0.2229
23132SOL    HW175358   6.603   8.188   6.551 -0.3398 -1.7891 -0.5934
23132SOL    HW275359   6.721   8.097   6.576 -0.9901 -2.1607  1.2256
23133SOL     OW75360   5.410   8.766   2.981 -0.7336  0.2304 -0.3172
23133SOL    HW175361   5.397   8.738   3.071 -1.0838  0.0917 -0.4076
23133SOL    HW275362   5.376   8.693   2.928  1.0945 -0.4860 -0.5778
23134SOL     OW75363   8.396   5.731   1.193  0.3431  0.0405 -0.1602
23134SOL    HW175364   8.372   5.817   1.226  0.7290  0.5346 -1.1271
23134SOL    HW275365   8.415   5.745   1.100  3.6412 -0.3869  0.3104
23135SOL     OW75366   1.354   6.265   8.362 -0.4603  0.2847  0.3539
23135SOL    HW175367   1.298   6.224   8.297  0.0492  0.8049 -0.4251
23135SOL    HW275368   1.294   6.300   8.428 -0.9966  0.0598 -0.0186
23136SOL     OW75369   0.069   7.426   6.313 -0.2628  0.2172 -0.0403
23136SOL    HW175370   0.033   7.479   6.241  0.1944 -2.0398 -2.0907
23136SOL    HW275371   0.151   7.392   6.277 -0.1498 -1.1919  1.4817
23137SOL     OW75372   4.211   3.258   5.813  0.4462 -0.4102 -0.1879
23137SOL    HW175373   4.161   3.250   5.733  2.2721 -1.4377 -1.2913
23137SOL    HW275374   4.249   3.346   5.809 -0.2442 -0.0960  0.0483
23138SOL     OW75375   0.450   3.463   4.564 -0.4835 -0.1104 -0.0285
23138SOL    HW175376   0.483   3.427   4.481  2.1600 -0.8220  1.2300
23138SOL    HW275377   0.485   3.552   4.567  0.6080 -0.5511  0.9024
23139SOL     OW75378   2.621   0.649   6.025  0.3519  0.1931 -0.7235
23139SOL    HW175379   2.595   0.672   6.114 -0.3484  0.8226 -1.0808
23139SOL    HW275380   2.597   0.557   6.016 -0.7604  0.4645 -0.6734
23140SOL     OW75381   2.329   5.015   5.195 -0.0934 -0.3240  0.1819
23140SOL    HW175382   2.363   5.059   5.273 -1.6103 -0.8126  1.1577
23140SOL    HW275383   2.240   4.990   5.218  0.4289 -3.2815 -0.5537
23141SOL     OW75384   8.612   8.852   3.595 -0.0783  0.2611  0.2483
23141SOL    HW175385   8.536   8.795   3.606  0.4691 -1.0458 -2.0725
23141SOL    HW275386   8.683   8.805   3.639 -0.1066  0.2832  0.3171
23142SOL     OW75387   4.518   6.569   9.228  0.3055 -0.3450 -0.4591
23142SOL    HW175388   4.561   6.650   9.201 -1.1418  0.4246 -0.5622
23142SOL    HW275389   4.482   6.588   9.314 -2.3373  0.0842 -1.5651
23143SOL     OW75390   6.126   7.651   5.901  0.6533 -0.2399  0.0924
23143SOL    HW175391   6.093   7.574   5.854 -0.8067  0.6735 -0.4315
23143SOL    HW275392   6.181   7.615   5.971 -0.6852 -1.7916  0.3922
23144SOL     OW75393   8.259   0.308   1.788 -0.0748 -0.5501 -0.1978
23144SOL    HW175394   8.175   0.351   1.779 -0.5905 -1.6399 -0.8635
23144SOL    HW275395   8.283   0.283   1.698  1.5644  0.8300 -0.1941
23145SOL     OW75396   1.198   4.298   6.779 -0.0378 -0.3256 -0.0489
23145SOL    HW175397   1.274   4.243   6.798  0.9780  0.9078 -0.3686
23145SOL    HW275398   1.204   4.315   6.685  0.6067  1.5824  0.2833
23146SOL     OW75399   0.399   4.583   0.340  0.0737 -0.0804  0.2786
23146SOL    HW175400   0.346   4.566   0.263  0.0051  2.1505 -0.2338
23146SOL    HW275401   0.426   4.497   0.371 -1.6205 -1.1134 -1.0053
23147SOL     OW75402   3.147   6.374   6.554 -0.1752  0.0161  0.1993
23147SOL    HW175403   3.168   6.339   6.467  0.6785  1.1315 -0.0637
23147SOL    HW275404   3.057   6.405   6.546  1.2140  4.2799 -1.7762
23148SOL     OW75405   5.534   5.239   4.624  0.0956 -0.3912  0.3603
23148SOL    HW175406   5.560   5.230   4.716  0.6239  0.5754  0.3171
23148SOL    HW275407   5.446   5.276   4.628 -0.2664 -1.2451  0.4784
23149SOL     OW75408   2.899   1.312   8.775  0.1032  0.0944  0.0394
23149SOL    HW175409   2.857   1.259   8.708  0.2588 -2.2582  1.6762
23149SOL    HW275410   2.827   1.360   8.817 -0.4980 -1.0905  0.4182
23150SOL     OW75411   2.412   3.612   7.910  0.1471  0.1645  0.0411
23150SOL    HW175412   2.384   3.541   7.968  2.8311 -0.8938  0.2117
23150SOL    HW275413   2.419   3.689   7.967  0.9019 -0.3948  0.7174
23151SOL     OW75414   5.965   1.113   4.876  0.0982 -0.0689  0.3246
23151SOL    HW175415   5.989   1.201   4.905  1.7904 -1.1780  2.6860
23151SOL    HW275416   6.012   1.101   4.793  0.1143  1.1110  0.1451
23152SOL     OW75417   6.058   8.228   5.185  0.3853 -0.1399 -0.7194
23152SOL    HW175418   6.029   8.207   5.274 -0.5075 -2.3759 -1.4797
23152SOL    HW275419   6.135   8.172   5.171  1.7553  1.6413 -0.7188
23153SOL     OW75420   3.463   5.158   5.815 -0.0863  0.8005 -0.7230
23153SOL    HW175421   3.508   5.178   5.733 -0.6246  0.5199 -1.0970
23153SOL    HW275422   3.395   5.225   5.822 -1.0481 -0.0797 -1.3117
23154SOL     OW75423   3.951   7.919   8.881  0.5786 -0.6321 -0.0671
23154SOL    HW175424   4.006   7.969   8.821  0.0273  0.0001 -0.0464
23154SOL    HW275425   3.935   7.837   8.835  1.4921 -0.8094 -0.0995
23155SOL     OW75426   5.748   5.220   6.005 -0.2361 -0.4200 -0.4553
23155SOL    HW175427   5.698   5.266   5.937 -0.0836  1.2174  0.4871
23155SOL    HW275428   5.766   5.134   5.967 -1.1085  0.0523 -2.0389
23156SOL     OW75429   4.553   0.349   1.119  0.0546 -0.3748 -0.1190
23156SOL    HW175430   4.648   0.357   1.114  0.0537  0.0905  0.4975
23156SOL    HW275431   4.538   0.269   1.170  0.0966 -1.1488 -1.2827
23157SOL     OW75432   4.435   0.479   2.398  0.0964 -0.7916 -0.0911
23157SOL    HW175433   4.447   0.411   2.465  0.1176 -0.1501  0.5716
23157SOL    HW275434   4.446   0.433   2.315 -0.2123 -1.6625  0.3362
23158SOL     OW75435   5.029   4.239   0.681  0.0711  0.2105 -0.2287
23158SOL    HW175436   5.092   4.211   0.746 -1.3112 -2.0908  0.2401
23158SOL    HW275437   5.068   4.214   0.597  0.1620 -0.4707  0.0072
23159SOL     OW75438   0.583   8.231   9.154 -0.3318  0.0104  0.2027
23159SOL    HW175439   0.601   8.140   9.177 -0.7591 -0.6015 -1.7196
23159SOL    HW275440   0.580   8.232   9.059  0.3296  2.1830  0.1371
23160SOL     OW75441   7.197   0.354   5.583 -0.0057 -0.1556 -0.0517
23160SOL    HW175442   7.210   0.374   5.676  2.9252  3.6948 -1.0158
23160SOL    HW275443   7.272   0.300   5.559 -0.5414 -0.8015 -0.3311
23161SOL     OW75444   9.224   8.564   8.194 -0.4526  0.0095  0.1188
23161SOL    HW175445   9.296   8.584   8.135 -0.5366 -0.4231 -0.1328
23161SOL    HW275446   9.239   8.473   8.221 -0.6287  0.0779  0.4534
23162SOL     OW75447   0.511   3.751   5.070  0.3544  0.0238  0.1036
23162SOL    HW175448   0.429   3.800   5.067 -0.8104 -1.7027  1.2902
23162SOL    HW275449   0.541   3.761   5.160  2.6089  2.2978 -0.7953
23163SOL     OW75450   8.151   0.618   9.330 -0.2751 -0.4309  0.4605
23163SOL    HW175451   8.196   0.703   9.332 -0.3755 -0.2971 -1.2841
23163SOL    HW275452   8.121   0.605   9.420  0.6286  0.8959  0.9923
23164SOL     OW75453   2.943   8.529   8.136 -0.4507  0.2139  0.1794
23164SOL    HW175454   2.861   8.578   8.127 -1.0989 -0.9138 -0.3181
23164SOL    HW275455   2.935   8.486   8.221 -0.7650 -0.5542 -0.2266
23165SOL     OW75456   1.561   6.059   5.839  0.2002  0.1201 -0.4098
23165SOL    HW175457   1.542   6.116   5.765 -2.3125 -0.3918 -0.2623
23165SOL    HW275458   1.522   5.975   5.816 -1.8310  0.2888  1.9441
23166SOL     OW75459   8.074   6.599   4.619 -0.0451 -0.4571 -0.5767
23166SOL    HW175460   8.041   6.569   4.704  1.2756 -0.4550 -0.0407
23166SOL    HW275461   8.169   6.594   4.627  0.1328  0.9212 -1.5701
23167SOL     OW75462   0.866   7.334   7.700 -0.2503 -0.7378  0.0902
23167SOL    HW175463   0.960   7.329   7.685 -0.3592 -2.2995 -0.2265
23167SOL    HW275464   0.843   7.425   7.679  1.1846 -0.3131  0.2555
23168SOL     OW75465   7.295   1.924   7.421  0.7100 -0.2000  0.1526
23168SOL    HW175466   7.248   1.938   7.504 -0.7359 -1.0017 -0.4965
23168SOL    HW275467   7.371   1.981   7.427  0.1099  0.5031  1.6220
23169SOL     OW75468   5.605   6.317   5.957  0.0426  0.0659  0.0309
23169SOL    HW175469   5.582   6.293   5.867 -2.1184  0.0778  0.5106
23169SOL    HW275470   5.612   6.234   6.003 -2.4497  0.0900  0.5882
23170SOL     OW75471   7.941   1.443   3.281  0.8242  0.1028  0.0299
23170SOL    HW175472   7.982   1.357   3.291 -0.8524 -1.2939 -3.3859
23170SOL    HW275473   7.859   1.436   3.330  0.9513 -0.0292  0.2254
23171SOL     OW75474   1.488   2.901   1.140  0.7128  0.4701 -0.0568
23171SOL    HW175475   1.435   2.953   1.079  1.5043 -0.4957 -1.6595
23171SOL    HW275476   1.572   2.947   1.144  0.5406  0.7272  0.6014
23172SOL     OW75477   5.318   3.358   6.344 -0.1193  0.5116 -0.0326
23172SOL    HW175478   5.230   3.375   6.311 -0.0415  0.1919 -0.3984
23172SOL    HW275479   5.376   3.378   6.270 -0.0534 -2.0676 -0.7477
23173SOL     OW75480   2.625   7.536   2.055 -0.1780 -0.4321 -0.0900
23173SOL    HW175481   2.662   7.594   2.121 -0.7851 -0.4129  0.2466
23173SOL    HW275482   2.665   7.563   1.972  0.6454 -0.5080  0.2818
23174SOL     OW75483   4.986   3.078   1.895  0.3104 -0.0471  0.0929
23174SOL    HW175484   4.921   3.139   1.932 -0.3933 -0.2565 -0.7652
23174SOL    HW275485   5.065   3.131   1.885  0.1147  0.3619  0.6532
23175SOL     OW75486   5.374   6.459   6.055  0.2771 -0.3992 -0.3740
23175SOL    HW175487   5.451   6.429   6.008  0.4199 -1.2192  0.3784
23175SOL    HW275488   5.302   6.406   6.020  0.1598 -0.1160 -0.5744
23176SOL     OW75489   0.988   1.195   3.955 -0.2267 -0.4150  0.0620
23176SOL    HW175490   0.918   1.151   4.003 -1.1478  0.5879 -0.3121
23176SOL    HW275491   0.947   1.224   3.874  0.1343  1.6732  0.5579
23177SOL     OW75492   6.173   4.331   2.240  0.4543  0.1747  0.3727
23177SOL    HW175493   6.134   4.270   2.302 -0.5863 -1.2725 -1.5904
23177SOL    HW275494   6.212   4.400   2.295  0.1437 -1.3194  2.6052
23178SOL     OW75495   2.612   6.461   8.723 -0.1755  0.3853  0.5601
23178SOL    HW175496   2.629   6.529   8.658  1.1968  0.2203  0.7149
23178SOL    HW275497   2.551   6.501   8.784 -0.1447  1.1370  0.1091
23179SOL     OW75498   5.588   4.827   2.391  0.6301 -0.1030 -0.3029
23179SOL    HW175499   5.615   4.919   2.386  0.6670 -0.1567 -1.3229
23179SOL    HW275500   5.609   4.800   2.480  1.6789  0.5556 -0.3435
23180SOL     OW75501   5.086   6.357   2.010 -0.5838 -0.1240 -0.5584
23180SOL    HW175502   5.150   6.287   2.023  0.5685  0.9624 -0.2131
23180SOL    HW275503   5.137   6.437   2.016 -1.7398  0.7322 -1.8165
23181SOL     OW75504   1.122   4.681   6.127 -0.0882  0.0047  0.2508
23181SOL    HW175505   1.057   4.628   6.080  0.8287  0.4564 -1.6414
23181SOL    HW275506   1.177   4.617   6.173 -0.0074 -0.6008 -0.6580
23182SOL     OW75507   0.097   4.463   4.817  0.4457  0.0601 -0.1922
23182SOL    HW175508   0.124   4.517   4.743  0.8988  0.1248  0.0167
23182SOL    HW275509   0.002   4.454   4.808  0.3964  0.7348 -0.3306
23183SOL     OW75510   1.763   2.901   4.034  0.8853 -0.1096 -0.2840
23183SOL    HW175511   1.677   2.943   4.037  1.0287  0.3817 -1.8796
23183SOL    HW275512   1.816   2.949   4.097 -0.2743 -1.1453  1.5642
23184SOL     OW75513   2.917   6.617   1.785 -0.1285  0.3930 -0.5209
23184SOL    HW175514   2.889   6.648   1.699 -1.5062  0.0003 -0.2268
23184SOL    HW275515   2.886   6.685   1.846 -0.5959 -0.1186 -0.1782
23185SOL     OW75516   3.234   3.678   0.185 -0.6959  0.3098  0.3755
23185SOL    HW175517   3.314   3.649   0.228 -0.0915  3.0077  1.2391
23185SOL    HW275518   3.257   3.762   0.145 -2.5881  0.2133 -1.0411
23186SOL     OW75519   5.684   3.470   3.682  0.0393  0.0000 -0.1877
23186SOL    HW175520   5.609   3.450   3.737 -0.7390  0.9230 -0.8664
23186SOL    HW275521   5.741   3.525   3.736 -0.1566 -0.0631  0.0799
23187SOL     OW75522   2.292   3.739   6.624  0.1104 -0.2530  0.0165
23187SOL    HW175523   2.202   3.768   6.609  0.5016 -0.0500 -2.3169
23187SOL    HW275524   2.284   3.646   6.647 -0.8040  0.3398  2.3895
23188SOL     OW75525   5.519   4.409   3.287  0.3400 -0.6104 -0.3571
23188SOL    HW175526   5.528   4.314   3.291 -0.5520 -0.7625 -1.2920
23188SOL    HW275527   5.471   4.424   3.205 -0.2455  0.5862  0.1884
23189SOL     OW75528   9.202   5.039   2.137  0.2659 -0.0233  0.0795
23189SOL    HW175529   9.186   4.954   2.097 -3.1724  0.3667  0.2669
23189SOL    HW275530   9.180   5.102   2.069 -1.4657  0.6336  1.1631
23190SOL     OW75531   3.197   6.578   7.166 -0.1052  0.5896 -0.0049
23190SOL    HW175532   3.137   6.596   7.238  0.7624 -1.1808  1.2353
23190SOL    HW275533   3.241   6.662   7.150 -0.4419  1.0647  1.4160
23191SOL     OW75534   4.451   1.051   1.891 -0.2542 -0.6671  0.1880
23191SOL    HW175535   4.436   1.087   1.803 -0.2939  0.0106  0.4657
23191SOL    HW275536   4.420   1.120   1.950  0.1611 -0.9478  0.7337
23192SOL     OW75537   7.666   7.135   5.697  0.4488  1.2455  0.0557
23192SOL    HW175538   7.696   7.175   5.779  0.4999  0.2357  0.5420
23192SOL    HW275539   7.654   7.042   5.718  1.2996  0.8023 -1.3137
23193SOL     OW75540   3.236   8.119   8.551  0.2632  0.5909  0.0848
23193SOL    HW175541   3.328   8.115   8.523  0.6915  0.0711  1.4643
23193SOL    HW275542   3.240   8.116   8.646 -1.2704 -2.8361  0.2110
23194SOL     OW75543   6.065   3.708   6.042 -0.7904  0.0489 -0.2443
23194SOL    HW175544   6.080   3.664   6.125 -1.5929  2.4263  1.2785
23194SOL    HW275545   5.970   3.709   6.032 -0.7716  0.9375 -0.4653
23195SOL     OW75546   7.322   3.236   4.248 -0.0765  0.1528  0.2002
23195SOL    HW175547   7.416   3.253   4.246 -0.0185 -0.1126  0.4654
23195SOL    HW275548   7.314   3.144   4.221 -0.2364  0.1012  0.4152
23196SOL     OW75549   0.953   8.831   0.484 -0.7152 -0.3600 -0.5136
23196SOL    HW175550   1.048   8.831   0.497 -0.8629 -0.1083  0.6362
23196SOL    HW275551   0.939   8.770   0.411  0.1933 -1.8879  0.5209
23197SOL     OW75552   7.893   0.491   9.234 -0.2125 -0.1432  0.2275
23197SOL    HW175553   7.971   0.546   9.244  0.5043 -1.1950  0.6059
23197SOL    HW275554   7.835   0.542   9.178  0.5174  0.9053  0.3921
23198SOL     OW75555   4.435   6.089   4.425 -0.1396 -0.1317 -0.0973
23198SOL    HW175556   4.444   6.178   4.392 -0.6053  0.1912  0.6423
23198SOL    HW275557   4.446   6.097   4.519 -1.3324 -0.6875  0.1081
23199SOL     OW75558   5.304   0.492   0.438  0.1381  0.0157  0.0625
23199SOL    HW175559   5.357   0.455   0.367 -0.1980  0.4672 -0.4237
23199SOL    HW275560   5.311   0.427   0.508 -0.6164 -1.0996 -0.8531
23200SOL     OW75561   1.976   4.905   6.329  0.0014  0.5672  0.6041
23200SOL    HW175562   2.039   4.869   6.267  0.0244  2.7909 -0.7525
23200SOL    HW275563   2.030   4.940   6.400  0.1354  0.5139  0.5295
23201SOL     OW75564   4.504   7.825   9.147 -0.5589  0.1417  0.5029
23201SOL    HW175565   4.471   7.842   9.059 -0.2817 -1.0171  0.1532
23201SOL    HW275566   4.508   7.729   9.152  0.3389  0.2186  1.4357
23202SOL     OW75567   6.476   1.503   4.676 -0.3740 -0.1923 -0.1858
23202SOL    HW175568   6.504   1.586   4.638  1.7674  0.1609  1.9610
23202SOL    HW275569   6.399   1.525   4.728  1.3194  0.9732  1.9989
23203SOL     OW75570   6.755   3.358   0.122 -0.7886 -0.6980  0.6152
23203SOL    HW175571   6.834   3.329   0.077  0.3491  1.2104  1.2906
23203SOL    HW275572   6.743   3.295   0.193  0.0742 -1.0565  0.4516
23204SOL     OW75573   5.282   2.900   4.741 -0.0009 -0.3342 -0.0440
23204SOL    HW175574   5.316   2.940   4.821 -0.9603  0.0595  0.1856
23204SOL    HW275575   5.319   2.812   4.741  0.3282 -0.2059  0.6307
23205SOL     OW75576   9.252   6.979   3.945 -0.3531 -0.3449  0.3171
23205SOL    HW175577   9.227   7.031   4.021  0.5395  0.4338  0.0926
23205SOL    HW275578   9.203   6.898   3.954 -0.9398  0.1028  1.2464
23206SOL     OW75579   0.569   5.213   6.461 -0.1379  0.0763  0.5685
23206SOL    HW175580   0.611   5.207   6.547  0.5549 -0.1186  0.2235
23206SOL    HW275581   0.639   5.195   6.398 -0.7150 -0.1407 -0.0301
23207SOL     OW75582   4.646   5.098   8.127  0.0746 -0.3710  0.0558
23207SOL    HW175583   4.568   5.051   8.100 -0.8876  0.2665  1.6450
23207SOL    HW275584   4.617   5.189   8.137  1.7425  0.5542 -2.3579
23208SOL     OW75585   2.166   5.277   6.815 -0.6070  0.2504 -0.4064
23208SOL    HW175586   2.181   5.222   6.738 -2.0148 -1.0318  0.1772
23208SOL    HW275587   2.071   5.290   6.817 -0.3400  2.6603 -0.4502
23209SOL     OW75588   1.874   4.389   1.191  0.4726 -0.0652  0.2575
23209SOL    HW175589   1.864   4.302   1.230  1.6593  0.6713  2.2920
23209SOL    HW275590   1.814   4.445   1.240  1.7082  0.7987  0.8389
23210SOL     OW75591   3.312   8.407   3.730 -0.8071  0.5750 -0.3098
23210SOL    HW175592   3.259   8.438   3.803  0.0169 -0.0067  0.5492
23210SOL    HW275593   3.274   8.450   3.653  0.2359  3.7364  0.7639
23211SOL     OW75594   6.650   5.888   5.366 -0.1648 -0.4117 -0.1296
23211SOL    HW175595   6.631   5.799   5.396 -0.1848 -1.0721 -1.9677
23211SOL    HW275596   6.572   5.913   5.316  0.3239  0.1559 -0.6180
23212SOL     OW75597   1.486   2.340   8.469 -0.2367  0.6455 -0.3077
23212SOL    HW175598   1.467   2.377   8.555  0.4732  0.4690 -0.0657
23212SOL    HW275599   1.489   2.246   8.483  2.8986  0.6981  0.1756
23213SOL     OW75600   1.123   4.780   5.035 -0.0165 -0.0650  0.2909
23213SOL    HW175601   1.218   4.782   5.046 -0.1267  1.6703  1.3190
23213SOL    HW275602   1.089   4.840   5.102 -1.8239 -0.4458 -0.2099
23214SOL     OW75603   3.699   8.010   3.383 -0.2747  0.2623 -0.2664
23214SOL    HW175604   3.713   7.987   3.474 -0.9967 -0.4302 -0.3187
23214SOL    HW275605   3.682   7.927   3.339 -0.0915  0.6011 -1.0098
23215SOL     OW75606   8.402   2.639   3.188 -0.2197  0.5743  0.5054
23215SOL    HW175607   8.313   2.621   3.219  0.0177 -2.3801 -0.2833
23215SOL    HW275608   8.453   2.650   3.268 -0.7213 -0.9931  1.0884
23216SOL     OW75609   7.509   6.847   7.960 -0.4976  0.1724 -0.1860
23216SOL    HW175610   7.493   6.755   7.937  0.9719 -0.1383 -0.0833
23216SOL    HW275611   7.515   6.891   7.875 -2.8260  0.5170 -0.2252
23217SOL     OW75612   7.343   2.746   6.716  0.1352 -0.7223  0.2928
23217SOL    HW175613   7.303   2.667   6.680  1.1301 -2.0230  1.8774
23217SOL    HW275614   7.437   2.730   6.710  0.3803  0.7778 -0.2086
23218SOL     OW75615   3.215   5.318   6.252  0.0873 -0.0046  0.1784
23218SOL    HW175616   3.153   5.328   6.324  1.3918  2.0941  1.1104
23218SOL    HW275617   3.162   5.324   6.173 -1.0515  0.5132  0.9632
23219SOL     OW75618   3.804   4.688   2.264 -0.3514 -0.0762 -0.1243
23219SOL    HW175619   3.891   4.718   2.290 -0.1363 -0.4638 -0.3892
23219SOL    HW275620   3.747   4.763   2.280 -0.4816 -0.6767  2.7098
23220SOL     OW75621   5.724   2.495   3.292 -0.1380  0.3089  0.2803
23220SOL    HW175622   5.745   2.493   3.385  0.6206  1.0419  0.1433
23220SOL    HW275623   5.637   2.457   3.285  0.8451 -2.2488  0.9725
23221SOL     OW75624   9.249   0.459   1.792  0.5132 -0.1315  0.0136
23221SOL    HW175625   9.196   0.414   1.726 -0.3902 -1.5365  1.6193
23221SOL    HW275626   9.320   0.398   1.812  0.3187 -0.0694  0.9180
23222SOL     OW75627   5.850   1.602   4.112  0.2402  0.2211  0.0090
23222SOL    HW175628   5.869   1.608   4.018 -0.9029 -3.0322 -0.5578
23222SOL    HW275629   5.934   1.581   4.152  0.3547 -0.5262 -0.6012
23223SOL     OW75630   3.975   2.747   4.845 -0.3369 -0.5306  0.0093
23223SOL    HW175631   3.947   2.656   4.851  2.4867 -1.4007  2.2600
23223SOL    HW275632   4.055   2.751   4.896  0.8473  2.7903 -1.7823
23224SOL     OW75633   5.949   7.094   2.843 -0.0818 -0.1093 -0.2905
23224SOL    HW175634   6.020   7.066   2.784  0.0701 -1.6492  0.5839
23224SOL    HW275635   5.965   7.187   2.856  2.4014 -0.5821  0.6497
23225SOL     OW75636   6.697   4.346   9.313  0.1441  0.3746  0.1698
23225SOL    HW175637   6.732   4.432   9.290  0.4503  0.2456  0.1511
23225SOL    HW275638   6.771   4.299   9.352  0.2253 -0.2054 -0.6621
23226SOL     OW75639   4.882   3.311   7.173 -0.7008 -0.2742 -0.3605
23226SOL    HW175640   4.907   3.326   7.082  0.2444 -0.1784 -0.0883
23226SOL    HW275641   4.789   3.337   7.176 -0.3061  1.3660 -0.9199
23227SOL     OW75642   6.231   2.728   4.949 -0.4390  0.4193  0.1628
23227SOL    HW175643   6.234   2.739   5.044  1.8987  0.6254  0.1344
23227SOL    HW275644   6.293   2.793   4.915 -1.5843  0.6867 -1.5618
23228SOL     OW75645   7.138   1.599   2.641  0.2019  0.2634  0.7817
23228SOL    HW175646   7.222   1.572   2.677 -0.2575 -2.9938 -0.2199
23228SOL    HW275647   7.120   1.684   2.681  4.0740  1.2389  0.7534
23229SOL     OW75648   8.572   8.837   4.575  0.3887  0.2435  0.4177
23229SOL    HW175649   8.504   8.779   4.610 -1.3860  1.4760 -0.7431
23229SOL    HW275650   8.601   8.889   4.650 -0.5984  0.2658  0.7983
23230SOL     OW75651   0.110   4.688   2.864 -0.0852 -0.0302 -0.2273
23230SOL    HW175652   0.082   4.677   2.773  1.4534  3.5765 -1.3107
23230SOL    HW275653   0.029   4.688   2.914 -1.2964  1.1610 -2.0686
23231SOL     OW75654   4.362   2.320   5.379 -0.4991  0.1341  0.0851
23231SOL    HW175655   4.352   2.284   5.467  1.1922  0.3047  0.3756
23231SOL    HW275656   4.416   2.255   5.334 -0.8457  0.3511 -0.6514
23232SOL     OW75657   0.899   7.713   0.956 -0.5395  0.2336 -0.3413
23232SOL    HW175658   0.974   7.766   0.930 -0.9661  1.2832  0.5018
23232SOL    HW275659   0.826   7.747   0.903 -0.5459 -0.4087 -0.7544
23233SOL     OW75660   5.249   6.938   5.135 -0.3003  0.0760  0.1876
23233SOL    HW175661   5.333   6.908   5.101 -0.5275 -1.5029  0.8932
23233SOL    HW275662   5.194   6.859   5.135 -1.4445  0.8454  0.7196
23234SOL     OW75663   0.581   3.409   7.224 -0.1600  0.5208 -0.4262
23234SOL    HW175664   0.572   3.503   7.238 -0.0875  0.2934  1.3163
23234SOL    HW275665   0.557   3.396   7.132 -2.2220  1.9571 -0.1556
23235SOL     OW75666   9.365   1.878   0.932 -0.2155 -0.2447 -0.5099
23235SOL    HW175667   9.459   1.891   0.947 -0.3112  0.2536 -0.3224
23235SOL    HW275668   9.339   1.816   1.000 -0.5095  1.4910  1.0334
23236SOL     OW75669   4.162   4.926   6.998 -0.7601 -0.0935  0.1958
23236SOL    HW175670   4.223   4.920   6.924 -0.5037  0.8153  0.3174
23236SOL    HW275671   4.127   5.015   6.993 -3.4117 -1.0832 -0.8834
23237SOL     OW75672   6.794   1.097   6.101  0.7908  0.3945 -0.0803
23237SOL    HW175673   6.710   1.143   6.098  0.9654  0.6904 -0.6232
23237SOL    HW275674   6.846   1.139   6.032  1.4593  0.3703  0.4017
23238SOL     OW75675   9.164   8.944   6.009  0.6695  0.9981 -0.1379
23238SOL    HW175676   9.164   9.016   5.946 -0.8943  1.2781  0.1321
23238SOL    HW275677   9.072   8.917   6.015  1.0248 -0.1055  0.7976
23239SOL     OW75678   3.509   7.120   1.106 -0.0893 -0.2526 -0.3126
23239SOL    HW175679   3.426   7.079   1.082 -0.4504  0.2730  0.0332
23239SOL    HW275680   3.511   7.201   1.056  0.7878 -0.8312 -1.2719
23240SOL     OW75681   6.295   7.430   6.957  0.1790 -0.5427  0.4805
23240SOL    HW175682   6.319   7.480   6.879 -0.0972  0.7503  1.1821
23240SOL    HW275683   6.244   7.491   7.009  0.9360 -1.1352  1.9887
23241SOL     OW75684   8.172   1.064   5.500  0.5652 -0.2151 -0.1913
23241SOL    HW175685   8.112   1.104   5.437  0.6043 -1.2410 -0.8900
23241SOL    HW275686   8.132   1.080   5.585  0.6185  1.3750 -0.4317
23242SOL     OW75687   6.511   0.350   5.858 -0.4617 -0.1599 -0.2275
23242SOL    HW175688   6.569   0.338   5.933 -1.6779 -0.7125  0.6520
23242SOL    HW275689   6.547   0.291   5.791  0.2705 -0.1220  0.1193
23243SOL     OW75690   2.572   7.373   6.494  0.0597 -0.5699  0.3035
23243SOL    HW175691   2.636   7.318   6.450 -1.3975 -0.9940 -1.3866
23243SOL    HW275692   2.511   7.311   6.535 -1.0586 -0.2366 -0.8125
23244SOL     OW75693   8.122   8.721   9.247  0.2424 -0.0915  0.3473
23244SOL    HW175694   8.136   8.627   9.257 -0.9120 -0.0944  2.9809
23244SOL    HW275695   8.028   8.733   9.263  0.4533  1.5497  0.5402
23245SOL     OW75696   5.953   1.659   1.483  0.6056  0.1352  0.0503
23245SOL    HW175697   5.907   1.581   1.516  0.5282  0.4583  0.7289
23245SOL    HW275698   5.945   1.653   1.388 -0.4027 -0.0923  0.1313
23246SOL     OW75699   1.189   7.647   5.131 -0.3630  0.4554  0.1651
23246SOL    HW175700   1.172   7.741   5.133  0.9862  0.8444 -2.5177
23246SOL    HW275701   1.279   7.638   5.161 -0.5008  0.0118  0.4542
23247SOL     OW75702   8.987   7.155   2.903  0.1870  0.8702 -0.5388
23247SOL    HW175703   9.072   7.114   2.918  0.2412  1.6469  1.6897
23247SOL    HW275704   9.002   7.248   2.920 -0.6718  1.3561 -2.2103
23248SOL     OW75705   6.408   6.296   9.131 -0.0499 -0.0738 -0.2262
23248SOL    HW175706   6.359   6.214   9.122  0.1771 -0.2355  0.0066
23248SOL    HW275707   6.388   6.326   9.220  0.5352 -0.3124 -0.0095
23249SOL     OW75708   5.838   6.842   7.690  0.2685  0.3996 -0.2777
23249SOL    HW175709   5.812   6.897   7.616  0.3462 -1.5251 -1.8176
23249SOL    HW275710   5.762   6.787   7.708  0.7747 -0.1984  0.0693
23250SOL     OW75711   0.069   2.370   2.257  0.1848 -0.0438  0.0237
23250SOL    HW175712   0.034   2.453   2.225  1.7148  0.0390 -1.5501
23250SOL    HW275713   0.046   2.306   2.189  1.2766 -0.3845 -0.0390
23251SOL     OW75714   4.345   7.441   5.846 -0.1333 -0.3186 -0.2762
23251SOL    HW175715   4.353   7.353   5.883  0.1685 -0.3035 -0.3094
23251SOL    HW275716   4.434   7.466   5.823 -0.3048 -0.2886 -0.9294
23252SOL     OW75717   6.161   2.409   6.193 -0.3379 -0.3215 -0.1554
23252SOL    HW175718   6.095   2.340   6.192 -1.8579  1.0776 -0.1984
23252SOL    HW275719   6.121   2.480   6.243  2.3817 -0.5739  2.7141
23253SOL     OW75720   7.607   6.977   7.731  0.3705 -0.1123  0.1684
23253SOL    HW175721   7.601   7.013   7.642 -0.2130 -0.4013  0.0892
23253SOL    HW275722   7.620   7.054   7.786 -0.4896  0.2006 -0.0455
23254SOL     OW75723   4.253   2.396   9.136 -0.0210  0.3049 -0.4294
23254SOL    HW175724   4.321   2.398   9.069  0.5130  0.4957  0.1077
23254SOL    HW275725   4.292   2.347   9.208 -1.0926 -1.1383 -0.7705
23255SOL     OW75726   7.238   0.555   0.654  0.1069  0.7596  0.5859
23255SOL    HW175727   7.150   0.549   0.691 -0.9055  0.5458 -1.7131
23255SOL    HW275728   7.246   0.645   0.624  1.4354  1.3147  2.3999
23256SOL     OW75729   5.618   8.143   7.465  0.8798 -0.3952 -0.4214
23256SOL    HW175730   5.575   8.119   7.547 -1.1438  1.5015 -0.8111
23256SOL    HW275731   5.598   8.072   7.405 -2.6582  0.7249 -0.8177
23257SOL     OW75732   4.089   6.254   4.614 -0.4705 -0.2232  0.4580
23257SOL    HW175733   4.133   6.329   4.575 -1.0356 -0.0967  0.0409
23257SOL    HW275734   4.001   6.256   4.576 -0.0078 -2.0647 -0.8628
23258SOL     OW75735   3.138   8.803   5.686 -0.5850  0.1909  0.1662
23258SOL    HW175736   3.147   8.836   5.597  0.8382  1.0257  0.5820
23258SOL    HW275737   3.138   8.708   5.678 -0.8574  0.2665 -0.7455
23259SOL     OW75738   5.128   4.387   5.848 -0.2799  0.4336  0.0287
23259SOL    HW175739   5.104   4.330   5.775  0.0033 -0.7733  0.8498
23259SOL    HW275740   5.187   4.452   5.809  2.1739 -1.8537 -0.3684
23260SOL     OW75741   4.943   4.426   3.078  0.5905  0.1420  0.1703
23260SOL    HW175742   4.859   4.406   3.118  0.5663 -0.0456  0.0274
23260SOL    HW275743   5.003   4.437   3.152  1.1950 -3.0082  0.2650
23261SOL     OW75744   5.517   5.116   6.511 -0.0671  0.3894  0.3431
23261SOL    HW175745   5.490   5.029   6.539 -1.3557  0.0409 -1.6975
23261SOL    HW275746   5.452   5.175   6.550  0.0940  0.2951  0.7541
23262SOL     OW75747   6.969   6.125   3.082 -0.5853 -0.1829  0.5771
23262SOL    HW175748   6.899   6.182   3.050 -0.8538  0.0832  1.6113
23262SOL    HW275749   7.037   6.131   3.014  0.0006  2.4684  1.2659
23263SOL     OW75750   6.119   1.654   8.485 -0.2841 -0.1980  0.2130
23263SOL    HW175751   6.091   1.728   8.539  1.4522 -0.1630  1.1436
23263SOL    HW275752   6.137   1.584   8.548 -2.3613 -1.6509 -0.6737
23264SOL     OW75753   6.220   3.851   6.796 -0.7348 -0.4626 -0.4529
23264SOL    HW175754   6.306   3.880   6.826 -0.6432  0.7944 -1.7654
23264SOL    HW275755   6.237   3.812   6.710 -1.2088 -2.2975  0.2333
23265SOL     OW75756   4.851   8.520   7.037  0.2414 -0.7531  0.4722
23265SOL    HW175757   4.878   8.441   7.083  3.0394 -0.7349 -0.9131
23265SOL    HW275758   4.821   8.490   6.951  2.6373 -0.3469 -0.5981
23266SOL     OW75759   0.967   2.592   8.691  0.1979  0.6100 -0.2251
23266SOL    HW175760   0.973   2.615   8.598  1.5372  1.0464 -0.0428
23266SOL    HW275761   0.961   2.676   8.736  1.0667  0.4650  0.1731
23267SOL     OW75762   2.982   8.197   0.478 -0.3613  0.1239 -0.7731
23267SOL    HW175763   3.007   8.280   0.438 -1.5817  0.3573 -1.0919
23267SOL    HW275764   2.890   8.209   0.503 -0.2755 -0.7963  0.0607
23268SOL     OW75765   2.217   6.757   0.347 -0.1798  0.2159 -0.0910
23268SOL    HW175766   2.153   6.828   0.351 -0.0203  0.3471  0.1997
23268SOL    HW275767   2.274   6.772   0.422 -0.8665 -0.9324  0.6908
23269SOL     OW75768   8.728   1.948   4.233 -0.1925 -0.6431 -0.6571
23269SOL    HW175769   8.763   2.023   4.184 -1.7111  0.4247 -0.1639
23269SOL    HW275770   8.633   1.960   4.232 -0.4569 -2.3783 -0.2443
23270SOL     OW75771   6.226   6.316   3.158 -0.0236 -0.2887 -0.4946
23270SOL    HW175772   6.149   6.365   3.129 -1.7583 -1.1461  2.3317
23270SOL    HW275773   6.210   6.226   3.130  0.4803 -0.3055 -0.7609
23271SOL     OW75774   4.919   4.524   5.692 -0.4531 -0.2692  0.7033
23271SOL    HW175775   4.947   4.608   5.729  0.3764 -0.8760  1.4977
23271SOL    HW275776   4.957   4.523   5.605 -2.4605  1.1932 -0.2833
23272SOL     OW75777   1.916   4.190   0.218  0.1642 -0.4631 -0.1602
23272SOL    HW175778   1.839   4.152   0.260  0.3424 -0.5536  0.0838
23272SOL    HW275779   1.893   4.282   0.204  0.7044 -0.0408  1.5849
23273SOL     OW75780   8.205   4.963   1.474 -0.0009 -0.3197  0.5138
23273SOL    HW175781   8.230   4.997   1.560 -0.7103  0.3782  0.4589
23273SOL    HW275782   8.111   4.981   1.467  0.2283  0.5325 -0.7913
23274SOL     OW75783   0.979   3.014   6.018  0.0146 -0.0052 -0.1769
23274SOL    HW175784   0.910   3.081   6.016  0.4175  0.4213 -2.2124
23274SOL    HW275785   0.937   2.936   5.981  0.1202 -0.2819  0.2866
23275SOL     OW75786   7.721   2.265   4.064 -0.1849  0.3537  0.2008
23275SOL    HW175787   7.694   2.214   3.988 -1.8187  0.4460  0.6782
23275SOL    HW275788   7.700   2.355   4.042 -2.3011  0.2064  1.3629
23276SOL     OW75789   2.544   0.241   0.245 -0.1695 -0.5052 -0.1140
23276SOL    HW175790   2.531   0.146   0.237  0.4934 -0.6262  0.1690
23276SOL    HW275791   2.469   0.271   0.297  0.3761 -1.1035  1.0561
23277SOL     OW75792   8.176   4.766   1.086 -0.5340 -0.0456 -0.2188
23277SOL    HW175793   8.227   4.690   1.059  0.9054  0.7103  0.2673
23277SOL    HW275794   8.231   4.841   1.062 -1.8001  0.8387 -0.4407
23278SOL     OW75795   5.204   3.861   7.880  0.0615 -0.2708  0.0656
23278SOL    HW175796   5.154   3.886   7.958  0.0716 -2.6188  0.8865
23278SOL    HW275797   5.175   3.923   7.812 -0.1617  1.6555  1.8119
23279SOL     OW75798   8.722   4.894   6.766 -0.2259 -0.0117  0.2449
23279SOL    HW175799   8.753   4.900   6.857  0.1929 -1.0214  0.1724
23279SOL    HW275800   8.650   4.831   6.769 -0.6467  0.4408 -0.0307
23280SOL     OW75801   6.216   4.498   3.790  0.0922  0.3555 -0.1092
23280SOL    HW175802   6.187   4.421   3.742 -0.1443 -1.3884  2.6265
23280SOL    HW275803   6.240   4.561   3.722 -1.3300 -1.4699 -2.4516
23281SOL     OW75804   4.056   7.007   8.057  0.1816  0.6483 -0.1841
23281SOL    HW175805   4.063   7.098   8.028  1.3420  0.9290  0.8739
23281SOL    HW275806   3.984   7.008   8.120  1.8051  1.4194  1.7578
23282SOL     OW75807   4.040   9.075   8.396 -0.4270  0.0671  0.3778
23282SOL    HW175808   4.002   9.139   8.456  0.2247  0.8953 -0.0819
23282SOL    HW275809   4.095   9.020   8.452 -2.9769 -1.8254  1.2618
23283SOL     OW75810   8.068   8.203   6.185  0.2459 -0.0335 -0.4933
23283SOL    HW175811   8.020   8.126   6.156 -0.8269  0.1389  0.7418
23283SOL    HW275812   8.013   8.242   6.252  1.0024  1.5462 -0.7435
23284SOL     OW75813   2.856   1.687   6.273 -0.3117  0.0354  0.3287
23284SOL    HW175814   2.900   1.705   6.356  2.1273 -1.1401 -0.6084
23284SOL    HW275815   2.851   1.592   6.269  1.7767 -0.0751 -1.8253
23285SOL     OW75816   1.789   3.544   1.461  0.2007 -0.6244 -0.1458
23285SOL    HW175817   1.707   3.523   1.416  0.1284  0.1442 -0.3949
23285SOL    HW275818   1.847   3.572   1.390  1.0961 -2.3131 -0.1420
23286SOL     OW75819   4.046   8.399   1.024 -0.5985 -0.2273 -0.2825
23286SOL    HW175820   3.968   8.452   1.008 -0.8530 -1.0345 -1.8709
23286SOL    HW275821   4.021   8.338   1.093 -0.9744  0.2960  0.0497
23287SOL     OW75822   5.468   5.253   4.094  0.5259 -0.1217 -0.5585
23287SOL    HW175823   5.390   5.197   4.094  0.9509 -0.7707  1.5627
23287SOL    HW275824   5.498   5.254   4.184  1.2616  2.5748 -0.7313
23288SOL     OW75825   2.372   6.090   0.550  0.0821 -0.1994  0.2168
23288SOL    HW175826   2.424   6.108   0.472  1.3842 -1.8336  0.6456
23288SOL    HW275827   2.321   6.170   0.564  0.7570  0.5916 -1.5614
23289SOL     OW75828   1.256   5.201   6.524 -0.2700  0.7020  0.0183
23289SOL    HW175829   1.186   5.140   6.500 -0.4981  1.0831 -0.2974
23289SOL    HW275830   1.307   5.211   6.443  0.3980  0.1031  0.3599
23290SOL     OW75831   2.743   8.991   4.005 -0.4720 -0.5349  0.0740
23290SOL    HW175832   2.828   9.022   4.034 -0.0655 -1.6389  0.0977
23290SOL    HW275833   2.718   9.052   3.936 -0.6677  1.0883  1.5093
23291SOL     OW75834   7.285   8.864   6.500 -0.1063 -0.0847 -0.1164
23291SOL    HW175835   7.199   8.868   6.457 -0.0760 -2.8632 -0.6794
23291SOL    HW275836   7.348   8.869   6.428  0.1084 -0.1363  0.0659
23292SOL     OW75837   4.662   1.619   4.273 -0.9692  0.0861  0.1578
23292SOL    HW175838   4.683   1.539   4.322  1.6164  0.3873 -0.2993
23292SOL    HW275839   4.588   1.594   4.217 -2.2191 -1.0422  2.2169
23293SOL     OW75840   1.494   2.403   2.165 -0.5456  0.5342  0.1370
23293SOL    HW175841   1.430   2.382   2.096 -0.0838  1.7872 -0.7192
23293SOL    HW275842   1.573   2.427   2.117  0.0631  0.5963  1.1465
23294SOL     OW75843   3.842   5.577   5.634  0.8573  0.0466 -0.1971
23294SOL    HW175844   3.799   5.599   5.551  0.7006 -0.1844 -0.1771
23294SOL    HW275845   3.934   5.597   5.619  1.1249 -1.6601 -1.0188
23295SOL     OW75846   8.086   1.294   2.870  0.4626 -0.3628 -0.7437
23295SOL    HW175847   7.997   1.330   2.871  0.6152  0.0146  0.4096
23295SOL    HW275848   8.142   1.368   2.847  0.6262 -0.2301  0.0744
23296SOL     OW75849   5.456   2.967   8.747  0.2193  0.1968 -0.2983
23296SOL    HW175850   5.508   3.046   8.757  0.4596  0.0704 -0.5206
23296SOL    HW275851   5.517   2.903   8.710  0.1791 -0.2526  0.3865
23297SOL     OW75852   3.276   3.564   0.927 -0.0912 -0.0539 -0.0699
23297SOL    HW175853   3.188   3.541   0.960 -1.0243 -1.2607 -3.0653
23297SOL    HW275854   3.262   3.639   0.870  0.3644 -1.6154 -2.3487
23298SOL     OW75855   0.342   4.985   7.063  0.5355 -0.1364 -0.0127
23298SOL    HW175856   0.264   5.041   7.062  1.1728  0.7655 -0.3361
23298SOL    HW275857   0.327   4.922   6.993 -0.0037 -0.1183  0.0795
23299SOL     OW75858   5.808   0.976   0.414 -0.4243  0.0237  0.2757
23299SOL    HW175859   5.820   0.885   0.386  0.3477  0.1007  0.3322
23299SOL    HW275860   5.721   0.999   0.382 -0.0007 -0.2226 -1.1470
23300SOL     OW75861   5.213   8.219   1.841  0.1556  0.3830  0.0888
23300SOL    HW175862   5.158   8.152   1.800  0.6664 -0.9123  1.4338
23300SOL    HW275863   5.279   8.240   1.775 -0.7667  0.5331 -0.8188
23301SOL     OW75864   4.950   1.439   3.763 -0.1511 -0.0807  0.4452
23301SOL    HW175865   5.036   1.413   3.793 -0.6739 -0.7300  1.4308
23301SOL    HW275866   4.964   1.469   3.673  1.2913  1.0353  1.0061
23302SOL     OW75867   5.704   4.330   4.209  0.3033 -0.0026  0.8248
23302SOL    HW175868   5.705   4.235   4.222  0.6820  0.0588  1.2773
23302SOL    HW275869   5.612   4.352   4.196  0.1472 -0.3499  1.3452
23303SOL     OW75870   0.886   2.286   7.551  0.1945 -0.4505 -0.3080
23303SOL    HW175871   0.820   2.217   7.543  2.0591 -2.3099 -0.5235
23303SOL    HW275872   0.841   2.366   7.521 -2.6143 -1.1254  1.6569
23304SOL     OW75873   1.846   0.287   0.484  0.3337 -0.3993 -0.2108
23304SOL    HW175874   1.763   0.284   0.436  1.3504  2.7424 -2.5171
23304SOL    HW275875   1.901   0.223   0.438  0.0022 -0.5256 -0.4412
23305SOL     OW75876   3.738   8.272   0.663 -0.0161 -0.1903  0.4110
23305SOL    HW175877   3.756   8.198   0.604 -1.9260  0.9546 -1.7982
23305SOL    HW275878   3.825   8.304   0.688  0.8742 -1.6002 -0.6918
23306SOL     OW75879   0.523   4.942   4.796  0.0284 -0.5807 -0.4292
23306SOL    HW175880   0.450   5.000   4.817 -0.4927 -1.2661 -0.3203
23306SOL    HW275881   0.482   4.866   4.754  0.8710  0.0425 -2.5481
23307SOL     OW75882   9.195   5.305   1.576 -0.3878 -0.2317 -0.1978
23307SOL    HW175883   9.184   5.274   1.486  0.2911 -0.3449 -0.2443
23307SOL    HW275884   9.288   5.324   1.584 -0.5811  0.6187  0.2104
23308SOL     OW75885   3.571   6.555   1.301 -0.6496  0.0928 -0.0128
23308SOL    HW175886   3.588   6.515   1.386  2.6937 -1.9753 -1.4367
23308SOL    HW275887   3.602   6.646   1.311  0.9729 -0.4937  0.6867
23309SOL     OW75888   8.045   2.949   8.159  0.2569 -0.7397 -0.0708
23309SOL    HW175889   8.069   2.866   8.200 -0.1883 -0.3326  1.0752
23309SOL    HW275890   8.052   2.933   8.065  1.3795 -1.6968  0.1595
23310SOL     OW75891   0.279   6.650   7.671  0.4161  0.9368 -0.4394
23310SOL    HW175892   0.317   6.597   7.602  1.1514  1.5044 -0.4812
23310SOL    HW275893   0.191   6.673   7.638 -1.1838 -2.6741  0.8288
23311SOL     OW75894   8.498   2.651   5.492  0.5584 -0.4866  0.2024
23311SOL    HW175895   8.416   2.606   5.472  0.8595  0.1905 -3.0385
23311SOL    HW275896   8.566   2.592   5.461  0.9824  1.5027 -3.1241
23312SOL     OW75897   5.953   8.252   2.605  0.5250  0.4789 -0.1889
23312SOL    HW175898   5.887   8.320   2.614 -0.9182 -0.7171 -1.2363
23312SOL    HW275899   5.934   8.190   2.676  0.6127  0.2030 -0.4024
23313SOL     OW75900   5.170   2.208   1.379  0.4634  0.4294  0.2786
23313SOL    HW175901   5.232   2.198   1.451 -1.3043  0.0784  1.8356
23313SOL    HW275902   5.136   2.297   1.388 -1.7848 -0.4825  1.6812
23314SOL     OW75903   3.671   5.215   3.294  0.4540  0.5573  0.2905
23314SOL    HW175904   3.761   5.201   3.323  0.0396  0.1177  1.4482
23314SOL    HW275905   3.677   5.226   3.200  1.7195  0.5209  0.3525
23315SOL     OW75906   7.912   0.777   3.048  0.2915 -0.1601 -0.1630
23315SOL    HW175907   7.857   0.824   2.986  2.1307  2.0737 -0.2376
23315SOL    HW275908   8.000   0.779   3.010  1.2884  0.3910  1.9740
23316SOL     OW75909   4.067   6.976   3.657 -0.1206  0.2326  0.4362
23316SOL    HW175910   4.145   6.984   3.601 -0.7146  1.0143 -0.3084
23316SOL    HW275911   4.102   6.954   3.743  0.7872 -1.4164 -0.3098
23317SOL     OW75912   6.534   8.359   5.579 -0.1537  0.3626  0.2535
23317SOL    HW175913   6.570   8.315   5.656 -1.2636 -0.9036  0.0891
23317SOL    HW275914   6.490   8.437   5.614 -0.0044  0.1939  0.8210
23318SOL     OW75915   3.613   4.500   1.419 -0.6950 -0.0625 -0.0901
23318SOL    HW175916   3.663   4.427   1.382 -0.2154  0.3376 -0.2414
23318SOL    HW275917   3.669   4.577   1.406 -1.6986  0.5495 -1.0392
23319SOL     OW75918   1.361   1.134   9.258  0.1691  0.4970 -0.0237
23319SOL    HW175919   1.303   1.194   9.210  0.0996 -1.2565 -2.2776
23319SOL    HW275920   1.322   1.048   9.245 -0.4773 -0.0466  4.2415
23320SOL     OW75921   7.896   4.238   7.425  0.1775  0.8233 -0.0297
23320SOL    HW175922   7.844   4.317   7.409  1.4507  1.8413  0.6269
23320SOL    HW275923   7.962   4.266   7.490  1.2894 -0.5026 -0.5428
23321SOL     OW75924   4.430   3.819   6.460  0.4708 -0.0886  1.0616
23321SOL    HW175925   4.346   3.806   6.415  0.6363 -2.1942  1.2728
23321SOL    HW275926   4.492   3.840   6.390 -0.1910  1.5262  0.9085
23322SOL     OW75927   6.101   3.446   3.213 -0.1165  0.5202 -0.5754
23322SOL    HW175928   6.050   3.435   3.133 -0.0119 -1.1411 -0.4553
23322SOL    HW275929   6.192   3.453   3.183 -0.2208  1.5664 -0.6791
23323SOL     OW75930   7.454   4.878   1.963 -0.2910 -0.1430  0.0170
23323SOL    HW175931   7.390   4.806   1.967 -1.9256  1.2723  0.3844
23323SOL    HW275932   7.523   4.851   2.024 -0.9850 -1.3057  0.3393
23324SOL     OW75933   7.398   4.594   0.075  0.4613  0.6619  0.7200
23324SOL    HW175934   7.407   4.501   0.055  1.4603  1.0720 -0.8256
23324SOL    HW275935   7.413   4.599   0.170 -0.4815 -0.8352  0.9857
23325SOL     OW75936   9.284   4.863   3.810  0.6900 -0.8011  0.5391
23325SOL    HW175937   9.232   4.909   3.876 -2.3310 -3.7931  0.5200
23325SOL    HW275938   9.267   4.910   3.729 -1.4050 -1.2209  0.6992
23326SOL     OW75939   2.489   5.476   5.338  0.0682 -0.2652  0.4721
23326SOL    HW175940   2.393   5.481   5.344 -0.2068  0.7678 -2.8635
23326SOL    HW275941   2.520   5.561   5.367 -0.2468  0.2866 -0.7610
23327SOL     OW75942   6.722   0.269   8.821  0.4251  0.4721 -0.0058
23327SOL    HW175943   6.725   0.213   8.899 -0.2943  1.4523  0.7553
23327SOL    HW275944   6.697   0.210   8.750 -1.1741 -0.0519  0.9291
23328SOL     OW75945   8.053   1.007   0.250 -0.6880  0.3697  0.0336
23328SOL    HW175946   8.091   1.095   0.258 -2.4230  1.1312  0.2879
23328SOL    HW275947   8.001   0.995   0.329 -0.0549 -1.1266  0.2559
23329SOL     OW75948   1.366   5.440   4.137 -0.1583  0.2749  0.1896
23329SOL    HW175949   1.452   5.481   4.136 -0.6208  1.2742  0.5957
23329SOL    HW275950   1.314   5.490   4.075 -0.0939 -1.1712 -1.0959
23330SOL     OW75951   2.628   0.383   7.475  0.0038  0.0576  0.0734
23330SOL    HW175952   2.544   0.380   7.521  0.5851 -0.2658  1.1626
23330SOL    HW275953   2.670   0.299   7.497  0.9969  0.6066  0.3340
23331SOL     OW75954   1.512   0.772   0.142  0.5430 -0.2526  0.5609
23331SOL    HW175955   1.438   0.766   0.082  1.1081  1.2489 -0.3557
23331SOL    HW275956   1.539   0.864   0.138  1.1102 -0.2749  2.5328
23332SOL     OW75957   0.697   8.904   8.673  0.2386 -0.2048 -0.0592
23332SOL    HW175958   0.736   8.867   8.593  1.1386 -0.9716  0.7124
23332SOL    HW275959   0.756   8.977   8.695  1.1355 -1.2082  0.9695
23333SOL     OW75960   2.529   3.578   0.726  0.4742  0.0557 -0.5727
23333SOL    HW175961   2.498   3.545   0.642  0.2243 -0.5941 -0.2281
23333SOL    HW275962   2.461   3.638   0.756  0.7613  0.6189 -1.0296
23334SOL     OW75963   4.226   2.718   0.483  0.0697  0.6024  0.0728
23334SOL    HW175964   4.201   2.698   0.392 -1.2737  0.9594  0.3397
23334SOL    HW275965   4.159   2.675   0.536  1.2565 -0.2163  0.9421
23335SOL     OW75966   8.179   1.292   2.588  0.2865  0.2678  0.0604
23335SOL    HW175967   8.185   1.210   2.539  0.0583 -0.6302  1.4709
23335SOL    HW275968   8.089   1.295   2.619 -0.4628  2.3363 -2.0357
23336SOL     OW75969   1.663   6.320   6.681 -0.2374  0.3002 -0.3479
23336SOL    HW175970   1.692   6.236   6.717  1.8012  1.0981  0.0356
23336SOL    HW275971   1.569   6.310   6.667  0.0276 -2.1998 -0.7720
23337SOL     OW75972   9.044   3.811   8.530  0.2037  0.1197  0.3977
23337SOL    HW175973   9.137   3.825   8.514  0.4497 -1.2861  0.5391
23337SOL    HW275974   9.011   3.775   8.448 -0.1882  0.4491  0.4073
23338SOL     OW75975   7.048   6.900   7.820 -0.3939  0.0222  0.1893
23338SOL    HW175976   6.998   6.959   7.876 -1.6025 -1.4683  0.7669
23338SOL    HW275977   6.999   6.897   7.738  0.0740  0.3826 -0.1077
23339SOL     OW75978   6.774   3.879   6.017 -0.1272  0.6354 -0.0649
23339SOL    HW175979   6.788   3.867   5.923  0.6396  0.2095  0.0914
23339SOL    HW275980   6.735   3.797   6.047  0.1642  0.5465  0.0807
23340SOL     OW75981   7.289   9.295   6.916  0.0683 -0.8019  0.0551
23340SOL    HW175982   7.302   9.222   6.856  0.6738  0.1711 -1.0506
23340SOL    HW275983   7.340   9.367   6.878 -2.2372  0.8714 -0.1060
23341SOL     OW75984   0.735   6.103   0.095 -0.6187  0.4698 -0.3006
23341SOL    HW175985   0.701   6.020   0.127  0.2408  0.1985 -0.0554
23341SOL    HW275986   0.674   6.169   0.130 -0.8952  0.0039  0.1046
23342SOL     OW75987   3.667   1.756   3.961 -0.1527 -0.1198  0.5740
23342SOL    HW175988   3.608   1.830   3.975  0.5181  0.5974 -0.3001
23342SOL    HW275989   3.755   1.792   3.974  0.1156 -1.2587  2.2248
23343SOL     OW75990   9.316   8.940   8.711  0.1246 -0.2957 -0.2110
23343SOL    HW175991   9.254   8.975   8.647  1.2692 -0.0656 -1.2316
23343SOL    HW275992   9.266   8.875   8.760 -0.7785 -0.4999 -1.3540
23344SOL     OW75993   6.467   7.491   4.261  0.7506 -0.6170 -0.4901
23344SOL    HW175994   6.541   7.510   4.203 -0.2809 -0.0393 -1.6772
23344SOL    HW275995   6.413   7.430   4.210  0.2296 -0.7516  0.2185
23345SOL     OW75996   1.267   2.158   0.231  0.2813  0.2291  0.1424
23345SOL    HW175997   1.211   2.210   0.288 -0.7630  0.7685 -1.2974
23345SOL    HW275998   1.219   2.076   0.218 -0.0111  0.5258 -0.7599
23346SOL     OW75999   0.527   6.097   5.313  0.5261  0.1757  0.2542
23346SOL    HW176000   0.615   6.090   5.275  0.2164  1.2143 -0.7139
23346SOL    HW276001   0.496   6.183   5.285 -0.6423 -0.0073  0.9299
23347SOL     OW76002   0.540   3.763   5.694  0.4023 -0.3551 -0.0150
23347SOL    HW176003   0.634   3.777   5.684  0.6883 -0.6027  1.9281
23347SOL    HW276004   0.523   3.779   5.787 -1.3877 -0.8484 -0.2143
23348SOL     OW76005   1.082   5.051   2.467 -1.1377 -0.5042 -0.2657
23348SOL    HW176006   1.023   5.021   2.536  0.7078 -0.3125  1.4882
23348SOL    HW276007   1.106   5.140   2.493 -1.7858  0.2753 -2.1531
23349SOL     OW76008   0.267   8.371   7.984  0.2181  0.0056 -0.1139
23349SOL    HW176009   0.294   8.305   7.919 -1.5855 -0.5212 -0.3894
23349SOL    HW276010   0.237   8.319   8.059 -0.6470  0.5295 -0.0934
23350SOL     OW76011   1.798   2.363   3.085 -0.0403 -0.0787 -0.2489
23350SOL    HW176012   1.823   2.453   3.105  0.7407 -0.7634  2.4025
23350SOL    HW276013   1.879   2.322   3.053 -0.0173 -0.1700 -0.0771
23351SOL     OW76014   3.825   2.898   8.766 -0.1852  0.6083 -0.4370
23351SOL    HW176015   3.846   2.963   8.699 -0.8086 -0.1416 -1.3791
23351SOL    HW276016   3.867   2.817   8.734 -0.7074  0.1842 -0.0553
23352SOL     OW76017   7.451   7.947   2.002  0.3560 -0.1972 -0.1179
23352SOL    HW176018   7.444   7.851   2.004 -1.8440 -0.1036 -0.2503
23352SOL    HW276019   7.539   7.966   2.035  0.1503 -2.1981  1.8287
23353SOL     OW76020   1.142   0.914   0.764  0.3276  0.1607  0.0099
23353SOL    HW176021   1.097   0.866   0.694  0.7513  1.0119 -0.8663
23353SOL    HW276022   1.083   0.907   0.839 -0.3837 -0.3377 -0.5756
23354SOL     OW76023   5.292   5.918   2.709 -0.6267  0.5807  0.1128
23354SOL    HW176024   5.384   5.903   2.731 -0.1700  0.0316 -1.9375
23354SOL    HW276025   5.244   5.897   2.789  1.0953  2.1013  1.6096
23355SOL     OW76026   5.879   2.138   4.494  0.5271  0.0622  0.2860
23355SOL    HW176027   5.924   2.192   4.429  2.3256 -1.6047  0.0575
23355SOL    HW276028   5.924   2.158   4.576 -0.1403  0.3767  0.5825
23356SOL     OW76029   1.626   3.981   0.738 -0.0324 -0.1083  0.2989
23356SOL    HW176030   1.640   4.075   0.752  3.0963 -0.6317  1.4595
23356SOL    HW276031   1.558   3.958   0.800 -1.0840  1.4086 -0.2174
23357SOL     OW76032   0.781   5.048   5.701 -0.5164  0.0843 -0.1233
23357SOL    HW176033   0.727   5.013   5.772 -1.3463  0.1218 -0.7136
23357SOL    HW276034   0.866   5.064   5.741  0.1217 -3.1574  0.0323
23358SOL     OW76035   3.308   0.775   3.457 -0.1873 -0.5626  0.1097
23358SOL    HW176036   3.261   0.824   3.524  0.5621  0.8351 -0.3362
23358SOL    HW276037   3.241   0.722   3.414 -1.3819  1.2857 -0.4318
23359SOL     OW76038   4.651   2.209   4.745 -0.2613 -0.4220 -1.0257
23359SOL    HW176039   4.668   2.300   4.719 -1.1966 -0.3642 -1.4929
23359SOL    HW276040   4.667   2.158   4.666 -0.5510 -0.5637 -0.9923
23360SOL     OW76041   0.003   6.103   1.270 -0.5990 -0.1408 -0.6791
23360SOL    HW176042   0.005   6.030   1.332 -0.8277 -0.0666 -0.5816
23360SOL    HW276043  -0.087   6.136   1.275 -0.2160  0.8439  0.0940
23361SOL     OW76044   1.686   6.572   6.297  0.2229  0.0309 -0.0333
23361SOL    HW176045   1.616   6.512   6.320  1.0623 -1.0287 -0.1144
23361SOL    HW276046   1.645   6.658   6.291 -1.0793 -0.5890 -0.2282
23362SOL     OW76047   8.765   4.434   6.214 -0.2309 -0.0080 -0.1995
23362SOL    HW176048   8.786   4.513   6.264 -1.2398 -0.4474  1.0030
23362SOL    HW276049   8.722   4.377   6.278  0.7699 -1.6674 -0.9598
23363SOL     OW76050   3.582   6.562   0.125  0.0787  0.3934  0.5528
23363SOL    HW176051   3.631   6.641   0.101 -0.6050  0.0769 -2.3108
23363SOL    HW276052   3.616   6.494   0.067 -2.6188 -0.1788 -0.5429
23364SOL     OW76053   1.712   8.334   1.531 -0.4049  0.1218 -0.0167
23364SOL    HW176054   1.765   8.328   1.453  1.0981  2.0169  0.7616
23364SOL    HW276055   1.635   8.384   1.504 -1.2062 -1.4793 -0.8329
23365SOL     OW76056   1.637   3.192   5.399 -0.4547 -0.0003 -0.3446
23365SOL    HW176057   1.687   3.224   5.324  0.0971 -2.2605 -1.0354
23365SOL    HW276058   1.695   3.204   5.474 -0.5280  1.1386 -0.4480
23366SOL     OW76059   8.015   2.299   3.594  0.2990  0.0035  0.1698
23366SOL    HW176060   8.024   2.239   3.669  1.2079 -0.2398 -0.1241
23366SOL    HW276061   8.080   2.367   3.610  0.5336 -0.0788 -0.4195
23367SOL     OW76062   8.118   3.820   5.648 -0.1201  0.2942  0.7304
23367SOL    HW176063   8.060   3.779   5.584  0.4699  1.3602 -0.5239
23367SOL    HW276064   8.091   3.782   5.732 -0.4605 -1.6275 -0.2076
23368SOL     OW76065   5.478   6.707   8.695  0.3056  0.5806  0.4088
23368SOL    HW176066   5.492   6.682   8.603 -0.8968 -0.7349  0.5518
23368SOL    HW276067   5.384   6.727   8.700  0.6182  1.9827  1.0660
23369SOL     OW76068   8.500   8.599   1.109 -0.3657 -0.6074 -0.2492
23369SOL    HW176069   8.476   8.517   1.153 -1.7999 -0.5819 -0.9228
23369SOL    HW276070   8.456   8.667   1.160  3.1607  0.1573  2.1023
23370SOL     OW76071   6.532   7.093   3.645  0.2353  0.1011  0.3231
23370SOL    HW176072   6.618   7.072   3.610  0.4184  0.1480  0.7350
23370SOL    HW276073   6.471   7.073   3.574  0.6988  1.3555 -0.4553
23371SOL     OW76074   5.581   1.043   1.897  0.2818 -0.2314  0.0687
23371SOL    HW176075   5.675   1.035   1.910  0.1472 -0.6564  0.8154
23371SOL    HW276076   5.551   0.954   1.878 -0.2496 -0.4487  1.8255
23372SOL     OW76077   8.584   4.389   3.387 -0.2299 -0.2981  0.2791
23372SOL    HW176078   8.597   4.318   3.449  0.9214 -0.3389  0.0169
23372SOL    HW276079   8.599   4.469   3.437  0.1148 -0.3112  0.2030
23373SOL     OW76080   5.975   1.935   4.901 -0.0319  0.3740  0.6125
23373SOL    HW176081   6.045   1.894   4.850 -1.0585 -1.3981  0.5846
23373SOL    HW276082   5.942   2.005   4.844  1.0497  0.6062  0.2417
23374SOL     OW76083   8.191   3.559   4.253 -0.6500  0.5529  0.3423
23374SOL    HW176084   8.268   3.595   4.296 -2.0799  1.5223  2.2060
23374SOL    HW276085   8.145   3.510   4.321 -2.1923  0.8279 -0.4458
23375SOL     OW76086   7.604   3.877   0.498  0.6671 -0.2549 -0.3459
23375SOL    HW176087   7.612   3.804   0.560 -1.4181 -1.2817 -1.1985
23375SOL    HW276088   7.670   3.941   0.527  0.5828 -1.2221  2.1720
23376SOL     OW76089   3.164   3.330   2.026  0.3537 -0.1459  0.4873
23376SOL    HW176090   3.247   3.330   2.073  0.5705  1.0069  0.1332
23376SOL    HW276091   3.183   3.372   1.943 -0.1889 -1.5105 -0.3584
23377SOL     OW76092   0.544   1.137   8.748 -0.1849  0.3599 -0.0244
23377SOL    HW176093   0.613   1.162   8.686 -0.2533 -0.9893 -0.6647
23377SOL    HW276094   0.512   1.220   8.783  0.7300  1.0759 -0.8447
23378SOL     OW76095   6.014   5.684   3.615 -0.3577 -0.0856 -0.3105
23378SOL    HW176096   5.949   5.615   3.628  0.1982 -0.7178 -0.8174
23378SOL    HW276097   6.005   5.707   3.522 -1.3726  1.3915  0.1161
23379SOL     OW76098   2.714   7.565   2.464  0.7584  0.0138  0.3026
23379SOL    HW176099   2.730   7.587   2.372  2.5333 -0.3636  0.4838
23379SOL    HW276100   2.680   7.475   2.461  1.6951 -0.3520  0.0298
23380SOL     OW76101   8.741   3.477   8.848  0.3873 -0.5152 -0.5050
23380SOL    HW176102   8.778   3.562   8.821 -0.6068  0.0374 -0.2000
23380SOL    HW276103   8.768   3.467   8.939 -0.3619  0.0011 -0.2080
23381SOL     OW76104   0.496   6.705   5.573  0.0694  0.2375  0.8774
23381SOL    HW176105   0.559   6.656   5.521 -0.7198 -1.0833  1.1282
23381SOL    HW276106   0.443   6.638   5.616 -2.1869  1.2742 -0.1433
23382SOL     OW76107   0.953   4.517   6.689  0.3786  0.5182  0.0720
23382SOL    HW176108   1.018   4.449   6.674  0.0740  0.2399  0.0011
23382SOL    HW276109   0.920   4.539   6.601 -1.6839 -1.3828  0.2769
23383SOL     OW76110   7.670   7.717   1.608  0.4613 -0.0148  0.0778
23383SOL    HW176111   7.575   7.731   1.614  0.4719  0.0679  0.0534
23383SOL    HW276112   7.700   7.780   1.542  0.5784  0.1713  0.3098
23384SOL     OW76113   2.618   8.225   7.813  0.0825  0.6297 -0.4061
23384SOL    HW176114   2.600   8.164   7.884 -0.9270  0.5200 -0.7359
23384SOL    HW276115   2.681   8.287   7.850  0.5516 -0.1796  0.1625
23385SOL     OW76116   2.074   4.258   6.610 -0.1011  0.5615  0.2518
23385SOL    HW176117   2.089   4.338   6.560 -0.4021  0.5482  0.1353
23385SOL    HW276118   2.078   4.285   6.701  0.5507  0.5674  0.2226
23386SOL     OW76119   5.396   3.364   6.922  0.4884  0.3232  0.1949
23386SOL    HW176120   5.469   3.337   6.868 -0.2590  1.2284 -1.3303
23386SOL    HW276121   5.400   3.460   6.922 -1.5055  0.4549 -1.1436
23387SOL     OW76122   3.275   2.413   7.475 -0.4339  0.0178 -0.1061
23387SOL    HW176123   3.356   2.364   7.483 -1.1018 -0.8117  3.1081
23387SOL    HW276124   3.301   2.504   7.488 -0.0571 -0.3197  1.7136
23388SOL     OW76125   6.738   2.314   0.986 -0.2952 -0.2778  0.4535
23388SOL    HW176126   6.677   2.335   0.915  0.6409  0.3709 -0.1762
23388SOL    HW276127   6.793   2.244   0.950  1.1458  1.0638 -0.0293
23389SOL     OW76128   4.053   3.555   0.108 -0.0101  0.2901  0.1982
23389SOL    HW176129   4.083   3.628   0.162 -2.7148  2.0983 -0.5606
23389SOL    HW276130   4.038   3.483   0.169  1.0223  0.8979  1.2009
23390SOL     OW76131   0.143   0.472   7.503 -0.4313 -0.2031  0.4826
23390SOL    HW176132   0.193   0.424   7.569 -1.5249  0.9793  2.2472
23390SOL    HW276133   0.052   0.454   7.523 -0.8361  1.6462  0.4793
23391SOL     OW76134   8.200   7.202   1.458 -0.3110 -0.0120  0.1036
23391SOL    HW176135   8.119   7.151   1.468 -0.4612  0.2127  0.0428
23391SOL    HW276136   8.270   7.138   1.471 -0.4373 -0.7506 -2.3195
23392SOL     OW76137   0.921   9.132   8.350  0.1062  0.3808  0.2074
23392SOL    HW176138   0.856   9.159   8.285 -1.2710 -1.8413  0.5611
23392SOL    HW276139   1.005   9.157   8.311 -0.8635  2.3804 -0.7495
23393SOL     OW76140   0.839   7.216   9.130  0.2327 -0.0458  0.3357
23393SOL    HW176141   0.846   7.203   9.225 -1.5368  1.1327  0.6746
23393SOL    HW276142   0.925   7.251   9.104  0.3867  0.6696  1.7111
23394SOL     OW76143   1.589   2.303   3.265 -0.7625  0.4934  0.4829
23394SOL    HW176144   1.521   2.349   3.216  0.8965  1.2607 -1.2224
23394SOL    HW276145   1.668   2.312   3.211  0.3766 -1.6133  1.6687
23395SOL     OW76146   5.888   5.389   2.016  0.1850 -0.1171  0.1187
23395SOL    HW176147   5.840   5.311   1.988 -0.1187  0.2468 -0.3957
23395SOL    HW276148   5.871   5.453   1.947 -0.5992  0.8163  1.1467
23396SOL     OW76149   1.000   3.493   2.681  0.5303  0.2430 -0.1229
23396SOL    HW176150   1.063   3.544   2.630 -0.8160  0.5872 -1.5063
23396SOL    HW276151   1.007   3.404   2.646 -1.2443  0.7139 -1.8614
23397SOL     OW76152   3.453   8.457   3.369 -0.0222 -0.2888 -0.0360
23397SOL    HW176153   3.483   8.498   3.450  1.6944 -1.9481  0.2459
23397SOL    HW276154   3.521   8.393   3.348 -1.2395 -1.0535 -1.9078
23398SOL     OW76155   0.784   2.366   4.185  0.5720 -0.9391  0.3761
23398SOL    HW176156   0.844   2.352   4.112 -2.2491 -0.9129 -2.1368
23398SOL    HW276157   0.839   2.404   4.254  3.4552 -1.2517 -1.5591
23399SOL     OW76158   6.432   2.565   2.500  0.1790 -0.0939 -0.1554
23399SOL    HW176159   6.390   2.603   2.578 -1.4349  0.2451 -1.1607
23399SOL    HW276160   6.523   2.593   2.507 -0.3622  1.6343  0.5888
23400SOL     OW76161   3.074   2.450   2.309  0.0611 -0.1538  0.0030
23400SOL    HW176162   3.029   2.529   2.338  0.6153  0.0583  0.3025
23400SOL    HW276163   3.140   2.433   2.376 -0.2155 -1.0163  0.0681
23401SOL     OW76164   6.323   5.048   1.988  0.2946  0.0807  0.0196
23401SOL    HW176165   6.288   5.003   1.911 -0.3130 -1.1439  0.9727
23401SOL    HW276166   6.418   5.040   1.979  0.2566  0.4159 -0.8476
23402SOL     OW76167   9.015   4.596   5.897 -0.0449 -0.1386  0.1152
23402SOL    HW176168   9.012   4.680   5.852 -1.4986 -0.2965 -0.1436
23402SOL    HW276169   9.029   4.618   5.989 -1.2447  0.4667  0.1783
23403SOL     OW76170   4.215   1.758   3.651  0.6831  0.4721 -0.1900
23403SOL    HW176171   4.292   1.708   3.626 -0.1528  0.1954 -2.4135
23403SOL    HW276172   4.249   1.845   3.673  1.7339 -0.0012  0.1304
23404SOL     OW76173   3.717   0.591   7.702 -0.0364  0.1873 -0.1225
23404SOL    HW176174   3.701   0.526   7.635 -0.1849 -2.1417  2.0243
23404SOL    HW276175   3.630   0.608   7.741  0.4331 -0.9600  1.5389
23405SOL     OW76176   1.352   4.852   2.013  0.7344  0.4059  0.0873
23405SOL    HW176177   1.408   4.827   1.940 -0.0965 -1.5076  0.0542
23405SOL    HW276178   1.327   4.942   1.994 -2.0164 -0.9247 -3.7425
23406SOL     OW76179   3.517   3.641   0.178 -0.4043 -0.3589 -0.0261
23406SOL    HW176180   3.599   3.611   0.139 -0.1700  0.0333  0.1626
23406SOL    HW276181   3.451   3.624   0.110 -0.1831 -0.7463 -0.1468
23407SOL     OW76182   8.787   6.517   0.474  0.0143  0.2893  0.4014
23407SOL    HW176183   8.872   6.525   0.433  0.4205 -0.2479  1.1152
23407SOL    HW276184   8.798   6.559   0.560 -0.7539  1.2036  0.0720
23408SOL     OW76185   6.803   2.837   6.013  0.3975  0.2510  0.1788
23408SOL    HW176186   6.835   2.874   6.095  0.2354  2.7974 -0.8132
23408SOL    HW276187   6.811   2.908   5.950  2.1877 -2.1354 -2.5076
23409SOL     OW76188   6.117   0.892   2.949 -0.1323  0.5005  0.0741
23409SOL    HW176189   6.031   0.858   2.922  0.3103 -0.5480 -0.0832
23409SOL    HW276190   6.109   0.987   2.941 -1.3103  0.4273  0.1669
23410SOL     OW76191   8.142   1.998   1.409 -0.2538 -0.2197 -0.2543
23410SOL    HW176192   8.084   2.072   1.394  0.7400  0.3768 -1.3832
23410SOL    HW276193   8.212   2.032   1.465 -0.5488 -0.7142  0.4335
23411SOL     OW76194   1.534   3.094   4.364 -0.2264  0.1521  0.1587
23411SOL    HW176195   1.462   3.157   4.362  0.5911  1.1378  0.8561
23411SOL    HW276196   1.560   3.084   4.272 -0.8689  0.2403 -0.0331
23412SOL     OW76197   8.630   6.909   8.421  0.1723  0.0219 -0.8251
23412SOL    HW176198   8.617   6.998   8.454 -2.3235 -1.0053  1.2568
23412SOL    HW276199   8.583   6.906   8.338  1.2990  0.9200 -1.5281
23413SOL     OW76200   3.576   1.976   3.018  0.3065 -0.0594 -0.1729
23413SOL    HW176201   3.507   2.009   3.075 -0.7608 -1.6923 -0.4698
23413SOL    HW276202   3.587   2.045   2.952  0.2458  1.0110  0.8936
23414SOL     OW76203   7.592   1.242   1.652  0.2123  0.0128  0.2612
23414SOL    HW176204   7.658   1.273   1.591  1.8752 -2.5895  0.6101
23414SOL    HW276205   7.554   1.165   1.611 -1.2693  0.3358  0.9352
23415SOL     OW76206   6.099   7.703   0.565  0.0012 -0.7213  0.0957
23415SOL    HW176207   6.033   7.673   0.502 -0.1981 -0.0373 -0.0201
23415SOL    HW276208   6.131   7.785   0.530  0.0368 -0.4361  0.7771
23416SOL     OW76209   3.891   8.787   6.153  0.0118 -0.0220  0.2620
23416SOL    HW176210   3.820   8.729   6.180 -0.7034  0.1405 -1.1674
23416SOL    HW276211   3.857   8.876   6.167  0.5633  0.0620  1.1116
23417SOL     OW76212   2.733   1.652   8.008  0.4940  0.3086  0.4083
23417SOL    HW176213   2.797   1.689   8.070  0.4613  0.6249  0.2504
23417SOL    HW276214   2.746   1.701   7.927  0.9648 -0.5173 -0.0356
23418SOL     OW76215   8.015   0.520   2.339 -0.2066 -0.2240 -0.0579
23418SOL    HW176216   7.930   0.528   2.296  0.6290  0.9749 -1.5880
23418SOL    HW276217   8.003   0.565   2.423 -1.1005 -0.1239 -0.2248
23419SOL     OW76218   9.113   1.298   7.314  0.2916  0.0869  0.0249
23419SOL    HW176219   9.116   1.283   7.408  1.2308 -0.2167 -0.0396
23419SOL    HW276220   9.142   1.215   7.276 -0.2606  0.1428 -0.5399
23420SOL     OW76221   0.617   4.163   9.289  0.0945  0.0723 -0.1434
23420SOL    HW176222   0.597   4.173   9.196 -0.6257  1.5962  0.1390
23420SOL    HW276223   0.538   4.125   9.327  0.9056 -1.9310 -0.3441
23421SOL     OW76224   1.609   7.964   5.529 -0.4125  0.1002 -0.1861
23421SOL    HW176225   1.597   7.990   5.620 -1.2336  0.7147 -0.4519
23421SOL    HW276226   1.522   7.938   5.500  0.0612 -1.2206 -0.4692
23422SOL     OW76227   0.435   3.678   7.052 -0.1431 -0.7005 -0.2229
23422SOL    HW176228   0.498   3.734   7.007 -0.0090 -0.1356  0.6444
23422SOL    HW276229   0.411   3.612   6.987  0.0208  0.1062 -1.1263
23423SOL     OW76230   1.825   1.022   4.651  0.8072 -0.1041  0.6781
23423SOL    HW176231   1.845   0.962   4.722 -2.3340 -1.6597  0.3994
23423SOL    HW276232   1.771   1.090   4.691 -2.2326 -1.7598 -0.2741
23424SOL     OW76233   3.195   6.093   5.906  0.3806  0.4281 -0.0428
23424SOL    HW176234   3.222   6.085   5.815  0.8683 -0.3242  0.1567
23424SOL    HW276235   3.232   6.016   5.949 -2.3218 -0.8650  0.1893
23425SOL     OW76236   7.041   4.372   0.348 -0.3948  0.0118  0.0976
23425SOL    HW176237   7.071   4.438   0.285 -1.0582  1.5608  1.3240
23425SOL    HW276238   7.089   4.293   0.324 -0.7007  0.4915 -2.3924
23426SOL     OW76239   2.972   7.194   6.210 -0.0965 -0.2881 -0.3689
23426SOL    HW176240   2.936   7.202   6.298 -0.0287  1.2156 -0.4455
23426SOL    HW276241   2.926   7.261   6.159  0.7336 -0.3078 -1.1775
23427SOL     OW76242   5.886   4.186   6.228  0.9734 -0.0395  0.3921
23427SOL    HW176243   5.940   4.262   6.253 -1.9953  1.8302  1.6723
23427SOL    HW276244   5.900   4.177   6.134  0.8967  2.6361  0.0439
23428SOL     OW76245   7.236   4.402   6.642  0.3947  0.1447 -0.2394
23428SOL    HW176246   7.175   4.332   6.665 -1.0887  0.8972 -1.6951
23428SOL    HW276247   7.309   4.357   6.598 -0.8263 -0.4876 -1.7276
23429SOL     OW76248   6.497   5.325   0.441  0.0894  0.4327 -0.2624
23429SOL    HW176249   6.495   5.386   0.515  1.5996  0.1575  0.0318
23429SOL    HW276250   6.587   5.327   0.410 -0.2057 -0.4751 -1.2486
23430SOL     OW76251   4.601   5.296   3.172  0.4233 -0.1472 -0.5455
23430SOL    HW176252   4.591   5.391   3.180  1.3520 -0.1699  1.5531
23430SOL    HW276253   4.685   5.284   3.128  1.7072  0.0890  1.6540
23431SOL     OW76254   7.931   5.684   3.479  0.6070  0.1199  0.3642
23431SOL    HW176255   7.880   5.760   3.450 -1.1154 -0.8552  0.7108
23431SOL    HW276256   7.980   5.716   3.554  0.8846  1.2190 -0.2600
23432SOL     OW76257   4.873   3.389   5.303  0.3084 -0.3847 -0.6604
23432SOL    HW176258   4.846   3.446   5.375 -0.9178 -0.2665 -1.1865
23432SOL    HW276259   4.857   3.300   5.335 -2.3914 -0.3017 -1.5189
23433SOL     OW76260   7.588   8.418   4.304  0.0892  0.2818  0.1045
23433SOL    HW176261   7.598   8.420   4.209  0.1855 -1.1066  0.0565
23433SOL    HW276262   7.518   8.480   4.322 -0.3784  0.0821 -0.9466
23434SOL     OW76263   5.415   7.081   5.938 -0.2231  0.2438 -0.5224
23434SOL    HW176264   5.441   7.045   5.854 -0.8125  0.7852 -0.9475
23434SOL    HW276265   5.404   7.005   5.995 -1.0754 -0.2399 -1.3014
23435SOL     OW76266   4.341   3.981   2.432  0.8047  0.3933 -0.6982
23435SOL    HW176267   4.349   3.890   2.459 -0.0233  0.0919 -1.4257
23435SOL    HW276268   4.403   3.991   2.360  1.0027  0.4496 -0.5209
23436SOL     OW76269   2.883   3.406   1.820 -0.4750 -0.0030 -0.2196
23436SOL    HW176270   2.825   3.469   1.776 -0.3363 -0.6438 -1.3535
23436SOL    HW276271   2.836   3.323   1.814  0.4702 -0.4935 -0.9987
23437SOL     OW76272   4.603   3.959   6.230  0.2655  0.1356  0.3092
23437SOL    HW176273   4.615   3.880   6.178 -0.5206  0.8299 -0.9965
23437SOL    HW276274   4.673   4.018   6.201  0.0403  0.3994  0.2947
23438SOL     OW76275   5.703   3.085   5.553  0.3784  0.5563 -0.3156
23438SOL    HW176276   5.658   3.070   5.470  0.1544 -1.6467  0.1497
23438SOL    HW276277   5.786   3.037   5.544 -0.2962 -0.9919  1.2362
23439SOL     OW76278   7.038   3.908   5.248 -0.0572  0.0236  0.0230
23439SOL    HW176279   7.091   3.966   5.192 -2.2101  0.0205 -2.1665
23439SOL    HW276280   7.101   3.845   5.283  1.5541  0.6158 -1.6278
23440SOL     OW76281   9.136   3.349   4.727  0.1156 -0.0047 -0.0926
23440SOL    HW176282   9.216   3.304   4.751  0.1396  0.6706  1.1758
23440SOL    HW276283   9.084   3.351   4.807  0.4328  2.8462  0.1416
23441SOL     OW76284   0.234   0.113   5.957 -0.3589  0.2810 -0.3709
23441SOL    HW176285   0.320   0.077   5.938 -0.1733  0.6372 -0.2090
23441SOL    HW276286   0.219   0.094   6.049  0.1192  1.3910 -0.0570
23442SOL     OW76287   0.691   4.117   7.874 -0.1025 -0.4774 -0.4271
23442SOL    HW176288   0.602   4.129   7.840 -0.5084  0.5866  0.9407
23442SOL    HW276289   0.745   4.176   7.821 -0.1337 -1.3160 -1.4359
23443SOL     OW76290   7.754   1.140   4.079  0.6089  0.0517  0.2248
23443SOL    HW176291   7.730   1.118   4.169 -0.5660  0.3723  0.0075
23443SOL    HW276292   7.815   1.071   4.053  1.7369  0.4978  1.5779
23444SOL     OW76293   0.555   0.210   5.421  0.6079  0.6501  0.4331
23444SOL    HW176294   0.483   0.268   5.397  0.1998  0.8229  1.9642
23444SOL    HW276295   0.566   0.224   5.515  1.4457 -0.7069  0.5556
23445SOL     OW76296   5.266   6.597   3.674  0.4978 -0.3969  0.8965
23445SOL    HW176297   5.178   6.634   3.667  0.4610 -0.7291 -0.8547
23445SOL    HW276298   5.253   6.511   3.714 -0.1146 -0.8930 -0.3447
23446SOL     OW76299   0.407   2.368   6.402 -0.5615 -0.2121  0.4052
23446SOL    HW176300   0.477   2.335   6.458 -0.7819 -0.1720  0.7083
23446SOL    HW276301   0.431   2.341   6.314 -0.3175 -0.4581  0.5474
23447SOL     OW76302   5.289   5.984   6.468  0.1867 -0.0727  0.3318
23447SOL    HW176303   5.242   6.068   6.467  0.0183 -0.1581 -0.9796
23447SOL    HW276304   5.220   5.919   6.479  0.3266 -0.0483  1.4403
23448SOL     OW76305   3.534   8.881   3.722  0.5234 -0.0758  0.2311
23448SOL    HW176306   3.483   8.838   3.791  0.9810  0.4784  0.9324
23448SOL    HW276307   3.556   8.966   3.759 -1.1436  1.1754 -1.4801
23449SOL     OW76308   0.286   0.738   7.951  0.1323 -0.5559 -1.1225
23449SOL    HW176309   0.334   0.705   7.875  0.8701 -1.1929 -0.4147
23449SOL    HW276310   0.352   0.739   8.021 -0.7326 -0.8428 -0.2831
23450SOL     OW76311   4.604   1.932   8.682 -0.6242 -0.2799 -0.0372
23450SOL    HW176312   4.532   1.987   8.713  0.2961  0.6163  0.5659
23450SOL    HW276313   4.654   1.990   8.624 -0.4530 -0.9316 -0.5504
23451SOL     OW76314   4.620   7.270   3.324  0.0322 -0.2581  0.2167
23451SOL    HW176315   4.674   7.316   3.259  1.8308 -1.5168  0.7328
23451SOL    HW276316   4.595   7.338   3.386  1.4292  0.3176  0.1927
23452SOL     OW76317   5.372   6.983   8.351  0.7711 -0.1830  0.3656
23452SOL    HW176318   5.279   6.983   8.375  0.6537  0.5994 -0.0790
23452SOL    HW276319   5.402   7.072   8.370  1.1394 -0.0922 -0.5994
23453SOL     OW76320   6.945   6.298   0.805  0.4065 -0.2194 -0.1386
23453SOL    HW176321   6.863   6.295   0.756 -0.8425 -1.2041  1.8749
23453SOL    HW276322   6.962   6.391   0.819 -0.6535 -0.0176 -0.1371
23454SOL     OW76323   5.786   4.989   6.732  0.5730  0.0078 -0.3122
23454SOL    HW176324   5.754   4.948   6.812  2.1079 -1.4819 -0.4069
23454SOL    HW276325   5.769   5.083   6.744 -0.3112 -0.3341  1.2213
23455SOL     OW76326   0.185   7.591   9.070  0.2989  0.3647 -0.3241
23455SOL    HW176327   0.167   7.684   9.075  2.3533  0.8935 -1.5397
23455SOL    HW276328   0.277   7.582   9.093  0.7436 -1.0545 -2.3390
23456SOL     OW76329   6.409   4.079   4.640  0.0476  0.5901 -1.1605
23456SOL    HW176330   6.463   4.132   4.582  0.3694 -0.2685 -1.6645
23456SOL    HW276331   6.460   4.069   4.720 -0.9055  2.8228 -0.1725
23457SOL     OW76332   0.067   8.948   5.268  0.1009  0.7793 -0.2374
23457SOL    HW176333   0.085   8.895   5.190  1.4187  1.9703 -0.7926
23457SOL    HW276334   0.086   9.038   5.240  1.5367  1.1472  1.6883
23458SOL     OW76335   1.422   5.623   3.195 -0.3008  0.1116 -0.6215
23458SOL    HW176336   1.425   5.708   3.150 -1.1544 -0.7852 -2.4443
23458SOL    HW276337   1.488   5.570   3.151 -0.8415 -0.6512 -0.5202
23459SOL     OW76338   6.151   0.019   8.523 -0.3972 -0.0221 -0.5628
23459SOL    HW176339   6.243   0.037   8.502 -0.3968 -0.2873 -0.7964
23459SOL    HW276340   6.115  -0.017   8.442 -0.4080 -1.0061 -0.1415
23460SOL     OW76341   5.371   6.494   0.125 -0.5196  0.3321  0.2690
23460SOL    HW176342   5.454   6.515   0.169 -1.1905 -0.7575  2.1921
23460SOL    HW276343   5.393   6.426   0.062  0.3191  1.2466 -0.4430
23461SOL     OW76344   2.723   0.340   4.102 -0.1218  0.3896 -0.3152
23461SOL    HW176345   2.807   0.345   4.056  0.5154 -0.9287  0.6385
23461SOL    HW276346   2.696   0.248   4.094 -0.0175  0.1158  1.7989
23462SOL     OW76347   8.786   2.302   7.459 -0.1375 -0.8455  0.0373
23462SOL    HW176348   8.744   2.247   7.393 -0.9383  0.0731 -0.2502
23462SOL    HW276349   8.740   2.279   7.541 -1.0604 -0.0339 -0.2293
23463SOL     OW76350   6.471   6.138   0.299 -0.2403 -0.3284  0.3421
23463SOL    HW176351   6.393   6.104   0.255  0.3969 -1.0947 -0.2069
23463SOL    HW276352   6.449   6.229   0.318 -0.8368 -0.2039 -0.8473
23464SOL     OW76353   0.611   2.770   4.930 -0.3798  0.3914  0.6671
23464SOL    HW176354   0.574   2.803   4.847 -0.3053  1.3554  1.0050
23464SOL    HW276355   0.552   2.699   4.955 -0.3634  0.0372 -0.2455
23465SOL     OW76356   6.710   4.222   4.595  0.2126  0.0100  0.6720
23465SOL    HW176357   6.731   4.168   4.519 -1.8681 -2.2633  1.6007
23465SOL    HW276358   6.639   4.279   4.566 -1.8565 -2.1146  1.2713
23466SOL     OW76359   1.447   1.805   5.877 -0.4693  0.0406  0.3070
23466SOL    HW176360   1.351   1.800   5.874 -0.4595 -0.2474 -2.2705
23466SOL    HW276361   1.474   1.718   5.907 -1.0288 -0.3739 -0.3358
23467SOL     OW76362   7.772   3.619   7.256  0.2706 -0.0422 -0.2431
23467SOL    HW176363   7.775   3.678   7.181  0.7814  0.2087 -0.0263
23467SOL    HW276364   7.699   3.651   7.309 -0.4210 -0.5182 -0.8666
23468SOL     OW76365   5.530   9.043   1.295  0.5219  0.8187  0.1568
23468SOL    HW176366   5.502   8.987   1.223  2.6320 -0.6825  0.3991
23468SOL    HW276367   5.453   9.095   1.317 -1.0980 -0.9348 -1.0852
23469SOL     OW76368   5.481   7.178   5.024  0.1858  0.6760  0.6850
23469SOL    HW176369   5.572   7.204   5.016 -0.1191  2.0458  1.4885
23469SOL    HW276370   5.475   7.096   4.974  1.7210  0.8461  0.1900
23470SOL     OW76371   1.761   0.071   0.242  0.2091  0.3699  0.4175
23470SOL    HW176372   1.702   0.107   0.175  0.0586 -3.0138 -1.5189
23470SOL    HW276373   1.706   0.062   0.320 -1.1301 -0.2147 -0.5405
23471SOL     OW76374   5.002   0.415   6.469 -0.1769  0.3181  0.3253
23471SOL    HW176375   5.014   0.320   6.476 -0.3716  0.2383 -0.3757
23471SOL    HW276376   4.945   0.437   6.543 -2.6289 -0.5800 -1.1753
23472SOL     OW76377   0.815   4.500   3.209 -0.5569  0.3485  0.2694
23472SOL    HW176378   0.730   4.533   3.179  0.8430  4.5917  0.3774
23472SOL    HW276379   0.848   4.449   3.134 -2.6725 -0.5246 -0.1548
23473SOL     OW76380   7.583   6.138   3.404  0.2480  0.1624  0.1560
23473SOL    HW176381   7.531   6.207   3.446 -1.0614 -0.7287  0.0512
23473SOL    HW276382   7.537   6.120   3.322  1.2599 -0.0166 -0.3930
23474SOL     OW76383   2.140   4.590   2.172 -0.2508  0.8176  0.2766
23474SOL    HW176384   2.211   4.629   2.120 -0.3174  0.4088 -0.1347
23474SOL    HW276385   2.084   4.548   2.107  0.1864 -0.5398  0.7329
23475SOL     OW76386   9.334   1.832   8.296 -0.0640  0.5132 -0.3981
23475SOL    HW176387   9.364   1.913   8.338 -1.5255  0.4130  0.9237
23475SOL    HW276388   9.290   1.861   8.216  0.7027  0.8946 -0.6918
23476SOL     OW76389   4.879   3.624   7.798  0.2684 -0.0582 -0.2293
23476SOL    HW176390   4.801   3.573   7.820  0.7888 -0.5460  0.5452
23476SOL    HW276391   4.950   3.559   7.795  1.6267  0.8538  4.0896
23477SOL     OW76392   8.514   3.340   6.452  0.0419 -0.2247 -0.3545
23477SOL    HW176393   8.481   3.402   6.516  0.3773 -1.0577  0.6559
23477SOL    HW276394   8.555   3.394   6.384  1.2811  0.6313  1.0343
23478SOL     OW76395   6.951   2.896   0.483  0.5429 -0.7921  0.0722
23478SOL    HW176396   6.864   2.872   0.516  0.3279  2.5104  2.4886
23478SOL    HW276397   6.934   2.970   0.424  1.6620  0.4482  1.2187
23479SOL     OW76398   4.837   7.162   6.634 -0.5237  0.2267  0.1191
23479SOL    HW176399   4.864   7.093   6.574 -0.3327  1.5190 -1.3401
23479SOL    HW276400   4.758   7.199   6.594 -0.8852  0.5616  1.1132
23480SOL     OW76401   4.971   5.210   5.763 -0.0318 -0.3225 -0.3196
23480SOL    HW176402   4.917   5.260   5.703  0.4620  0.3632 -0.2010
23480SOL    HW276403   4.926   5.217   5.848  0.2763  0.2911 -0.2092
23481SOL     OW76404   8.213   2.249   0.560 -0.0517 -0.1932 -0.4190
23481SOL    HW176405   8.168   2.208   0.486 -1.9168  0.0852  0.4867
23481SOL    HW276406   8.208   2.342   0.542 -1.3813 -0.0637  0.4692
23482SOL     OW76407   0.083   3.682   0.363 -0.6523 -0.0640 -0.4010
23482SOL    HW176408   0.086   3.774   0.387  1.9130 -0.0899 -0.4077
23482SOL    HW276409   0.137   3.675   0.284  0.3994 -1.7603  0.3907
23483SOL     OW76410   5.298   7.583   9.103 -0.0592 -0.2678  0.0349
23483SOL    HW176411   5.365   7.522   9.134 -0.1119 -0.6181 -0.5246
23483SOL    HW276412   5.221   7.564   9.156 -0.3189 -1.2465 -0.6684
23484SOL     OW76413   5.309   5.465   8.199  0.4833  0.1430 -0.4166
23484SOL    HW176414   5.359   5.401   8.249 -0.4106  1.3047  2.1738
23484SOL    HW276415   5.376   5.514   8.150  1.7837  0.5117  1.5708
23485SOL     OW76416   8.075   4.738   8.277  0.2873 -0.2618 -0.0801
23485SOL    HW176417   8.010   4.674   8.306  0.9988 -0.7443  0.5107
23485SOL    HW276418   8.147   4.684   8.243  0.3028  0.2643 -0.9091
23486SOL     OW76419   3.386   3.674   1.150  0.0184  0.1471 -0.6408
23486SOL    HW176420   3.380   3.600   1.210 -0.7150  2.0494  1.7839
23486SOL    HW276421   3.359   3.638   1.065  1.3735 -2.7193  0.0255
23487SOL     OW76422   4.857   2.194   5.222 -0.2881 -0.0856 -0.1787
23487SOL    HW176423   4.905   2.161   5.146  0.9663 -0.0291  0.5660
23487SOL    HW276424   4.921   2.245   5.271 -1.1108 -0.0087  0.8589
23488SOL     OW76425   2.631   7.820   5.380 -0.1178 -0.4139  0.2871
23488SOL    HW176426   2.652   7.726   5.374 -0.5027 -0.3817 -2.6146
23488SOL    HW276427   2.667   7.846   5.465 -0.2469 -3.2225  1.3400
23489SOL     OW76428   3.636   9.055   1.334  0.4180 -0.0419  1.0676
23489SOL    HW176429   3.640   9.130   1.275  0.6353 -0.1159  0.9877
23489SOL    HW276430   3.581   9.084   1.407  1.7813  0.7241  1.8137
23490SOL     OW76431   2.024   6.447   5.362 -0.5005 -0.0619 -0.0759
23490SOL    HW176432   2.045   6.494   5.281  0.5399 -0.4216 -0.0367
23490SOL    HW276433   1.936   6.413   5.348 -0.7116  0.6852 -0.6739
23491SOL     OW76434   8.293   3.889   4.539  0.8154 -0.1201  0.2313
23491SOL    HW176435   8.224   3.907   4.475  0.5209 -1.9423 -0.0147
23491SOL    HW276436   8.358   3.957   4.524 -0.0426  0.4986 -0.8337
23492SOL     OW76437   0.289   8.375   9.014  0.0110  0.2248  0.3385
23492SOL    HW176438   0.311   8.338   8.929 -1.1968  0.3464 -0.0389
23492SOL    HW276439   0.295   8.470   9.002 -2.3020  0.3532 -0.2703
23493SOL     OW76440   9.370   3.343   8.414  0.3867 -0.0103  0.0352
23493SOL    HW176441   9.438   3.295   8.366  0.1574 -0.7772  0.4493
23493SOL    HW276442   9.288   3.305   8.383  0.2706 -1.5712  2.0521
23494SOL     OW76443   8.567   5.863   0.157 -0.7416  0.5639  0.3272
23494SOL    HW176444   8.581   5.915   0.078 -0.8335 -2.1406 -1.5974
23494SOL    HW276445   8.485   5.897   0.194 -1.7395  0.6730 -1.8247
23495SOL     OW76446   2.451   6.820   8.124  0.4146  0.0425  0.6277
23495SOL    HW176447   2.438   6.885   8.194 -0.7562 -0.0976  0.5752
23495SOL    HW276448   2.414   6.739   8.161 -1.3700  0.2509 -0.5706
23496SOL     OW76449   3.072   6.121   8.384 -0.0365 -0.1386 -0.2174
23496SOL    HW176450   3.055   6.096   8.475 -0.6284 -0.3524 -0.3801
23496SOL    HW276451   2.986   6.118   8.342  0.2073  0.1116 -0.7504
23497SOL     OW76452   4.276   2.627   0.140 -0.1379 -0.3771  0.1322
23497SOL    HW176453   4.256   2.714   0.106 -0.9325 -0.9956 -1.0387
23497SOL    HW276454   4.192   2.581   0.141  0.4757 -1.5730 -0.6004
23498SOL     OW76455   5.307   5.080   6.884 -0.2823 -0.1595 -0.1777
23498SOL    HW176456   5.314   4.997   6.837  0.8133  0.3585 -0.9625
23498SOL    HW276457   5.323   5.056   6.976 -0.2889 -0.8583 -0.3522
23499SOL     OW76458   6.886   1.637   7.183 -0.6170  0.9956 -0.0299
23499SOL    HW176459   6.951   1.699   7.148  0.2910  0.4894  0.7044
23499SOL    HW276460   6.910   1.553   7.143 -0.1167  0.5875  1.0908
23500SOL     OW76461   1.820   0.582   7.315 -0.4043  0.6493 -0.4919
23500SOL    HW176462   1.769   0.636   7.255 -1.0075  0.6323  0.0027
23500SOL    HW276463   1.756   0.527   7.360  0.0583  0.5369  0.0494
23501SOL     OW76464   4.907   2.307   7.378  0.4232 -0.6951  0.1037
23501SOL    HW176465   4.854   2.228   7.391 -1.0639 -0.3127 -2.7619
23501SOL    HW276466   4.846   2.379   7.393  1.2537 -0.1237  0.7854
23502SOL     OW76467   2.160   6.564   3.608  0.3997 -0.4389 -0.0583
23502SOL    HW176468   2.171   6.546   3.514  1.2113 -1.3226  0.1964
23502SOL    HW276469   2.166   6.659   3.615  0.6912 -0.3917 -0.8626
23503SOL     OW76470   5.362   1.833   7.384  0.0544  0.8215  0.1575
23503SOL    HW176471   5.390   1.830   7.293 -0.0408 -0.9457  0.1466
23503SOL    HW276472   5.273   1.867   7.382  0.5786  2.2469 -0.2324
23504SOL     OW76473   6.814   3.017   4.052  0.2726 -0.3349  1.1346
23504SOL    HW176474   6.787   2.929   4.028 -1.8262  0.7418 -0.9581
23504SOL    HW276475   6.752   3.043   4.121  0.8044 -0.4355  1.6553
23505SOL     OW76476   3.057   2.840   9.357  0.6269  0.2249  0.5781
23505SOL    HW176477   3.092   2.767   9.408  1.6169 -0.2028 -0.6680
23505SOL    HW276478   3.134   2.893   9.333  0.0590  1.0302  0.4620
23506SOL     OW76479   7.848   8.653   9.254 -0.0378 -0.1287 -0.7085
23506SOL    HW176480   7.801   8.622   9.331 -1.4273  0.0552 -1.4441
23506SOL    HW276481   7.828   8.588   9.186  1.0889 -0.2386 -0.9542
23507SOL     OW76482   5.390   2.781   7.805 -0.1789 -0.4600  0.2537
23507SOL    HW176483   5.322   2.841   7.776  0.8279  1.3941  1.5468
23507SOL    HW276484   5.342   2.710   7.849 -1.3738 -0.5308 -1.0961
23508SOL     OW76485   1.478   4.381   2.247  0.0239  0.2346 -0.3239
23508SOL    HW176486   1.453   4.463   2.205 -1.0436  0.5404  0.8714
23508SOL    HW276487   1.568   4.396   2.277 -0.4096  1.2287  0.5040
23509SOL     OW76488   3.297   6.561   3.477  0.0059 -0.2943 -0.0975
23509SOL    HW176489   3.264   6.485   3.526  0.7183 -0.4768  0.1138
23509SOL    HW276490   3.367   6.525   3.422 -0.2938  0.0412 -0.7118
23510SOL     OW76491   2.017   3.058   5.173  0.3950  0.5171 -0.0873
23510SOL    HW176492   2.111   3.062   5.192  0.4869  0.2620 -0.4732
23510SOL    HW276493   2.007   2.978   5.121 -0.3891 -0.7561  1.9227
23511SOL     OW76494   7.089   7.659   9.039  0.1217  0.7146 -0.5507
23511SOL    HW176495   7.007   7.609   9.032 -0.5371  1.7310 -0.2976
23511SOL    HW276496   7.154   7.594   9.066 -0.5201 -0.1862 -1.1028
23512SOL     OW76497   4.129   2.507   6.696  0.0975  0.1161  0.0546
23512SOL    HW176498   4.224   2.509   6.711  0.0717  0.1409  0.2168
23512SOL    HW276499   4.118   2.442   6.626  0.1349 -0.7204  0.8112
23513SOL     OW76500   4.697   5.639   7.587 -0.2761  0.4497  0.5086
23513SOL    HW176501   4.767   5.679   7.637 -0.7214  2.1990 -0.2062
23513SOL    HW276502   4.683   5.554   7.629  2.0385  0.1761  0.8430
23514SOL     OW76503   7.069   2.768   7.740  0.3049  0.2845  0.4105
23514SOL    HW176504   7.103   2.855   7.717 -0.4378  0.6846  0.7694
23514SOL    HW276505   7.065   2.721   7.657  1.5379  0.2801  0.3284
23515SOL     OW76506   0.847   3.043   1.278 -0.1766 -0.7230 -0.2265
23515SOL    HW176507   0.761   3.020   1.242  0.4044  0.5646 -2.5731
23515SOL    HW276508   0.857   3.136   1.261  1.0853 -0.5008  1.4120
23516SOL     OW76509   2.578   0.789   2.139  0.5679  0.7628  0.5861
23516SOL    HW176510   2.587   0.809   2.045 -0.2779 -0.2533  0.2735
23516SOL    HW276511   2.662   0.748   2.162  1.1810  1.9421  0.5432
23517SOL     OW76512   6.157   7.618   4.865  0.0639 -0.1704 -0.3146
23517SOL    HW176513   6.104   7.696   4.880  0.1167  0.4030 -2.6420
23517SOL    HW276514   6.206   7.638   4.785 -1.1078 -3.1462 -1.9261
23518SOL     OW76515   2.410   6.343   2.213  0.1283  0.3949  0.2136
23518SOL    HW176516   2.408   6.360   2.119 -1.5830 -1.6751 -0.2027
23518SOL    HW276517   2.320   6.355   2.242  0.6874  1.3232  1.6961
23519SOL     OW76518   2.022   6.156   8.422 -0.0562  0.6916 -0.0013
23519SOL    HW176519   2.007   6.103   8.343  1.2744 -0.2472  0.3412
23519SOL    HW276520   2.015   6.094   8.494 -2.5727  1.7766  0.7898
23520SOL     OW76521   8.690   1.079   3.866  0.4391 -0.3175  0.2086
23520SOL    HW176522   8.707   0.985   3.865  0.9771 -0.2343 -1.2736
23520SOL    HW276523   8.624   1.091   3.934 -0.1019 -1.8501 -0.0065
23521SOL     OW76524   7.975   4.196   0.954  0.5797  0.5819  0.2691
23521SOL    HW176525   7.987   4.115   1.004  0.9772  0.0090 -0.7299
23521SOL    HW276526   7.880   4.208   0.951  0.3764 -0.9542 -1.2411
23522SOL     OW76527   4.303   5.288   8.986 -0.4412  0.8007 -0.0423
23522SOL    HW176528   4.208   5.289   8.973 -0.3780  0.7382 -0.5257
23522SOL    HW276529   4.336   5.233   8.915  0.1987  3.0490 -1.5994
23523SOL     OW76530   0.869   3.938   3.344 -0.8181  0.2521  0.0529
23523SOL    HW176531   0.873   4.030   3.316 -0.4442  0.4229  0.6498
23523SOL    HW276532   0.858   3.889   3.262  2.8176  0.5471 -0.7946
23524SOL     OW76533   1.512   0.236   3.402  0.5026  0.7430  0.0940
23524SOL    HW176534   1.546   0.157   3.359 -1.0952  0.2700 -0.3772
23524SOL    HW276535   1.499   0.298   3.330  0.5859  0.9967  0.2984
23525SOL     OW76536   0.038   4.752   2.342  0.1460 -0.2356 -0.3286
23525SOL    HW176537   0.049   4.824   2.280 -1.0024 -1.0902 -1.5877
23525SOL    HW276538  -0.022   4.692   2.298 -0.7410 -0.8638  1.6429
23526SOL     OW76539   1.657   6.271   7.456  0.1760 -0.0829  0.0553
23526SOL    HW176540   1.635   6.344   7.514  1.5603 -0.9509  1.7832
23526SOL    HW276541   1.736   6.299   7.410  0.2875 -0.1890  0.1780
23527SOL     OW76542   5.288   2.072   2.750 -0.2905  0.2666  0.0941
23527SOL    HW176543   5.319   2.125   2.676 -0.1909 -0.1795 -0.1906
23527SOL    HW276544   5.336   2.105   2.825 -1.0538  1.3349  0.1266
23528SOL     OW76545   1.456   6.139   2.046  0.3392 -0.5136 -0.1429
23528SOL    HW176546   1.418   6.222   2.016  2.2507 -0.2948 -2.2155
23528SOL    HW276547   1.526   6.121   1.984  0.6943 -3.1611  0.8929
23529SOL     OW76548   2.975   4.647   0.790  0.2419  0.2056  0.0319
23529SOL    HW176549   2.969   4.597   0.708 -0.7783 -1.2361  0.9393
23529SOL    HW276550   2.894   4.697   0.794  0.4935  0.6282 -0.0377
23530SOL     OW76551   7.716   0.204   8.559 -0.7453  0.1640 -0.2986
23530SOL    HW176552   7.792   0.153   8.533 -1.0217  0.1440 -1.0693
23530SOL    HW276553   7.695   0.258   8.483 -0.8782  0.9201  0.2631
23531SOL     OW76554   4.867   4.004   4.403 -0.0920  0.2216  0.0128
23531SOL    HW176555   4.792   3.998   4.344 -1.6013  1.0138  1.7169
23531SOL    HW276556   4.904   3.916   4.404 -1.5491 -0.4286 -0.2168
23532SOL     OW76557   5.516   6.846   0.043  0.3425  0.1034  0.9641
23532SOL    HW176558   5.477   6.913  -0.013 -1.7896 -1.3843  0.5223
23532SOL    HW276559   5.497   6.875   0.132 -1.6229 -0.3941  0.7617
23533SOL     OW76560   2.213   6.291   5.174 -0.0308  0.2571  0.0591
23533SOL    HW176561   2.258   6.208   5.190 -0.6827 -0.3464 -1.0595
23533SOL    HW276562   2.155   6.302   5.249  0.5743  0.0714  0.5647
23534SOL     OW76563   3.958   4.215   5.880 -0.7031  0.3909 -0.2138
23534SOL    HW176564   3.944   4.288   5.819 -0.2537  0.2370 -0.5096
23534SOL    HW276565   3.980   4.141   5.824  2.5650  0.8935  0.1754
23535SOL     OW76566   4.135   6.523   7.082  0.2990  0.1457 -0.4006
23535SOL    HW176567   4.153   6.477   7.164  0.0202  0.9197  0.1071
23535SOL    HW276568   4.211   6.505   7.027  1.5447  1.4108  0.8330
23536SOL     OW76569   1.734   3.306   2.310 -0.8554  0.0703  0.1232
23536SOL    HW176570   1.763   3.357   2.235  1.1100 -0.9987  0.0643
23536SOL    HW276571   1.671   3.361   2.355 -0.4221  1.6324 -1.1130
23537SOL     OW76572   6.540   1.476   6.356 -0.3095  0.3914  0.2905
23537SOL    HW176573   6.540   1.473   6.260 -1.7647 -0.2156  0.2773
23537SOL    HW276574   6.461   1.525   6.378  0.3044  1.0137  1.1943
23538SOL     OW76575   3.381   7.252   0.626  0.0420  0.1958  0.3388
23538SOL    HW176576   3.442   7.278   0.696  1.1115 -2.1810  0.3962
23538SOL    HW276577   3.346   7.168   0.655 -1.9765  0.6828 -0.5371
23539SOL     OW76578   5.242   4.110   3.140 -0.2859  0.0129  0.9532
23539SOL    HW176579   5.307   4.174   3.112 -0.6048 -0.3440 -0.6703
23539SOL    HW276580   5.274   4.080   3.226  2.1567 -0.7391 -0.1224
23540SOL     OW76581   0.584   3.107   7.536  0.0588  0.5043 -0.1878
23540SOL    HW176582   0.579   3.016   7.507  0.3172  0.2905  0.4122
23540SOL    HW276583   0.628   3.153   7.464  0.1215  0.1128 -0.4021
23541SOL     OW76584   2.960   7.241   7.578 -0.0729 -0.4896  0.3760
23541SOL    HW176585   2.915   7.311   7.531 -1.1169 -2.1455 -1.2392
23541SOL    HW276586   2.919   7.238   7.664 -0.1574  0.7068  0.3923
23542SOL     OW76587   7.748   8.172   4.678  0.1259 -0.3668  0.4583
23542SOL    HW176588   7.791   8.241   4.628  1.2980  0.2344  2.1762
23542SOL    HW276589   7.655   8.193   4.675  0.4675  1.3574  0.9827
23543SOL     OW76590   5.775   2.197   5.992 -0.0443  0.1852  0.1289
23543SOL    HW176591   5.706   2.172   6.053 -0.8906  0.3612 -0.7190
23543SOL    HW276592   5.809   2.280   6.026 -1.0662  0.7014 -0.0604
23544SOL     OW76593   2.005   8.910   5.305 -0.3085 -0.3938 -0.3635
23544SOL    HW176594   2.008   8.967   5.227 -0.7317 -0.3352 -0.3421
23544SOL    HW276595   2.066   8.950   5.366  1.4289 -1.4596 -1.3288
23545SOL     OW76596   2.903   9.331   4.097 -0.2453 -0.6508 -0.4506
23545SOL    HW176597   2.955   9.312   4.175 -0.6853 -0.8485 -0.2042
23545SOL    HW276598   2.944   9.409   4.059 -0.4350 -0.1473  0.3564
23546SOL     OW76599   2.256   0.539   7.106 -0.0872 -0.2542 -0.9277
23546SOL    HW176600   2.186   0.582   7.156 -1.9538 -3.1093 -0.8045
23546SOL    HW276601   2.222   0.535   7.017 -0.3276 -2.0324 -0.7843
23547SOL     OW76602   5.594   8.577   7.346 -0.0939  0.1290 -0.0988
23547SOL    HW176603   5.658   8.547   7.282 -0.7092 -0.2669 -0.5427
23547SOL    HW276604   5.591   8.507   7.411  0.0974  0.2526  0.0408
23548SOL     OW76605   7.339   5.803   1.610  0.1868  0.2089 -0.0941
23548SOL    HW176606   7.422   5.824   1.653 -0.1086  0.0735  0.5603
23548SOL    HW276607   7.349   5.713   1.581  1.0041  0.8176 -1.8181
23549SOL     OW76608   3.254   5.946   6.154  0.2115 -0.2837  0.5839
23549SOL    HW176609   3.164   5.977   6.148  0.6686  0.9452 -0.4678
23549SOL    HW276610   3.276   5.952   6.247 -0.3131  0.8697  0.6461
23550SOL     OW76611   6.824   2.482   7.750  0.1522  0.4396 -0.2472
23550SOL    HW176612   6.753   2.435   7.706 -1.0637  0.1111  1.8910
23550SOL    HW276613   6.884   2.506   7.680 -0.6069 -1.8226 -1.7882
23551SOL     OW76614   3.408   1.351   9.171 -0.8813  0.3387  0.1592
23551SOL    HW176615   3.365   1.413   9.113 -2.1679 -1.0284 -0.4280
23551SOL    HW276616   3.424   1.274   9.116 -1.0505 -0.5510  1.3144
23552SOL     OW76617   4.971   1.594   3.131  0.1633  0.0368 -0.7192
23552SOL    HW176618   5.055   1.560   3.160 -0.2282 -1.0930 -0.8740
23552SOL    HW276619   4.988   1.626   3.042  0.5689  0.4014 -0.5142
23553SOL     OW76620   6.215   1.397   4.542  0.4393  0.1297  0.7151
23553SOL    HW176621   6.240   1.387   4.634  4.8062  0.1872 -0.2327
23553SOL    HW276622   6.246   1.484   4.518 -0.0916 -0.0988 -0.9563
23554SOL     OW76623   0.659   4.791   2.580 -0.4436  0.6375  0.8119
23554SOL    HW176624   0.595   4.820   2.645 -0.7228  0.4414  0.6257
23554SOL    HW276625   0.615   4.721   2.532  0.2525 -0.1800  1.3235
23555SOL     OW76626   3.364   5.762   1.126 -0.1252 -0.2241  0.0890
23555SOL    HW176627   3.391   5.738   1.215  1.9727 -0.6381 -0.5989
23555SOL    HW276628   3.406   5.697   1.070 -0.1163  0.9559 -1.3186
23556SOL     OW76629   3.630   0.522   8.224  0.3301  0.3830 -0.0970
23556SOL    HW176630   3.596   0.440   8.260 -0.9076 -0.1173 -2.2064
23556SOL    HW276631   3.601   0.589   8.285  2.1015 -0.7583  2.1422
23557SOL     OW76632   8.692   0.461   1.596  0.3000  0.6134  0.4109
23557SOL    HW176633   8.734   0.378   1.578  0.3725  0.6403  0.4568
23557SOL    HW276634   8.639   0.445   1.674 -3.7937 -0.8703 -2.3316
23558SOL     OW76635   7.849   1.187   7.693  0.2844 -0.1951 -0.4864
23558SOL    HW176636   7.817   1.160   7.607 -0.8320  0.1186 -0.1832
23558SOL    HW276637   7.944   1.174   7.689  0.0103 -2.3723 -0.9778
23559SOL     OW76638   3.489   5.428   7.885  0.8160  0.3067  0.2409
23559SOL    HW176639   3.412   5.372   7.884  0.5989  0.6099 -0.8837
23559SOL    HW276640   3.507   5.442   7.978 -1.5747  1.7147  0.5779
23560SOL     OW76641   3.155   4.988   4.564  0.0528 -0.0896 -0.2456
23560SOL    HW176642   3.148   4.939   4.646 -0.2641 -1.1856 -0.8995
23560SOL    HW276643   3.239   4.960   4.527  1.3753  2.2395  0.8244
23561SOL     OW76644   5.112   5.771   6.594 -0.3140 -0.1967 -0.0008
23561SOL    HW176645   5.077   5.763   6.505  0.2252  0.4832 -0.2811
23561SOL    HW276646   5.073   5.697   6.641  0.4596 -1.3832 -1.1485
23562SOL     OW76647   3.918   2.133   0.123 -0.9691 -0.2481 -0.3010
23562SOL    HW176648   3.908   2.144   0.029 -0.3985 -0.7211 -0.4274
23562SOL    HW276649   3.829   2.130   0.158 -1.1917  2.2185 -0.5333
23563SOL     OW76650   7.262   0.789   0.221 -0.5341 -0.1115  0.3095
23563SOL    HW176651   7.244   0.880   0.197 -2.0199 -0.5027 -0.1384
23563SOL    HW276652   7.326   0.796   0.292 -1.3286  1.3336  0.9342
23564SOL     OW76653   0.781   8.133   1.723  0.0314 -0.0172  0.3656
23564SOL    HW176654   0.835   8.211   1.713  0.5919 -0.3599  0.6079
23564SOL    HW276655   0.793   8.107   1.814 -0.8008  0.0769  0.5078
23565SOL     OW76656   9.021   8.517   4.151 -0.1217 -0.0867  0.1193
23565SOL    HW176657   9.006   8.438   4.202  0.6461  0.1850  0.7928
23565SOL    HW276658   9.117   8.521   4.141 -0.0819  1.1482  0.7483
23566SOL     OW76659   1.492   7.284   1.082 -0.9112  0.3694 -0.3891
23566SOL    HW176660   1.490   7.288   1.178  0.5503 -0.4227 -0.2903
23566SOL    HW276661   1.492   7.190   1.062 -1.3724  0.5277 -1.1762
23567SOL     OW76662   2.706   6.048   8.068 -0.3558  0.0050 -0.1659
23567SOL    HW176663   2.684   6.112   8.000  1.4738  2.4105  1.3360
23567SOL    HW276664   2.693   6.096   8.150  1.6056 -1.3613  1.0168
23568SOL     OW76665   9.179   9.105   1.318 -1.4272 -0.5050  0.1958
23568SOL    HW176666   9.132   9.059   1.388  0.0018  0.3164  1.7586
23568SOL    HW276667   9.261   9.056   1.309 -0.8938  0.3685  0.2520
23569SOL     OW76668   2.585   6.626   1.979  0.4209  0.3963 -0.0072
23569SOL    HW176669   2.615   6.535   1.984  1.5723  0.8106  1.2108
23569SOL    HW276670   2.497   6.620   1.943  0.5102 -1.1950 -0.0404
23570SOL     OW76671   7.741   0.538   1.094  0.1320  0.4401 -0.7195
23570SOL    HW176672   7.779   0.450   1.089 -0.2521  0.1487  0.7754
23570SOL    HW276673   7.747   0.561   1.187 -0.3813  1.7244 -0.9781
23571SOL     OW76674   4.963   7.639   8.590 -0.1537 -0.0737  0.3525
23571SOL    HW176675   5.054   7.650   8.618  0.0763  0.7611 -0.6629
23571SOL    HW276676   4.954   7.697   8.514 -1.4681 -0.3269  0.2903
23572SOL     OW76677   5.373   3.275   4.094  0.1636 -0.0669  0.2892
23572SOL    HW176678   5.361   3.227   4.011 -1.2186  0.3592  0.2091
23572SOL    HW276679   5.295   3.331   4.100  1.0199  1.0649  1.1156
23573SOL     OW76680   0.664   6.002   6.313 -0.0303 -0.3869 -0.5539
23573SOL    HW176681   0.751   6.032   6.341 -0.4036 -0.8093  1.1553
23573SOL    HW276682   0.679   5.963   6.227  1.1096  1.3742 -1.2135
23574SOL     OW76683   8.431   5.303   5.751  0.0266  0.1126 -0.4922
23574SOL    HW176684   8.429   5.272   5.842  0.9636  0.7996 -0.2080
23574SOL    HW276685   8.506   5.258   5.712 -0.0301  0.2440 -0.7514
23575SOL     OW76686   5.822   7.446   8.277  0.2666 -0.4975 -0.4934
23575SOL    HW176687   5.808   7.384   8.206 -0.8908  1.6518 -2.2436
23575SOL    HW276688   5.896   7.499   8.249 -0.1618  0.3411 -0.0812
23576SOL     OW76689   6.054   8.243   8.595  0.1392 -0.1457 -0.2272
23576SOL    HW176690   6.086   8.327   8.629 -0.4869  0.5407 -1.2881
23576SOL    HW276691   5.960   8.257   8.580  0.4046 -0.3380 -2.3823
23577SOL     OW76692   2.658   6.072   7.772  0.3906  0.1390  0.0039
23577SOL    HW176693   2.587   6.123   7.810 -0.5284 -0.0104 -1.4403
23577SOL    HW276694   2.629   5.981   7.780  1.2523 -0.0798  1.0051
23578SOL     OW76695   6.413   4.091   8.732 -0.1111  0.3554 -0.1695
23578SOL    HW176696   6.412   4.000   8.761 -1.0255  1.3735  3.4952
23578SOL    HW276697   6.322   4.110   8.709 -0.6074  1.0890  2.1331
23579SOL     OW76698   7.784   4.406   1.803  0.0773  0.9061  0.0475
23579SOL    HW176699   7.738   4.394   1.720 -0.0810  0.8315  0.1457
23579SOL    HW276700   7.745   4.341   1.862  1.4617 -0.3403 -0.3397
23580SOL     OW76701   8.116   0.153   7.936  0.0761  0.1788 -0.1572
23580SOL    HW176702   8.070   0.093   7.877  1.4337 -0.4955 -0.5742
23580SOL    HW276703   8.068   0.235   7.928 -3.6770 -1.4300  2.6098
23581SOL     OW76704   4.579   3.409   5.596  0.1446 -0.1243 -0.2019
23581SOL    HW176705   4.646   3.345   5.623 -0.4142  0.1615  2.0547
23581SOL    HW276706   4.627   3.491   5.588  0.1292  0.0969  1.4820
23582SOL     OW76707   9.075   5.049   9.189 -0.1407 -0.2803 -0.3114
23582SOL    HW176708   9.009   5.106   9.149  0.2908 -0.3535 -1.1544
23582SOL    HW276709   9.089   4.980   9.124  1.8067  0.5227 -0.8075
23583SOL     OW76710   7.226   3.796   9.035  0.2616 -0.1202 -1.1301
23583SOL    HW176711   7.256   3.887   9.037  0.5226 -0.2124 -0.8013
23583SOL    HW276712   7.135   3.800   9.064  0.4744 -0.0435 -0.4752
23584SOL     OW76713   7.707   2.331   8.149  0.3033 -0.1682 -0.8835
23584SOL    HW176714   7.678   2.250   8.107  1.5063 -0.0940 -1.9482
23584SOL    HW276715   7.649   2.342   8.224 -1.2219 -0.9082 -1.9035
23585SOL     OW76716   3.766   3.087   7.122  0.0280 -0.3785 -0.1237
23585SOL    HW176717   3.822   3.091   7.200 -1.2362  1.9202  0.7637
23585SOL    HW276718   3.808   3.022   7.066  1.0500 -2.0716  2.4041
23586SOL     OW76719   2.857   8.851   4.360  0.7821 -0.0807 -0.6565
23586SOL    HW176720   2.825   8.787   4.296  1.4114 -0.4942 -0.5701
23586SOL    HW276721   2.951   8.834   4.365  0.7728  0.1077  0.2066
23587SOL     OW76722   5.022   5.631   9.067 -0.1373 -0.0816 -0.0609
23587SOL    HW176723   5.082   5.611   9.139 -1.3118 -0.1131  0.9370
23587SOL    HW276724   5.021   5.551   9.014 -0.7603 -0.7941  0.9857
23588SOL     OW76725   4.627   7.341   5.365 -0.2166 -0.4470  0.0678
23588SOL    HW176726   4.582   7.257   5.379  1.6205 -1.5494 -0.3526
23588SOL    HW276727   4.719   7.317   5.352  0.3886  1.6684  0.1558
23589SOL     OW76728   5.946   8.405   1.476  0.1896 -0.4284 -0.4443
23589SOL    HW176729   6.041   8.419   1.473  0.8231 -3.2999  1.9548
23589SOL    HW276730   5.911   8.489   1.507  1.9589  0.5493 -0.9235
23590SOL     OW76731   7.179   7.690   0.804 -0.6848 -0.3255 -0.0536
23590SOL    HW176732   7.104   7.682   0.862 -0.1543  0.2775  0.7269
23590SOL    HW276733   7.238   7.620   0.831 -0.2260  0.2525  0.4634
23591SOL     OW76734   2.976   5.237   0.459 -0.3619  0.5201  0.3999
23591SOL    HW176735   3.049   5.175   0.468 -0.5282  0.0283 -1.2166
23591SOL    HW276736   2.917   5.215   0.531  0.8387  0.5943  1.4353
23592SOL     OW76737   7.682   7.300   1.431 -0.6066 -0.0158 -0.5113
23592SOL    HW176738   7.623   7.306   1.507  1.0405  0.0746  0.8178
23592SOL    HW276739   7.678   7.387   1.391 -0.7063  0.2587  0.0857
23593SOL     OW76740   6.515   1.395   5.716 -0.2614  0.7826  0.4848
23593SOL    HW176741   6.610   1.380   5.716 -0.1808  0.6620 -2.7134
23593SOL    HW276742   6.481   1.334   5.651 -2.5275  1.1379  1.2438
23594SOL     OW76743   0.185   6.026   4.132 -0.3912 -0.3497 -0.2851
23594SOL    HW176744   0.247   5.975   4.184 -1.0498  1.5491  2.5558
23594SOL    HW276745   0.134   6.075   4.196 -0.1617  3.4809 -2.7099
23595SOL     OW76746   6.843   5.092   9.154  0.0616  0.1932  0.1806
23595SOL    HW176747   6.795   5.048   9.225  1.4844 -0.7574  0.6019
23595SOL    HW276748   6.776   5.140   9.106 -1.0665  0.2202  1.6993
23596SOL     OW76749   5.712   3.936   0.803 -0.1236 -0.1722  0.3799
23596SOL    HW176750   5.652   3.870   0.771  1.5473 -1.0668 -1.0978
23596SOL    HW276751   5.665   4.019   0.794 -2.0070 -1.0519  1.6541
23597SOL     OW76752   4.783   7.286   4.767  0.1984  0.2967  0.2140
23597SOL    HW176753   4.877   7.266   4.766  0.2083  0.2856 -1.6132
23597SOL    HW276754   4.777   7.367   4.817  0.8763 -0.9089  2.3905
23598SOL     OW76755   5.955   5.158   5.808  0.2403  1.1439  0.3668
23598SOL    HW176756   6.018   5.162   5.880  1.4590 -0.0059 -0.5861
23598SOL    HW276757   5.915   5.071   5.817  1.2550  0.5024 -0.9848
23599SOL     OW76758   1.155   1.592   4.333  0.2617 -0.2951 -0.0862
23599SOL    HW176759   1.159   1.561   4.242 -0.2769  1.9866 -0.9552
23599SOL    HW276760   1.195   1.679   4.330 -0.8523  0.3241  1.6127
23600SOL     OW76761   3.244   8.628   2.710  0.1531 -0.4959  0.0869
23600SOL    HW176762   3.289   8.602   2.630  0.3275 -0.8267  0.2926
23600SOL    HW276763   3.166   8.675   2.679  0.2780 -0.5238 -0.2740
23601SOL     OW76764   8.646   8.585   3.383  0.2727 -0.2055 -0.6164
23601SOL    HW176765   8.581   8.651   3.407 -0.6157 -1.5218  0.7133
23601SOL    HW276766   8.600   8.528   3.321 -0.2488 -1.7608  1.1331
23602SOL     OW76767   4.037   1.279   1.615 -0.6599 -0.4428  0.1841
23602SOL    HW176768   4.050   1.350   1.677 -0.6433 -0.6628  0.4373
23602SOL    HW276769   4.125   1.247   1.596 -0.5447  0.5179 -1.0321
23603SOL     OW76770   9.170   1.556   6.864 -0.6688 -0.2750 -0.0081
23603SOL    HW176771   9.125   1.484   6.819 -1.2988  0.3583 -0.4259
23603SOL    HW276772   9.159   1.537   6.957  1.8307 -2.3482 -0.0146
23604SOL     OW76773   2.624   9.279   8.275 -0.2284 -0.2770 -0.4752
23604SOL    HW176774   2.695   9.254   8.334  1.4924 -0.6709 -2.5686
23604SOL    HW276775   2.636   9.373   8.260 -1.5709  0.1466  0.8892
23605SOL     OW76776   3.771   1.070   8.856  0.5477 -0.1461  0.4422
23605SOL    HW176777   3.864   1.061   8.877  0.4066 -1.4921  0.5690
23605SOL    HW276778   3.768   1.075   8.760  0.8250  1.1690  0.4805
23606SOL     OW76779   2.964   8.396   1.059  0.1261  0.3004 -0.1117
23606SOL    HW176780   2.969   8.492   1.064 -0.1438  0.2521  1.5591
23606SOL    HW276781   3.023   8.373   0.987 -0.5043  1.7651 -1.1592
23607SOL     OW76782   1.400   5.066   2.259  0.0116  0.2323  0.2692
23607SOL    HW176783   1.327   5.127   2.253 -0.5171  0.0084  2.9635
23607SOL    HW276784   1.375   5.006   2.330  1.9430 -1.0651 -0.0771
23608SOL     OW76785   7.038   6.957   9.168  0.1531 -0.4157  0.4757
23608SOL    HW176786   6.984   6.888   9.204 -1.1016  0.2248 -0.1063
23608SOL    HW276787   7.044   7.022   9.238  1.4881 -1.1565  1.0891
23609SOL     OW76788   9.350   4.869   8.084  0.1676 -0.5942  0.0079
23609SOL    HW176789   9.273   4.817   8.108  0.5479 -0.7845  0.8323
23609SOL    HW276790   9.328   4.905   7.998 -1.8132  1.2846  1.2096
23610SOL     OW76791   6.659   3.868   4.669 -0.5468  0.2135 -0.0991
23610SOL    HW176792   6.636   3.931   4.737  0.3514 -0.1728  0.5830
23610SOL    HW276793   6.744   3.833   4.696  1.2776  2.1018 -2.8303
23611SOL     OW76794   8.963   7.506   0.863 -0.4312 -0.1317 -0.0419
23611SOL    HW176795   8.991   7.417   0.885  1.0447  0.4151  0.4244
23611SOL    HW276796   8.876   7.514   0.901  0.9495 -0.0930  3.4294
23612SOL     OW76797   1.538   9.094   1.571 -0.0479  0.2081  0.0013
23612SOL    HW176798   1.592   9.063   1.498  0.3667 -1.1269  0.8499
23612SOL    HW276799   1.449   9.073   1.545  0.2216 -1.9819  0.6152
23613SOL     OW76800   7.985   1.283   8.595  0.3492 -0.2241  0.6812
23613SOL    HW176801   8.074   1.269   8.562 -0.1457 -0.3191 -0.6666
23613SOL    HW276802   7.947   1.195   8.597  0.0196 -0.0903  0.4349
23614SOL     OW76803   3.167   6.335   6.295 -0.4954  0.2234 -0.3265
23614SOL    HW176804   3.160   6.277   6.219 -2.1552  0.0358 -0.0677
23614SOL    HW276805   3.253   6.376   6.286  1.2052 -2.9391 -0.0191
23615SOL     OW76806   3.237   6.859   5.308  0.2542  0.1633  0.1329
23615SOL    HW176807   3.262   6.798   5.377 -0.1922  0.3927  0.4982
23615SOL    HW276808   3.207   6.803   5.236 -2.5029 -0.0663  1.3243
23616SOL     OW76809   7.706   0.229   9.167 -0.4062 -0.0118  0.3377
23616SOL    HW176810   7.748   0.308   9.202 -0.3124  0.2461 -0.3365
23616SOL    HW276811   7.696   0.247   9.073  1.0719 -1.4338 -0.1382
23617SOL     OW76812   9.036   2.956   1.665 -0.6730  0.2005  0.1158
23617SOL    HW176813   9.053   2.925   1.754  0.0969  0.2262 -0.0223
23617SOL    HW276814   8.945   2.988   1.669 -1.0864 -0.9696  0.5504
23618SOL     OW76815   7.040   6.650   0.454  0.5553  0.1264 -0.3900
23618SOL    HW176816   7.065   6.612   0.370 -0.7617  0.5239 -0.9826
23618SOL    HW276817   7.091   6.601   0.519 -1.3373 -3.0020 -1.0628
23619SOL     OW76818   5.884   0.639   3.022  0.0962 -0.0750 -0.2371
23619SOL    HW176819   5.864   0.706   3.088 -0.1125 -1.4527  1.1334
23619SOL    HW276820   5.900   0.559   3.072 -0.7012 -1.3242 -1.8852
23620SOL     OW76821   4.391   7.868   1.811  0.4428  0.2102 -0.1326
23620SOL    HW176822   4.314   7.919   1.784  2.4059  2.1419 -2.5382
23620SOL    HW276823   4.394   7.795   1.750 -0.5251 -1.0615  1.2567
23621SOL     OW76824   7.785   6.195   9.154  0.7025 -0.0145 -0.2311
23621SOL    HW176825   7.843   6.135   9.106  0.8584  0.9168 -1.2613
23621SOL    HW276826   7.826   6.206   9.239 -0.1087 -2.5128  0.5645
23622SOL     OW76827   7.302   6.761   4.720  0.6819 -0.0299  0.3583
23622SOL    HW176828   7.303   6.818   4.796  0.0517  3.2676 -1.8782
23622SOL    HW276829   7.332   6.816   4.648 -0.7815 -2.2850 -2.1847
23623SOL     OW76830   1.465   6.156   5.578 -0.4044  0.0319  0.0102
23623SOL    HW176831   1.515   6.075   5.572 -1.7440 -0.7132 -2.7324
23623SOL    HW276832   1.481   6.200   5.495 -1.3692  1.5802  0.6022
23624SOL     OW76833   7.169   5.395   8.584  0.4281 -0.0958 -0.1541
23624SOL    HW176834   7.136   5.375   8.496 -0.5648  1.8513 -0.2672
23624SOL    HW276835   7.154   5.489   8.594 -0.6638 -0.4842  2.5887
23625SOL     OW76836   3.421   8.347   6.626  0.1181  0.1697  0.0252
23625SOL    HW176837   3.340   8.373   6.669  0.6947  0.8089  0.7721
23625SOL    HW276838   3.402   8.350   6.533 -0.4905  1.0694  0.1725
23626SOL     OW76839   7.008   5.585   2.714 -0.2693 -0.0240 -0.0334
23626SOL    HW176840   6.937   5.636   2.674  0.0012  1.8337  1.6861
23626SOL    HW276841   6.994   5.594   2.808  0.6800 -1.9590  0.3323
23627SOL     OW76842   9.201   6.284   9.083  0.0378 -0.1735 -0.4305
23627SOL    HW176843   9.223   6.194   9.059 -1.0341 -0.4000 -0.6478
23627SOL    HW276844   9.158   6.320   9.005 -2.3252 -0.4984  0.6189
23628SOL     OW76845   6.469   6.559   0.165 -0.0374  0.4852 -0.0785
23628SOL    HW176846   6.483   6.635   0.109  0.9345  1.7850  1.8305
23628SOL    HW276847   6.449   6.488   0.104 -1.0483  2.2492 -1.9262
23629SOL     OW76848   4.396   4.913   5.724  0.5717  0.3641  0.2058
23629SOL    HW176849   4.491   4.904   5.715  0.4963  0.9089 -1.5514
23629SOL    HW276850   4.362   4.883   5.640 -0.7778  0.6445  0.6395
23630SOL     OW76851   9.147   5.085   5.462  0.5824  0.0329 -1.0254
23630SOL    HW176852   9.231   5.105   5.504  0.5731 -0.1685 -0.9068
23630SOL    HW276853   9.153   4.992   5.442  0.2395 -0.0710 -0.6709
23631SOL     OW76854   5.311   7.872   4.575  0.0967  0.0200 -0.5932
23631SOL    HW176855   5.363   7.941   4.534  1.2765 -1.0664 -1.0162
23631SOL    HW276856   5.337   7.873   4.667 -0.3360  0.5390 -0.4799
23632SOL     OW76857   8.550   7.805   2.881  0.5187 -0.9058 -0.9733
23632SOL    HW176858   8.517   7.723   2.917  0.6075 -0.0451  1.2129
23632SOL    HW276859   8.474   7.846   2.841 -0.0870 -0.9668  0.0785
23633SOL     OW76860   1.755   2.796   1.398  0.6266  0.0767 -0.0169
23633SOL    HW176861   1.802   2.714   1.386 -0.4604 -0.3970 -1.4446
23633SOL    HW276862   1.673   2.783   1.350 -0.6148  1.1387  1.6978
23634SOL     OW76863   0.656   2.560   2.032 -0.3547 -0.3761  0.0125
23634SOL    HW176864   0.577   2.509   2.046 -0.1592 -0.4431  0.9442
23634SOL    HW276865   0.625   2.649   2.016 -0.7309 -0.8491 -2.2658
23635SOL     OW76866   8.431   8.607   4.259  0.4564 -0.3189 -0.2368
23635SOL    HW176867   8.411   8.529   4.207 -1.9992 -0.5444  0.8529
23635SOL    HW276868   8.380   8.677   4.218  1.5776  0.4116 -0.4074
23636SOL     OW76869   1.898   4.770   0.578  0.4525 -0.0492  0.3242
23636SOL    HW176870   1.921   4.684   0.542 -0.9570  0.4967 -2.1181
23636SOL    HW276871   1.826   4.752   0.638  2.2849 -0.8797  2.4132
23637SOL     OW76872   7.479   7.846   8.737 -0.1192  0.1266 -0.1989
23637SOL    HW176873   7.482   7.849   8.832  0.8223  0.1519 -0.2125
23637SOL    HW276874   7.571   7.842   8.711 -0.3862 -0.4983 -1.0903
23638SOL     OW76875   2.775   3.315   2.942 -0.0301 -0.0992  0.1480
23638SOL    HW176876   2.729   3.244   2.987 -1.7181  1.1028  0.4345
23638SOL    HW276877   2.790   3.283   2.854 -0.2591 -1.0134  0.4321
23639SOL     OW76878   0.578   4.751   3.386  0.0520 -0.1108 -0.3925
23639SOL    HW176879   0.561   4.680   3.448  0.3063  0.5348  0.4302
23639SOL    HW276880   0.552   4.715   3.301 -0.5792 -0.9047  0.1204
23640SOL     OW76881   8.809   0.761   6.596  0.6471 -0.1929  0.1928
23640SOL    HW176882   8.793   0.852   6.622 -0.5573 -0.1476 -0.6268
23640SOL    HW276883   8.725   0.731   6.562  1.6271 -0.8606 -1.7697
23641SOL     OW76884   8.254   2.206   5.909 -0.5892 -0.1612  0.7813
23641SOL    HW176885   8.271   2.275   5.845  0.0647 -2.5068 -1.8076
23641SOL    HW276886   8.307   2.230   5.985  0.0129  1.8810 -0.2087
23642SOL     OW76887   2.862   5.797   2.159  0.3233  0.0647  0.0992
23642SOL    HW176888   2.809   5.733   2.111 -0.1352  0.3090  0.2716
23642SOL    HW276889   2.809   5.819   2.236  0.0114  1.4095 -0.4738
23643SOL     OW76890   4.527   3.683   6.906 -0.0531 -0.0176 -0.5212
23643SOL    HW176891   4.523   3.753   6.841 -0.4238 -0.3866 -0.9008
23643SOL    HW276892   4.568   3.610   6.861 -1.2760 -0.6317 -0.6924
23644SOL     OW76893   5.835   8.093   5.051 -0.0331 -0.5255 -0.0779
23644SOL    HW176894   5.889   8.052   5.119  0.6543  0.5107  0.0190
23644SOL    HW276895   5.865   8.184   5.048 -0.1894 -0.5023 -1.6452
23645SOL     OW76896   5.269   4.874   3.297  0.5925 -0.1208 -0.0105
23645SOL    HW176897   5.263   4.967   3.274  0.5038  0.0391  0.6413
23645SOL    HW276898   5.294   4.873   3.389 -1.0540 -0.7187  0.4760
23646SOL     OW76899   4.675   9.227   9.101 -0.5348 -0.2303 -0.1509
23646SOL    HW176900   4.724   9.151   9.067 -0.0183  0.0390 -0.0178
23646SOL    HW276901   4.592   9.226   9.053  0.5155  0.6388 -2.0803
23647SOL     OW76902   8.713   7.468   4.687 -0.1856 -0.3197 -0.4745
23647SOL    HW176903   8.744   7.455   4.597 -0.3506 -0.8878 -0.4581
23647SOL    HW276904   8.626   7.506   4.678  0.1216  0.3868 -0.5364
23648SOL     OW76905   7.837   0.769   8.621 -0.1604 -0.2789  0.3013
23648SOL    HW176906   7.914   0.717   8.645  0.7419  0.7893 -0.1460
23648SOL    HW276907   7.768   0.739   8.680  0.7442 -0.8916  1.0866
23649SOL     OW76908   4.101   8.353   8.961 -0.0935 -0.7536 -0.1220
23649SOL    HW176909   4.018   8.328   8.920 -0.1801 -0.5781 -0.0513
23649SOL    HW276910   4.168   8.313   8.906 -0.2221 -0.8304 -0.2227
23650SOL     OW76911   9.032   9.146   8.712  0.3237 -0.1301 -0.3493
23650SOL    HW176912   9.081   9.172   8.634  2.2248 -0.3519  0.6951
23650SOL    HW276913   8.973   9.077   8.681  0.2058  0.5743 -1.7902
23651SOL     OW76914   5.186   3.819   3.765  0.0144 -0.8322 -0.1429
23651SOL    HW176915   5.281   3.817   3.771  0.0701 -1.5008 -0.9952
23651SOL    HW276916   5.166   3.769   3.686 -1.0792 -1.2786  0.3962
23652SOL     OW76917   4.704   6.018   0.423 -0.6131  0.2062  0.2382
23652SOL    HW176918   4.626   5.998   0.372 -1.1103  2.3269  0.0611
23652SOL    HW276919   4.684   5.990   0.512 -1.4047  0.3026  0.0960
23653SOL     OW76920   3.136   6.493   1.122  0.6592  0.1437  0.8911
23653SOL    HW176921   3.055   6.478   1.172 -0.6758  1.7374 -0.6769
23653SOL    HW276922   3.192   6.541   1.183  0.7526 -1.5549  2.2297
23654SOL     OW76923   7.086   1.741   1.881 -0.0730  0.2648  1.2059
23654SOL    HW176924   7.152   1.776   1.821 -0.3423 -1.5650 -0.2518
23654SOL    HW276925   7.028   1.815   1.899 -0.2775  0.7776 -1.2288
23655SOL     OW76926   0.785   6.910   8.768  0.6584  0.5338  0.3473
23655SOL    HW176927   0.792   7.005   8.751 -0.1450  0.3124 -1.4734
23655SOL    HW276928   0.828   6.870   8.692 -0.8880 -0.5719  0.0296
23656SOL     OW76929   8.846   5.275   4.371  0.5149 -0.7139 -0.4376
23656SOL    HW176930   8.857   5.366   4.399  0.6839 -1.0422  0.6158
23656SOL    HW276931   8.822   5.228   4.451 -1.6298 -1.2608 -1.3426
23657SOL     OW76932   7.192   4.053   2.895 -0.8952  0.0454  0.0034
23657SOL    HW176933   7.238   4.015   2.970  2.1325 -0.9665 -2.1566
23657SOL    HW276934   7.207   4.147   2.903  1.0729 -0.2010 -0.2415
23658SOL     OW76935   7.493   4.775   3.286 -0.3585 -0.2117 -0.0507
23658SOL    HW176936   7.420   4.722   3.255 -1.6187 -0.2503  2.6798
23658SOL    HW276937   7.525   4.729   3.364  3.2286 -0.6657 -1.5908
23659SOL     OW76938   0.701   2.075   7.314  0.2534 -0.0911 -0.0594
23659SOL    HW176939   0.749   2.034   7.387 -0.1328  1.2091  0.9512
23659SOL    HW276940   0.640   2.007   7.284  1.7060 -1.2862 -0.4395
23660SOL     OW76941   2.802   2.343   0.359 -0.3815 -0.2396  0.4754
23660SOL    HW176942   2.855   2.331   0.280  0.6092 -1.4268  1.2874
23660SOL    HW276943   2.865   2.340   0.431 -1.2321  1.0859  1.3267
23661SOL     OW76944   4.444   9.371   7.380 -0.6987 -0.1573  0.1528
23661SOL    HW176945   4.401   9.292   7.413  0.1557 -1.5996 -2.0099
23661SOL    HW276946   4.537   9.358   7.400 -0.6638  0.8447  0.7428
23662SOL     OW76947   5.999   2.461   4.587  0.0017 -0.4705  0.2740
23662SOL    HW176948   5.969   2.439   4.499 -1.6032 -0.1538  0.7101
23662SOL    HW276949   5.957   2.545   4.606 -0.5070 -1.0256  1.7107
23663SOL     OW76950   4.695   3.489   2.994 -0.1758  0.4345 -0.3191
23663SOL    HW176951   4.718   3.515   2.905  1.7300 -2.8244 -0.9390
23663SOL    HW276952   4.640   3.411   2.983 -2.4318  1.6498  1.4094
23664SOL     OW76953   0.222   3.171   8.882 -0.0081 -0.3163  0.6446
23664SOL    HW176954   0.244   3.265   8.884  1.1986 -0.5980  2.4479
23664SOL    HW276955   0.168   3.158   8.959  0.0765 -1.1743  0.5602
23665SOL     OW76956   4.419   7.399   6.229 -0.5011  0.8616  0.3524
23665SOL    HW176957   4.389   7.339   6.297 -0.1252  1.3151  0.9265
23665SOL    HW276958   4.413   7.349   6.148  1.8115 -0.7141  1.0539
23666SOL     OW76959   4.405   7.945   1.419 -0.2898 -0.4876  0.0705
23666SOL    HW176960   4.439   8.027   1.384  0.5569 -1.2738 -1.0415
23666SOL    HW276961   4.482   7.893   1.441 -0.7694 -1.5284 -0.5909
23667SOL     OW76962   1.788   0.255   1.690 -0.3465  0.2887  0.1145
23667SOL    HW176963   1.704   0.224   1.657  0.9559 -1.4863 -1.8439
23667SOL    HW276964   1.782   0.350   1.684 -2.4919  0.2488  0.8550
23668SOL     OW76965   7.253   8.953   7.057 -0.0491  0.3850  0.4682
23668SOL    HW176966   7.333   8.942   7.006  0.5068 -0.2509  1.4467
23668SOL    HW276967   7.283   8.970   7.146 -1.0039  0.2595  0.8236
23669SOL     OW76968   4.921   2.095   7.075 -0.3257 -0.4726 -0.8311
23669SOL    HW176969   4.971   2.025   7.117  0.5308 -0.2204 -1.4075
23669SOL    HW276970   4.835   2.092   7.118  1.2902  1.6312  3.1152
23670SOL     OW76971   6.928   8.778   1.253  0.6530 -0.3343  0.1340
23670SOL    HW176972   6.909   8.845   1.318 -0.5680 -0.9385  0.4235
23670SOL    HW276973   7.013   8.804   1.216  0.4361  1.0850  0.5767
23671SOL     OW76974   3.242   9.186   4.924 -0.1421  0.1563  0.5225
23671SOL    HW176975   3.225   9.150   4.837 -1.6258  0.3433  0.7030
23671SOL    HW276976   3.319   9.240   4.913 -0.6206  0.6066 -0.8102
23672SOL     OW76977   8.395   1.349   3.301 -0.3344  0.4158 -1.0805
23672SOL    HW176978   8.339   1.359   3.378 -1.8657 -1.6768 -1.8397
23672SOL    HW276979   8.341   1.304   3.237  2.0266 -1.2092 -2.0871
23673SOL     OW76980   1.875   3.129   0.893  0.0490 -0.7207 -0.3622
23673SOL    HW176981   1.905   3.197   0.832  0.6826 -1.5327 -0.9694
23673SOL    HW276982   1.894   3.047   0.849 -0.9817 -1.3043  0.2482
23674SOL     OW76983   2.474   4.319   5.217  0.1555 -0.7034 -0.0516
23674SOL    HW176984   2.483   4.365   5.300 -1.9809  1.3075 -0.8033
23674SOL    HW276985   2.439   4.233   5.241  0.1826 -0.3910  1.1640
23675SOL     OW76986   3.736   6.347   1.233  0.0019  0.0900 -0.1706
23675SOL    HW176987   3.722   6.280   1.299  1.9023  1.2667  1.5288
23675SOL    HW276988   3.683   6.421   1.261  3.2006  1.7873  2.0514
23676SOL     OW76989   6.423   3.806   3.694  0.1784  0.2621  0.0944
23676SOL    HW176990   6.445   3.722   3.654 -1.1014 -0.0314 -0.0647
23676SOL    HW276991   6.501   3.832   3.742  0.6663 -0.9140 -0.0362
23677SOL     OW76992   1.142   3.371   1.566 -0.0545 -0.3788 -0.0946
23677SOL    HW176993   1.120   3.397   1.476 -2.3729 -1.8976 -0.0696
23677SOL    HW276994   1.085   3.425   1.621  0.2921 -0.4769  0.3638
23678SOL     OW76995   2.629   8.662   6.096  0.0901 -0.2888 -0.0490
23678SOL    HW176996   2.593   8.625   6.015 -2.1263 -0.0742  0.7777
23678SOL    HW276997   2.723   8.669   6.079 -0.0209 -2.1447 -1.8489
23679SOL     OW76998   2.126   9.358   7.798 -0.6008  0.0049 -0.3699
23679SOL    HW176999   2.103   9.448   7.820  0.7803  0.6148 -1.2731
23679SOL    HW277000   2.184   9.330   7.868  1.4381  0.9291 -1.5997
23680SOL     OW77001   6.731   0.327   6.015  0.4843  0.2881  0.0281
23680SOL    HW177002   6.799   0.293   5.957  0.5533  2.5596 -1.3362
23680SOL    HW277003   6.765   0.310   6.103  1.3794 -1.3147 -0.5830
23681SOL     OW77004   9.343   3.852   3.120 -0.0306  0.3933 -0.1112
23681SOL    HW177005   9.392   3.846   3.203 -1.6860 -0.7405  0.8402
23681SOL    HW277006   9.406   3.826   3.053  1.5579  2.0173  0.6700
23682SOL     OW77007   2.422   8.707   5.607 -0.6528  0.1693 -0.4205
23682SOL    HW177008   2.453   8.759   5.534  0.6166  0.1027  0.0454
23682SOL    HW277009   2.457   8.751   5.685 -0.8702 -0.4908  0.0622
23683SOL     OW77010   1.778   8.521   0.974  0.0609  0.0970  0.9336
23683SOL    HW177011   1.796   8.499   0.883 -1.4186  1.7132  0.1900
23683SOL    HW277012   1.844   8.474   1.024  0.6915 -1.1046 -0.9420
23684SOL     OW77013   5.591   2.345   3.868 -0.7710 -0.2191 -0.7844
23684SOL    HW177014   5.591   2.338   3.773 -1.4016  0.6953 -0.8655
23684SOL    HW277015   5.636   2.427   3.886  1.1214 -1.3276 -0.1805
23685SOL     OW77016   7.804   5.508   8.271  0.0994  0.1213  0.5689
23685SOL    HW177017   7.866   5.516   8.343 -0.2201  0.6417  0.7927
23685SOL    HW277018   7.730   5.563   8.297  0.7415  1.8137 -0.9922
23686SOL     OW77019   8.782   5.206   6.349 -0.2349  0.0339  0.5265
23686SOL    HW177020   8.796   5.133   6.409  0.3153 -0.1212  0.2219
23686SOL    HW277021   8.738   5.166   6.273 -1.1016  0.2630  0.8968
23687SOL     OW77022   9.298   1.098   1.200  0.3067 -0.0939 -0.1752
23687SOL    HW177023   9.257   1.021   1.160  0.5644 -0.1305 -0.3734
23687SOL    HW277024   9.303   1.162   1.129 -1.5906  0.8031  0.4268
23688SOL     OW77025   3.947   5.522   6.172 -0.1031 -0.1622 -0.3288
23688SOL    HW177026   4.011   5.494   6.106 -0.1645 -1.0330 -0.0369
23688SOL    HW277027   3.906   5.440   6.201  0.3536  0.1292  1.2345
23689SOL     OW77028   0.546   5.651   3.443  0.4421 -0.0891  0.4655
23689SOL    HW177029   0.591   5.686   3.366  0.4153  0.7675  0.8350
23689SOL    HW277030   0.614   5.645   3.510  0.4495 -0.7678  0.4043
23690SOL     OW77031   9.020   1.749   4.601 -0.8582  0.4226 -0.1913
23690SOL    HW177032   8.949   1.717   4.545  0.0992 -0.5610 -0.8932
23690SOL    HW277033   9.015   1.844   4.595 -2.9344  0.4279  0.8460
23691SOL     OW77034   3.888   4.411   8.164  0.6523 -0.0179  0.0637
23691SOL    HW177035   3.924   4.409   8.075  0.8098  0.0250  0.1249
23691SOL    HW277036   3.824   4.340   8.166  0.4641  0.1416 -0.1609
23692SOL     OW77037   3.350   0.219   4.774  0.1990  0.9065 -0.0476
23692SOL    HW177038   3.295   0.289   4.740 -3.2641 -1.2477  0.5863
23692SOL    HW277039   3.324   0.211   4.866  1.1515 -0.6058  0.1290
23693SOL     OW77040   8.617   0.734   8.609 -0.6385  0.0682  0.2466
23693SOL    HW177041   8.702   0.690   8.610 -1.1335 -0.8954  0.6579
23693SOL    HW277042   8.619   0.788   8.530  0.8000  0.9718  0.8455
23694SOL     OW77043   2.725   6.644   4.785 -0.6351 -0.1474 -0.6199
23694SOL    HW177044   2.768   6.564   4.817 -2.0081 -0.3732  0.7910
23694SOL    HW277045   2.742   6.709   4.853 -2.7657 -0.3435  0.1535
23695SOL     OW77046   0.811   3.429   4.804 -0.2816  0.0041  0.3971
23695SOL    HW177047   0.806   3.446   4.710  0.1177 -1.2037  0.1385
23695SOL    HW277048   0.743   3.485   4.843 -0.2002  0.7907 -0.5577
23696SOL     OW77049   3.039   2.153   0.518 -0.1658 -0.3821 -0.0178
23696SOL    HW177050   3.058   2.246   0.508  0.4237 -0.5979 -0.9867
23696SOL    HW277051   3.067   2.114   0.436 -1.0456 -1.3224  0.1126
23697SOL     OW77052   6.932   4.918   1.089 -0.2989 -0.0420 -0.1296
23697SOL    HW177053   6.979   4.862   1.028 -0.8166 -0.5158 -0.1050
23697SOL    HW277054   6.933   4.870   1.172  1.7227  1.2735  0.6885
23698SOL     OW77055   6.550   8.215   8.642 -0.3473  0.3732 -0.1434
23698SOL    HW177056   6.471   8.168   8.618  0.8293 -1.3585 -0.8716
23698SOL    HW277057   6.562   8.196   8.735 -0.8038  0.6808 -0.0200
23699SOL     OW77058   8.329   7.893   7.202 -0.5626 -0.1943 -0.0833
23699SOL    HW177059   8.368   7.861   7.283 -0.8464 -0.6540 -0.1272
23699SOL    HW277060   8.399   7.943   7.160  0.2992 -1.7806 -0.6107
23700SOL     OW77061   2.603   6.275   8.235 -0.6000  0.2572 -0.3254
23700SOL    HW177062   2.629   6.365   8.257 -0.4335  0.2871 -0.6339
23700SOL    HW277063   2.528   6.258   8.291  0.6464 -0.1702  1.2923
23701SOL     OW77064   6.818   1.288   8.174  0.2864 -0.1897 -0.0533
23701SOL    HW177065   6.864   1.340   8.109 -1.7882  0.2818 -1.2414
23701SOL    HW277066   6.744   1.343   8.200 -0.8718 -1.7525  0.0959
23702SOL     OW77067   9.076   2.434   7.880 -0.7544  0.0681 -0.3366
23702SOL    HW177068   9.082   2.376   7.956  2.2748  2.8624  1.8709
23702SOL    HW277069   9.110   2.382   7.807  0.7667 -1.3236  1.2784
23703SOL     OW77070   2.828   5.431   0.885  0.0321  0.1214 -0.2289
23703SOL    HW177071   2.916   5.452   0.855 -0.4627  0.9880 -1.1082
23703SOL    HW277072   2.836   5.423   0.980  1.0544  0.1597 -0.3064
23704SOL     OW77073   3.774   5.548   6.599 -0.1853  0.3083 -0.8179
23704SOL    HW177074   3.734   5.618   6.649 -0.8074 -0.5157 -0.1324
23704SOL    HW277075   3.836   5.507   6.659 -2.1712 -1.7907 -0.0510
23705SOL     OW77076   8.499   4.401   4.129  0.8157 -0.6416  0.1506
23705SOL    HW177077   8.426   4.345   4.103 -0.2260 -0.0486  1.7095
23705SOL    HW277078   8.571   4.339   4.146 -0.4719 -1.6604  2.4082
23706SOL     OW77079   7.176   7.964   1.530 -0.4363 -0.3097  0.5795
23706SOL    HW177080   7.213   8.003   1.610 -1.1083  1.9394 -0.1197
23706SOL    HW277081   7.217   8.013   1.459 -0.5463 -1.6471 -0.4248
23707SOL     OW77082   0.243   0.136   5.220 -0.1358  0.3947 -0.5438
23707SOL    HW177083   0.313   0.075   5.196  0.3920  0.0135  1.7379
23707SOL    HW277084   0.270   0.220   5.184  1.1652  0.0966 -0.3060
23708SOL     OW77085   4.503   3.294   3.072  0.2422  0.2320  0.1489
23708SOL    HW177086   4.408   3.288   3.073  0.0355  1.9261 -2.1305
23708SOL    HW277087   4.531   3.232   3.004  1.0038 -1.6364  2.0354
23709SOL     OW77088   5.309   3.109   5.381  0.0207 -0.0373  0.3746
23709SOL    HW177089   5.231   3.131   5.330 -0.2281  2.1586  1.5756
23709SOL    HW277090   5.381   3.153   5.335 -0.0651  1.1387  1.3039
23710SOL     OW77091   0.588   7.389   7.724  0.0541 -0.2519 -0.4212
23710SOL    HW177092   0.671   7.342   7.714 -0.3262 -0.6318 -2.1503
23710SOL    HW277093   0.539   7.366   7.645 -2.5371 -1.6794  1.4611
23711SOL     OW77094   4.785   3.860   7.432 -0.2109  0.2358 -0.0409
23711SOL    HW177095   4.865   3.821   7.465 -0.3550 -0.8384 -0.8939
23711SOL    HW277096   4.716   3.825   7.487 -0.2461 -0.0115 -0.2405
23712SOL     OW77097   8.792   0.770   1.131 -0.0030 -0.1384  0.2171
23712SOL    HW177098   8.820   0.860   1.145  0.2587 -0.2164  0.2118
23712SOL    HW277099   8.819   0.750   1.042  2.2945 -1.0462  1.0281
23713SOL     OW77100   4.211   3.899   1.633 -0.0075 -0.2230 -0.0908
23713SOL    HW177101   4.300   3.914   1.667  0.0518  0.9605 -0.6955
23713SOL    HW277102   4.224   3.851   1.552  0.1464  0.6120 -0.5702
23714SOL     OW77103   2.631   6.642   3.664 -0.4445  0.1015  0.3558
23714SOL    HW177104   2.564   6.708   3.644 -0.6912 -0.4875 -0.8232
23714SOL    HW277105   2.712   6.692   3.669 -0.8997  0.7646  1.4029
23715SOL     OW77106   6.226   3.480   4.855 -0.5177  0.2230 -0.6769
23715SOL    HW177107   6.271   3.473   4.939 -1.2430  0.5688 -0.2568
23715SOL    HW277108   6.142   3.438   4.869 -0.5044 -0.0336 -1.3394
23716SOL     OW77109   5.839   1.405   4.500  0.3225 -0.4189 -0.3284
23716SOL    HW177110   5.927   1.402   4.461 -0.1134 -0.5255 -1.3320
23716SOL    HW277111   5.852   1.449   4.584  1.4008 -0.7904 -0.2800
23717SOL     OW77112   5.794   7.983   2.117 -0.0106 -0.2857  0.5001
23717SOL    HW177113   5.863   7.969   2.181 -0.4784  0.5602  1.2304
23717SOL    HW277114   5.813   8.070   2.080 -0.4187 -0.2468  0.3746
23718SOL     OW77115   7.075   1.076   4.870  0.2961 -0.2616  0.6854
23718SOL    HW177116   7.026   1.008   4.916  0.6143 -0.0910  1.2846
23718SOL    HW277117   7.126   1.028   4.804 -1.4409 -0.3467 -0.6847
23719SOL     OW77118   7.971   6.591   6.337 -0.0268  0.1130  0.6103
23719SOL    HW177119   8.058   6.627   6.353 -0.0454  0.1893  0.5385
23719SOL    HW277120   7.963   6.587   6.242 -0.4737  1.0203  0.5967
23720SOL     OW77121   5.185   0.474   5.618 -0.3301 -0.3598 -0.3176
23720SOL    HW177122   5.258   0.416   5.599 -0.6993 -0.8886 -0.1267
23720SOL    HW277123   5.216   0.561   5.590  1.1210 -0.1996  1.5537
23721SOL     OW77124   5.733   6.863   8.764 -0.4185  0.3474 -0.0063
23721SOL    HW177125   5.712   6.915   8.687 -0.4829 -0.1535 -0.3354
23721SOL    HW277126   5.647   6.838   8.800 -0.3867  0.0914 -0.1093
23722SOL     OW77127   5.428   1.529   3.620  0.0128 -0.0627  0.3433
23722SOL    HW177128   5.487   1.602   3.636  0.5992 -0.1537 -1.2200
23722SOL    HW277129   5.394   1.506   3.706  0.6313  1.3599  0.9975
23723SOL     OW77130   8.880   4.009   8.236  0.5073  0.3476 -0.3421
23723SOL    HW177131   8.953   4.032   8.180  1.0478 -1.3365 -0.3996
23723SOL    HW277132   8.802   4.034   8.187  0.9334 -1.8093 -2.2768
23724SOL     OW77133   0.488   1.886   8.602 -0.1654  0.3616 -0.1483
23724SOL    HW177134   0.454   1.933   8.679  0.3060 -0.7443  0.7616
23724SOL    HW277135   0.422   1.901   8.534  0.1253  2.5985 -0.0105
23725SOL     OW77136   3.651   6.231   6.422  0.0227 -0.3901  0.1549
23725SOL    HW177137   3.648   6.136   6.408 -0.8587 -0.5128  1.1038
23725SOL    HW277138   3.563   6.254   6.449 -0.3060  1.0173 -1.8811
23726SOL     OW77139   7.327   2.371   5.414 -0.1442 -0.2279 -0.2865
23726SOL    HW177140   7.266   2.378   5.340  1.3161 -3.0332 -1.9301
23726SOL    HW277141   7.272   2.382   5.491 -2.7512 -2.1325 -1.6931
23727SOL     OW77142   6.825   8.955   2.135  0.3712  0.3392  0.3863
23727SOL    HW177143   6.746   8.953   2.081  0.2768  0.9389  0.4879
23727SOL    HW277144   6.896   8.940   2.073  0.2734  1.1299  0.0618
23728SOL     OW77145   8.313   3.958   6.792 -0.1151  0.6372 -0.1943
23728SOL    HW177146   8.310   4.031   6.730  0.3856  0.3311 -0.5891
23728SOL    HW277147   8.289   3.997   6.876  1.8656  1.6578 -0.0408
23729SOL     OW77148   7.738   4.251   8.983  0.0654 -0.1554 -0.1206
23729SOL    HW177149   7.773   4.337   8.958 -0.4606  0.0923  0.0018
23729SOL    HW277150   7.787   4.228   9.062 -1.9178  1.4221  1.6676
23730SOL     OW77151   5.967   1.091   0.636  0.0237  0.4949  0.1429
23730SOL    HW177152   5.933   1.066   0.722 -0.6455  0.7065 -0.0518
23730SOL    HW277153   5.900   1.061   0.574  1.2928 -1.2135 -0.4705
23731SOL     OW77154   0.113   9.332   9.259  0.5754  0.0782 -0.0961
23731SOL    HW177155   0.132   9.238   9.259  2.6027  0.4347  0.0317
23731SOL    HW277156   0.154   9.364   9.179  0.2530  0.9193  0.0707
23732SOL     OW77157   4.708   7.988   7.079  0.3086 -0.2557  0.3280
23732SOL    HW177158   4.715   8.061   7.141 -1.7218 -0.6072  1.0345
23732SOL    HW277159   4.697   7.910   7.134 -1.9659 -0.5248 -0.3941
23733SOL     OW77160   2.753   1.478   7.506  0.1012  0.1756  0.1056
23733SOL    HW177161   2.712   1.393   7.525  0.5815 -0.7020 -2.4008
23733SOL    HW277162   2.771   1.516   7.593 -0.6915 -1.9914  1.2964
23734SOL     OW77163   4.389   6.453   0.303 -0.1185  0.1603 -0.3275
23734SOL    HW177164   4.404   6.375   0.357  1.0674  0.0387 -0.8060
23734SOL    HW277165   4.302   6.439   0.265 -0.3909 -0.3932  0.4612
23735SOL     OW77166   3.679   5.540   1.515  0.1756 -0.2505  0.3933
23735SOL    HW177167   3.671   5.454   1.556 -0.3517  0.1004  1.0489
23735SOL    HW277168   3.729   5.592   1.577  1.4339 -0.3665 -0.4797
23736SOL     OW77169   6.574   1.735   4.526 -0.4840  0.1983  0.3024
23736SOL    HW177170   6.651   1.743   4.470 -0.1839  0.1974  0.7056
23736SOL    HW277171   6.565   1.822   4.566 -0.4163  0.0725  0.6000
23737SOL     OW77172   8.060   7.113   3.398 -0.0171  0.2131 -0.2787
23737SOL    HW177173   8.130   7.172   3.424  0.2704  0.2115 -1.0302
23737SOL    HW277174   8.014   7.159   3.328  0.0829 -0.3550 -0.7292
23738SOL     OW77175   7.988   1.439   0.456 -0.2997  0.5861 -0.5657
23738SOL    HW177176   7.893   1.430   0.470 -0.3006 -0.0277 -0.9834
23738SOL    HW277177   8.008   1.379   0.385  0.4881  0.3641 -0.1633
23739SOL     OW77178   8.630   6.733   7.135 -0.0143 -0.2816 -0.2238
23739SOL    HW177179   8.656   6.646   7.167  0.8758 -0.1988 -0.6859
23739SOL    HW277180   8.666   6.737   7.046 -0.5540  0.3416 -0.4171
23740SOL     OW77181   9.038   4.099   9.092 -0.1613  0.3444  0.1254
23740SOL    HW177182   8.983   4.100   9.170 -0.8030 -0.0653 -0.3178
23740SOL    HW277183   8.978   4.117   9.019 -0.0225 -1.6366 -0.5373
23741SOL     OW77184   5.656   8.531   8.614 -0.2436 -0.1773  0.2266
23741SOL    HW177185   5.691   8.579   8.539 -0.6362 -0.3311 -0.0553
23741SOL    HW277186   5.663   8.439   8.590 -0.5029 -0.2222  0.3231
23742SOL     OW77187   1.210   0.709   7.729  0.0866 -0.7219 -0.7360
23742SOL    HW177188   1.305   0.707   7.739  0.1198  0.4743 -0.5963
23742SOL    HW277189   1.177   0.729   7.817 -0.1191  1.4366 -1.2443
23743SOL     OW77190   5.372   3.764   2.285 -0.1246 -0.1542  0.3081
23743SOL    HW177191   5.404   3.768   2.194 -0.1730 -1.8334  0.1806
23743SOL    HW277192   5.451   3.757   2.338 -0.1168  0.3336  0.3655
23744SOL     OW77193   2.776   7.819   6.431 -0.2136 -0.2551 -0.3627
23744SOL    HW177194   2.869   7.837   6.446 -0.4485  1.0938 -0.3704
23744SOL    HW277195   2.764   7.831   6.337 -0.7874  1.7862 -0.0929
23745SOL     OW77196   0.848   5.713   4.326 -0.0040  0.4040  0.3243
23745SOL    HW177197   0.818   5.745   4.411 -2.6115  1.9949 -1.0754
23745SOL    HW277198   0.768   5.687   4.281  1.3765 -0.9799 -1.4743
23746SOL     OW77199   2.583   5.289   3.805  0.3531  0.0469 -0.0504
23746SOL    HW177200   2.677   5.298   3.816  0.3207  0.1585  0.1530
23746SOL    HW277201   2.570   5.199   3.775  0.3873 -0.5986  1.7299
23747SOL     OW77202   4.458   2.837   1.406 -0.5529  0.1886 -0.2888
23747SOL    HW177203   4.387   2.811   1.347 -0.3633 -0.0798 -0.4027
23747SOL    HW277204   4.524   2.877   1.349 -1.2513  1.8408 -0.0006
23748SOL     OW77205   6.128   3.416   0.931  0.3252  0.6712 -0.1265
23748SOL    HW177206   6.052   3.368   0.897  0.4098  1.5881 -1.6824
23748SOL    HW277207   6.098   3.450   1.016 -0.5432 -0.0965 -0.1066
23749SOL     OW77208   2.442   3.892   0.520  0.6381 -0.1695 -0.0316
23749SOL    HW177209   2.503   3.818   0.514 -0.1453 -0.7333 -2.0368
23749SOL    HW277210   2.357   3.851   0.534  0.5481  0.5452  1.6624
23750SOL     OW77211   8.263   7.453   6.652 -0.1091 -0.2611 -0.0287
23750SOL    HW177212   8.347   7.407   6.660 -0.3998 -1.2173 -1.8837
23750SOL    HW277213   8.245   7.485   6.740  1.4491 -1.3706  0.7465
23751SOL     OW77214   6.742   6.768   1.998 -0.3745  0.2844  0.1189
23751SOL    HW177215   6.653   6.741   2.021 -0.2619  0.9738  1.4263
23751SOL    HW277216   6.730   6.840   1.936 -0.6811 -1.2004 -1.6414
23752SOL     OW77217   1.031   6.503   3.470  0.0543 -0.1262  0.5994
23752SOL    HW177218   0.980   6.481   3.548 -1.0370 -0.2545 -0.1281
23752SOL    HW277219   0.998   6.443   3.403  1.2278 -0.2518  0.1255
23753SOL     OW77220   3.616   0.215   6.306  0.2162  0.3234 -0.4556
23753SOL    HW177221   3.637   0.248   6.394  0.8069 -1.3230  0.0666
23753SOL    HW277222   3.528   0.177   6.316  0.3294  0.0354 -0.5339
23754SOL     OW77223   6.580   2.465   3.218 -0.4779 -0.0272 -0.0246
23754SOL    HW177224   6.487   2.462   3.196 -0.1207  0.1784 -1.6450
23754SOL    HW277225   6.583   2.441   3.311 -1.9283 -2.6047 -0.5303
23755SOL     OW77226   1.393   5.526   3.788 -0.4064 -0.1018 -0.4843
23755SOL    HW177227   1.397   5.443   3.835 -0.0369  0.6956  0.9443
23755SOL    HW277228   1.377   5.501   3.697 -3.0823 -1.6388  0.2878
23756SOL     OW77229   0.583   2.910   1.387  0.2707 -0.0848 -0.0250
23756SOL    HW177230   0.616   2.824   1.361  2.1888  0.4393  0.4625
23756SOL    HW277231   0.541   2.945   1.308  0.9850 -0.7945 -0.7402
23757SOL     OW77232   8.069   0.624   8.019  0.0746  0.0356 -0.0707
23757SOL    HW177233   8.064   0.609   7.925 -0.5024  0.8294 -0.1673
23757SOL    HW277234   8.049   0.716   8.031  1.7506  0.3444  0.7000
23758SOL     OW77235   8.075   6.248   3.101  0.7987  0.2157 -0.1039
23758SOL    HW177236   7.990   6.254   3.146  0.1382  1.3070 -1.4231
23758SOL    HW277237   8.134   6.212   3.167 -1.0646 -2.3891  0.3257
23759SOL     OW77238   7.232   8.782   8.725 -0.1970 -0.4654 -0.2563
23759SOL    HW177239   7.154   8.740   8.760 -1.6350  3.4639  1.9957
23759SOL    HW277240   7.305   8.741   8.771 -1.2580 -1.8244  0.2526
23760SOL     OW77241   1.108   6.736   4.319 -0.4457 -0.0264  0.3177
23760SOL    HW177242   1.081   6.725   4.228 -1.3969 -0.7199  0.6666
23760SOL    HW277243   1.061   6.666   4.366  1.0197 -0.4999  1.1389
23761SOL     OW77244   5.813   7.549   7.321  0.5025 -0.2707 -0.1149
23761SOL    HW177245   5.743   7.500   7.278 -0.2750  0.2509  0.5190
23761SOL    HW277246   5.774   7.577   7.404  1.4847 -0.0052  0.2644
23762SOL     OW77247   8.013   5.449   8.494 -0.5048  0.5073  0.2882
23762SOL    HW177248   8.066   5.371   8.473 -0.6347  0.3636  0.4826
23762SOL    HW277249   7.963   5.423   8.572  0.3853  1.2073  1.1239
23763SOL     OW77250   8.664   5.511   0.590  0.7752  0.5015 -0.3961
23763SOL    HW177251   8.709   5.587   0.626  0.7955  0.7480 -0.9325
23763SOL    HW277252   8.664   5.447   0.661  0.1613  1.2398  0.2892
23764SOL     OW77253   3.553   1.704   1.487  0.0745  0.3363 -0.1736
23764SOL    HW177254   3.590   1.619   1.510 -0.3066  0.1340 -0.2926
23764SOL    HW277255   3.609   1.736   1.416  1.1029  0.8573  0.8469
23765SOL     OW77256   1.852   2.321   1.684 -0.5701  0.0914 -0.0560
23765SOL    HW177257   1.925   2.356   1.735 -0.8632  2.1348 -0.9475
23765SOL    HW277258   1.774   2.348   1.733 -0.8167  1.2089 -1.0199
23766SOL     OW77259   6.653   8.716   6.304  0.0548 -0.1042 -0.0880
23766SOL    HW177260   6.559   8.700   6.301 -0.2948  1.7284 -0.3306
23766SOL    HW277261   6.661   8.806   6.337  1.8191 -0.9453  2.0724
23767SOL     OW77262   3.585   5.128   3.816  0.0752  0.8587  0.3809
23767SOL    HW177263   3.589   5.099   3.724 -0.2097 -1.4097  1.0139
23767SOL    HW277264   3.512   5.079   3.853  1.0377  0.6764  2.1541
23768SOL     OW77265   9.168   7.714   5.517  0.3170 -0.2607 -0.2890
23768SOL    HW177266   9.262   7.717   5.498  0.6887 -1.6967  1.0524
23768SOL    HW277267   9.155   7.782   5.583  0.5938 -0.5979  0.1218
23769SOL     OW77268   4.039   2.251   7.978 -0.1046 -0.2042 -0.0193
23769SOL    HW177269   4.079   2.170   8.010 -1.3795 -0.1692  1.8171
23769SOL    HW277270   3.974   2.274   8.044 -1.8099  0.7966 -1.9153
23770SOL     OW77271   7.647   3.044   7.394 -0.6274 -0.5071  0.5919
23770SOL    HW177272   7.583   3.105   7.433 -0.5571  0.3616 -0.5886
23770SOL    HW277273   7.598   2.963   7.382 -2.3535  0.8321 -2.5317
23771SOL     OW77274   5.115   8.841   8.185 -0.5253  0.0133 -0.3290
23771SOL    HW177275   5.136   8.913   8.125  0.8774 -0.7785 -0.8470
23771SOL    HW277276   5.027   8.813   8.159 -0.3809  0.3978 -1.2884
23772SOL     OW77277   4.175   8.730   5.854 -0.3725  0.5311  0.1874
23772SOL    HW177278   4.196   8.665   5.922 -1.6922 -0.4832 -0.3256
23772SOL    HW277279   4.144   8.678   5.780 -1.6851  1.7415 -0.1704
23773SOL     OW77280   6.253   2.688   2.707  0.3705  0.3249  0.2950
23773SOL    HW177281   6.205   2.756   2.660 -0.4955 -0.5016 -0.0340
23773SOL    HW277282   6.194   2.612   2.708  0.2026  0.4079  3.0573
23774SOL     OW77283   2.542   7.295   9.075 -0.1921 -0.0379  0.5251
23774SOL    HW177284   2.453   7.299   9.109  0.0950  1.4256  1.1977
23774SOL    HW277285   2.532   7.304   8.980 -0.7486  0.2669  0.6090
23775SOL     OW77286   4.425   0.280   7.231  0.1735 -0.0215 -0.7841
23775SOL    HW177287   4.512   0.296   7.267 -0.4647  1.5727  0.0880
23775SOL    HW277288   4.388   0.211   7.287  0.2810  0.3989 -0.1936
23776SOL     OW77289   4.184   7.324   1.361  0.9197 -0.1542  0.5712
23776SOL    HW177290   4.164   7.415   1.383  0.6314  0.0313 -0.3997
23776SOL    HW277291   4.112   7.296   1.304  2.7192  0.1403 -2.0325
23777SOL     OW77292   7.138   4.400   1.091  0.4061 -0.0512 -0.3395
23777SOL    HW177293   7.075   4.403   1.164  2.0669 -1.4197  1.2344
23777SOL    HW277294   7.083   4.387   1.013 -1.2790 -1.2147  0.9662
23778SOL     OW77295   1.357   2.759   6.898  0.2085  0.0130  0.0419
23778SOL    HW177296   1.383   2.778   6.988  4.7887  0.5732 -1.1800
23778SOL    HW277297   1.333   2.666   6.898 -1.0605  0.2982  1.9791
23779SOL     OW77298   3.548   7.475   0.494  0.3059  0.1325 -0.1289
23779SOL    HW177299   3.468   7.519   0.523  0.5148 -0.3588  1.2585
23779SOL    HW277300   3.556   7.399   0.552  0.1623 -1.5626 -2.2031
23780SOL     OW77301   5.377   7.548   0.074  0.2484  0.4224  0.1657
23780SOL    HW177302   5.289   7.581   0.094  0.7814  1.4968  0.8036
23780SOL    HW277303   5.432   7.627   0.069  1.3629 -0.2971  0.7220
23781SOL     OW77304   3.594   2.037   8.477  0.2918  0.2650  0.3455
23781SOL    HW177305   3.571   1.944   8.472  2.7731 -0.5599  2.3688
23781SOL    HW277306   3.657   2.042   8.549  0.4659  3.5006  0.0903
23782SOL     OW77307   6.833   2.289   1.476  0.7200 -0.4088  0.5181
23782SOL    HW177308   6.884   2.356   1.431 -0.8806  0.7046  0.2554
23782SOL    HW277309   6.817   2.222   1.410  2.7818 -1.3783  0.9250
23783SOL     OW77310   8.342   8.917   6.039 -0.4867  0.5688  0.7485
23783SOL    HW177311   8.299   8.957   5.962 -0.2695 -0.2402  0.1955
23783SOL    HW277312   8.310   8.827   6.040  0.6906  0.1388  0.7114
23784SOL     OW77313   6.162   3.219   6.156  0.0593  0.2634  0.0554
23784SOL    HW177314   6.201   3.202   6.242 -0.2940  1.3384  0.4386
23784SOL    HW277315   6.218   3.287   6.118  1.9304 -2.1157 -1.7834
23785SOL     OW77316   5.136   4.676   2.354 -0.3226  0.1569 -0.7436
23785SOL    HW177317   5.202   4.644   2.293 -0.8905 -1.4426 -0.5827
23785SOL    HW277318   5.183   4.733   2.414  0.9505 -1.0229 -0.5692
23786SOL     OW77319   0.207   8.189   9.208  0.4319 -0.4501 -0.0721
23786SOL    HW177320   0.241   8.257   9.150  0.5771 -1.6714 -1.4617
23786SOL    HW277321   0.277   8.124   9.212 -0.3105 -1.2644 -0.0376
23787SOL     OW77322   6.847   7.886   1.090  0.3935 -0.3277 -0.1144
23787SOL    HW177323   6.872   7.828   1.162 -1.7674 -0.8698  0.2740
23787SOL    HW277324   6.861   7.833   1.011  0.8473 -0.4607  0.0510
23788SOL     OW77325   2.099   5.900   0.985  0.1088  0.3029 -0.1149
23788SOL    HW177326   2.148   5.940   0.913 -0.1197 -0.6465 -0.8116
23788SOL    HW277327   2.088   5.809   0.959  0.3875 -0.1728  1.3236
23789SOL     OW77328   7.070   8.275   8.347  0.1571 -0.1814 -0.6802
23789SOL    HW177329   7.066   8.215   8.422 -0.1260 -1.0688 -1.3861
23789SOL    HW277330   7.141   8.335   8.368 -1.2842  0.9704  1.3010
23790SOL     OW77331   2.979   8.522   5.856 -0.5358  0.1148 -0.5138
23790SOL    HW177332   2.994   8.444   5.910  0.8119  0.8748  0.2898
23790SOL    HW277333   3.040   8.513   5.783 -0.1926  0.5185 -0.2842
23791SOL     OW77334   7.603   2.461   5.143  0.0551 -0.0940 -0.1869
23791SOL    HW177335   7.687   2.500   5.118  0.2670 -0.4606 -0.0444
23791SOL    HW277336   7.565   2.431   5.060 -1.3005  2.6786 -0.7111
23792SOL     OW77337   0.804   8.037   6.663 -0.3763  0.0410 -0.1477
23792SOL    HW177338   0.710   8.055   6.659 -0.8266 -2.0987 -1.3191
23792SOL    HW277339   0.814   7.954   6.615  2.1686  0.4019 -0.3797
23793SOL     OW77340   7.620   6.760   2.167 -0.1776  0.3276  0.2645
23793SOL    HW177341   7.562   6.828   2.200 -1.1772 -0.3021 -0.1415
23793SOL    HW277342   7.561   6.691   2.138  0.8330 -0.9261  1.1128
23794SOL     OW77343   2.404   7.595   5.211 -0.4118 -0.3969 -0.1655
23794SOL    HW177344   2.390   7.689   5.198  3.4534  0.6195  1.5987
23794SOL    HW277345   2.364   7.577   5.296  0.6895  0.2547  0.5259
23795SOL     OW77346   6.525   8.451   3.631 -0.0558  0.0892 -0.3065
23795SOL    HW177347   6.496   8.506   3.558  0.4796  0.2746 -0.3862
23795SOL    HW277348   6.595   8.398   3.594  0.4484  0.4225  0.1532
23796SOL     OW77349   3.543   4.019   5.878  0.1186 -0.3583 -0.5511
23796SOL    HW177350   3.545   3.960   5.953 -0.0541  0.0105 -0.2535
23796SOL    HW277351   3.493   4.095   5.908  0.5576  0.0538 -0.8505
23797SOL     OW77352   6.016   5.224   6.495  0.1787 -0.0116 -0.3691
23797SOL    HW177353   6.021   5.310   6.535 -1.2123 -0.7747  1.6020
23797SOL    HW277354   5.962   5.237   6.417 -0.4814  0.8172  0.2129
23798SOL     OW77355   6.351   5.416   6.183 -0.9658 -0.1235 -0.7184
23798SOL    HW177356   6.375   5.378   6.099  0.3899 -1.0025  0.0240
23798SOL    HW277357   6.359   5.344   6.245 -0.2252  0.9122  0.4362
23799SOL     OW77358   6.563   9.096   3.522 -0.2569 -0.3054  0.4037
23799SOL    HW177359   6.585   9.163   3.457  0.9286  0.0506  1.1412
23799SOL    HW277360   6.531   9.022   3.470  1.6032 -0.4141 -0.6779
23800SOL     OW77361   5.060   1.984   1.455 -0.0137  0.0959  0.2906
23800SOL    HW177362   5.135   1.925   1.466 -0.2980 -0.2727  0.2555
23800SOL    HW277363   5.099   2.068   1.430  0.4947  0.3057  1.7018
23801SOL     OW77364   6.276   1.210   7.348 -0.6551 -0.1966 -0.0435
23801SOL    HW177365   6.287   1.264   7.426 -0.9679  0.6184 -0.5523
23801SOL    HW277366   6.256   1.272   7.278  2.2406 -0.5644 -1.3687
23802SOL     OW77367   1.842   1.395   7.409  0.2428 -0.6259 -0.3500
23802SOL    HW177368   1.934   1.401   7.436  0.0384 -0.3431  0.3194
23802SOL    HW277369   1.838   1.317   7.354  0.5360 -1.7407  1.1373
23803SOL     OW77370   1.142   7.876   0.970 -0.2038  0.4738 -0.4920
23803SOL    HW177371   1.118   7.901   0.880  1.3613  2.3083 -0.4719
23803SOL    HW277372   1.132   7.957   1.020  1.2313  0.0736  0.4841
23804SOL     OW77373   6.402   1.568   3.348 -0.1637 -0.0323 -0.4340
23804SOL    HW177374   6.489   1.608   3.342  0.3361 -0.8020  1.1427
23804SOL    HW277375   6.412   1.482   3.309 -0.2089 -0.1184 -0.2593
23805SOL     OW77376   4.898   0.083   7.945 -0.0709 -0.3480  0.7816
23805SOL    HW177377   4.990   0.073   7.920 -0.3279 -1.2761  0.1403
23805SOL    HW277378   4.863   0.148   7.884  0.0798 -0.2386  0.8126
23806SOL     OW77379   0.479   5.305   7.681 -0.5524 -0.1084 -0.0341
23806SOL    HW177380   0.521   5.264   7.605 -1.9451 -1.8297  0.0435
23806SOL    HW277381   0.550   5.346   7.730  0.3013  1.8684 -2.7019
23807SOL     OW77382   4.666   6.237   5.480 -0.2125  0.5630 -0.1482
23807SOL    HW177383   4.749   6.190   5.484  0.0192  0.9530 -0.2872
23807SOL    HW277384   4.680   6.305   5.414 -0.8071  0.3148 -0.5361
23808SOL     OW77385   8.011   7.801   4.748  0.2206  0.5619  0.0490
23808SOL    HW177386   8.032   7.739   4.818  2.6921 -0.1665 -1.2187
23808SOL    HW277387   8.001   7.746   4.670  1.1274  1.6281 -0.8476
23809SOL     OW77388   1.854   4.504   1.579 -0.1225  0.0245 -0.3569
23809SOL    HW177389   1.783   4.440   1.574  1.2767 -1.6055 -0.1334
23809SOL    HW277390   1.881   4.503   1.671  0.9759 -0.2911 -0.6671
23810SOL     OW77391   2.974   4.104   0.910 -0.5348 -0.0643 -0.1300
23810SOL    HW177392   3.040   4.091   0.842 -0.6932 -2.1244  0.0465
23810SOL    HW277393   2.990   4.193   0.942  0.2285  0.5638 -2.0901
23811SOL     OW77394   6.952   6.953   4.006  0.0240 -0.3125  0.3308
23811SOL    HW177395   6.953   6.868   4.051 -0.1269  0.0093  0.9496
23811SOL    HW277396   6.876   6.998   4.042 -0.4245 -0.2586 -0.6561
23812SOL     OW77397   5.166   6.115   8.200  0.3811  0.3386 -0.1205
23812SOL    HW177398   5.177   6.187   8.138 -1.4946  0.0599 -0.8602
23812SOL    HW277399   5.252   6.074   8.204  0.4505 -0.0762 -3.1437
23813SOL     OW77400   7.348   3.437   9.279  0.4759 -0.0648 -0.0259
23813SOL    HW177401   7.324   3.523   9.314  0.1930  0.4219 -1.3680
23813SOL    HW277402   7.349   3.449   9.184  2.1112 -1.1254 -0.1684
23814SOL     OW77403   8.158   5.126   5.428  0.4182 -0.9915  0.6862
23814SOL    HW177404   8.158   5.197   5.492  1.0969 -0.6174  0.2904
23814SOL    HW277405   8.077   5.139   5.378  0.0878 -1.0431  1.2024
23815SOL     OW77406   8.172   6.656   1.715 -0.2999 -0.6543  0.2500
23815SOL    HW177407   8.125   6.693   1.640  0.3313 -0.3391  0.0010
23815SOL    HW277408   8.107   6.654   1.785 -0.7318 -0.3834 -0.1339
23816SOL     OW77409   8.646   5.173   5.639 -0.5805  0.2046  0.4546
23816SOL    HW177410   8.635   5.083   5.670 -0.9452 -0.1137 -0.5335
23816SOL    HW277411   8.725   5.204   5.683  0.3775 -1.0987 -0.2494
23817SOL     OW77412   9.127   7.929   1.765 -0.7589 -0.0763 -0.2766
23817SOL    HW177413   9.117   7.881   1.683 -2.7009  0.5670 -0.4714
23817SOL    HW277414   9.050   7.904   1.817  0.2602 -0.2062  1.2302
23818SOL     OW77415   5.192   7.178   0.659  0.4678 -0.2433  0.3356
23818SOL    HW177416   5.263   7.158   0.599  0.0844 -1.2742  0.2025
23818SOL    HW277417   5.116   7.192   0.602  0.9201  2.9243  0.3060
23819SOL     OW77418   0.872   9.294   1.772  0.7700 -0.3229 -0.0195
23819SOL    HW177419   0.902   9.360   1.710  1.6481 -1.3732 -0.7648
23819SOL    HW277420   0.790   9.328   1.807  0.9567  0.9138 -0.7482
23820SOL     OW77421   8.053   6.800   1.522 -0.2691  0.1603 -0.0574
23820SOL    HW177422   7.966   6.826   1.492  0.5738  1.3492 -1.6039
23820SOL    HW277423   8.111   6.820   1.449  0.9851 -3.1198 -0.1523
23821SOL     OW77424   8.485   7.215   8.084 -0.0887 -0.1760  0.2256
23821SOL    HW177425   8.433   7.275   8.032 -0.6454 -0.3376  0.5804
23821SOL    HW277426   8.568   7.208   8.038 -0.4242 -0.0043 -0.4173
23822SOL     OW77427   8.739   1.994   0.448  0.6060 -0.2354 -0.3823
23822SOL    HW177428   8.694   1.965   0.368  0.9612 -0.1497 -0.6155
23822SOL    HW277429   8.686   2.069   0.478  0.1850 -0.5780 -0.2550
23823SOL     OW77430   6.008   7.897   0.217  0.0379 -0.0083 -0.1565
23823SOL    HW177431   6.052   7.877   0.134  0.1551  0.4120 -0.1970
23823SOL    HW277432   5.997   7.992   0.215  0.9500  0.1310  0.7631
23824SOL     OW77433   8.214   7.521   6.916 -0.5617 -0.6477  0.2720
23824SOL    HW177434   8.284   7.555   6.971  0.5821  0.8774 -1.9510
23824SOL    HW277435   8.135   7.564   6.948  0.0052 -0.1128  0.9801
23825SOL     OW77436   6.179   0.694   0.301  0.2968 -0.0844 -0.2715
23825SOL    HW177437   6.165   0.678   0.208 -1.1257  2.2185 -0.5403
23825SOL    HW277438   6.273   0.711   0.309  0.2520  0.8967 -1.5446
23826SOL     OW77439   6.953   0.815   0.144  0.1483  0.2610 -0.1559
23826SOL    HW177440   7.042   0.784   0.160 -0.4066 -0.8739  0.8856
23826SOL    HW277441   6.925   0.850   0.228 -1.4094 -2.0955  0.3968
23827SOL     OW77442   6.150   4.971   7.529  0.0003 -0.3398  0.2077
23827SOL    HW177443   6.068   5.015   7.551 -0.5479 -1.1865 -0.0747
23827SOL    HW277444   6.123   4.892   7.482  1.0488  0.5321 -1.9962
23828SOL     OW77445   1.278   4.991   0.908  0.2331  0.5584  0.3315
23828SOL    HW177446   1.206   5.053   0.898 -0.0603  0.0463 -0.9070
23828SOL    HW277447   1.253   4.915   0.854  1.3409  0.0525  0.4835
23829SOL     OW77448   1.763   5.622   2.595  0.6125 -0.1332 -0.2153
23829SOL    HW177449   1.828   5.691   2.587 -1.7569  2.2105 -0.6772
23829SOL    HW277450   1.745   5.615   2.689  0.7840 -0.0546 -0.1781
23830SOL     OW77451   3.581   5.045   5.568 -0.5152 -0.1398 -0.0487
23830SOL    HW177452   3.600   4.986   5.641  1.3379 -1.4246 -1.4844
23830SOL    HW277453   3.557   4.987   5.496  0.5416  0.8933 -1.2710
23831SOL     OW77454   4.361   7.428   0.816 -0.1756  0.1172 -0.0850
23831SOL    HW177455   4.404   7.424   0.731 -1.0922 -1.4809 -0.5143
23831SOL    HW277456   4.417   7.485   0.869  0.8111  0.5309 -1.5140
23832SOL     OW77457   8.044   3.106   2.654  0.1120 -0.0926  0.2422
23832SOL    HW177458   8.077   3.045   2.587 -0.5277  1.0934 -1.2126
23832SOL    HW277459   7.951   3.083   2.662  0.1912 -0.2428  0.7596
23833SOL     OW77460   0.085   3.231   7.701 -0.2550  0.2661 -0.5466
23833SOL    HW177461   0.161   3.188   7.663 -1.8430 -2.9120 -0.4159
23833SOL    HW277462   0.013   3.171   7.685 -2.4489  2.3364  0.8826
23834SOL     OW77463   4.893   0.115   8.213  0.5633  0.4449  0.0550
23834SOL    HW177464   4.881   0.066   8.131  1.0876  0.6659 -0.1594
23834SOL    HW277465   4.981   0.090   8.242  0.9690  1.5060 -0.2235
23835SOL     OW77466   9.286   0.895   2.835  0.0303 -0.4623  0.2780
23835SOL    HW177467   9.377   0.880   2.809  0.1256 -0.3117  0.5214
23835SOL    HW277468   9.240   0.815   2.809  0.5973 -1.3787  1.8833
23836SOL     OW77469   6.178   3.941   8.417  0.5128 -0.0463  0.0495
23836SOL    HW177470   6.093   3.957   8.375  1.2563  2.0841 -0.7640
23836SOL    HW277471   6.189   4.014   8.477  0.3973 -1.9908  2.6101
23837SOL     OW77472   6.994   4.852   0.362  0.6439 -0.2202 -0.1755
23837SOL    HW177473   6.970   4.890   0.277  0.0753 -0.5920 -0.1878
23837SOL    HW277474   6.923   4.878   0.420 -0.0289 -1.6682 -0.3041
23838SOL     OW77475   1.711   2.129   1.289 -0.3793  0.5579 -0.4229
23838SOL    HW177476   1.648   2.089   1.349 -1.2333  1.3375 -0.7535
23838SOL    HW277477   1.773   2.175   1.346  0.1320 -0.5354 -0.0784
23839SOL     OW77478   1.299   6.040   0.674 -0.2473  0.0990 -0.0079
23839SOL    HW177479   1.318   5.983   0.600 -1.5262  0.9761 -1.0559
23839SOL    HW277480   1.379   6.038   0.727 -0.4382 -3.0844  0.3339
23840SOL     OW77481   6.349   2.443   2.299 -0.0159  0.0393 -0.2619
23840SOL    HW177482   6.393   2.360   2.318  2.0653  0.8353 -1.2809
23840SOL    HW277483   6.377   2.501   2.370 -0.8555  0.0985  0.0324
23841SOL     OW77484   1.009   3.592   0.020 -0.5325  0.2360  0.3060
23841SOL    HW177485   1.096   3.566   0.050  0.4101  1.7363 -0.9664
23841SOL    HW277486   0.965   3.624   0.098  1.3843  2.8103  0.4634
23842SOL     OW77487   2.882   8.317   2.514  0.2465 -0.3228 -0.2015
23842SOL    HW177488   2.925   8.297   2.597  1.1302  1.5453 -0.1733
23842SOL    HW277489   2.950   8.357   2.460 -0.9075  0.7315 -0.9351
23843SOL     OW77490   2.925   1.865   0.052 -0.4971 -0.8640  0.0244
23843SOL    HW177491   3.005   1.847   0.003  0.2831 -0.7011  1.1909
23843SOL    HW277492   2.896   1.779   0.082 -1.8995 -1.1787 -2.0277
23844SOL     OW77493   4.246   5.629   3.725  0.4509  0.0623 -0.7371
23844SOL    HW177494   4.154   5.602   3.725  0.3298  0.4684 -1.2480
23844SOL    HW277495   4.295   5.547   3.718  0.1148 -0.1098 -1.0506
23845SOL     OW77496   1.169   5.656   7.769  0.2628  0.1995  0.0110
23845SOL    HW177497   1.089   5.627   7.726  1.3665  0.1346 -2.1419
23845SOL    HW277498   1.199   5.731   7.718  1.5210  0.3073  0.8442
23846SOL     OW77499   0.031   2.187   2.460  0.4334  0.0244  0.2227
23846SOL    HW177500   0.084   2.108   2.447 -1.4762 -1.3461  0.3157
23846SOL    HW277501   0.056   2.245   2.389  1.7216 -0.7685  0.0087
23847SOL     OW77502   5.723   0.463   9.045 -0.6417  0.4291 -0.1033
23847SOL    HW177503   5.730   0.471   8.950  0.0654 -1.0962 -0.2103
23847SOL    HW277504   5.741   0.371   9.063 -0.0756  0.8204  1.5713
23848SOL     OW77505   2.245   8.510   8.429 -0.4822  0.1099  0.1764
23848SOL    HW177506   2.238   8.596   8.471 -2.0023  0.5207 -0.8730
23848SOL    HW277507   2.340   8.495   8.422 -0.1806  0.7328  2.2638
23849SOL     OW77508   8.894   8.007   6.377 -0.2204 -0.2065 -1.0052
23849SOL    HW177509   8.867   7.961   6.457  0.5357 -0.9970 -1.1862
23849SOL    HW277510   8.974   7.962   6.350 -0.2233  0.3461 -1.9666
23850SOL     OW77511   8.794   6.355   8.400 -0.5730 -0.3326 -0.0482
23850SOL    HW177512   8.783   6.345   8.306 -3.4252  1.8587 -0.0713
23850SOL    HW277513   8.761   6.272   8.436 -2.8280  0.0951 -0.9306
23851SOL     OW77514   8.282   0.863   8.739 -0.9745 -0.1886 -0.5745
23851SOL    HW177515   8.332   0.788   8.707 -1.0707 -0.7896  0.6080
23851SOL    HW277516   8.324   0.885   8.823 -1.8610  0.1292 -0.2049
23852SOL     OW77517   0.860   4.210   3.240  0.3019 -0.1856 -0.2480
23852SOL    HW177518   0.815   4.268   3.178 -0.7435 -0.9705 -0.2650
23852SOL    HW277519   0.895   4.269   3.306 -0.2700  0.5138 -0.5458
23853SOL     OW77520   6.680   8.150   6.893  0.4211  0.4348  0.1869
23853SOL    HW177521   6.653   8.150   6.802  1.2055  0.5748 -0.0536
23853SOL    HW277522   6.655   8.236   6.926  0.7135  0.6169 -0.0697
23854SOL     OW77523   8.600   3.737   2.444  0.3452 -0.2602  0.3177
23854SOL    HW177524   8.687   3.699   2.457 -0.8480 -3.7467 -0.9451
23854SOL    HW277525   8.540   3.663   2.447 -2.4494  1.7818 -0.6993
23855SOL     OW77526   2.525   5.786   9.142  0.5201  0.7373 -0.1875
23855SOL    HW177527   2.443   5.796   9.191  0.2772  0.8195 -0.6095
23855SOL    HW277528   2.497   5.771   9.052  0.9852  2.8520 -0.7284
23856SOL     OW77529   2.519   5.822   0.519 -0.1212 -0.1512  0.2373
23856SOL    HW177530   2.559   5.809   0.605  2.1099  0.0300 -0.7089
23856SOL    HW277531   2.467   5.901   0.529  1.0342  0.5307  1.1444
23857SOL     OW77532   1.764   4.813   2.558 -0.0953  0.4310 -0.1714
23857SOL    HW177533   1.778   4.788   2.467 -0.0346 -0.3910  0.0555
23857SOL    HW277534   1.674   4.786   2.577 -0.1236  0.6408 -0.0052
23858SOL     OW77535   6.259   9.346   1.495  0.1749 -0.1421  0.6778
23858SOL    HW177536   6.244   9.284   1.423 -0.1505 -0.7761  1.2859
23858SOL    HW277537   6.195   9.416   1.480  0.2449 -0.1697  0.2387
23859SOL     OW77538   9.107   2.345   6.595  0.1786  0.0328 -0.1031
23859SOL    HW177539   9.097   2.251   6.581 -0.0219  0.2185 -1.2806
23859SOL    HW277540   9.083   2.358   6.687 -2.4128 -0.6935 -0.5978
23860SOL     OW77541   8.694   4.357   7.678 -0.1025  0.1622 -0.5279
23860SOL    HW177542   8.721   4.394   7.762 -1.8496 -0.7616  0.4894
23860SOL    HW277543   8.743   4.275   7.672 -1.5234 -0.8315  0.6592
23861SOL     OW77544   7.239   8.919   8.481  0.2813 -0.8660  0.0784
23861SOL    HW177545   7.224   8.884   8.569  0.4472 -0.2666  0.3516
23861SOL    HW277546   7.158   8.965   8.459  1.6085  2.5208  1.6268
23862SOL     OW77547   1.650   3.463   6.035  0.1513 -0.1650 -0.4472
23862SOL    HW177548   1.649   3.372   6.066 -0.1548  0.2922  0.9761
23862SOL    HW277549   1.732   3.471   5.986  0.7908 -0.8861  0.4665
23863SOL     OW77550   7.796   7.483   7.337 -0.0397 -0.3294 -0.0334
23863SOL    HW177551   7.783   7.429   7.259  0.3124  0.1869 -0.4578
23863SOL    HW277552   7.859   7.434   7.390 -1.3847 -1.3955  0.6340
23864SOL     OW77553   0.310   7.999   3.230 -0.1628 -0.8301  0.2619
23864SOL    HW177554   0.319   8.052   3.308 -0.2638 -0.0540 -0.2432
23864SOL    HW277555   0.251   7.927   3.256 -1.7458  0.4567  0.3934
23865SOL     OW77556   4.907   4.462   0.699 -0.0383 -0.0908 -0.0373
23865SOL    HW177557   4.940   4.377   0.671  0.3210 -0.2303  0.7738
23865SOL    HW277558   4.980   4.502   0.746  0.6357  1.6999 -2.4225
23866SOL     OW77559   2.257   6.371   7.672  0.2798 -0.1026 -0.4598
23866SOL    HW177560   2.215   6.329   7.747  1.5597  0.3123  0.5086
23866SOL    HW277561   2.201   6.446   7.652 -1.0330 -1.2005 -1.0617
23867SOL     OW77562   5.570   5.243   7.907  0.3818  0.4855 -0.0101
23867SOL    HW177563   5.476   5.227   7.900 -0.1039  1.7620  2.6353
23867SOL    HW277564   5.579   5.339   7.905  1.4015  0.4617  1.5105
23868SOL     OW77565   3.497   3.058   1.319  0.0024 -0.2148  0.2910
23868SOL    HW177566   3.455   3.057   1.405  0.9335  0.8507  0.7861
23868SOL    HW277567   3.429   3.087   1.259 -0.5800 -0.7124  0.6958
23869SOL     OW77568   2.599   2.994   2.362  0.5835 -0.4941  0.0021
23869SOL    HW177569   2.639   3.079   2.343  2.7886 -1.0917  1.5936
23869SOL    HW277570   2.651   2.958   2.434 -1.4120 -2.4269  0.6009
23870SOL     OW77571   8.844   5.172   0.553 -0.0928  0.5041 -0.3731
23870SOL    HW177572   8.851   5.190   0.646 -0.0703 -1.5557  0.0512
23870SOL    HW277573   8.760   5.126   0.543 -0.6324  1.6487 -1.5570
23871SOL     OW77574   6.896   4.009   7.979  0.5723  0.1345  0.0238
23871SOL    HW177575   6.903   3.971   7.891 -2.7799 -1.9832  0.5085
23871SOL    HW277576   6.826   4.074   7.971  0.5807  0.2784  1.0483
23872SOL     OW77577   6.229   6.998   4.927  0.0861 -0.6228 -0.0990
23872SOL    HW177578   6.225   6.908   4.961 -1.3504 -0.4648  0.2032
23872SOL    HW277579   6.196   7.052   4.999  1.0516  0.1672 -0.2378
23873SOL     OW77580   1.310   8.931   8.629  0.0989 -0.4084  0.3557
23873SOL    HW177581   1.275   8.845   8.607  1.3467 -0.6200 -0.9329
23873SOL    HW277582   1.299   8.938   8.724 -0.1611 -1.9206  0.4612
23874SOL     OW77583   9.044   7.772   7.680 -0.1114 -0.0762 -0.4665
23874SOL    HW177584   9.063   7.781   7.586 -0.9644 -0.4011 -0.6780
23874SOL    HW277585   8.967   7.827   7.694  1.3042  1.7775  0.5231
23875SOL     OW77586   0.667   4.023   3.529  0.1272 -0.4967 -0.1742
23875SOL    HW177587   0.733   3.996   3.465 -0.7923 -0.4550 -1.1743
23875SOL    HW277588   0.628   3.940   3.559 -0.4232 -0.4484 -0.7500
23876SOL     OW77589   3.317   2.723   6.791 -0.4325 -0.1916 -0.2130
23876SOL    HW177590   3.270   2.797   6.830  2.7242  1.4812  0.7424
23876SOL    HW277591   3.300   2.731   6.698 -1.8251  0.4638  0.0654
23877SOL     OW77592   3.909   8.797   3.585 -0.0224  0.1970 -0.3271
23877SOL    HW177593   3.872   8.862   3.645  0.6857 -1.0739  1.5870
23877SOL    HW277594   3.835   8.740   3.562 -0.1272  0.1947  0.0153
23878SOL     OW77595   3.782   0.815   0.892 -0.1439  0.0548  0.1318
23878SOL    HW177596   3.719   0.846   0.957  0.6763 -1.1877  1.5886
23878SOL    HW277597   3.825   0.740   0.934 -0.1505 -1.3282 -2.1623
23879SOL     OW77598   4.802   1.876   0.629 -0.6355 -0.1831  0.1756
23879SOL    HW177599   4.718   1.921   0.631 -0.2451  0.5556  0.8199
23879SOL    HW277600   4.864   1.941   0.597 -0.0250 -0.1725  1.2979
23880SOL     OW77601   0.533   4.691   3.878 -0.4356  0.1527  0.2716
23880SOL    HW177602   0.541   4.605   3.920  0.0252  1.2288  2.5931
23880SOL    HW277603   0.439   4.708   3.876 -0.4508  0.3387  1.5583
23881SOL     OW77604   6.861   5.468   4.440 -0.6296  0.1977  0.5088
23881SOL    HW177605   6.861   5.404   4.370  2.0339  1.0805 -0.4203
23881SOL    HW277606   6.908   5.426   4.512 -0.8830  0.2937  0.7329
23882SOL     OW77607   2.200   5.310   1.114  0.0040 -0.1000 -0.3643
23882SOL    HW177608   2.281   5.277   1.077  0.3625  0.6942 -0.3216
23882SOL    HW277609   2.131   5.278   1.055  0.2229 -1.7044  0.2184
23883SOL     OW77610   2.352   2.146   8.282 -0.4348 -0.5362 -0.9848
23883SOL    HW177611   2.292   2.072   8.287 -1.9281  0.6584 -0.3151
23883SOL    HW277612   2.417   2.129   8.350 -0.0954 -1.7567 -1.5885
23884SOL     OW77613   1.521   3.384   1.589 -0.2152 -0.2971 -0.2021
23884SOL    HW177614   1.594   3.353   1.643 -0.9131  1.3559  1.8268
23884SOL    HW277615   1.528   3.333   1.508  3.7769  0.4701 -0.5745
23885SOL     OW77616   1.932   4.281   0.557 -0.6654  0.5858  0.5197
23885SOL    HW177617   1.990   4.225   0.608 -2.4278 -0.9312  0.9615
23885SOL    HW277618   1.876   4.220   0.509  0.7305  1.8776 -3.1817
23886SOL     OW77619   4.979   5.877   4.099 -0.5428  0.2425 -0.0229
23886SOL    HW177620   4.926   5.801   4.122 -1.4123  1.0711  0.7929
23886SOL    HW277621   5.052   5.875   4.161  0.7510 -1.2212 -1.5120
23887SOL     OW77622   8.283   2.437   7.298 -0.8014 -0.2056 -0.3436
23887SOL    HW177623   8.338   2.369   7.261 -1.7469 -0.6388 -0.9884
23887SOL    HW277624   8.276   2.503   7.230 -2.3303 -0.8817 -0.8927
23888SOL     OW77625   7.978   0.073   5.128 -0.2165  0.3317  0.5011
23888SOL    HW177626   7.972  -0.002   5.068 -1.3425  0.7905 -0.0064
23888SOL    HW277627   8.068   0.104   5.119  0.3076 -1.0219  0.8175
23889SOL     OW77628   8.927   6.022   6.331  0.2128 -0.7572 -0.0396
23889SOL    HW177629   9.016   6.057   6.340 -0.0390  0.4113 -1.7323
23889SOL    HW277630   8.940   5.929   6.311  1.0948 -0.4648 -0.9446
23890SOL     OW77631   4.876   4.888   5.585  0.5714  0.0176  0.5096
23890SOL    HW177632   4.850   4.871   5.494 -1.1109  1.0486  0.7458
23890SOL    HW277633   4.952   4.946   5.578 -0.8545  1.9013 -0.3122
23891SOL     OW77634   3.341   4.543   4.173 -0.2923 -0.3151 -0.0655
23891SOL    HW177635   3.421   4.593   4.183  0.0147 -0.9355  0.6467
23891SOL    HW277636   3.291   4.591   4.107 -0.9466  2.1454  2.0486
23892SOL     OW77637   1.271   3.075   8.666 -0.1088 -0.3320 -0.1162
23892SOL    HW177638   1.205   3.019   8.624  1.5582 -1.3756 -1.4443
23892SOL    HW277639   1.255   3.162   8.629  1.6296 -1.3024 -3.5249
23893SOL     OW77640   3.394   5.015   2.843 -0.0824  0.4132 -0.0872
23893SOL    HW177641   3.452   4.941   2.864  1.0588  1.4459  0.5463
23893SOL    HW277642   3.326   4.977   2.787  0.7514 -1.0173 -0.1880
23894SOL     OW77643   4.279   5.140   2.171  0.6547 -0.2861 -0.0598
23894SOL    HW177644   4.321   5.183   2.246  2.0122 -0.9521 -0.4048
23894SOL    HW277645   4.200   5.101   2.207  0.9747 -0.0855  0.9085
23895SOL     OW77646   1.685   6.557   7.297 -0.3497 -0.0680  0.6383
23895SOL    HW177647   1.591   6.554   7.315 -0.2794 -0.8180  0.9383
23895SOL    HW277648   1.726   6.564   7.383 -0.1235  0.0762  0.5197
23896SOL     OW77649   3.768   3.683   6.160  0.4592  0.1630  0.0307
23896SOL    HW177650   3.801   3.619   6.097  1.0513  0.6670 -0.1873
23896SOL    HW277651   3.788   3.645   6.245  0.7219  0.0094 -0.0981
23897SOL     OW77652   2.028   8.938   4.114 -0.2003  0.2478  0.5513
23897SOL    HW177653   1.959   8.919   4.177 -1.3149  2.1119 -0.0279
23897SOL    HW277654   2.084   8.860   4.115 -0.3378  0.0672  3.5873
23898SOL     OW77655   4.365   2.668   8.836 -0.2164  0.2909  0.5273
23898SOL    HW177656   4.331   2.750   8.871 -1.4941  0.2327 -0.4958
23898SOL    HW277657   4.431   2.694   8.772 -2.2317  0.6699 -1.5005
23899SOL     OW77658   3.723   3.711   7.296 -0.1303  0.0926  0.0793
23899SOL    HW177659   3.772   3.743   7.220 -0.5552 -0.2441 -0.3429
23899SOL    HW277660   3.782   3.724   7.370  1.8674 -3.0939 -0.7660
23900SOL     OW77661   0.265   4.030   0.616  0.1370 -0.3865  0.4905
23900SOL    HW177662   0.225   4.008   0.532  0.2743 -0.4750  0.4484
23900SOL    HW277663   0.235   3.960   0.676 -1.1014  0.4258  0.8643
23901SOL     OW77664   8.965   0.844   7.751  0.1379 -0.6890 -0.3904
23901SOL    HW177665   8.961   0.915   7.816  0.1846  0.0979 -1.2260
23901SOL    HW277666   8.992   0.887   7.671  0.1950 -1.6761 -0.9123
23902SOL     OW77667   6.147   2.104   6.094 -1.0093 -0.6898 -0.4887
23902SOL    HW177668   6.230   2.142   6.067 -0.6443 -1.5950 -0.6830
23902SOL    HW277669   6.166   2.064   6.180 -1.7783  0.8804  0.4573
23903SOL     OW77670   0.131   6.851   2.379 -0.0697  0.1937 -0.2570
23903SOL    HW177671   0.039   6.835   2.400  0.4494 -0.4200  1.8586
23903SOL    HW277672   0.178   6.787   2.433  1.5580 -0.3017 -2.1798
23904SOL     OW77673   0.913   5.660   8.606  0.4218  0.7328 -0.4402
23904SOL    HW177674   0.835   5.636   8.557 -0.6331  0.5991  1.2037
23904SOL    HW277675   0.897   5.752   8.632  0.2541  0.3714  0.8299
23905SOL     OW77676   4.849   1.645   5.191 -0.2940 -0.5726  0.2000
23905SOL    HW177677   4.790   1.643   5.116  0.7348 -2.5828 -0.6555
23905SOL    HW277678   4.912   1.714   5.171 -0.9609 -0.0114  0.0018
23906SOL     OW77679   3.783   1.335   4.282  0.0881  0.3452 -0.0322
23906SOL    HW177680   3.724   1.396   4.327  0.6679  0.5636  0.4449
23906SOL    HW277681   3.870   1.358   4.314  0.4088 -0.1365 -0.5450
23907SOL     OW77682   6.452   8.893   4.738  0.6030 -0.1887 -0.1712
23907SOL    HW177683   6.441   8.799   4.751 -0.2745 -0.6241 -3.2989
23907SOL    HW277684   6.546   8.905   4.726  0.8514 -0.4520  1.3517
23908SOL     OW77685   5.093   4.070   6.588 -0.2887 -0.1784  0.2842
23908SOL    HW177686   5.171   4.077   6.533  0.6329 -0.3172  1.5217
23908SOL    HW277687   5.059   4.159   6.593 -0.0708 -0.0749 -0.0609
23909SOL     OW77688   6.544   5.366   0.034 -0.8025  0.0273 -0.0038
23909SOL    HW177689   6.591   5.302   0.088  0.4940 -1.4233 -2.6509
23909SOL    HW277690   6.598   5.445   0.036 -0.7623 -0.0157  0.7844
23910SOL     OW77691   5.604   4.346   5.569  0.4998  0.0182  0.4835
23910SOL    HW177692   5.527   4.290   5.566  0.8937 -0.5013 -0.3910
23910SOL    HW277693   5.678   4.285   5.577  0.8912  0.4405  0.1713
23911SOL     OW77694   1.026   1.577   6.612  1.0390  0.2158  0.3813
23911SOL    HW177695   1.003   1.569   6.520  1.3622 -0.2683  0.3415
23911SOL    HW277696   1.076   1.498   6.632  0.9837  0.3212  0.9689
23912SOL     OW77697   7.740   4.895   2.816 -0.1585  0.0659 -0.2517
23912SOL    HW177698   7.800   4.951   2.864 -1.4187  0.8927  0.4410
23912SOL    HW277699   7.678   4.956   2.775 -0.4268 -0.7400 -1.0824
23913SOL     OW77700   7.143   2.737   7.157  0.3253  0.3131  0.5333
23913SOL    HW177701   7.128   2.643   7.167 -1.3524  0.4978 -0.0430
23913SOL    HW277702   7.063   2.771   7.117  0.3328  2.2116  1.9598
23914SOL     OW77703   5.763   6.544   1.344 -0.1863 -0.6411 -0.3587
23914SOL    HW177704   5.830   6.601   1.381 -0.4791 -0.2249 -0.4520
23914SOL    HW277705   5.689   6.551   1.404 -0.5174 -0.2810 -0.7939
23915SOL     OW77706   8.855   7.383   5.651  0.3960 -0.1854 -0.4390
23915SOL    HW177707   8.898   7.298   5.660  1.3928  0.2844 -0.6165
23915SOL    HW277708   8.916   7.445   5.691 -0.5451  0.3890  0.1249
23916SOL     OW77709   3.931   3.676   6.746 -0.3801  0.2627  0.0313
23916SOL    HW177710   3.939   3.748   6.809  1.1369 -0.0111  0.1868
23916SOL    HW277711   3.849   3.633   6.771 -0.4864  0.9601  0.9748
23917SOL     OW77712   3.981   4.428   6.298 -0.2081 -0.1846  0.4504
23917SOL    HW177713   3.947   4.377   6.371  0.7885 -1.0896  0.3069
23917SOL    HW277714   3.904   4.475   6.264 -1.1308 -1.4735  0.6781
23918SOL     OW77715   2.580   8.466   0.050  0.0198 -0.4766  0.2989
23918SOL    HW177716   2.500   8.446   0.099 -0.8899  0.2188 -0.8519
23918SOL    HW277717   2.552   8.467  -0.041  1.5738 -1.2319 -0.2139
23919SOL     OW77718   5.564   7.470   3.660  0.2927  0.7002 -0.2803
23919SOL    HW177719   5.503   7.498   3.729  0.3361 -0.5571  0.3023
23919SOL    HW277720   5.575   7.376   3.675  1.2588  0.6370 -1.2702
23920SOL     OW77721   4.296   0.279   0.583  0.1204  0.1770 -0.7998
23920SOL    HW177722   4.332   0.190   0.589  0.7577  0.5150  0.5078
23920SOL    HW277723   4.201   0.266   0.591  0.2503 -0.3314 -0.0256
23921SOL     OW77724   2.711   5.167   7.891 -0.2160 -0.0996 -0.5891
23921SOL    HW177725   2.616   5.161   7.904  0.2206 -1.8960  3.1120
23921SOL    HW277726   2.744   5.196   7.976  2.7374 -1.9796 -0.9697
23922SOL     OW77727   2.263   3.754   8.587  0.0044  0.2351  0.1149
23922SOL    HW177728   2.311   3.811   8.648  0.7072  0.2618 -0.4596
23922SOL    HW277729   2.290   3.665   8.611  1.2555  0.3021 -0.9521
23923SOL     OW77730   7.968   0.666   3.798 -0.2207  0.6118 -0.3347
23923SOL    HW177731   8.010   0.653   3.713  0.0782 -2.4182  0.1858
23923SOL    HW277732   7.889   0.612   3.794 -1.9636  2.9210  0.2546
23924SOL     OW77733   3.222   7.437   1.085  0.1213 -0.8136 -0.1611
23924SOL    HW177734   3.310   7.415   1.053 -0.3230 -1.0120 -1.3069
23924SOL    HW277735   3.163   7.384   1.031 -0.9335  2.1232 -2.1815
23925SOL     OW77736   5.349   3.624   2.718 -0.9841 -0.6631 -0.2435
23925SOL    HW177737   5.319   3.623   2.627 -0.7382  2.5674 -0.4703
23925SOL    HW277738   5.270   3.636   2.770 -0.7940  1.3646 -0.3663
23926SOL     OW77739   9.020   2.074   6.726  0.1504 -0.0467 -0.1140
23926SOL    HW177740   8.992   1.999   6.779  0.3712 -0.2895 -0.3411
23926SOL    HW277741   9.107   2.095   6.759 -0.1309  0.4596  0.3221
23927SOL     OW77742   9.163   4.423   6.993  0.1035  0.7254  0.0176
23927SOL    HW177743   9.212   4.396   7.070 -0.2233  0.9287  0.2963
23927SOL    HW277744   9.199   4.508   6.970 -0.5552  1.1762  0.6111
23928SOL     OW77745   0.819   8.929   1.649 -0.4895  0.3522 -0.0841
23928SOL    HW177746   0.823   8.837   1.674  0.7576  0.3120 -0.3513
23928SOL    HW277747   0.870   8.933   1.568  0.7702  1.5319  0.7347
23929SOL     OW77748   7.190   5.901   4.797  0.2515 -0.0440 -0.3397
23929SOL    HW177749   7.219   5.822   4.843 -0.1180  0.0709  0.1045
23929SOL    HW277750   7.130   5.943   4.859  0.6543  0.7260 -0.4638
23930SOL     OW77751   4.934   3.535   8.072  0.4988 -0.2664 -0.4535
23930SOL    HW177752   4.855   3.506   8.026  0.5713 -2.9756  0.9580
23930SOL    HW277753   5.006   3.507   8.016  0.5528  1.2314 -1.1996
23931SOL     OW77754   0.323   8.208   3.039  0.1550 -0.0665 -0.1382
23931SOL    HW177755   0.316   8.145   3.112  0.3810  1.7424  1.5342
23931SOL    HW277756   0.362   8.157   2.968 -1.6034 -2.3649  0.3945
23932SOL     OW77757   9.286   6.126   5.008  0.3124  0.3585 -0.0159
23932SOL    HW177758   9.251   6.176   4.935  0.4911  0.0252 -0.3342
23932SOL    HW277759   9.221   6.135   5.077  0.6771  1.6365  0.1931
23933SOL     OW77760   8.405   3.268   1.708  0.1269 -0.2695 -0.7829
23933SOL    HW177761   8.391   3.189   1.761 -1.2971 -0.3118 -1.1770
23933SOL    HW277762   8.369   3.246   1.622  0.1480  0.6498 -1.0352
23934SOL     OW77763   6.893   6.618   3.242 -0.7859 -1.0589 -0.4792
23934SOL    HW177764   6.812   6.643   3.288  1.1962 -0.0460  2.7775
23934SOL    HW277765   6.923   6.540   3.288  2.4960  1.2976  1.8214
23935SOL     OW77766   8.877   5.130   1.379 -0.4353  0.0410 -0.3224
23935SOL    HW177767   8.877   5.098   1.288  0.0374  1.2756 -0.7757
23935SOL    HW277768   8.929   5.210   1.376  0.4710 -0.4469  1.2508
23936SOL     OW77769   1.649   6.045   0.509 -0.1504  0.0956  0.6794
23936SOL    HW177770   1.680   6.085   0.589 -1.1854  0.6413  0.8230
23936SOL    HW277771   1.706   6.079   0.440 -0.2082  0.8013  0.9803
23937SOL     OW77772   1.229   6.226   2.283  0.0508 -0.4039 -0.3363
23937SOL    HW177773   1.199   6.135   2.292 -1.3506  0.1266  0.7313
23937SOL    HW277774   1.167   6.277   2.336 -0.4660  1.4412 -2.5717
23938SOL     OW77775   4.524   3.519   8.646  0.3228  0.3359 -0.4595
23938SOL    HW177776   4.596   3.459   8.667 -0.4738 -0.4371  0.1306
23938SOL    HW277777   4.566   3.604   8.637  1.3574 -0.1554 -0.4449
23939SOL     OW77778   4.638   4.435   0.878 -0.0349  0.2457 -0.3715
23939SOL    HW177779   4.697   4.499   0.838  1.0275  0.4595  1.4245
23939SOL    HW277780   4.682   4.409   0.959 -1.0717 -1.7730 -0.3926
23940SOL     OW77781   1.462   4.102   1.656 -0.0798  0.4720 -0.0158
23940SOL    HW177782   1.438   4.101   1.563 -0.1097  1.2413 -0.0224
23940SOL    HW277783   1.549   4.141   1.658 -0.8971  2.3899  0.4349
23941SOL     OW77784   5.360   5.339   8.441 -0.0330 -0.0149 -0.0399
23941SOL    HW177785   5.301   5.278   8.484 -0.4945  0.3642 -0.1238
23941SOL    HW277786   5.398   5.390   8.513  1.4530 -1.3376  0.1592
23942SOL     OW77787   5.018   3.396   6.881 -0.4985 -0.1294  0.4304
23942SOL    HW177788   5.081   3.324   6.888 -0.5980 -0.3969 -1.1659
23942SOL    HW277789   5.072   3.475   6.880 -0.3794 -0.1527  1.9980
23943SOL     OW77790   7.707   4.182   0.944 -0.8555 -0.8710  0.5394
23943SOL    HW177791   7.691   4.096   0.907  0.8312 -0.7650 -0.5663
23943SOL    HW277792   7.655   4.184   1.024 -0.9742 -2.8841  0.5662
23944SOL     OW77793   8.768   1.970   4.669  0.0921 -0.2229 -0.1460
23944SOL    HW177794   8.718   1.898   4.708 -2.1291 -0.1141 -2.5938
23944SOL    HW277795   8.727   2.049   4.704  1.0816 -0.0786  0.7678
23945SOL     OW77796   2.748   1.864   2.263  0.3229  0.5002  0.5400
23945SOL    HW177797   2.717   1.779   2.233 -0.9464  1.8267 -2.1845
23945SOL    HW277798   2.709   1.875   2.350 -3.4345  0.2381 -0.9746
23946SOL     OW77799   7.907   4.238   1.569 -0.1923  0.1174  0.1077
23946SOL    HW177800   7.977   4.278   1.517  0.5653 -1.1306  0.1136
23946SOL    HW277801   7.837   4.303   1.569 -0.1189  0.3003 -2.2544
23947SOL     OW77802   7.097   2.548   4.559 -0.5636 -0.2553  0.3473
23947SOL    HW177803   7.124   2.559   4.468 -1.3462  0.6839  0.2146
23947SOL    HW277804   7.056   2.631   4.582  0.6407 -0.0636  1.9226
23948SOL     OW77805   0.014   1.109   8.259 -0.6970  0.0573 -0.2093
23948SOL    HW177806   0.001   1.190   8.210 -0.9450 -0.1428 -0.4710
23948SOL    HW277807   0.107   1.088   8.248 -0.3881  0.8483  0.6910
23949SOL     OW77808   3.257   3.843   2.032  0.8468 -0.0933  0.3388
23949SOL    HW177809   3.266   3.848   1.937  0.3016  0.8619  0.3291
23949SOL    HW277810   3.175   3.796   2.046  0.4918  0.5018  0.3145
23950SOL     OW77811   1.947   2.818   5.046  0.6385  0.0699 -0.4360
23950SOL    HW177812   1.995   2.740   5.021 -0.7132 -0.5600 -1.1944
23950SOL    HW277813   1.919   2.857   4.963 -0.1903  0.3769 -0.0319
23951SOL     OW77814   3.710   8.149   3.705 -0.3287 -0.5844  0.2825
23951SOL    HW177815   3.736   8.058   3.686 -2.6981 -1.3655  0.4452
23951SOL    HW277816   3.721   8.195   3.622  0.4004 -1.1450  0.0600
23952SOL     OW77817   2.877   1.131   0.137  0.4090  0.7500  0.2139
23952SOL    HW177818   2.844   1.085   0.060  1.6079  1.0430 -0.5080
23952SOL    HW277819   2.834   1.089   0.211 -0.5926  0.3048 -0.5931
23953SOL     OW77820   7.699   7.956   7.271  0.3071 -0.2542  0.0431
23953SOL    HW177821   7.695   7.881   7.330  2.1567  0.5458  1.2679
23953SOL    HW277822   7.779   8.002   7.295 -0.2048  1.5367 -1.4001
23954SOL     OW77823   8.387   1.674   5.565  0.0479  0.2087  0.1704
23954SOL    HW177824   8.481   1.689   5.570 -0.0286  0.7873 -0.0872
23954SOL    HW277825   8.378   1.600   5.505  0.2360  1.5748 -1.6403
23955SOL     OW77826   6.621   4.774   8.807 -0.1870  0.2252 -0.2328
23955SOL    HW177827   6.701   4.724   8.794 -0.0095  0.4537 -0.0328
23955SOL    HW277828   6.611   4.779   8.902  0.5625  1.7450 -0.1913
23956SOL     OW77829   8.336   6.689   7.778 -0.5651  0.7384 -0.4891
23956SOL    HW177830   8.284   6.610   7.793 -1.1127  1.2020  0.0948
23956SOL    HW277831   8.366   6.715   7.865 -1.0862  1.6391 -0.5717
23957SOL     OW77832   1.518   4.614   7.014 -0.7952 -0.1930  0.2177
23957SOL    HW177833   1.602   4.653   6.992 -0.9850 -0.2834 -0.7034
23957SOL    HW277834   1.466   4.621   6.934 -1.5172 -0.5238  0.6451
23958SOL     OW77835   6.562   8.171   4.229 -0.0816  0.5931 -0.3665
23958SOL    HW177836   6.542   8.106   4.161 -0.4156  0.3385 -0.0264
23958SOL    HW277837   6.627   8.129   4.284 -0.2993  0.5471 -0.1445
23959SOL     OW77838   0.313   7.540   0.828  0.5254 -0.3241  0.1870
23959SOL    HW177839   0.296   7.493   0.910  1.1506 -1.8399 -0.5038
23959SOL    HW277840   0.244   7.510   0.769 -1.4448  2.6500  0.8012
23960SOL     OW77841   0.950   5.536   7.676  0.1428 -0.5376  0.0062
23960SOL    HW177842   0.874   5.586   7.647  1.0081 -0.1982 -1.7694
23960SOL    HW277843   0.913   5.452   7.704 -1.1523  0.4884  1.6072
23961SOL     OW77844   7.331   4.436   2.439 -0.5257  0.3714  0.1607
23961SOL    HW177845   7.409   4.383   2.425  0.0818  1.2184  0.2224
23961SOL    HW277846   7.270   4.379   2.485 -0.0819 -0.4135 -0.2142
23962SOL     OW77847   3.487   8.792   5.148 -0.4154  0.6397  0.0239
23962SOL    HW177848   3.432   8.870   5.157 -2.2315 -0.4733 -0.8212
23962SOL    HW277849   3.430   8.727   5.107  1.0456 -1.1412  0.6743
23963SOL     OW77850   2.366   0.039   6.192 -0.2308 -0.7304 -0.4506
23963SOL    HW177851   2.411   0.118   6.222 -0.9100 -0.0821 -1.0963
23963SOL    HW277852   2.323   0.005   6.270  0.6427 -0.8679 -0.0151
23964SOL     OW77853   8.011   7.066   8.929 -0.1062  0.5312 -0.4837
23964SOL    HW177854   8.002   7.110   9.014  0.3369  0.2482 -0.2829
23964SOL    HW277855   8.105   7.065   8.913 -0.2769  1.9194 -1.7098
23965SOL     OW77856   0.674   2.411   0.347  0.5514  0.1560  0.4092
23965SOL    HW177857   0.686   2.335   0.291 -0.9332  0.5151 -0.4482
23965SOL    HW277858   0.758   2.421   0.393  0.8969 -1.7476  0.2653
23966SOL     OW77859   7.472   2.450   5.805 -0.2472  0.2368  0.3358
23966SOL    HW177860   7.495   2.379   5.745 -0.5747  0.2703  0.1685
23966SOL    HW277861   7.545   2.453   5.867  0.3317  0.5156 -0.3427
23967SOL     OW77862   7.201   5.226   8.121 -0.1161 -0.1809 -0.1304
23967SOL    HW177863   7.158   5.277   8.190 -0.5912  0.4260 -0.8647
23967SOL    HW277864   7.287   5.266   8.112 -0.3898  0.3361 -0.5165
23968SOL     OW77865   7.036   9.126   8.442  0.4035  0.7480  0.1110
23968SOL    HW177866   6.992   9.209   8.426  0.6526  0.8983  0.1978
23968SOL    HW277867   7.027   9.112   8.537  0.5129  0.7630  0.1239
23969SOL     OW77868   3.105   7.703   3.010 -0.1643  0.5112  0.0227
23969SOL    HW177869   3.148   7.785   3.034  1.0615  0.0853 -0.6220
23969SOL    HW277870   3.161   7.666   2.942 -2.7064  0.9806 -2.5119
23970SOL     OW77871   1.397   0.166   4.267 -0.0984 -0.0496  0.2377
23970SOL    HW177872   1.459   0.120   4.325 -0.5317 -0.7368  0.1624
23970SOL    HW277873   1.453   0.220   4.211  0.4157 -0.4581  0.3489
23971SOL     OW77874   8.662   0.980   2.944  0.2647 -0.3259  0.3860
23971SOL    HW177875   8.668   1.023   3.029  0.1746 -0.8622  0.6736
23971SOL    HW277876   8.615   1.042   2.889 -0.1087 -0.1695  0.8705
23972SOL     OW77877   0.032   1.592   1.655 -0.1717 -0.6690 -0.1479
23972SOL    HW177878   0.007   1.662   1.595  1.6021  2.1531  2.1133
23972SOL    HW277879   0.125   1.576   1.636 -0.1335 -1.2197  0.4750
23973SOL     OW77880   8.366   4.089   3.369 -0.0865 -0.4507  0.5249
23973SOL    HW177881   8.354   4.164   3.427  0.1422 -1.0000  1.2992
23973SOL    HW277882   8.291   4.093   3.309  0.3965  0.8940 -0.0213
23974SOL     OW77883   5.285   7.840   5.555 -0.3444  0.2979  0.2544
23974SOL    HW177884   5.300   7.764   5.499 -4.0329 -1.3413  1.1748
23974SOL    HW277885   5.331   7.819   5.636  0.0381 -0.1571 -0.0739
23975SOL     OW77886   0.872   2.838   0.608 -0.1957 -0.0481 -0.4452
23975SOL    HW177887   0.845   2.905   0.545  0.7931  0.6537 -0.1492
23975SOL    HW277888   0.804   2.841   0.676  1.3332  2.9465  1.2033
23976SOL     OW77889   7.450   1.948   0.919 -0.7485  0.2497  0.3011
23976SOL    HW177890   7.383   2.011   0.892 -0.8261 -0.2475 -0.7078
23976SOL    HW277891   7.516   2.001   0.963 -0.4366  1.1750 -1.2107
23977SOL     OW77892   1.784   9.320   5.976  0.2691  0.4282 -0.0935
23977SOL    HW177893   1.812   9.282   6.059 -0.6065  0.5403  0.2731
23977SOL    HW277894   1.782   9.414   5.992  0.1366  0.4530 -0.2473
23978SOL     OW77895   5.144   4.954   1.820 -0.1440  0.3195  0.2298
23978SOL    HW177896   5.193   4.899   1.759 -0.0143 -0.8397  1.3373
23978SOL    HW277897   5.152   5.043   1.784  2.0969  0.0617 -0.0901
23979SOL     OW77898   5.450   8.292   9.207  0.2717  0.0683 -0.1987
23979SOL    HW177899   5.448   8.227   9.136  0.2060  1.6923 -1.7391
23979SOL    HW277900   5.370   8.274   9.257 -1.1532  0.6081 -2.1783
23980SOL     OW77901   4.694   0.024   7.609  0.1015  0.0651 -0.1132
23980SOL    HW177902   4.640  -0.015   7.678  0.8518 -1.2056 -0.2116
23980SOL    HW277903   4.663   0.115   7.603 -0.9911 -0.2134  0.8512
23981SOL     OW77904   4.980   8.478   6.658  0.0022  0.2803 -0.4174
23981SOL    HW177905   4.933   8.551   6.618 -0.8951 -0.8285 -1.4702
23981SOL    HW277906   4.919   8.442   6.722  0.3171  0.2500 -0.1326
23982SOL     OW77907   4.987   4.867   1.547 -0.1955  0.1917  0.1155
23982SOL    HW177908   4.933   4.890   1.471  0.4144 -2.2544 -1.1512
23982SOL    HW277909   5.071   4.911   1.531 -0.8664  1.8124  0.7575
23983SOL     OW77910   6.190   2.275   7.985  0.3059  0.2138 -0.2130
23983SOL    HW177911   6.142   2.252   8.064 -0.0134  1.7294  0.0535
23983SOL    HW277912   6.134   2.245   7.913 -0.1028  0.1777  0.1160
23984SOL     OW77913   1.611   8.044   0.183 -0.5533 -0.0139  0.5622
23984SOL    HW177914   1.596   7.952   0.208 -0.4560 -0.8704 -2.2370
23984SOL    HW277915   1.683   8.072   0.240 -1.0386 -1.4202  1.9660
23985SOL     OW77916   7.121   8.133   7.880 -0.2413 -0.5662  0.0300
23985SOL    HW177917   7.067   8.159   7.805 -0.5017 -0.9365  0.0849
23985SOL    HW277918   7.084   8.180   7.954  0.1002 -0.0957 -0.0970
23986SOL     OW77919   5.634   2.850   0.955  0.0527 -0.5147 -0.8646
23986SOL    HW177920   5.711   2.824   1.006  0.5971  1.2065 -0.7374
23986SOL    HW277921   5.642   2.800   0.874  1.3999 -0.2933 -0.9060
23987SOL     OW77922   4.641   7.373   1.760  0.2863  0.5853  0.7004
23987SOL    HW177923   4.604   7.334   1.839 -0.1359 -0.5710 -0.0520
23987SOL    HW277924   4.735   7.359   1.769  0.0874 -1.4942  0.0225
23988SOL     OW77925   8.938   5.387   1.550  0.2710 -0.1525 -0.3793
23988SOL    HW177926   9.017   5.341   1.577  0.9292  0.8993 -0.5021
23988SOL    HW277927   8.868   5.349   1.604  0.8206 -1.1850 -0.3743
23989SOL     OW77928   1.782   7.865   3.454  0.1802  0.5856  0.4117
23989SOL    HW177929   1.796   7.912   3.372  1.2545  0.0868  0.2896
23989SOL    HW277930   1.693   7.830   3.446  0.1409  0.8335 -0.3910
23990SOL     OW77931   5.475   9.303   3.054  0.4503  0.2665 -0.0996
23990SOL    HW177932   5.449   9.394   3.039 -0.5853  0.2674  1.4549
23990SOL    HW277933   5.495   9.298   3.147 -0.7381 -1.3555  0.1251
23991SOL     OW77934   1.819   1.727   7.732 -0.6126 -0.1147 -0.3335
23991SOL    HW177935   1.827   1.661   7.800 -1.8793 -1.0707 -1.0806
23991SOL    HW277936   1.725   1.747   7.729 -0.4402  0.6293 -1.1303
23992SOL     OW77937   7.805   4.331   6.295  0.0230 -0.4899 -0.2828
23992SOL    HW177938   7.764   4.312   6.211  2.1599 -0.4093 -1.4387
23992SOL    HW277939   7.892   4.290   6.289  0.3772 -0.1498  1.7412
23993SOL     OW77940   2.015   7.862   6.703 -0.4587 -0.0392  0.0980
23993SOL    HW177941   2.098   7.871   6.749 -0.4681 -0.1192  0.1326
23993SOL    HW277942   2.001   7.767   6.698 -0.5057 -0.0279  0.0164
23994SOL     OW77943   2.481   3.864   0.054 -0.0305  0.2267  0.0262
23994SOL    HW177944   2.426   3.922   0.001 -0.3047 -0.2019 -0.1663
23994SOL    HW277945   2.553   3.919   0.082 -0.6702  0.8622  0.4633
23995SOL     OW77946   4.957   2.367   9.260 -0.0786  0.4901 -0.2927
23995SOL    HW177947   4.943   2.456   9.229  3.1203  0.3103 -2.8039
23995SOL    HW277948   5.016   2.376   9.335 -0.3973  0.5261 -0.0467
23996SOL     OW77949   0.197   7.313   0.095  0.3011  0.3887  0.3635
23996SOL    HW177950   0.264   7.369   0.134  0.8126 -0.7875  1.2124
23996SOL    HW277951   0.119   7.327   0.149  0.2355  0.7753  0.1698
23997SOL     OW77952   0.788   4.791   0.088 -0.4394  0.6878 -0.0724
23997SOL    HW177953   0.871   4.748   0.068 -1.0583 -0.4963 -0.1881
23997SOL    HW277954   0.762   4.833   0.006 -1.7814 -2.1278 -1.2478
23998SOL     OW77955   1.346   7.842   3.794 -0.3348 -0.1171 -0.5446
23998SOL    HW177956   1.439   7.861   3.792 -0.4462  0.5077 -0.2926
23998SOL    HW277957   1.338   7.759   3.840 -0.0513  0.9321  1.5236
23999SOL     OW77958   1.273   3.432   7.487  0.4754 -0.5089  0.3655
23999SOL    HW177959   1.251   3.448   7.395  1.5110 -0.5274  0.1034
23999SOL    HW277960   1.218   3.494   7.536  0.1622 -0.2631 -0.2841
24000SOL     OW77961   5.845   7.026   7.095 -0.1482 -0.5181  0.3529
24000SOL    HW177962   5.783   6.953   7.098  1.4239 -1.9071  1.3817
24000SOL    HW277963   5.888   7.025   7.181  0.2356  1.3641  0.2300
24001SOL     OW77964   4.906   2.251   5.767 -0.4531  0.6341 -0.2074
24001SOL    HW177965   5.000   2.239   5.777 -0.3213  1.7273  0.0678
24001SOL    HW277966   4.891   2.242   5.673  0.0497  1.1661 -0.3468
24002SOL     OW77967   0.443   7.522   5.439  0.0897  0.2543 -0.1183
24002SOL    HW177968   0.381   7.594   5.446 -1.4491 -0.5032 -3.5254
24002SOL    HW277969   0.396   7.446   5.473 -0.1210  0.0674 -0.7937
24003SOL     OW77970   6.031   2.503   5.365  0.3548 -0.2436  0.0480
24003SOL    HW177971   6.099   2.546   5.418  0.7303 -1.6032  0.6955
24003SOL    HW277972   6.080   2.453   5.300 -0.0698 -0.2963 -0.2379
24004SOL     OW77973   3.206   2.949   2.228  0.3675  0.2358 -0.2313
24004SOL    HW177974   3.201   3.022   2.289  0.6644 -0.2314  0.3551
24004SOL    HW277975   3.119   2.909   2.232  0.3485  0.2788 -0.2127
24005SOL     OW77976   5.613   6.118   3.445  0.4677 -0.0769 -0.0723
24005SOL    HW177977   5.564   6.036   3.439  2.4052 -1.1821 -2.0564
24005SOL    HW277978   5.685   6.100   3.505  1.1383  0.0145 -0.8326
24006SOL     OW77979   3.023   2.770   5.391 -0.2783  0.5833  0.2492
24006SOL    HW177980   2.991   2.851   5.352  1.5800  1.1523 -0.1781
24006SOL    HW277981   2.953   2.706   5.375 -0.6490  1.4265 -1.7379
24007SOL     OW77982   7.611   2.456   3.878  0.4184 -0.9006 -0.5751
24007SOL    HW177983   7.659   2.539   3.870  0.3673 -0.8319 -0.1725
24007SOL    HW277984   7.528   2.473   3.833 -0.9031  0.2939  2.1188
24008SOL     OW77985   7.791   2.237   2.369 -0.2299  0.1509 -0.1977
24008SOL    HW177986   7.784   2.242   2.464 -1.1349  0.2712 -0.2617
24008SOL    HW277987   7.702   2.254   2.338  0.1383  0.5103 -1.0808
24009SOL     OW77988   8.975   5.906   7.342 -0.6691 -0.3751  0.0619
24009SOL    HW177989   9.060   5.923   7.301 -1.3118  0.8568 -0.8269
24009SOL    HW277990   8.914   5.902   7.268 -1.5804  0.0548  0.7774
24010SOL     OW77991   9.085   9.118   5.239 -0.4206  0.1555  0.2113
24010SOL    HW177992   9.147   9.191   5.242  0.8347 -0.6310 -2.5230
24010SOL    HW277993   9.127   9.049   5.289  0.4402  0.0061 -0.6706
24011SOL     OW77994   0.765   4.310   2.991  0.3010  0.6171  0.1187
24011SOL    HW177995   0.786   4.230   2.944 -0.9849  0.6503 -0.5613
24011SOL    HW277996   0.711   4.360   2.930 -0.7269  1.0276  1.3287
24012SOL     OW77997   4.527   2.155   7.447 -0.2410  0.6724  0.5481
24012SOL    HW177998   4.531   2.221   7.516  1.0447  1.0874  0.1101
24012SOL    HW277999   4.588   2.087   7.476  1.3562  1.4823 -0.7759
24013SOL     OW78000   4.449   7.343   8.274 -0.0455  0.6670 -0.4747
24013SOL    HW178001   4.396   7.272   8.237 -1.1773  2.0575 -1.6416
24013SOL    HW278002   4.483   7.307   8.356 -0.5786 -1.2086 -1.0229
24014SOL     OW78003   1.279   5.609   4.572  0.7661 -0.3612 -0.4655
24014SOL    HW178004   1.232   5.576   4.648 -0.0665  1.2713 -0.2111
24014SOL    HW278005   1.253   5.551   4.500 -0.4409 -0.4280 -0.0076
24015SOL     OW78006   0.089   6.612   5.541 -0.5781  0.0033  0.3234
24015SOL    HW178007   0.098   6.679   5.609 -0.2978 -0.6409  0.9371
24015SOL    HW278008  -0.002   6.584   5.547 -0.1879 -1.1493  1.5253
24016SOL     OW78009   3.575   2.373   3.024  0.6145  0.5136 -0.0436
24016SOL    HW178010   3.580   2.316   2.947  1.0404 -1.4613  1.3743
24016SOL    HW278011   3.482   2.373   3.048 -0.2771  4.2023 -2.6254
24017SOL     OW78012   7.338   8.341   8.211 -0.0875  0.0833 -0.6559
24017SOL    HW178013   7.247   8.312   8.212 -0.4978  1.3088  0.5632
24017SOL    HW278014   7.356   8.366   8.301  1.0851  1.0015 -1.1260
24018SOL     OW78015   6.805   2.903   0.909  0.3746  0.3260  0.2202
24018SOL    HW178016   6.769   2.815   0.922 -1.1454  1.0441  1.1968
24018SOL    HW278017   6.893   2.898   0.946  0.2480 -0.7526  0.4249
24019SOL     OW78018   7.661   2.488   0.764 -0.4984 -0.7882  0.3590
24019SOL    HW178019   7.722   2.529   0.825  0.6011 -0.2307 -1.0614
24019SOL    HW278020   7.646   2.401   0.800  1.8689 -1.2783  0.3145
24020SOL     OW78021   7.408   8.415   5.930 -0.2690 -0.1696  0.4486
24020SOL    HW178022   7.317   8.411   5.902 -0.5396  0.1576  1.2363
24020SOL    HW278023   7.454   8.353   5.874 -0.9915 -0.3963  0.1005
24021SOL     OW78024   7.907   1.228   2.335  0.5279 -0.1379 -0.4969
24021SOL    HW178025   7.837   1.232   2.270 -0.1120 -0.8112  0.1285
24021SOL    HW278026   7.936   1.137   2.332 -0.2392 -0.4534  0.8927
24022SOL     OW78027   8.019   7.548   4.291 -0.6423  0.3253  0.0346
24022SOL    HW178028   8.037   7.455   4.276 -1.7820 -0.0420  0.8623
24022SOL    HW278029   8.069   7.592   4.222  0.9386 -0.8048  0.3934
24023SOL     OW78030   8.686   1.320   0.916 -0.0664  0.1397 -0.8676
24023SOL    HW178031   8.648   1.274   0.991  0.6317  0.9913  0.0257
24023SOL    HW278032   8.631   1.398   0.906 -0.6096 -0.3389 -1.7201
24024SOL     OW78033   2.733   6.690   0.724 -0.4414  0.1938 -0.9096
24024SOL    HW178034   2.786   6.653   0.794 -0.7334 -1.4588 -1.5035
24024SOL    HW278035   2.734   6.784   0.739  1.1787  0.0423  0.1192
24025SOL     OW78036   6.529   0.598   7.232  0.1701  0.0458  0.1510
24025SOL    HW178037   6.537   0.643   7.316  0.8136 -0.6229  0.4595
24025SOL    HW278038   6.587   0.523   7.239 -0.0532 -0.2308 -0.7598
24026SOL     OW78039   7.566   2.826   1.950  0.4639  0.1836 -0.4234
24026SOL    HW178040   7.656   2.813   1.921  0.6467  1.0563 -0.2597
24026SOL    HW278041   7.566   2.911   1.993  0.1059 -0.8161  1.7394
24027SOL     OW78042   3.393   8.336   1.841 -0.2478 -0.5317 -0.1135
24027SOL    HW178043   3.447   8.409   1.811  0.4802 -1.1342 -0.3382
24027SOL    HW278044   3.339   8.371   1.911  0.0225  0.2383 -0.2883
24028SOL     OW78045   0.963   4.127   8.227 -0.2208  0.2851  0.0961
24028SOL    HW178046   0.929   4.212   8.198  1.4921  0.4380 -1.7405
24028SOL    HW278047   0.941   4.067   8.156  1.9391  0.1043 -0.4992
24029SOL     OW78048   1.814   2.652   2.825  0.5526 -0.3256  0.5944
24029SOL    HW178049   1.844   2.649   2.916 -1.7787  0.0453  1.4435
24029SOL    HW278050   1.762   2.572   2.814 -0.9927  0.6583  0.3243
24030SOL     OW78051   5.099   5.535   7.973  0.0976  0.4227  0.1615
24030SOL    HW178052   5.178   5.571   8.015  0.5790 -1.3484  0.8638
24030SOL    HW278053   5.129   5.505   7.887  0.1523 -0.0663  0.3485
24031SOL     OW78054   7.199   5.135   0.427 -0.0893  0.2962 -0.0015
24031SOL    HW178055   7.192   5.094   0.340  0.3876 -0.7236  0.4277
24031SOL    HW278056   7.281   5.102   0.463 -0.1866  0.8666  0.7703
24032SOL     OW78057   5.032   4.874   5.151 -0.7295 -0.4102 -0.1926
24032SOL    HW178058   5.056   4.939   5.217  0.9054 -1.0804 -0.0764
24032SOL    HW278059   5.109   4.868   5.094 -0.7961 -2.2505 -0.1602
24033SOL     OW78060   2.013   6.839   3.375 -0.0184  0.2017 -0.1577
24033SOL    HW178061   2.068   6.840   3.454  1.9547 -0.8570 -1.4461
24033SOL    HW278062   1.991   6.747   3.363 -1.7333  0.5576  0.0605
24034SOL     OW78063   8.828   1.047   6.075  0.4860  0.1950 -0.1669
24034SOL    HW178064   8.821   1.140   6.097  1.4137  0.4151 -0.7327
24034SOL    HW278065   8.746   1.009   6.105 -1.8067  1.9202 -3.5758
24035SOL     OW78066   8.194   5.207   1.656 -0.2306 -0.4566  0.0146
24035SOL    HW178067   8.234   5.231   1.573 -0.7437 -1.2798 -0.4864
24035SOL    HW278068   8.100   5.214   1.640 -0.3660  1.9600  1.3180
24036SOL     OW78069   8.865   2.559   0.082 -0.8121 -0.5623 -0.2031
24036SOL    HW178070   8.910   2.547   0.166 -3.2246 -0.1900  1.2403
24036SOL    HW278071   8.935   2.578   0.020  1.0915 -1.0636  1.6670
24037SOL     OW78072   3.523   9.270   4.915 -0.1597  0.3152 -0.0989
24037SOL    HW178073   3.557   9.274   5.004  0.9020  0.8593 -0.5079
24037SOL    HW278074   3.594   9.304   4.861 -0.4745 -0.7717 -1.2352
24038SOL     OW78075   5.560   3.197   3.691  0.3907  1.0147 -0.3898
24038SOL    HW178076   5.582   3.174   3.601  0.5561  2.5931 -0.7795
24038SOL    HW278077   5.611   3.276   3.708  0.5438  0.6053  1.1772
24039SOL     OW78078   6.283   7.079   5.523 -0.1424  0.4806 -0.2854
24039SOL    HW178079   6.377   7.096   5.515 -0.3082  1.2107 -0.8677
24039SOL    HW278080   6.269   6.996   5.478  0.0189  1.0992 -1.5117
24040SOL     OW78081   0.153   2.863   8.254  0.4686 -0.1465 -0.0465
24040SOL    HW178082   0.150   2.782   8.305 -3.4333 -0.5900 -0.6598
24040SOL    HW278083   0.088   2.850   8.184  0.6773  2.9991 -0.9792
24041SOL     OW78084   7.875   5.992   1.306 -0.1966 -0.0248 -0.8778
24041SOL    HW178085   7.809   5.985   1.375  0.1954  1.0910 -0.3683
24041SOL    HW278086   7.826   5.997   1.225 -0.8058  1.6580 -0.4476
24042SOL     OW78087   4.440   7.663   4.869  0.3516 -0.0742 -0.5205
24042SOL    HW178088   4.511   7.667   4.933 -0.7276  1.5187  0.6613
24042SOL    HW278089   4.445   7.574   4.833  1.7636 -0.6072  0.8754
24043SOL     OW78090   8.381   0.518   5.770  0.6417 -0.8786 -0.1096
24043SOL    HW178091   8.380   0.431   5.810  0.1714 -1.0255 -0.4423
24043SOL    HW278092   8.467   0.522   5.727  0.6478 -1.1921 -0.1325
24044SOL     OW78093   3.865   9.055   2.521 -0.0916 -0.9495 -0.3748
24044SOL    HW178094   3.885   9.148   2.530 -1.1270 -0.7820  0.5366
24044SOL    HW278095   3.909   9.028   2.440  1.6231 -0.0805  0.2178
24045SOL     OW78096   5.669   3.227   4.596  0.0177 -0.1727  0.4292
24045SOL    HW178097   5.587   3.230   4.547  0.7373 -0.5218 -0.8600
24045SOL    HW278098   5.649   3.268   4.680 -1.2683  0.4772 -0.1693
24046SOL     OW78099   7.381   3.968   0.396 -0.2471 -0.6041 -0.2781
24046SOL    HW178100   7.460   3.932   0.434  0.7749  1.4487 -0.3265
24046SOL    HW278101   7.382   3.938   0.305  0.2527 -0.9298 -0.1663
24047SOL     OW78102   7.765   3.527   2.213 -0.1218 -0.1885  0.1325
24047SOL    HW178103   7.695   3.523   2.277 -0.8433  0.6605 -0.5882
24047SOL    HW278104   7.846   3.522   2.265 -0.6688  1.2113  1.1678
24048SOL     OW78105   8.411   7.121   3.613  0.3751 -0.9830  0.0429
24048SOL    HW178106   8.407   7.028   3.588  1.9333 -2.0538  3.2528
24048SOL    HW278107   8.504   7.138   3.625  0.0904  0.9640 -0.2431
24049SOL     OW78108   8.693   5.253   2.040 -0.2467  0.5480  0.3523
24049SOL    HW178109   8.756   5.181   2.043 -0.1935  0.5267 -0.8340
24049SOL    HW278110   8.717   5.308   2.114  0.9175  0.3257  0.1671
24050SOL     OW78111   2.473   3.563   8.336 -0.5315 -0.6894 -0.2701
24050SOL    HW178112   2.399   3.535   8.391 -1.1071 -0.5860 -0.9764
24050SOL    HW278113   2.455   3.655   8.317  0.1640 -0.4617  0.1473
24051SOL     OW78114   0.453   0.219   5.036 -0.1059 -0.4410  0.1794
24051SOL    HW178115   0.535   0.220   5.086 -0.7327 -1.0243  1.2671
24051SOL    HW278116   0.451   0.304   4.992  0.8687 -0.2367  0.5030
24052SOL     OW78117   4.358   1.478   3.602 -0.1066 -0.0486 -0.1591
24052SOL    HW178118   4.435   1.429   3.573 -0.3882  0.3143 -1.5683
24052SOL    HW278119   4.355   1.555   3.545 -1.1804  0.2432  0.2672
24053SOL     OW78120   8.611   8.612   6.782  0.3113 -0.1948  0.2476
24053SOL    HW178121   8.648   8.623   6.695  1.2588  0.1134  0.6784
24053SOL    HW278122   8.557   8.690   6.795 -0.6002 -0.6888 -0.4147
24054SOL     OW78123   8.613   9.359   1.735  0.0403 -0.0417 -0.2472
24054SOL    HW178124   8.627   9.407   1.817  0.9971 -0.0818 -0.3758
24054SOL    HW278125   8.619   9.267   1.761  0.9970 -0.0446 -0.4689
24055SOL     OW78126   3.568   5.104   8.619 -0.4866  0.1902 -0.4249
24055SOL    HW178127   3.644   5.047   8.617 -0.7135 -0.0975 -1.3372
24055SOL    HW278128   3.499   5.054   8.575 -0.8955  0.8727 -0.5809
24056SOL     OW78129   5.997   4.627   4.951  0.1723  0.2028 -0.0284
24056SOL    HW178130   6.007   4.713   4.992  2.9041 -0.6367  1.2901
24056SOL    HW278131   5.988   4.647   4.857 -3.0846  2.0084  0.5169
24057SOL     OW78132   8.682   8.494   2.015  0.0420  0.0065 -0.0015
24057SOL    HW178133   8.629   8.489   1.936  1.1020  1.3401 -0.8530
24057SOL    HW278134   8.759   8.544   1.988 -0.0774  1.4753  2.1384
24058SOL     OW78135   8.867   6.549   8.842  0.2928 -0.8320  0.7278
24058SOL    HW178136   8.826   6.492   8.907  1.0952  0.5629  2.5355
24058SOL    HW278137   8.889   6.629   8.890  0.6257  0.4012 -1.3516
24059SOL     OW78138   6.918   4.704   6.406  0.0226 -0.1885 -0.0024
24059SOL    HW178139   6.935   4.755   6.327 -0.9781 -2.9621 -2.1732
24059SOL    HW278140   6.823   4.693   6.407  0.1838 -1.6961  0.5825
24060SOL     OW78141   3.965   2.147   3.044  0.1085  0.0799  0.4776
24060SOL    HW178142   4.008   2.233   3.040 -0.7760  0.5453  0.5917
24060SOL    HW278143   3.875   2.167   3.069 -0.5158 -0.7364 -0.9874
24061SOL     OW78144   7.043   0.733   2.922  0.6046 -0.5033 -0.4817
24061SOL    HW178145   6.953   0.705   2.904  0.2125  0.8531 -0.7088
24061SOL    HW278146   7.081   0.660   2.971 -0.8107 -0.8295  0.1827
24062SOL     OW78147   5.650   4.599   5.483 -0.2219  0.5527 -0.2743
24062SOL    HW178148   5.633   4.510   5.515 -0.8244  0.3317 -1.1754
24062SOL    HW278149   5.730   4.625   5.528 -0.1097 -0.3903  0.1113
24063SOL     OW78150   8.327   1.172   1.767 -0.1352 -0.0829  0.3843
24063SOL    HW178151   8.268   1.215   1.829  1.4348 -0.7358  2.4730
24063SOL    HW278152   8.397   1.235   1.754 -0.5160  0.0939 -0.8748
24064SOL     OW78153   8.834   6.559   4.984  0.1607  0.3480  0.2141
24064SOL    HW178154   8.926   6.585   4.985  0.0960  0.5755  0.3815
24064SOL    HW278155   8.827   6.493   5.053 -0.3693  2.3602  2.2254
24065SOL     OW78156   7.416   7.939   5.528  0.0155 -0.2299 -0.2098
24065SOL    HW178157   7.408   7.903   5.616 -0.7561 -1.3277 -0.7034
24065SOL    HW278158   7.345   8.004   5.522 -0.1714 -0.4246 -0.1403
24066SOL     OW78159   3.651   0.228   8.997  0.0293 -0.2366 -0.2185
24066SOL    HW178160   3.666   0.150   8.945 -0.6480 -0.2318 -0.4349
24066SOL    HW278161   3.620   0.294   8.935  1.6876  0.5759 -0.2387
24067SOL     OW78162   5.972   1.328   3.381  0.2993  0.2363  0.1616
24067SOL    HW178163   5.913   1.400   3.406  0.6969  0.3251  0.8405
24067SOL    HW278164   6.049   1.340   3.435  0.6404 -0.3301 -0.1921
24068SOL     OW78165   9.335   1.407   4.803  0.0550  0.1524 -0.0445
24068SOL    HW178166   9.347   1.392   4.710  1.9473 -1.1386  0.3431
24068SOL    HW278167   9.336   1.502   4.813  1.8223  0.2969 -1.1629
24069SOL     OW78168   3.474   0.353   7.677  0.1699  0.2341 -0.3111
24069SOL    HW178169   3.538   0.336   7.609  1.6003  0.7386  0.8649
24069SOL    HW278170   3.514   0.318   7.757 -1.4259 -0.2803  0.3015
24070SOL     OW78171   7.126   2.856   1.723 -0.1953  0.3273  0.6594
24070SOL    HW178172   7.184   2.897   1.788  0.1270 -0.4478  0.8722
24070SOL    HW278173   7.185   2.822   1.656 -0.3005 -1.4787  1.4524
24071SOL     OW78174   7.564   7.168   2.295 -0.1846 -0.0064 -0.0493
24071SOL    HW178175   7.494   7.231   2.276 -0.9861 -0.4189  1.3475
24071SOL    HW278176   7.538   7.089   2.248  0.0418  0.2486 -0.6058
24072SOL     OW78177   5.848   9.340   7.131  0.5013 -0.3964  0.6301
24072SOL    HW178178   5.832   9.271   7.196  0.1471 -1.2839 -0.3675
24072SOL    HW278179   5.941   9.333   7.111  0.3294 -1.1100 -0.0067
24073SOL     OW78180   1.105   3.017   5.124 -0.2859 -0.0088 -0.1507
24073SOL    HW178181   1.115   3.073   5.047  0.1408  0.5257  0.2833
24073SOL    HW278182   1.089   2.930   5.089  0.7200  0.0753 -0.8605
24074SOL     OW78183   8.125   2.528   0.577  0.2973  0.1204 -0.0533
24074SOL    HW178184   8.132   2.523   0.672  1.4509 -0.8508 -0.1594
24074SOL    HW278185   8.052   2.588   0.561 -1.3486 -1.3773  1.4406
24075SOL     OW78186   1.980   0.524   8.829  0.1554  0.2278 -0.6323
24075SOL    HW178187   1.885   0.517   8.837 -0.1464  2.0021 -2.1029
24075SOL    HW278188   2.013   0.500   8.916 -1.7648  1.6937  0.5931
24076SOL     OW78189   6.170   4.120   8.619  0.1979 -0.7519 -0.5455
24076SOL    HW178190   6.087   4.081   8.647 -0.0136  0.7629  1.0652
24076SOL    HW278191   6.146   4.208   8.589  1.2815 -0.0703  0.5071
24077SOL     OW78192   8.423   8.117   1.383 -0.2649  0.0273 -0.1096
24077SOL    HW178193   8.364   8.119   1.458 -3.4366  1.6277 -2.4516
24077SOL    HW278194   8.401   8.037   1.336 -0.9954  0.8591 -1.2419
24078SOL     OW78195   8.895   2.772   0.341  0.3867  0.0241  0.1758
24078SOL    HW178196   8.800   2.777   0.328  0.5230 -0.2413 -1.0863
24078SOL    HW278197   8.915   2.840   0.405 -0.6512  0.1105  0.4221
24079SOL     OW78198   3.672   4.707   4.771  0.9303  0.5699 -0.1026
24079SOL    HW178199   3.708   4.771   4.833  0.9941  1.0374 -0.6167
24079SOL    HW278200   3.647   4.759   4.695 -0.7058  0.2468  0.1631
24080SOL     OW78201   8.140   7.357   8.450  0.6168 -0.0492 -0.6204
24080SOL    HW178202   8.232   7.342   8.429  0.7524  0.9102 -0.7465
24080SOL    HW278203   8.092   7.307   8.384  1.0272 -1.5246  0.1572
24081SOL     OW78204   1.368   1.810   6.298 -0.3300  0.7658  0.4186
24081SOL    HW178205   1.344   1.863   6.221  1.3574  1.3500  0.2390
24081SOL    HW278206   1.327   1.726   6.283 -2.0553  1.6276  0.0818
24082SOL     OW78207   2.330   3.670   0.156  0.2470 -0.0310  0.3482
24082SOL    HW178208   2.277   3.655   0.077 -0.5243 -0.4176  0.9288
24082SOL    HW278209   2.383   3.747   0.135  0.3343 -0.3591 -0.6925
24083SOL     OW78210   7.267   2.383   8.239  0.9815 -0.2343  0.1827
24083SOL    HW178211   7.297   2.316   8.178  0.1609  0.9919 -1.6653
24083SOL    HW278212   7.171   2.374   8.239  0.8313  1.0712 -0.3176
24084SOL     OW78213   5.519   0.741   3.533  0.0657 -0.1719 -0.1308
24084SOL    HW178214   5.516   0.780   3.446  0.2942  0.0551 -0.0424
24084SOL    HW278215   5.520   0.817   3.592  0.5551 -0.3125  0.0443
24085SOL     OW78216   9.127   3.127   8.406  0.2568 -0.4151  0.2998
24085SOL    HW178217   9.165   3.048   8.445 -0.9788 -1.5459 -0.7373
24085SOL    HW278218   9.119   3.188   8.480  0.3647 -1.5908  1.3118
24086SOL     OW78219   5.205   3.608   7.553 -0.6327  0.5137 -0.7560
24086SOL    HW178220   5.282   3.580   7.602 -1.8407  1.3077  1.7757
24086SOL    HW278221   5.144   3.534   7.560  0.2400 -0.6554 -3.8559
24087SOL     OW78222   0.749   3.639   5.499  0.2075 -0.1365 -0.1064
24087SOL    HW178223   0.736   3.573   5.568 -0.7076 -0.8596 -0.9464
24087SOL    HW278224   0.842   3.635   5.479  0.0336 -1.8479 -0.7712
24088SOL     OW78225   7.234   2.198   2.169 -0.2552 -0.0177 -0.1546
24088SOL    HW178226   7.309   2.248   2.137 -0.4806 -0.7971 -1.9981
24088SOL    HW278227   7.189   2.257   2.229 -0.7331  2.1408 -2.5262
24089SOL     OW78228   1.835   9.095   0.110  0.5161  0.2965 -0.3488
24089SOL    HW178229   1.831   9.052   0.025 -0.3590  1.5788 -0.9809
24089SOL    HW278230   1.846   9.188   0.090  0.2931  0.6191  0.9304
24090SOL     OW78231   4.657   1.441   2.324 -0.4938 -0.2257 -0.2419
24090SOL    HW178232   4.564   1.437   2.348 -0.4923  2.1450  0.4752
24090SOL    HW278233   4.661   1.506   2.254  0.8863  2.2289  1.9179
24091SOL     OW78234   7.304   6.328   7.709 -0.2432 -0.1787  0.3191
24091SOL    HW178235   7.388   6.373   7.712 -0.8693  1.0981 -0.2471
24091SOL    HW278236   7.290   6.297   7.799  0.5531  0.1118  0.5518
24092SOL     OW78237   4.763   4.068   3.193 -0.2456 -0.4716 -0.1733
24092SOL    HW178238   4.832   4.112   3.144  1.2494 -1.8810  0.5926
24092SOL    HW278239   4.796   3.980   3.209 -1.1794 -0.4614  2.3114
24093SOL     OW78240   2.921   5.942   3.880 -0.5106 -0.5584  0.7276
24093SOL    HW178241   2.917   5.866   3.938  0.0597 -0.8436  0.4026
24093SOL    HW278242   2.833   5.979   3.883 -0.7063 -1.0446  1.1391
24094SOL     OW78243   4.273   5.240   1.581 -0.4298  0.0335  0.3917
24094SOL    HW178244   4.248   5.190   1.504  0.0894 -0.9870  0.8680
24094SOL    HW278245   4.279   5.175   1.651 -0.1791  0.8337  1.1326
24095SOL     OW78246   0.052   6.175   8.665 -0.0973  0.3401 -0.0298
24095SOL    HW178247   0.045   6.081   8.681 -2.3780  0.6518  1.0507
24095SOL    HW278248   0.040   6.215   8.750  1.0356  1.6478 -0.4527
24096SOL     OW78249   3.883   4.327   1.580  0.1848 -0.1532 -0.6421
24096SOL    HW178250   3.942   4.401   1.592 -0.7687  0.4332  0.7435
24096SOL    HW278251   3.936   4.261   1.534  1.9618  0.3001  0.6305
24097SOL     OW78252   2.156   2.790   2.064  0.1067  0.3561 -0.0293
24097SOL    HW178253   2.179   2.732   1.992 -0.4731  0.8371 -0.6093
24097SOL    HW278254   2.240   2.827   2.093  0.5026 -0.8565  0.4444
24098SOL     OW78255   0.815   1.920   7.512  0.2787  0.7042 -0.4831
24098SOL    HW178256   0.819   1.825   7.507 -2.7028  0.4341  0.1133
24098SOL    HW278257   0.884   1.945   7.574 -0.1588 -1.2806  0.8838
24099SOL     OW78258   7.739   7.953   9.334 -0.1099 -0.3004  0.5118
24099SOL    HW178259   7.796   7.930   9.408  0.1682  0.1164  0.4330
24099SOL    HW278260   7.650   7.944   9.368 -0.0191 -1.6188  0.4416
24100SOL     OW78261   7.695   4.838   5.409  0.5299 -0.3389  0.2359
24100SOL    HW178262   7.661   4.753   5.439 -1.1709  0.8833  1.9735
24100SOL    HW278263   7.786   4.839   5.438  0.4724 -1.4242  0.4892
24101SOL     OW78264   4.527   4.496   5.505  0.4308 -0.2607  0.4084
24101SOL    HW178265   4.504   4.510   5.597  0.9032  0.6139  0.4082
24101SOL    HW278266   4.594   4.562   5.487 -0.6346  0.5035 -0.9389
24102SOL     OW78267   7.545   5.439   3.718  0.1656  0.3393 -0.0549
24102SOL    HW178268   7.542   5.446   3.622  0.6172  0.1700 -0.0800
24102SOL    HW278269   7.503   5.355   3.737  1.4082 -0.3311 -0.1984
24103SOL     OW78270   7.516   1.751   5.998  0.3993  0.0093  0.2029
24103SOL    HW178271   7.542   1.689   6.067 -0.8086 -0.2655  0.4274
24103SOL    HW278272   7.578   1.823   6.007  1.1570 -0.6658  0.6405
24104SOL     OW78273   7.086   2.149   1.170  0.1048 -0.4066  0.6466
24104SOL    HW178274   6.995   2.151   1.200  0.7395 -2.1499  2.9670
24104SOL    HW278275   7.083   2.102   1.086 -1.0771 -0.7349  0.8653
24105SOL     OW78276   0.474   3.218   4.100 -0.1622 -0.1535 -0.3457
24105SOL    HW178277   0.394   3.193   4.053 -1.5401 -0.2837  1.8954
24105SOL    HW278278   0.543   3.167   4.060 -1.5211 -1.3957 -1.2033
24106SOL     OW78279   1.037   5.931   7.827  0.1126  0.1133 -0.1855
24106SOL    HW178280   1.058   5.901   7.915  0.9919 -0.6049 -0.6193
24106SOL    HW278281   1.112   5.986   7.803  0.0897 -0.0542 -0.6458
24107SOL     OW78282   5.745   2.978   0.198 -0.2366  0.2085 -0.1287
24107SOL    HW178283   5.726   2.982   0.291 -0.3064 -0.3136 -0.1174
24107SOL    HW278284   5.841   2.978   0.193 -0.2048 -1.3674  0.0358
24108SOL     OW78285   8.666   6.772   1.986 -0.8340  0.3482  0.1285
24108SOL    HW178286   8.710   6.701   2.033 -0.9387  0.4100  0.3195
24108SOL    HW278287   8.716   6.780   1.904 -1.0304 -0.1788 -0.0523
24109SOL     OW78288   5.367   3.676   3.060  0.3111  0.0586  0.3550
24109SOL    HW178289   5.311   3.692   3.136  0.4182  0.2241  0.3997
24109SOL    HW278290   5.306   3.677   2.985  0.1777 -0.3019  0.4584
24110SOL     OW78291   7.371   7.938   2.334 -0.0941 -0.0075 -0.5303
24110SOL    HW178292   7.425   7.863   2.306  0.1843  0.2130 -0.5998
24110SOL    HW278293   7.284   7.919   2.299 -0.3645 -0.9487  0.6030
24111SOL     OW78294   5.122   7.977   5.977  0.3676  0.1588  0.2002
24111SOL    HW178295   5.101   7.889   6.009  0.6355 -0.0411 -0.1622
24111SOL    HW278296   5.039   8.011   5.944  0.7588 -1.0711 -2.2966
24112SOL     OW78297   1.383   0.640   9.032  0.0712 -0.1025  0.2950
24112SOL    HW178298   1.291   0.623   9.012  0.2011 -0.1604 -0.2882
24112SOL    HW278299   1.430   0.613   8.952  0.9450 -3.2887  1.7263
24113SOL     OW78300   7.369   7.051   8.040  0.6036 -0.3593  0.6339
24113SOL    HW178301   7.442   6.992   8.028 -0.3931 -1.8148  1.4680
24113SOL    HW278302   7.406   7.139   8.026  2.1917 -1.1326 -0.2170
24114SOL     OW78303   2.139   5.517   7.119  0.3607 -0.0712 -0.1348
24114SOL    HW178304   2.215   5.470   7.152  0.9283 -0.9401 -2.4952
24114SOL    HW278305   2.065   5.477   7.166  1.2271  0.1136  1.4701
24115SOL     OW78306   6.669   8.595   8.879  0.2953 -0.3507  0.0749
24115SOL    HW178307   6.682   8.683   8.914 -1.8326  1.2058 -2.6951
24115SOL    HW278308   6.748   8.578   8.827  0.9895 -0.4104  1.0995
24116SOL     OW78309   3.563   6.937   6.561 -0.0609 -0.6749  0.0226
24116SOL    HW178310   3.644   6.930   6.510  0.4030  0.9870  0.4745
24116SOL    HW278311   3.592   6.968   6.647 -0.9282 -2.5523  1.0586
24117SOL     OW78312   6.674   1.148   7.976  0.2954  0.8180 -0.1134
24117SOL    HW178313   6.657   1.072   8.032 -0.5273  1.6679  0.8286
24117SOL    HW278314   6.731   1.204   8.028 -0.5102  1.6399 -0.1032
24118SOL     OW78315   1.842   3.442   6.947  0.4269 -0.0588 -0.0554
24118SOL    HW178316   1.755   3.436   6.988  0.6402  0.0252  0.4062
24118SOL    HW278317   1.897   3.483   7.013  0.4463  1.4155 -0.9242
24119SOL     OW78318   0.097   1.906   0.026 -0.4449  0.2392 -0.0803
24119SOL    HW178319   0.038   1.932   0.097 -0.2262 -0.4466  0.3591
24119SOL    HW278320   0.047   1.921  -0.054 -1.1863 -0.2736  0.2841
24120SOL     OW78321   5.744   0.166   0.781 -0.1023  0.5332  0.6265
24120SOL    HW178322   5.695   0.215   0.847  0.1452  1.3870  0.1916
24120SOL    HW278323   5.808   0.229   0.748 -1.8956  1.0165 -2.3147
24121SOL     OW78324   3.636   8.651   0.543  0.1474  0.7648 -0.1615
24121SOL    HW178325   3.618   8.738   0.581 -0.2726  1.3251 -1.5812
24121SOL    HW278326   3.711   8.665   0.486 -0.6419  0.4851 -1.3108
24122SOL     OW78327   5.322   2.304   2.568 -0.0447  0.0794  0.0240
24122SOL    HW178328   5.382   2.375   2.590  0.0085 -0.2454  0.9677
24122SOL    HW278329   5.352   2.273   2.482  0.6267  0.4627  0.1118
24123SOL     OW78330   8.333   6.800   6.772  0.2820  0.5034 -0.1102
24123SOL    HW178331   8.243   6.824   6.747  0.8261  2.9812 -0.0010
24123SOL    HW278332   8.344   6.841   6.858  1.9882  1.6405 -0.8181
24124SOL     OW78333   1.175   1.342   1.802  0.5707 -0.2674 -0.1878
24124SOL    HW178334   1.218   1.427   1.810  2.4323 -1.3141  2.7799
24124SOL    HW278335   1.190   1.316   1.711  1.0831  1.9801 -0.8097
24125SOL     OW78336   7.882   1.733   8.424  0.4708 -0.1172 -0.2682
24125SOL    HW178337   7.820   1.688   8.367  0.0460 -1.0555  0.8998
24125SOL    HW278338   7.829   1.795   8.474  0.9651  1.3244 -1.4387
24126SOL     OW78339   8.011   3.107   5.047  0.6079 -0.0578 -0.1060
24126SOL    HW178340   7.957   3.172   5.092 -0.0476  0.6136 -1.7754
24126SOL    HW278341   7.955   3.030   5.040  0.5816 -0.0392 -0.1002
24127SOL     OW78342   4.956   6.520   3.295 -0.0129  0.1842 -0.1522
24127SOL    HW178343   4.899   6.469   3.237 -0.4341  1.6554 -1.1147
24127SOL    HW278344   4.897   6.557   3.361 -0.0694  1.0203 -0.6483
24128SOL     OW78345   0.470   3.454   3.873 -0.0027 -0.2265 -0.1650
24128SOL    HW178346   0.423   3.537   3.867 -0.8492 -0.7577 -1.1691
24128SOL    HW278347   0.457   3.425   3.963  0.4251  0.7793  0.2462
24129SOL     OW78348   7.586   2.934   2.353 -0.2817 -0.4205 -0.1290
24129SOL    HW178349   7.570   2.844   2.325 -1.2685 -0.2747 -0.0762
24129SOL    HW278350   7.545   2.940   2.439  0.6243 -0.1827  0.3001
24130SOL     OW78351   6.607   4.625   5.225  0.0882 -0.5031 -0.2307
24130SOL    HW178352   6.668   4.694   5.198 -0.6696 -0.4906 -2.0889
24130SOL    HW278353   6.597   4.571   5.147 -3.8396  0.6960 -0.7597
24131SOL     OW78354   8.957   2.357   8.410 -0.3927 -0.1776 -0.6309
24131SOL    HW178355   8.880   2.413   8.418  0.6542  1.2884 -0.4642
24131SOL    HW278356   9.010   2.376   8.488  0.9179  0.1259 -1.5502
24132SOL     OW78357   8.297   6.205   5.560  0.0411  0.4150  0.1031
24132SOL    HW178358   8.285   6.134   5.623  0.4960  0.5556  0.3545
24132SOL    HW278359   8.320   6.161   5.478 -0.2813  0.2424  0.1070
24133SOL     OW78360   2.138   7.127   9.138 -0.3045 -0.0536  0.1139
24133SOL    HW178361   2.186   7.206   9.159 -0.3752  0.7202 -2.3846
24133SOL    HW278362   2.204   7.057   9.140  0.8125  0.8308 -2.2425
24134SOL     OW78363   5.186   7.156   3.763  0.3796 -0.1237 -0.2955
24134SOL    HW178364   5.139   7.073   3.768 -3.5644  2.0017  2.7773
24134SOL    HW278365   5.239   7.159   3.843  0.0239  0.5813 -0.0838
24135SOL     OW78366   1.506   5.954   1.703 -0.2827 -0.3777  0.5112
24135SOL    HW178367   1.535   6.043   1.726  1.1257 -1.0059  1.2749
24135SOL    HW278368   1.574   5.922   1.644  0.7957 -1.9537  2.4740
24136SOL     OW78369   7.112   4.138   0.978 -0.8006 -0.2011 -0.0173
24136SOL    HW178370   7.130   4.091   0.897  0.1673  0.2137 -0.0634
24136SOL    HW278371   7.142   4.228   0.960 -2.0505  0.2837  0.2656
24137SOL     OW78372   4.771   0.936   1.134 -0.3937  0.8365 -0.3583
24137SOL    HW178373   4.769   1.015   1.081  0.1606  0.3290 -1.1607
24137SOL    HW278374   4.837   0.880   1.092  1.2576  1.0525  1.7533
24138SOL     OW78375   8.223   6.935   1.349 -0.6567  0.1822 -0.6126
24138SOL    HW178376   8.288   6.904   1.411 -0.5534  3.6006  1.2288
24138SOL    HW278377   8.269   6.998   1.294 -1.9254  1.1758 -0.5965
24139SOL     OW78378   6.349   6.912   1.407  0.4464  0.3999  0.5466
24139SOL    HW178379   6.314   6.995   1.375  1.4529  0.3054 -0.8834
24139SOL    HW278380   6.299   6.894   1.488 -0.2310  2.0430  0.5235
24140SOL     OW78381   9.278   6.201   3.569 -0.2056  0.1971 -1.1410
24140SOL    HW178382   9.262   6.196   3.474 -0.9741 -0.7288 -0.9739
24140SOL    HW278383   9.229   6.127   3.605  1.8073 -0.7634 -0.2337
24141SOL     OW78384   6.723   6.615   0.549 -0.7661  0.2026  0.4886
24141SOL    HW178385   6.808   6.616   0.505 -0.8196 -2.7584  0.0998
24141SOL    HW278386   6.734   6.673   0.624  0.3202  2.9108 -1.5987
24142SOL     OW78387   3.974   0.983   0.808  0.2068  0.1513  0.4925
24142SOL    HW178388   3.968   1.015   0.719 -0.2000  2.2865  1.2414
24142SOL    HW278389   3.908   0.913   0.814  0.3123 -0.0842 -0.8662
24143SOL     OW78390   4.022   4.796   0.699  0.2730 -0.1769 -0.1113
24143SOL    HW178391   4.015   4.848   0.618 -1.9748  0.7604  0.6127
24143SOL    HW278392   4.037   4.707   0.669 -2.1784 -0.1381 -1.6799
24144SOL     OW78393   4.101   5.402   5.991  0.1508  0.2616 -0.8592
24144SOL    HW178394   4.162   5.347   5.942  0.1125  0.4781 -1.1571
24144SOL    HW278395   4.058   5.343   6.052  0.2415 -0.0036 -1.0501
24145SOL     OW78396   5.452   7.345   5.945 -0.1129  0.1734 -0.0038
24145SOL    HW178397   5.468   7.370   6.036 -0.3997 -0.0581  0.1116
24145SOL    HW278398   5.434   7.251   5.948 -0.4102  0.2198 -0.2651
24146SOL     OW78399   4.442   8.179   0.405 -0.0891 -1.2785 -0.5964
24146SOL    HW178400   4.441   8.244   0.335 -0.3722 -1.0331 -0.3646
24146SOL    HW278401   4.456   8.095   0.360 -0.0495 -1.0961 -0.9233
24147SOL     OW78402   5.024   5.013   3.105 -0.1642  0.2829  0.1983
24147SOL    HW178403   5.066   5.048   3.184 -1.1766  1.3816  0.2710
24147SOL    HW278404   5.096   5.000   3.044  0.6440 -0.6056  1.2961
24148SOL     OW78405   1.884   8.943   7.244  0.4545  0.5602  0.1299
24148SOL    HW178406   1.799   8.985   7.257  0.7138  1.3096 -0.5029
24148SOL    HW278407   1.937   8.971   7.319  0.1180  0.0144  0.5737
24149SOL     OW78408   3.858   1.809   5.460  0.2423 -0.0565 -0.0400
24149SOL    HW178409   3.858   1.733   5.519  1.5051  0.3541  0.5479
24149SOL    HW278410   3.936   1.859   5.486 -1.5767  2.5041  0.9714
24150SOL     OW78411   7.419   6.304   2.325 -0.1074  0.1878 -0.2815
24150SOL    HW178412   7.510   6.288   2.352 -0.2041 -1.1969 -0.6521
24150SOL    HW278413   7.387   6.217   2.302 -1.7934  0.5461  0.6121
24151SOL     OW78414   9.044   7.121   3.425 -0.7128  0.1650 -0.7366
24151SOL    HW178415   9.089   7.135   3.341 -1.8080  0.3808 -1.3060
24151SOL    HW278416   8.970   7.182   3.423  0.3134  1.5750  1.2343
24152SOL     OW78417   0.281   2.902   2.589 -0.7650  0.4149  0.3480
24152SOL    HW178418   0.232   2.821   2.603 -0.6429  0.2754 -0.0261
24152SOL    HW278419   0.266   2.953   2.669 -1.9736  0.6108  0.0109
24153SOL     OW78420   3.494   8.098   1.277  0.2805  0.1815 -0.1316
24153SOL    HW178421   3.403   8.092   1.306  0.4231 -0.2784  0.2249
24153SOL    HW278422   3.496   8.055   1.192  0.2428 -0.1610  0.0402
24154SOL     OW78423   2.714   6.955   7.405  0.5687  0.1275  0.0327
24154SOL    HW178424   2.667   7.028   7.445 -0.8199  0.3462 -1.8685
24154SOL    HW278425   2.732   6.895   7.478 -0.8131  1.0354  1.1773
24155SOL     OW78426   8.159   7.403   6.019  0.2100 -0.0134 -0.4789
24155SOL    HW178427   8.167   7.320   6.065  0.5470 -0.4986 -1.4047
24155SOL    HW278428   8.113   7.382   5.938  1.2211  0.5188 -1.2056
24156SOL     OW78429   0.633   6.908   6.573  0.4688  0.2369 -0.2031
24156SOL    HW178430   0.597   6.862   6.497 -0.7408  2.4282 -1.0692
24156SOL    HW278431   0.625   6.846   6.645 -2.1745 -0.5394 -1.0425
24157SOL     OW78432   7.709   2.937   4.889 -0.2790 -0.1879 -0.0590
24157SOL    HW178433   7.719   3.015   4.835  0.0479 -1.3072 -1.6953
24157SOL    HW278434   7.620   2.908   4.874  0.1210 -1.0695 -0.8333
24158SOL     OW78435   3.823   1.492   0.454 -0.0031 -0.1660 -0.0971
24158SOL    HW178436   3.764   1.561   0.425 -0.6857 -1.3992 -1.7459
24158SOL    HW278437   3.825   1.429   0.383  1.5273 -1.3014  0.8688
24159SOL     OW78438   3.530   5.508   2.892 -0.2779  0.0643  0.3325
24159SOL    HW178439   3.608   5.493   2.839 -0.5284 -2.3991  0.5639
24159SOL    HW278440   3.563   5.532   2.978  0.4042 -3.1844  1.1004
24160SOL     OW78441   2.905   1.283   8.109  0.2720 -0.1684  0.2495
24160SOL    HW178442   2.887   1.377   8.103  0.8161 -0.0785 -0.1207
24160SOL    HW278443   2.857   1.254   8.186 -0.5105  0.2644 -0.0579
24161SOL     OW78444   2.889   9.073   9.094 -0.1949 -0.2850  0.8078
24161SOL    HW178445   2.805   9.112   9.116  0.8424  0.5919  3.6897
24161SOL    HW278446   2.900   9.091   9.001 -3.1525 -0.4587  0.3304
24162SOL     OW78447   8.713   0.450   7.773 -0.0313  0.3623  0.0980
24162SOL    HW178448   8.797   0.465   7.731  0.6838 -0.3691  1.2126
24162SOL    HW278449   8.679   0.537   7.794 -0.5147  0.7634 -2.1238
24163SOL     OW78450   9.065   6.133   4.464  0.4780  0.5461 -0.4188
24163SOL    HW178451   9.019   6.208   4.501  0.7193  1.5484 -2.0603
24163SOL    HW278452   9.142   6.122   4.520 -0.9306 -0.2309  1.4688
24164SOL     OW78453   6.710   7.342   7.941 -0.2780  0.0648  0.0642
24164SOL    HW178454   6.721   7.275   7.874 -0.3258  0.9983 -0.8900
24164SOL    HW278455   6.644   7.305   8.000  0.1531 -0.9888 -0.0877
24165SOL     OW78456   6.785   4.532   5.612  0.4529  0.2133 -0.4969
24165SOL    HW178457   6.704   4.570   5.577  0.2184  0.0960 -0.0851
24165SOL    HW278458   6.757   4.450   5.652  1.0509 -0.7317 -1.9494
24166SOL     OW78459   6.314   5.854   8.532 -0.0012 -0.1174  0.8030
24166SOL    HW178460   6.329   5.928   8.473 -0.2367  0.9665  2.0553
24166SOL    HW278461   6.227   5.823   8.510  0.7036 -1.0865 -0.8179
24167SOL     OW78462   3.589   1.549   7.922  0.1553  0.7903 -0.4596
24167SOL    HW178463   3.593   1.518   8.013 -1.1403  0.6817 -0.4108
24167SOL    HW278464   3.525   1.621   7.925 -1.8575 -0.8355 -1.6884
24168SOL     OW78465   7.834   0.964   2.625 -0.4601  0.2770 -0.3037
24168SOL    HW178466   7.819   0.965   2.719 -0.7470 -1.5914 -0.2917
24168SOL    HW278467   7.898   0.894   2.611  0.3939  1.2409 -1.4089
24169SOL     OW78468   0.351   6.443   5.473 -0.1899 -0.3192 -0.0544
24169SOL    HW178469   0.311   6.381   5.412 -2.5907 -0.3546  1.4116
24169SOL    HW278470   0.288   6.516   5.477 -0.7049 -0.8063  3.1117
24170SOL     OW78471   6.188   3.972   5.918 -0.2628  0.1334  0.1814
24170SOL    HW178472   6.234   3.920   5.853 -2.1493 -0.8980 -0.3979
24170SOL    HW278473   6.157   3.909   5.983  1.0492  1.0732  1.8230
24171SOL     OW78474   8.048   5.850   7.105 -0.5052 -0.6536 -0.0653
24171SOL    HW178475   8.024   5.796   7.181  1.7113 -1.4352  0.1513
24171SOL    HW278476   7.965   5.873   7.065 -1.8443  0.2895  2.9264
24172SOL     OW78477   7.678   7.569   4.788 -0.7799  0.1410 -0.3178
24172SOL    HW178478   7.600   7.569   4.843 -0.7618 -1.5608 -0.2282
24172SOL    HW278479   7.743   7.617   4.840 -1.2577  0.0315  0.4055
24173SOL     OW78480   3.898   2.365   8.827  0.1241 -0.0957 -0.2950
24173SOL    HW178481   3.959   2.393   8.895  0.8772 -0.1796 -0.9218
24173SOL    HW278482   3.879   2.445   8.777 -1.6570  0.2962  0.9370
24174SOL     OW78483   7.140   2.644   8.627  0.5410 -0.0769  0.3464
24174SOL    HW178484   7.112   2.660   8.536  0.7116  0.8473  0.4502
24174SOL    HW278485   7.083   2.700   8.679 -0.5980 -1.7131  0.9698
24175SOL     OW78486   0.001   4.045   7.757 -0.0621  0.6361 -0.5644
24175SOL    HW178487   0.070   4.065   7.693 -0.3123 -0.5803 -1.2453
24175SOL    HW278488  -0.034   3.960   7.729  0.1715 -0.1925  1.5146
24176SOL     OW78489   5.526   6.239   5.171  0.6664  0.0450  0.1620
24176SOL    HW178490   5.574   6.319   5.192  0.0760 -0.0018  1.8334
24176SOL    HW278491   5.517   6.194   5.255 -3.4546  0.7060  0.2735
24177SOL     OW78492   4.054   2.616   1.565  0.2150  0.3130 -0.2481
24177SOL    HW178493   4.130   2.567   1.534 -0.3104 -0.6738 -0.0103
24177SOL    HW278494   4.079   2.648   1.652  0.5565  0.4799 -0.4038
24178SOL     OW78495   2.079   8.598   3.996 -0.1706  0.0176  0.2074
24178SOL    HW178496   2.156   8.542   3.985 -1.5746 -1.6263 -2.1367
24178SOL    HW278497   2.066   8.602   4.091  2.2338 -0.3819  0.6254
24179SOL     OW78498   0.253   4.260   4.713 -0.0881 -0.1083 -0.4058
24179SOL    HW178499   0.217   4.327   4.770  1.9693  0.1124  0.7102
24179SOL    HW278500   0.286   4.309   4.637  0.6321  0.0530  0.0066
24180SOL     OW78501   6.560   5.844   4.895  0.0637  0.1519 -0.5864
24180SOL    HW178502   6.495   5.783   4.860  1.3701 -1.0667 -0.9803
24180SOL    HW278503   6.644   5.809   4.866  1.0774  0.3130  1.8891
24181SOL     OW78504   9.067   1.672   2.971 -0.4189  0.0253 -0.0348
24181SOL    HW178505   9.109   1.741   2.918 -1.7808  1.7071  0.9515
24181SOL    HW278506   9.070   1.706   3.061  0.1256 -1.8910  0.7213
24182SOL     OW78507   3.370   6.296   2.868  0.1323  0.1140 -0.4167
24182SOL    HW178508   3.277   6.280   2.885  0.6969 -1.3488  1.7877
24182SOL    HW278509   3.383   6.389   2.884 -0.7878  0.1429  0.2042
24183SOL     OW78510   1.525   3.307   3.828  0.3906  0.4163  0.0798
24183SOL    HW178511   1.512   3.340   3.739 -1.4823  0.9699  0.5164
24183SOL    HW278512   1.511   3.382   3.884 -2.5251 -0.6759  1.0128
24184SOL     OW78513   2.072   4.579   0.846 -0.3290  0.1980 -0.5125
24184SOL    HW178514   2.166   4.595   0.834 -0.0791  0.4871  1.5293
24184SOL    HW278515   2.035   4.666   0.860 -0.3143 -0.1662  2.1563
24185SOL     OW78516   4.412   5.324   2.985 -0.0944 -0.2985 -0.2996
24185SOL    HW178517   4.405   5.420   2.986  1.2438 -0.1798  0.9469
24185SOL    HW278518   4.471   5.304   3.058 -0.6783 -2.1103 -0.2876
24186SOL     OW78519   5.748   6.196   1.530 -0.2774  0.0728  0.4550
24186SOL    HW178520   5.731   6.262   1.463 -0.5007  1.6745  2.0117
24186SOL    HW278521   5.665   6.147   1.536 -0.3143  0.0247 -0.2687
24187SOL     OW78522   4.799   9.001   2.532  0.7267 -0.0102  0.1015
24187SOL    HW178523   4.889   9.030   2.544  0.6698 -0.6183  2.4437
24187SOL    HW278524   4.750   9.081   2.516  1.6234  0.3421 -1.0294
24188SOL     OW78525   0.247   5.731   1.195  0.0561 -0.0201  0.3694
24188SOL    HW178526   0.162   5.720   1.153  0.6964 -1.2166 -0.6752
24188SOL    HW278527   0.247   5.822   1.226 -1.6255 -0.0314  0.4890
24189SOL     OW78528   7.210   3.002   3.012 -0.0458  0.0474 -0.4108
24189SOL    HW178529   7.230   2.978   3.103 -0.2876 -1.7858 -0.8107
24189SOL    HW278530   7.142   2.941   2.985  0.9409 -0.3215 -2.2469
24190SOL     OW78531   8.979   3.091   6.116  0.3360 -0.2521 -0.3709
24190SOL    HW178532   8.932   3.113   6.197  0.5346 -2.7009  0.4793
24190SOL    HW278533   9.049   3.156   6.112  1.5896 -1.2026  2.6124
24191SOL     OW78534   6.926   3.565   5.098  0.6080 -0.6016 -0.0871
24191SOL    HW178535   6.833   3.575   5.081  0.5575  0.8296  0.8434
24191SOL    HW278536   6.931   3.522   5.184  0.8091 -1.2117 -0.4020
24192SOL     OW78537   5.584   4.908   5.792  0.0611  0.0348 -0.1457
24192SOL    HW178538   5.669   4.921   5.835  0.4193  2.3045 -1.4184
24192SOL    HW278539   5.599   4.933   5.701 -1.4876 -1.5938 -0.9209
24193SOL     OW78540   4.657   4.257   8.314 -0.0564 -0.0407 -0.4566
24193SOL    HW178541   4.739   4.308   8.317 -0.4724  0.6125  0.4691
24193SOL    HW278542   4.617   4.273   8.399 -0.7630 -1.0168 -0.5972
24194SOL     OW78543   7.930   7.644   7.734 -0.0244 -0.0684  0.3840
24194SOL    HW178544   7.838   7.656   7.708  0.1021  0.8840  0.3383
24194SOL    HW278545   7.980   7.658   7.654  0.1030 -2.4269 -0.0375
24195SOL     OW78546   4.919   3.029   2.572 -0.0533 -0.1292  0.5880
24195SOL    HW178547   4.970   3.063   2.498 -1.5841  0.2237 -0.3547
24195SOL    HW278548   4.875   2.951   2.536  0.3386 -0.8234  1.5774
24196SOL     OW78549   4.568   1.699   5.139  0.4556  0.7913  0.2056
24196SOL    HW178550   4.559   1.604   5.151  0.0066  0.8950  0.7399
24196SOL    HW278551   4.572   1.733   5.228 -1.0626  1.4259  0.0635
24197SOL     OW78552   1.545   8.910   4.279  0.3987 -0.1366  0.1920
24197SOL    HW178553   1.598   8.942   4.352  0.8288  0.4461 -0.3629
24197SOL    HW278554   1.573   8.963   4.205  0.2591 -1.0041 -0.4878
24198SOL     OW78555   3.319   5.248   3.668  0.0932  0.2246 -0.1227
24198SOL    HW178556   3.392   5.223   3.612 -0.1918 -0.7815 -0.0579
24198SOL    HW278557   3.261   5.298   3.610  0.6378  0.6935 -0.2708
24199SOL     OW78558   7.180   6.901   2.562 -0.9613 -0.4183 -0.0501
24199SOL    HW178559   7.258   6.879   2.613 -1.3688  0.0181  0.7934
24199SOL    HW278560   7.206   6.976   2.509 -0.9230  0.0045  0.5537
24200SOL     OW78561   1.961   1.109   6.180 -0.1872  0.0274 -0.5712
24200SOL    HW178562   1.923   1.179   6.233  2.1181  1.1151 -0.2544
24200SOL    HW278563   1.980   1.150   6.096  2.3196  0.2151  0.0140
24201SOL     OW78564   6.858   5.645   8.547 -0.1006 -0.1019  0.1208
24201SOL    HW178565   6.797   5.719   8.543  1.1012  1.0044  1.3543
24201SOL    HW278566   6.818   5.579   8.491 -1.8872  0.9775  0.0298
24202SOL     OW78567   1.873   2.893   7.925  0.1446  0.3980 -0.6368
24202SOL    HW178568   1.789   2.850   7.941 -1.2005  2.5880 -1.2571
24202SOL    HW278569   1.897   2.867   7.836  0.0732 -0.1556 -0.4972
24203SOL     OW78570   5.694   7.166   0.218 -0.6645  0.6624  0.0225
24203SOL    HW178571   5.749   7.244   0.210 -1.1151  0.8577 -1.4563
24203SOL    HW278572   5.726   7.122   0.297  0.0630  1.9694  0.4839
24204SOL     OW78573   5.215   7.294   2.128  0.0440  0.2464  0.3162
24204SOL    HW178574   5.156   7.307   2.202 -2.0929 -0.6847 -1.1056
24204SOL    HW278575   5.265   7.216   2.150  1.1198  1.2894  1.7386
24205SOL     OW78576   3.122   0.302   5.330  0.1875 -0.1306 -0.0553
24205SOL    HW178577   3.103   0.230   5.271  1.1955 -0.0754 -0.4647
24205SOL    HW278578   3.097   0.380   5.281  0.9528 -0.0895 -0.3910
24206SOL     OW78579   5.907   2.197   1.937  1.0531 -0.0265  0.0371
24206SOL    HW178580   5.973   2.190   2.006  1.0400 -1.4392 -0.0629
24206SOL    HW278581   5.883   2.106   1.918  0.0443  0.4108 -0.8562
24207SOL     OW78582   5.044   6.422   0.070  0.7279  0.0942  0.0143
24207SOL    HW178583   5.090   6.454  -0.007 -0.6484 -0.1719 -0.9560
24207SOL    HW278584   5.057   6.490   0.136  1.0963  0.7901 -0.7597
24208SOL     OW78585   2.499   1.310   7.511  0.1768  0.0375 -0.0857
24208SOL    HW178586   2.549   1.229   7.501 -0.2567 -0.4859  1.6690
24208SOL    HW278587   2.428   1.288   7.571  0.7504  1.9834  1.4417
24209SOL     OW78588   3.631   2.568   1.989 -0.1090 -0.3537 -0.1332
24209SOL    HW178589   3.652   2.550   2.080 -0.9483  0.4202  0.2300
24209SOL    HW278590   3.537   2.553   1.982 -1.0499  3.9053  0.3205
24210SOL     OW78591   5.872   0.949   2.826  0.1700  0.3308 -0.1669
24210SOL    HW178592   5.797   0.975   2.880  0.3601 -0.0642  0.2886
24210SOL    HW278593   5.879   1.018   2.761 -0.6597  0.3233 -0.2805
24211SOL     OW78594   9.324   7.724   0.082  0.6012  0.5836  0.4171
24211SOL    HW178595   9.362   7.656   0.026 -0.4523  2.2331 -2.5504
24211SOL    HW278596   9.258   7.679   0.134  2.2567 -1.1979  1.0469
24212SOL     OW78597   3.316   6.662   7.738 -1.0982 -0.3464 -0.4439
24212SOL    HW178598   3.239   6.650   7.795 -0.9684 -0.4595 -0.2923
24212SOL    HW278599   3.382   6.603   7.774 -0.7920  0.0712 -0.3091
24213SOL     OW78600   1.956   5.693   1.299  0.0923  0.0887  0.2098
24213SOL    HW178601   1.904   5.619   1.269 -0.4140  0.9115 -1.0364
24213SOL    HW278602   2.043   5.677   1.265  0.3093 -0.5494  1.0314
24214SOL     OW78603   8.897   1.132   2.450  0.4464 -0.0712 -0.0094
24214SOL    HW178604   8.970   1.187   2.421 -2.2610  3.9524  0.1000
24214SOL    HW278605   8.852   1.184   2.516 -0.6157 -3.9013  2.6633
24215SOL     OW78606   5.802   8.312   1.281 -0.1627 -0.1812 -0.3750
24215SOL    HW178607   5.783   8.222   1.306 -2.7852  0.4699  0.2235
24215SOL    HW278608   5.841   8.351   1.359  1.6581 -0.8995 -0.8552
24216SOL     OW78609   7.163   4.674   9.293 -0.1959 -0.0506  0.4490
24216SOL    HW178610   7.175   4.600   9.233  0.7500  0.0783  0.4562
24216SOL    HW278611   7.237   4.667   9.353 -0.3672  0.6310  0.7416
24217SOL     OW78612   8.716   5.363   0.812 -0.5115 -0.7976 -0.1679
24217SOL    HW178613   8.677   5.383   0.898  0.0801 -1.2810  0.2216
24217SOL    HW278614   8.783   5.298   0.831 -1.6067 -2.3249 -1.2477
24218SOL     OW78615   9.028   5.456   6.371  0.0103 -0.1750  0.1478
24218SOL    HW178616   9.099   5.438   6.433 -0.8035 -1.3057  0.8092
24218SOL    HW278617   8.951   5.469   6.426 -0.2179  1.6325 -0.5270
24219SOL     OW78618   0.266   9.038   0.153  0.4868 -0.0904 -0.0090
24219SOL    HW178619   0.171   9.037   0.144  0.5234 -3.1713 -1.1356
24219SOL    HW278620   0.298   9.054   0.064  0.9281 -2.6636 -0.3978
24220SOL     OW78621   4.796   1.688   3.850 -0.4906  0.2409 -0.0768
24220SOL    HW178622   4.835   1.606   3.820  0.2042  1.2554 -2.1244
24220SOL    HW278623   4.844   1.708   3.931  2.3059  0.6690 -1.7195
24221SOL     OW78624   0.719   7.035   4.964 -0.3921 -0.0565  0.4328
24221SOL    HW178625   0.751   7.125   4.956  0.0284 -0.0394  1.9160
24221SOL    HW278626   0.639   7.033   4.912  0.2697  0.8142 -0.6508
24222SOL     OW78627   3.665   4.778   3.504  0.2794 -0.1349  0.7353
24222SOL    HW178628   3.589   4.805   3.557  1.0634  1.9273  0.9081
24222SOL    HW278629   3.633   4.780   3.414  0.1583  0.9046  0.7895
24223SOL     OW78630   5.521   3.424   3.179  0.5505  0.3884 -0.5323
24223SOL    HW178631   5.475   3.494   3.226  0.8224  0.3378 -0.1863
24223SOL    HW278632   5.613   3.448   3.187  0.7053 -0.4253  0.2736
24224SOL     OW78633   8.994   1.979   5.399  0.0865  0.0970  0.1711
24224SOL    HW178634   9.010   1.949   5.488 -2.1852 -0.6239  0.3810
24224SOL    HW278635   8.935   2.053   5.409  2.2736  2.0653 -0.6107
24225SOL     OW78636   2.943   0.276   1.119  0.5814  0.1927 -0.1060
24225SOL    HW178637   2.852   0.284   1.090 -0.4027 -2.5394  1.8719
24225SOL    HW278638   2.949   0.333   1.196 -0.0658 -1.0438  0.8947
24226SOL     OW78639   4.443   4.526   1.295 -0.9002  0.1186 -0.1065
24226SOL    HW178640   4.506   4.512   1.224 -2.2301 -2.3797 -0.9157
24226SOL    HW278641   4.496   4.551   1.370  0.9535 -0.8500 -1.0296
24227SOL     OW78642   3.875   9.125   5.807  0.3341 -0.6140  0.1775
24227SOL    HW178643   3.833   9.052   5.761 -0.2741 -1.5350  2.0906
24227SOL    HW278644   3.950   9.085   5.852 -0.4792 -0.2435  1.9076
24228SOL     OW78645   8.167   7.395   1.945  0.3946 -0.1534  0.3761
24228SOL    HW178646   8.230   7.407   2.016  0.5392  0.4480  0.1528
24228SOL    HW278647   8.222   7.380   1.868  0.2458 -0.2777  0.2956
24229SOL     OW78648   2.689   5.068   3.640  0.1586 -0.3465 -0.5768
24229SOL    HW178649   2.657   4.978   3.633 -1.7626  0.0847  1.4599
24229SOL    HW278650   2.770   5.062   3.690 -1.5412 -0.7924  2.3249
24230SOL     OW78651   5.566   8.854   2.109  0.1151 -0.4488 -0.0366
24230SOL    HW178652   5.654   8.817   2.109  0.0502 -0.6122  0.2588
24230SOL    HW278653   5.510   8.781   2.083  0.1352 -0.1605 -0.9159
24231SOL     OW78654   5.750   3.748   7.180  0.0789 -0.1601  0.7232
24231SOL    HW178655   5.780   3.701   7.102  2.7059 -0.2089  1.6420
24231SOL    HW278656   5.662   3.778   7.158 -0.2785 -2.3547 -1.2753
24232SOL     OW78657   1.004   6.507   5.741  0.5862 -0.4225  0.3875
24232SOL    HW178658   0.968   6.513   5.830  2.0686 -0.5421  1.0432
24232SOL    HW278659   1.099   6.510   5.755  0.8641 -1.4825 -1.1228
24233SOL     OW78660   5.027   3.392   7.525 -0.4164 -0.3993  1.0616
24233SOL    HW178661   4.954   3.356   7.575 -1.1388 -1.4426 -0.6513
24233SOL    HW278662   5.051   3.322   7.464  1.1524  0.4132  0.7015
24234SOL     OW78663   1.841   2.298   6.832 -0.3269 -0.2075  0.1329
24234SOL    HW178664   1.843   2.366   6.899 -1.9943 -0.3322  0.3489
24234SOL    HW278665   1.768   2.322   6.775 -1.0558 -1.8816  0.2975
24235SOL     OW78666   2.664   6.039   3.885 -0.2506  0.5713 -0.2329
24235SOL    HW178667   2.634   5.976   3.950 -1.6210  2.1506  0.7138
24235SOL    HW278668   2.584   6.074   3.845  0.3528  2.8417  0.3865
24236SOL     OW78669   1.042   4.284   5.294  0.2693  0.2703 -0.3512
24236SOL    HW178670   1.028   4.347   5.223  1.2267  1.2419  0.2961
24236SOL    HW278671   1.074   4.336   5.367  2.9572 -1.1709 -0.3737
24237SOL     OW78672   8.395   5.073   5.300 -0.0285 -0.0085 -0.6792
24237SOL    HW178673   8.440   5.141   5.350 -0.8817 -0.7247  1.1446
24237SOL    HW278674   8.303   5.082   5.325  0.0006 -2.6604  0.6875
24238SOL     OW78675   3.949   4.686   9.081  0.2516  0.0100  0.5503
24238SOL    HW178676   3.979   4.609   9.129 -1.2452  0.4037  2.2264
24238SOL    HW278677   3.853   4.680   9.083  0.1227  1.4676 -0.0295
24239SOL     OW78678   0.082   5.151   6.931 -0.5076 -0.7105  0.1519
24239SOL    HW178679   0.050   5.207   7.002 -0.2453  2.0357 -1.7336
24239SOL    HW278680   0.006   5.136   6.875  0.0180  0.3785 -0.9212
24240SOL     OW78681   8.721   2.721   2.543  0.0753  0.2080  0.0757
24240SOL    HW178682   8.660   2.788   2.511  0.7902  1.0424  0.4045
24240SOL    HW278683   8.798   2.771   2.570  0.1628 -0.6335  1.4795
24241SOL     OW78684   7.852   7.944   6.611  0.0138 -0.1470  0.3522
24241SOL    HW178685   7.805   7.978   6.686  1.1818  1.5727  0.3680
24241SOL    HW278686   7.944   7.941   6.639  0.6263  1.4875 -1.2568
24242SOL     OW78687   4.313   0.616   9.089  0.2134 -0.1443 -0.1374
24242SOL    HW178688   4.387   0.676   9.093  1.8180 -1.9992 -0.7191
24242SOL    HW278689   4.244   0.659   9.140  1.6108  1.7032  0.2752
24243SOL     OW78690   2.406   4.718   5.470  0.7763  0.0451  0.0212
24243SOL    HW178691   2.337   4.761   5.520 -0.1818 -0.6886 -0.6257
24243SOL    HW278692   2.407   4.763   5.385  1.7638  0.6846  0.3626
24244SOL     OW78693   2.783   8.537   0.232 -0.6337 -0.1278  0.0043
24244SOL    HW178694   2.756   8.627   0.216  2.5517  0.4974 -3.0415
24244SOL    HW278695   2.734   8.485   0.169  1.1915  0.3175 -1.9077
24245SOL     OW78696   1.306   3.726   2.317 -0.1962  0.4563 -0.2250
24245SOL    HW178697   1.391   3.759   2.289  0.9176 -0.3995  1.9174
24245SOL    HW278698   1.244   3.795   2.294  0.9553  0.8809 -2.2993
24246SOL     OW78699   2.083   1.718   7.977  0.1930 -0.1693 -0.0890
24246SOL    HW178700   2.171   1.715   8.014  0.4542  0.5158 -0.6257
24246SOL    HW278701   2.037   1.785   8.028  0.3468  0.2948 -0.5467
24247SOL     OW78702   8.846   9.038   1.676  0.1477  0.0194 -0.1849
24247SOL    HW178703   8.825   9.091   1.753 -0.1125  3.2847 -2.3011
24247SOL    HW278704   8.762   9.009   1.642  0.2566 -1.3203  0.6018
24248SOL     OW78705   1.109   2.975   3.363 -0.7931 -0.6166  0.0268
24248SOL    HW178706   1.192   2.946   3.327 -0.0397  0.5131  0.7817
24248SOL    HW278707   1.115   2.956   3.457 -0.8346  0.6514  0.3020
24249SOL     OW78708   1.097   6.834   2.830 -0.0491 -0.0393 -0.1444
24249SOL    HW178709   1.025   6.896   2.839  0.7130  0.9376 -0.5521
24249SOL    HW278710   1.168   6.886   2.793  0.8155 -1.0202  0.1014
24250SOL     OW78711   0.545   2.612   6.130  0.4447 -0.5373  0.1912
24250SOL    HW178712   0.535   2.627   6.224  1.6392 -2.0536  0.6077
24250SOL    HW278713   0.633   2.574   6.121  0.2436 -0.6747 -1.5053
24251SOL     OW78714   7.171   5.080   4.650  0.2755  0.2398  0.0403
24251SOL    HW178715   7.215   5.000   4.677 -1.0768 -0.2456  0.9540
24251SOL    HW278716   7.082   5.071   4.686 -0.3887  1.4187 -1.2238
24252SOL     OW78717   2.344   8.645   3.848  0.4490 -0.7562  0.0665
24252SOL    HW178718   2.325   8.738   3.851 -1.1095 -1.0310 -0.3525
24252SOL    HW278719   2.437   8.638   3.870  0.5679  0.8755  0.1553
24253SOL     OW78720   6.665   4.313   8.218  0.1597 -0.9867 -0.1205
24253SOL    HW178721   6.735   4.296   8.281  0.2166 -1.9841 -0.4377
24253SOL    HW278722   6.704   4.297   8.133 -0.5880 -2.0669 -0.2718
24254SOL     OW78723   0.842   2.707   9.269  0.2774  0.4063  0.0520
24254SOL    HW178724   0.812   2.700   9.178  0.1998 -1.0098  0.1668
24254SOL    HW278725   0.836   2.801   9.289  0.7497  0.8113 -1.5435
24255SOL     OW78726   0.640   7.264   0.977  0.4281 -0.0440  0.4070
24255SOL    HW178727   0.624   7.278   0.884  2.7416 -0.2503 -0.0724
24255SOL    HW278728   0.708   7.197   0.980 -0.1016 -0.5573  2.2802
24256SOL     OW78729   6.600   3.144   6.219  0.2378 -0.1166  0.2775
24256SOL    HW178730   6.654   3.140   6.140 -0.3299  1.4791 -0.2367
24256SOL    HW278731   6.518   3.102   6.194  0.1749  0.1002  0.1168
24257SOL     OW78732   2.868   9.334   3.740 -0.1955  0.0165  0.4008
24257SOL    HW178733   2.922   9.378   3.806  0.1158  0.0217  0.1422
24257SOL    HW278734   2.840   9.405   3.682  1.0827 -0.2348 -0.5717
24258SOL     OW78735   4.313   4.656   9.251 -0.0698  0.0697  0.1561
24258SOL    HW178736   4.241   4.593   9.254 -0.5935  0.6458 -0.2122
24258SOL    HW278737   4.270   4.742   9.247  0.6122  0.5808  2.3186
24259SOL     OW78738   6.205   2.705   4.564  0.0049  0.1666 -0.1402
24259SOL    HW178739   6.112   2.721   4.551  0.4106  0.7317 -3.0108
24259SOL    HW278740   6.208   2.637   4.632 -2.3985  0.9406  0.8560
24260SOL     OW78741   2.962   4.477   6.083 -0.5224 -0.0459  0.3102
24260SOL    HW178742   2.873   4.512   6.077  0.0016  1.3195  0.0727
24260SOL    HW278743   2.974   4.460   6.177 -0.5162  1.2978  0.5870
24261SOL     OW78744   3.519   8.111   0.778 -0.1463 -0.6533 -0.0908
24261SOL    HW178745   3.481   8.066   0.702  1.7516 -1.7501 -0.4826
24261SOL    HW278746   3.589   8.165   0.740 -1.4182  1.5312  0.5512
24262SOL     OW78747   6.711   5.048   3.403 -0.2270 -0.3063 -0.4679
24262SOL    HW178748   6.680   5.101   3.330  0.6495  0.3411 -0.3846
24262SOL    HW278749   6.788   5.094   3.436  0.0825 -1.2030  0.1221
24263SOL     OW78750   4.008   6.562   6.423 -1.0785 -0.2502  0.4135
24263SOL    HW178751   3.934   6.518   6.465 -1.0853  2.7091  3.9669
24263SOL    HW278752   4.083   6.539   6.477 -0.4753  1.2778  0.2647
24264SOL     OW78753   8.978   0.757   5.997 -0.0272 -0.4214  0.0203
24264SOL    HW178754   8.911   0.697   6.031 -0.2770 -0.1376  0.0345
24264SOL    HW278755   8.960   0.840   6.041  1.1031 -0.6555  0.9774
24265SOL     OW78756   9.317   2.045   6.488  0.4150 -0.7254  0.2499
24265SOL    HW178757   9.249   2.111   6.473  0.8904 -0.5529 -1.3646
24265SOL    HW278758   9.321   1.995   6.407  3.7395  0.7353 -0.6728
24266SOL     OW78759   7.757   3.491   2.646 -0.7616  0.7042  0.1910
24266SOL    HW178760   7.748   3.579   2.682 -1.4765  0.2882  1.0725
24266SOL    HW278761   7.701   3.437   2.701  0.4835 -0.4950  0.3302
24267SOL     OW78762   1.207   1.734   0.495  0.6602  0.1546 -0.0454
24267SOL    HW178763   1.239   1.652   0.533 -1.9880 -1.0726 -0.2183
24267SOL    HW278764   1.115   1.739   0.523  0.5447  2.7480 -0.6088
24268SOL     OW78765   2.482   5.194   1.423 -0.0860 -0.6840 -0.0346
24268SOL    HW178766   2.396   5.161   1.401  0.6197 -2.5311 -0.1685
24268SOL    HW278767   2.469   5.241   1.506 -1.0126 -1.9322  0.5528
24269SOL     OW78768   3.320   8.123   0.352 -0.7872  0.3476 -0.2696
24269SOL    HW178769   3.271   8.183   0.296  0.8535 -0.4778 -2.7670
24269SOL    HW278770   3.357   8.059   0.291 -1.3547 -2.4560  2.1075
24270SOL     OW78771   4.201   2.512   5.579  0.0831  0.1022 -0.1816
24270SOL    HW178772   4.204   2.532   5.673 -0.6397 -0.7263  0.0323
24270SOL    HW278773   4.238   2.425   5.572 -0.9601 -0.3353 -0.5016
24271SOL     OW78774   6.819   3.960   1.449  0.2713  0.2409 -0.6202
24271SOL    HW178775   6.798   4.025   1.515 -0.4620 -0.2967 -0.3175
24271SOL    HW278776   6.735   3.932   1.414  0.6222  0.0903 -1.3692
24272SOL     OW78777   2.865   6.837   4.924  0.1765  0.2353 -0.3954
24272SOL    HW178778   2.879   6.779   4.999 -1.1650 -0.9710 -1.0289
24272SOL    HW278779   2.931   6.810   4.860 -0.1659 -0.3147 -0.5218
24273SOL     OW78780   4.991   8.734   3.850  0.2204  0.0098  0.1339
24273SOL    HW178781   5.083   8.718   3.829 -0.3141 -1.3552 -1.3732
24273SOL    HW278782   4.965   8.806   3.793 -0.2134 -1.1433 -1.1861
24274SOL     OW78783   0.501   6.571   3.924  0.5697 -0.1371  0.0303
24274SOL    HW178784   0.434   6.570   3.992  0.7364 -1.7917  0.2129
24274SOL    HW278785   0.520   6.664   3.910 -0.6191  0.2921  1.0879
24275SOL     OW78786   5.399   4.848   2.776 -0.5263 -0.0910  0.1105
24275SOL    HW178787   5.398   4.800   2.859 -1.7597 -0.6510 -0.2025
24275SOL    HW278788   5.490   4.846   2.748  0.0250  0.6852  1.7727
24276SOL     OW78789   4.353   5.963   2.810  0.6847  0.1343 -0.4065
24276SOL    HW178790   4.422   5.897   2.805 -0.0674 -0.6727 -0.5119
24276SOL    HW278791   4.334   5.971   2.903  0.5285 -0.0863 -0.4158
24277SOL     OW78792   8.623   6.271   7.118 -0.1402  0.5312 -0.3135
24277SOL    HW178793   8.638   6.211   7.191  0.1478 -0.7734 -1.4058
24277SOL    HW278794   8.542   6.240   7.078 -0.0780  0.9747 -0.7993
24278SOL     OW78795   8.112   7.346   4.101 -1.2330  0.8766  0.0208
24278SOL    HW178796   8.084   7.311   4.016 -1.3013  0.7938  0.0763
24278SOL    HW278797   8.186   7.403   4.081 -1.0737  0.6395 -0.0623
24279SOL     OW78798   6.026   7.464   3.322 -0.5584 -0.1368 -0.1653
24279SOL    HW178799   6.077   7.388   3.348 -1.1497 -0.1882  0.9025
24279SOL    HW278800   5.982   7.493   3.402 -1.6125  0.3549 -0.8848
24280SOL     OW78801   3.471   7.100   7.300 -0.0968  0.0968 -0.5080
24280SOL    HW178802   3.512   7.090   7.214 -0.2782  1.0842 -0.7171
24280SOL    HW278803   3.394   7.155   7.284  1.7194  3.2640  0.7610
24281SOL     OW78804   7.713   1.595   6.196 -0.0802  0.2569 -0.3030
24281SOL    HW178805   7.709   1.505   6.228 -1.3088  0.1087 -0.8217
24281SOL    HW278806   7.649   1.642   6.250  0.5045  0.8195 -0.0817
24282SOL     OW78807   6.392   4.959   2.532  0.1903  0.3521 -0.0163
24282SOL    HW178808   6.299   4.962   2.507 -0.3300 -0.6766  1.6347
24282SOL    HW278809   6.420   4.870   2.511  0.9944  0.8312 -1.0540
24283SOL     OW78810   7.509   5.056   7.505  0.2503  0.3112 -0.3465
24283SOL    HW178811   7.514   5.111   7.583 -2.0848 -1.0735  0.9070
24283SOL    HW278812   7.567   4.982   7.523  1.2983  0.9831 -0.8624
24284SOL     OW78813   3.945   4.314   7.644 -0.6186 -0.1117 -1.0372
24284SOL    HW178814   3.955   4.406   7.619  1.6613  0.8961  2.8569
24284SOL    HW278815   4.006   4.301   7.716 -0.2802 -4.9534 -1.8370
24285SOL     OW78816   5.139   7.597   2.039  0.0949  0.2904 -0.3649
24285SOL    HW178817   5.214   7.541   2.058  1.0597  2.0837  1.6064
24285SOL    HW278818   5.064   7.550   2.075  0.9094  0.2575  1.3915
24286SOL     OW78819   9.266   3.554   2.430 -0.0354 -0.4420  0.0947
24286SOL    HW178820   9.358   3.545   2.458  0.0441 -0.9271 -0.3129
24286SOL    HW278821   9.264   3.636   2.382  0.6659 -1.4338 -1.7208
24287SOL     OW78822   3.368   1.818   9.134 -0.2915  0.3832  0.1651
24287SOL    HW178823   3.366   1.848   9.043  0.7631  0.3554  0.1277
24287SOL    HW278824   3.445   1.762   9.139 -0.0806  0.7544  1.1991
24288SOL     OW78825   7.273   0.453   4.613 -0.4590 -1.0320  0.2995
24288SOL    HW178826   7.221   0.531   4.630 -2.4117 -2.4758  1.3374
24288SOL    HW278827   7.356   0.487   4.579 -2.3149  1.3538 -2.3042
24289SOL     OW78828   0.526   8.654   1.988 -0.1398 -0.7016  0.1269
24289SOL    HW178829   0.547   8.731   1.935  0.9002 -2.0580 -1.5241
24289SOL    HW278830   0.459   8.608   1.939  1.2223 -2.2665 -0.3467
24290SOL     OW78831   5.985   9.295   8.007  0.0370  0.8817  0.5414
24290SOL    HW178832   5.978   9.287   7.912  0.2844  1.4243  0.4756
24290SOL    HW278833   6.011   9.207   8.036 -1.7949  0.2196  0.2929
24291SOL     OW78834   9.258   0.673   8.241  0.3971 -0.5516  0.1211
24291SOL    HW178835   9.248   0.724   8.321  0.8080 -1.6806  0.9031
24291SOL    HW278836   9.215   0.590   8.259  0.8110 -0.9597 -0.7046
24292SOL     OW78837   8.215   1.545   2.855 -0.0132  0.0588  0.6382
24292SOL    HW178838   8.246   1.523   2.768  0.4485 -2.0563  1.2939
24292SOL    HW278839   8.292   1.581   2.900 -0.5950  2.6146 -0.1984
24293SOL     OW78840   6.898   0.343   5.254  0.0042  0.3658  0.8877
24293SOL    HW178841   6.875   0.435   5.263  0.9008  0.5005  2.0258
24293SOL    HW278842   6.932   0.336   5.164 -1.3201  0.8280  0.3207
24294SOL     OW78843   0.776   7.844   0.157 -0.1194  0.0078 -0.0860
24294SOL    HW178844   0.849   7.804   0.111 -0.3557  1.5755 -1.9821
24294SOL    HW278845   0.804   7.934   0.172 -0.9062  0.0974  0.9700
24295SOL     OW78846   7.756   1.758   1.177  0.2606 -0.1148 -0.0377
24295SOL    HW178847   7.696   1.831   1.160  1.0967  0.2136 -1.7637
24295SOL    HW278848   7.817   1.792   1.242 -0.3539  0.1366  0.4232
24296SOL     OW78849   2.261   0.225   2.762 -0.0267  0.2130  0.6953
24296SOL    HW178850   2.338   0.252   2.813  1.7053 -1.2237 -1.0252
24296SOL    HW278851   2.272   0.268   2.677 -1.5251  0.5313  0.6345
24297SOL     OW78852   0.281   7.146   8.690 -0.3381  0.2527 -0.1542
24297SOL    HW178853   0.312   7.198   8.615  0.7122  0.9677  0.7423
24297SOL    HW278854   0.350   7.082   8.705 -0.3684  0.3581  0.4346
24298SOL     OW78855   3.872   0.965   1.561  0.5475  0.3689  0.8107
24298SOL    HW178856   3.951   0.919   1.534  0.6346  1.1959 -0.4005
24298SOL    HW278857   3.806   0.895   1.568  0.3570  0.0943 -2.1818
24299SOL     OW78858   4.134   6.856   6.072 -0.3990  0.0418 -0.3670
24299SOL    HW178859   4.065   6.806   6.116 -0.2746  0.1204 -0.0813
24299SOL    HW278860   4.216   6.812   6.098 -0.2010  1.0123  0.7366
24300SOL     OW78861   5.554   2.127   6.151  0.3427  0.1250  0.2834
24300SOL    HW178862   5.500   2.159   6.078  0.4609 -1.6319 -0.6207
24300SOL    HW278863   5.491   2.096   6.216  0.2198 -1.4373 -0.5471
24301SOL     OW78864   4.739   8.429   3.269  0.0700 -0.4735  0.2292
24301SOL    HW178865   4.702   8.470   3.347 -1.4652 -1.8044  0.2456
24301SOL    HW278866   4.792   8.357   3.303  1.3869  0.4061  0.1196
24302SOL     OW78867   6.559   3.659   1.585  0.1486  0.5301 -0.3030
24302SOL    HW178868   6.522   3.728   1.530 -0.7723  1.0929  0.9734
24302SOL    HW278869   6.647   3.646   1.551 -0.0645  1.5098 -1.3046
24303SOL     OW78870   1.223   5.137   5.879  0.6391 -0.3707 -0.1695
24303SOL    HW178871   1.230   5.043   5.863  1.1117 -1.0847  3.3950
24303SOL    HW278872   1.132   5.158   5.858  0.7248 -1.4400 -1.7059
24304SOL     OW78873   4.985   4.131   3.056  0.2995 -0.5944 -0.1989
24304SOL    HW178874   4.998   4.220   3.024 -0.3222 -0.2345  0.5120
24304SOL    HW278875   5.073   4.098   3.072  0.5646 -0.3539 -1.1062
24305SOL     OW78876   8.139   6.448   6.838 -0.3193 -0.0836  0.1337
24305SOL    HW178877   8.176   6.382   6.779  1.0396  1.0195 -0.2990
24305SOL    HW278878   8.194   6.443   6.916 -2.8095 -2.3473  1.9173
24306SOL     OW78879   0.454   8.553   1.664  0.7394 -0.8810 -0.1774
24306SOL    HW178880   0.425   8.485   1.603  0.5499  0.4398 -1.6294
24306SOL    HW278881   0.395   8.545   1.739  0.2401 -1.8199 -0.6544
24307SOL     OW78882   1.726   4.586   8.542  0.8502  0.5786  0.4022
24307SOL    HW178883   1.713   4.599   8.636  3.0720  1.2853  0.6743
24307SOL    HW278884   1.804   4.530   8.537  0.3131 -0.0739 -1.0307
24308SOL     OW78885   3.178   9.136   7.584  0.2271  0.8617  0.4756
24308SOL    HW178886   3.187   9.048   7.547  1.1888  1.8095 -1.7413
24308SOL    HW278887   3.247   9.142   7.650  1.8009  0.7031 -1.0663
24309SOL     OW78888   7.169   6.299   9.203  0.1776 -0.0700 -0.6445
24309SOL    HW178889   7.073   6.289   9.209 -0.0837  2.6454  2.4411
24309SOL    HW278890   7.203   6.231   9.260 -0.0677  0.2021 -0.1635
24310SOL     OW78891   3.581   7.463   1.785  0.1826 -0.6510 -0.2550
24310SOL    HW178892   3.614   7.482   1.698 -2.9994  1.1545 -1.2522
24310SOL    HW278893   3.498   7.418   1.770  0.0922 -1.3199  1.8771
24311SOL     OW78894   1.703   2.032   8.345 -0.2431 -0.0058 -0.0694
24311SOL    HW178895   1.650   2.061   8.271 -0.1547  2.0778  0.6309
24311SOL    HW278896   1.655   2.062   8.422  0.5248 -0.6384  0.6747
24312SOL     OW78897   4.223   5.028   9.244  0.2070 -0.1038  0.0606
24312SOL    HW178898   4.207   4.985   9.160 -0.2204 -2.2663  1.1817
24312SOL    HW278899   4.318   5.043   9.245  0.1846  0.1790 -0.8876
24313SOL     OW78900   1.086   7.261   6.157 -0.3395  0.0450  0.5941
24313SOL    HW178901   1.091   7.172   6.123 -0.8185 -0.6246  2.1718
24313SOL    HW278902   1.163   7.305   6.122  0.0611 -1.0802  0.0281
24314SOL     OW78903   4.100   9.150   4.281 -0.0874 -0.0324 -1.1490
24314SOL    HW178904   4.049   9.084   4.236 -0.3431  0.8090 -2.1219
24314SOL    HW278905   4.035   9.204   4.327  0.2018 -1.2208  0.7435
24315SOL     OW78906   8.638   4.024   3.955  0.6066 -0.1613  0.3555
24315SOL    HW178907   8.695   3.996   4.027 -0.8135 -2.2997  0.7687
24315SOL    HW278908   8.665   3.970   3.881 -1.3046 -1.8523  0.7872
24316SOL     OW78909   8.259   2.057   3.121 -0.6324  0.0776  0.1159
24316SOL    HW178910   8.348   2.092   3.117 -0.3212 -0.7689 -1.1686
24316SOL    HW278911   8.271   1.963   3.135 -1.2826 -0.1557 -0.8052
24317SOL     OW78912   8.126   4.932   4.457  0.2705  0.2758  0.2962
24317SOL    HW178913   8.074   4.860   4.421  0.7122 -0.1201  0.4564
24317SOL    HW278914   8.085   5.011   4.420  0.0266 -0.0709 -0.1873
24318SOL     OW78915   1.636   8.016   1.339 -0.9397  1.0450 -0.1184
24318SOL    HW178916   1.562   7.984   1.287 -0.3547 -0.7693  0.0895
24318SOL    HW278917   1.597   8.043   1.422 -1.6586  2.4192 -0.8620
24319SOL     OW78918   9.039   5.302   2.800 -0.1104 -0.0494  0.1352
24319SOL    HW178919   8.955   5.336   2.830 -0.6669  0.3180 -1.6784
24319SOL    HW278920   9.076   5.373   2.748  0.5735 -0.7865 -0.4082
24320SOL     OW78921   2.966   6.554   7.891 -0.3402  0.7411  0.2463
24320SOL    HW178922   2.933   6.566   7.980 -0.3812 -0.1260  0.3540
24320SOL    HW278923   2.903   6.494   7.850 -0.3313  1.1448 -0.3750
24321SOL     OW78924   4.361   1.058   8.340 -0.1686  0.1188  0.2802
24321SOL    HW178925   4.335   1.051   8.432  0.8782  0.3343  0.6102
24321SOL    HW278926   4.282   1.035   8.291 -1.0138  0.9249  1.2111
24322SOL     OW78927   0.877   3.746   7.098 -0.3305 -0.1941  0.2451
24322SOL    HW178928   0.909   3.687   7.167  1.5095 -0.5240 -0.8059
24322SOL    HW278929   0.948   3.809   7.086 -1.5627  1.2390  0.1682
24323SOL     OW78930   3.492   8.373   5.668 -0.4267  0.4492  0.2483
24323SOL    HW178931   3.585   8.381   5.647  0.7437  0.5695  4.6050
24323SOL    HW278932   3.468   8.458   5.705 -2.0593  0.1378 -0.0117
24324SOL     OW78933   7.486   6.543   7.656  0.2165 -0.1295 -0.0550
24324SOL    HW178934   7.425   6.537   7.582  0.0873 -0.2255  0.0588
24324SOL    HW278935   7.571   6.524   7.618  0.2273  0.3445 -0.2837
24325SOL     OW78936   5.204   6.236   6.439  0.2220 -0.1639  0.2114
24325SOL    HW178937   5.118   6.195   6.438  0.7328 -1.2669 -0.6055
24325SOL    HW278938   5.185   6.330   6.438 -0.9955 -0.2110  3.8543
24326SOL     OW78939   7.588   6.674   6.121  0.0555  0.1408  0.0767
24326SOL    HW178940   7.644   6.657   6.046 -0.0994  0.4573 -0.1161
24326SOL    HW278941   7.643   6.724   6.182 -0.2283  1.1065 -0.4346
24327SOL     OW78942   1.836   5.879   6.908  0.1721  0.0427 -0.1020
24327SOL    HW178943   1.882   5.795   6.911  0.1041  0.0203  1.1719
24327SOL    HW278944   1.904   5.944   6.925 -0.2611 -0.0206  2.2432
24328SOL     OW78945   3.419   2.628   2.694 -0.2993  0.5711 -0.3338
24328SOL    HW178946   3.490   2.563   2.690  0.3856  1.2889 -0.0447
24328SOL    HW278947   3.441   2.692   2.626 -0.1583  1.3011  0.3875
24329SOL     OW78948   0.911   6.442   4.719  0.1520  0.5200  0.3199
24329SOL    HW178949   0.850   6.385   4.673 -0.3234 -0.3898  1.9674
24329SOL    HW278950   0.880   6.530   4.702 -1.2189  0.1014  0.5342
24330SOL     OW78951   3.225   7.197   7.229  0.5952 -0.2426  0.1534
24330SOL    HW178952   3.141   7.178   7.272  0.4436 -2.2738 -0.9084
24330SOL    HW278953   3.222   7.291   7.211 -1.1564 -0.1398  0.7871
24331SOL     OW78954   6.670   7.091   7.799  0.2726 -0.3454 -1.3341
24331SOL    HW178955   6.717   7.012   7.772  1.1654 -0.0810 -0.5749
24331SOL    HW278956   6.579   7.074   7.773 -0.0103 -2.5820  0.8087
24332SOL     OW78957   5.111   6.143   0.050 -1.0301  0.2680  0.1608
24332SOL    HW178958   5.072   6.228   0.069  1.3497  1.0516  2.0026
24332SOL    HW278959   5.035   6.084   0.043 -2.6768  2.2719  0.0588
24333SOL     OW78960   1.035   7.634   6.270 -0.2717  0.0780  0.6090
24333SOL    HW178961   1.023   7.598   6.358 -0.3651 -1.1679  0.1069
24333SOL    HW278962   1.111   7.588   6.236  0.3906  1.2894  0.3900
24334SOL     OW78963   4.110   1.961   5.548 -0.1197 -0.0362 -0.3304
24334SOL    HW178964   4.204   1.974   5.529 -0.5267  1.5063 -1.5486
24334SOL    HW278965   4.093   2.017   5.623 -0.4655  1.4243 -1.4394
24335SOL     OW78966   6.784   4.450   0.361  0.4189 -0.0343  0.5103
24335SOL    HW178967   6.738   4.387   0.416 -0.3888  0.4868  0.4529
24335SOL    HW278968   6.874   4.417   0.356 -0.3478 -2.0959 -0.8954
24336SOL     OW78969   2.710   3.437   1.468  0.6754  0.5031  0.2094
24336SOL    HW178970   2.747   3.513   1.422  1.8589 -0.1842 -0.0172
24336SOL    HW278971   2.657   3.392   1.402 -1.2299  1.8771  0.7205
24337SOL     OW78972   3.940   4.326   2.744  0.1841  0.2102  0.3873
24337SOL    HW178973   3.901   4.391   2.685  0.3049 -0.6618 -0.6822
24337SOL    HW278974   3.878   4.318   2.816 -0.5114  0.4810 -0.1769
24338SOL     OW78975   6.742   7.433   2.748 -0.2924 -0.4197  0.3865
24338SOL    HW178976   6.660   7.386   2.736 -0.3234 -1.0557  2.5769
24338SOL    HW278977   6.727   7.518   2.706 -1.3441 -1.2187 -0.9369
24339SOL     OW78978   3.080   4.462   3.232 -0.2937 -0.4759 -0.0494
24339SOL    HW178979   3.111   4.518   3.160  1.9379 -0.0856  1.1209
24339SOL    HW278980   3.126   4.379   3.218 -0.2474 -0.5679  0.6451
24340SOL     OW78981   0.256   2.323   8.882  0.4058  0.3171  0.0032
24340SOL    HW178982   0.185   2.260   8.870  1.4795 -0.8699 -0.3118
24340SOL    HW278983   0.274   2.321   8.976  0.8045 -0.2753 -0.0807
24341SOL     OW78984   7.490   0.806   8.442 -0.3176 -0.2071 -0.2091
24341SOL    HW178985   7.508   0.752   8.518  2.0382  0.2186 -0.3781
24341SOL    HW278986   7.396   0.820   8.444 -0.3765 -0.4480  2.4579
24342SOL     OW78987   5.857   3.918   8.971 -0.1402  0.7437  0.0715
24342SOL    HW178988   5.764   3.898   8.969  0.0777 -0.4104  0.3815
24342SOL    HW278989   5.880   3.916   9.064  0.7427 -1.9227 -0.1263
24343SOL     OW78990   6.501   0.612   5.254 -0.0437  0.0045 -0.3329
24343SOL    HW178991   6.537   0.680   5.311 -1.9269  1.7619 -1.1249
24343SOL    HW278992   6.489   0.656   5.170 -2.0828 -1.0559 -0.6434
24344SOL     OW78993   0.806   4.335   4.465  0.6482  0.5007 -0.0850
24344SOL    HW178994   0.767   4.416   4.498 -0.3175  0.3793 -0.8709
24344SOL    HW278995   0.744   4.266   4.492  1.3854  0.0346  0.4525
24345SOL     OW78996   8.274   9.041   3.625 -0.0199  0.3678 -0.2273
24345SOL    HW178997   8.245   8.997   3.705  1.2302  0.5026  0.3295
24345SOL    HW278998   8.215   9.009   3.557 -2.6597  2.0687  1.1127
24346SOL     OW78999   8.423   1.840   0.782  0.0432  0.0853 -0.2376
24346SOL    HW179000   8.509   1.876   0.804  0.5594  0.0577 -2.0679
24346SOL    HW279001   8.388   1.899   0.716  0.7537 -2.3559 -3.0584
24347SOL     OW79002   7.490   7.375   4.515 -0.0915 -0.0033 -0.1224
24347SOL    HW179003   7.407   7.381   4.561 -0.4093 -0.1487 -0.6732
24347SOL    HW279004   7.501   7.282   4.497  0.1969  0.0137 -0.0403
24348SOL     OW79005   7.429   0.002   4.673 -0.1141  0.9310 -0.2847
24348SOL    HW179006   7.401   0.026   4.585 -0.8438  0.9756 -0.0454
24348SOL    HW279007   7.348  -0.016   4.720  0.3102  0.1025  0.1481
24349SOL     OW79008   8.651   3.643   8.632 -0.6642  0.1670  0.0482
24349SOL    HW179009   8.746   3.645   8.626 -0.6793 -0.5293 -0.5958
24349SOL    HW279010   8.630   3.699   8.707  0.1701  1.3032 -0.5488
24350SOL     OW79011   8.183   4.063   5.747 -0.1762  0.6704 -0.0982
24350SOL    HW179012   8.141   3.981   5.723 -0.7285  1.6405 -2.8759
24350SOL    HW279013   8.264   4.038   5.792  0.5841 -1.4626 -2.4619
24351SOL     OW79014   9.030   7.129   0.963  0.4063  0.7365  0.3557
24351SOL    HW179015   8.990   7.141   0.877  0.2369  1.2043  0.4961
24351SOL    HW279016   8.975   7.180   1.022 -1.3790 -2.0730  1.3244
24352SOL     OW79017   1.073   8.249   2.973  0.1958  0.0004  0.2239
24352SOL    HW179018   1.036   8.256   2.885 -0.5558 -3.8907  0.0464
24352SOL    HW279019   0.997   8.247   3.031  0.6313  1.1714  0.8693
24353SOL     OW79020   6.285   3.087   5.468 -0.3913 -0.1399  0.1338
24353SOL    HW179021   6.243   3.108   5.552 -0.0451  0.1903  0.2252
24353SOL    HW279022   6.214   3.088   5.404 -0.4918  0.6270  0.2515
24354SOL     OW79023   8.862   2.239   2.156 -0.3043  0.3820 -0.0334
24354SOL    HW179024   8.894   2.245   2.066 -0.4052 -0.5916 -0.1391
24354SOL    HW279025   8.865   2.146   2.177 -0.9796  0.5175  0.7206
24355SOL     OW79026   8.207   8.695   8.420  0.5934  0.1524  0.0620
24355SOL    HW179027   8.119   8.687   8.382  0.7159  1.9290 -0.6879
24355SOL    HW279028   8.263   8.644   8.362  0.5415  1.6486 -1.3505
24356SOL     OW79029   6.934   5.944   7.540  0.0705 -0.4184 -0.2691
24356SOL    HW179030   7.023   5.958   7.572 -0.5511  0.0368  1.3503
24356SOL    HW279031   6.903   5.866   7.586 -0.3656 -0.5903 -0.8427
24357SOL     OW79032   0.219   6.015   1.579  0.7061  0.1434  0.1306
24357SOL    HW179033   0.285   5.947   1.569  0.5407 -0.2432  1.4406
24357SOL    HW279034   0.137   5.974   1.554  0.2871 -0.8284  2.7251
24358SOL     OW79035   5.578   8.344   4.227 -0.0265 -0.1774  0.2474
24358SOL    HW179036   5.603   8.252   4.226  2.1922  0.3457  1.1959
24358SOL    HW279037   5.593   8.372   4.318 -0.9252  1.0555  0.0464
24359SOL     OW79038   8.895   3.683   8.727  0.5751  1.2325  0.1801
24359SOL    HW179039   8.973   3.700   8.674  1.4700  0.8797  1.3383
24359SOL    HW279040   8.911   3.730   8.809 -0.1950  0.7217  0.6340
24360SOL     OW79041   7.711   5.835   6.315  0.1353 -0.0240 -0.7453
24360SOL    HW179042   7.749   5.905   6.262 -0.6746 -0.0475 -1.3803
24360SOL    HW279043   7.629   5.814   6.271 -0.2738 -0.4499  0.1942
24361SOL     OW79044   0.538   8.514   8.679 -0.0655 -0.0375  0.1059
24361SOL    HW179045   0.521   8.577   8.748 -3.0029  0.7550 -1.2175
24361SOL    HW279046   0.632   8.496   8.686  0.5917  3.3087  1.4839
24362SOL     OW79047   0.611   4.315   3.870 -0.0699 -0.0327  0.4012
24362SOL    HW179048   0.527   4.270   3.861  0.0382 -0.2993  0.7217
24362SOL    HW279049   0.613   4.344   3.962  0.2829 -0.2158  0.4507
24363SOL     OW79050   8.981   4.678   4.052 -0.5126 -0.3079  0.1595
24363SOL    HW179051   8.916   4.607   4.053 -0.2041 -0.5945  0.0119
24363SOL    HW279052   8.999   4.694   4.145 -0.4949 -0.5085  0.1925
24364SOL     OW79053   7.001   1.366   4.156 -0.0648  0.1332 -0.0962
24364SOL    HW179054   6.979   1.428   4.086 -0.0452  2.3551  1.7471
24364SOL    HW279055   6.950   1.396   4.231 -0.0538 -2.1416  0.8867
24365SOL     OW79056   9.061   4.280   4.160  0.2447  0.0636  0.2693
24365SOL    HW179057   9.045   4.225   4.237  1.0037  0.7131  0.9188
24365SOL    HW279058   8.992   4.347   4.164 -1.0242 -1.1190 -0.8353
24366SOL     OW79059   0.229   4.749   8.024 -0.5678 -0.2032 -0.4903
24366SOL    HW179060   0.291   4.822   8.020 -0.3510 -0.3456  0.2402
24366SOL    HW279061   0.154   4.783   8.072  1.4881 -1.7913  4.4931
24367SOL     OW79062   3.845   8.474   7.984 -0.4320 -0.3305 -0.0881
24367SOL    HW179063   3.888   8.505   8.064  0.0290 -0.6121 -0.2197
24367SOL    HW279064   3.754   8.503   7.991 -0.3460 -0.2005  0.4544
24368SOL     OW79065   7.914   9.144   2.514 -0.1664 -0.2441 -0.0654
24368SOL    HW179066   7.878   9.168   2.429  2.0138 -0.2240 -1.0330
24368SOL    HW279067   7.959   9.061   2.498 -0.8821 -0.9470  1.4087
24369SOL     OW79068   4.282   5.336   3.736  0.2928 -0.1709  0.5400
24369SOL    HW179069   4.309   5.322   3.645  2.6315 -0.8159  1.2676
24369SOL    HW279070   4.189   5.312   3.737 -0.2404  1.3623 -1.9690
24370SOL     OW79071   3.937   4.738   6.601 -0.0686 -0.6457 -0.1003
24370SOL    HW179072   3.909   4.829   6.601 -1.4208 -1.0228  0.8395
24370SOL    HW279073   3.977   4.724   6.687  1.0082 -0.6985 -0.6002
24371SOL     OW79074   1.634   8.034   7.062 -0.4949  0.1916  0.5511
24371SOL    HW179075   1.633   8.092   6.986 -1.7427 -1.0632 -0.4165
24371SOL    HW279076   1.563   8.066   7.117 -0.7293  0.0031  0.3557
24372SOL     OW79077   8.211   5.045   6.304  0.6303 -0.2694 -0.1053
24372SOL    HW179078   8.272   5.117   6.289  0.3547 -0.5267 -2.9133
24372SOL    HW279079   8.125   5.082   6.284 -0.1490 -0.1632  2.9352
24373SOL     OW79080   6.175   4.420   6.460  0.3640  0.0308  0.1467
24373SOL    HW179081   6.169   4.516   6.467 -0.4837 -0.0171  0.2272
24373SOL    HW279082   6.183   4.403   6.366 -0.7463  0.1338  0.0220
24374SOL     OW79083   2.089   4.508   3.404 -0.4668 -0.0500 -0.0312
24374SOL    HW179084   2.076   4.571   3.475 -4.1874  1.2331 -1.6278
24374SOL    HW279085   2.147   4.553   3.343 -0.1828  0.3182  0.5000
24375SOL     OW79086   2.091   8.372   5.189 -0.2629 -0.0664  0.5844
24375SOL    HW179087   2.181   8.361   5.221  1.4181 -1.4610 -3.9011
24375SOL    HW279088   2.082   8.467   5.178  1.4643  0.0225 -0.6084
24376SOL     OW79089   0.188   5.883   5.403 -0.4423 -0.2922 -0.7037
24376SOL    HW179090   0.152   5.970   5.385 -0.1055 -0.3391 -1.6507
24376SOL    HW279091   0.237   5.894   5.484 -1.3528  0.1200 -0.1947
24377SOL     OW79092   7.414   3.029   4.093  0.3038 -0.4126  0.3085
24377SOL    HW179093   7.489   3.088   4.079  0.3861 -0.5836  0.0250
24377SOL    HW279094   7.452   2.942   4.094  0.4994 -0.3850  2.8641
24378SOL     OW79095   0.395   2.652   0.073 -0.1571 -0.4089  0.0557
24378SOL    HW179096   0.409   2.558   0.083  1.3100 -0.2802 -0.6144
24378SOL    HW279097   0.385   2.684   0.163 -3.9325 -1.5961  0.2318
24379SOL     OW79098   4.184   7.121   6.148 -0.4274 -0.2800  0.2198
24379SOL    HW179099   4.182   7.033   6.112 -0.0635 -0.0532 -0.3736
24379SOL    HW279100   4.092   7.144   6.163 -0.5410 -0.6192  0.0339
24380SOL     OW79101   6.426   8.313   1.331  0.3540  0.0246 -0.0742
24380SOL    HW179102   6.394   8.230   1.294 -0.9247  0.7553 -0.6630
24380SOL    HW279103   6.495   8.341   1.271  0.5136 -0.4045 -0.0965
24381SOL     OW79104   4.063   3.279   5.589 -0.3987 -0.3340  0.0749
24381SOL    HW179105   4.074   3.372   5.570 -1.2297 -0.5001 -1.3884
24381SOL    HW279106   3.969   3.266   5.593 -0.2972 -1.1604  0.0361
24382SOL     OW79107   5.697   7.898   4.355  0.5350 -0.0435  0.6604
24382SOL    HW179108   5.699   7.858   4.442  0.7664  0.0270  0.6886
24382SOL    HW279109   5.678   7.826   4.295 -0.1300 -0.0099  0.8137
24383SOL     OW79110   8.292   9.271   6.667  0.4658  0.4570  0.4886
24383SOL    HW179111   8.313   9.205   6.601 -1.2332  0.0590  0.3041
24383SOL    HW279112   8.373   9.321   6.677  0.8205  0.4572 -1.7844
24384SOL     OW79113   1.413   1.001   3.143 -0.6116  0.0229  0.0801
24384SOL    HW179114   1.467   0.953   3.206 -3.3452 -2.4176  0.7774
24384SOL    HW279115   1.400   1.087   3.183 -0.2386 -0.6009  1.6368
24385SOL     OW79116   6.079   4.144   7.999  0.2947  0.1739 -0.4773
24385SOL    HW179117   6.070   4.239   7.992  1.1980  0.1910 -1.5785
24385SOL    HW279118   5.995   4.110   7.966  1.0261  0.5402 -2.8875
24386SOL     OW79119   4.543   5.927   1.742  0.2833  0.1957  0.0202
24386SOL    HW179120   4.454   5.961   1.752  0.1605  0.0595 -0.5293
24386SOL    HW279121   4.575   5.916   1.831  0.4874  2.1606  0.2296
24387SOL     OW79122   4.250   0.374   7.866  0.9588  0.5880  0.1604
24387SOL    HW179123   4.205   0.400   7.786  0.6645  0.1861  0.1881
24387SOL    HW279124   4.185   0.321   7.914  1.8721 -1.1695 -0.4362
24388SOL     OW79125   4.059   4.574   8.274 -0.2197 -0.6440 -0.9313
24388SOL    HW179126   3.995   4.519   8.228 -0.9473  2.4980 -4.1541
24388SOL    HW279127   4.116   4.608   8.204  1.1940  1.3540  1.0588
24389SOL     OW79128   1.431   4.062   0.246  0.3039  0.5518  0.8657
24389SOL    HW179129   1.342   4.079   0.276 -0.2875  0.1897 -0.6067
24389SOL    HW279130   1.426   4.070   0.150  1.7543  0.0715  0.7281
24390SOL     OW79131   0.111   0.712   1.774 -0.2235  0.5685  0.5020
24390SOL    HW179132   0.090   0.667   1.692 -2.0233  1.7172  0.2763
24390SOL    HW279133   0.075   0.656   1.842 -1.2916  0.9756  0.2980
24391SOL     OW79134   2.536   8.135   0.950 -0.0514 -0.4461  0.5512
24391SOL    HW179135   2.511   8.135   1.043  1.2595 -0.9406  0.9350
24391SOL    HW279136   2.498   8.216   0.915  0.3565  0.3237  1.7938
24392SOL     OW79137   6.563   0.700   7.502 -0.2315 -0.2698 -0.0398
24392SOL    HW179138   6.620   0.776   7.503 -0.3633 -0.1348  2.0194
24392SOL    HW279139   6.605   0.638   7.561 -0.0561 -1.8990 -1.7693
24393SOL     OW79140   8.306   3.985   1.116 -0.0588  0.2172  0.5399
24393SOL    HW179141   8.359   3.929   1.060 -2.0472 -1.3812  0.1408
24393SOL    HW279142   8.290   4.063   1.063  2.1510  0.9494  0.8357
24394SOL     OW79143   0.154   8.837   3.710 -0.3432 -0.1664 -0.3685
24394SOL    HW179144   0.130   8.891   3.785  1.8091  0.5657 -0.1629
24394SOL    HW279145   0.105   8.876   3.637  0.2194  1.3249  0.0152
24395SOL     OW79146   5.799   7.185   1.804 -0.1203 -0.5289  0.2156
24395SOL    HW179147   5.758   7.116   1.856 -1.3098  0.2532  0.3618
24395SOL    HW279148   5.860   7.227   1.865  0.2613 -1.1374  0.2621
24396SOL     OW79149   2.003   4.796   7.788 -0.0860 -0.4067 -0.1987
24396SOL    HW179150   1.954   4.750   7.719  0.6149 -1.6163  0.0740
24396SOL    HW279151   2.095   4.778   7.767  0.2174  1.0466 -0.1752
24397SOL     OW79152   2.812   4.586   4.613  0.4081  0.0810  0.0927
24397SOL    HW179153   2.719   4.586   4.593  0.5396  0.7673 -0.5455
24397SOL    HW279154   2.844   4.670   4.581  1.5925 -0.8569 -1.2980
24398SOL     OW79155   0.779   3.362   0.342 -0.5039 -0.4340  0.4546
24398SOL    HW179156   0.716   3.382   0.412 -0.4104  0.3498  0.3203
24398SOL    HW279157   0.820   3.446   0.322 -0.5569 -0.6430 -0.5686
24399SOL     OW79158   8.000   1.507   6.699  0.0598  0.3338  0.0698
24399SOL    HW179159   7.942   1.515   6.623  0.0988 -1.0218 -0.1374
24399SOL    HW279160   8.056   1.432   6.678 -1.8640 -2.0446  2.6478
24400SOL     OW79161   5.548   3.263   8.447 -0.1657  0.0666  0.3895
24400SOL    HW179162   5.538   3.256   8.542  2.0499  0.9756  0.7617
24400SOL    HW279163   5.642   3.279   8.434 -0.2264 -1.0692 -2.0309
24401SOL     OW79164   1.076   1.886   5.585 -0.1462  0.3425 -0.4181
24401SOL    HW179165   1.103   1.972   5.551 -0.1454  1.1054  1.3838
24401SOL    HW279166   1.137   1.870   5.658 -1.0347 -0.5176  0.1562
24402SOL     OW79167   7.063   5.468   4.222  0.4134 -0.2709  0.1095
24402SOL    HW179168   7.085   5.441   4.311  0.2744 -1.7866 -0.3011
24402SOL    HW279169   7.044   5.562   4.230  2.2814  0.0546  1.3238
24403SOL     OW79170   7.936   2.161   7.996  0.1500 -0.5855 -0.0391
24403SOL    HW179171   7.937   2.067   7.977 -1.6297 -0.8185  0.8199
24403SOL    HW279172   8.017   2.176   8.044  0.9595 -1.4655 -1.0798
24404SOL     OW79173   5.339   5.650   2.656  0.1420 -0.2998 -0.2481
24404SOL    HW179174   5.389   5.697   2.590 -0.3373  0.3657 -0.1454
24404SOL    HW279175   5.293   5.718   2.705  0.9581 -0.7246  1.1701
24405SOL     OW79176   4.640   3.954   0.987  0.0296 -0.2840  0.0979
24405SOL    HW179177   4.678   3.866   0.989  1.0055  0.1008 -1.0211
24405SOL    HW279178   4.703   4.007   0.939 -0.0718  1.2723  1.5825
24406SOL     OW79179   1.964   0.864   6.290 -0.7037  0.5680 -0.0917
24406SOL    HW179180   1.990   0.950   6.257  2.2852  0.2046  0.9356
24406SOL    HW279181   1.965   0.874   6.385  0.5007 -0.7340  0.0747
24407SOL     OW79182   8.248   6.504   2.628 -0.7575 -0.3530  0.1576
24407SOL    HW179183   8.249   6.592   2.591 -0.8936 -1.5400 -3.0052
24407SOL    HW279184   8.160   6.472   2.611 -0.1779 -1.7081 -0.4517
24408SOL     OW79185   5.507   3.696   4.529  0.5885  0.0507  0.4778
24408SOL    HW179186   5.484   3.709   4.437 -1.3626  1.9208  1.1556
24408SOL    HW279187   5.526   3.602   4.535  2.0147  0.0779 -2.0272
24409SOL     OW79188   5.109   7.855   2.255 -0.1149 -0.0191  0.7936
24409SOL    HW179189   5.181   7.794   2.259  0.8059  1.0855  2.6227
24409SOL    HW279190   5.030   7.801   2.259  0.5248 -1.2617 -1.6603
24410SOL     OW79191   1.509   2.510   7.687  0.1214 -0.1934  0.1841
24410SOL    HW179192   1.467   2.565   7.621  1.9559  1.6855  0.4882
24410SOL    HW279193   1.441   2.498   7.754 -0.7849  0.4324 -0.5899
24411SOL     OW79194   2.728   8.796   0.155 -0.1810 -0.2773 -0.0700
24411SOL    HW179195   2.772   8.866   0.105  0.7798 -1.2958 -0.6928
24411SOL    HW279196   2.655   8.840   0.198  0.1678  1.0401 -0.7666
24412SOL     OW79197   4.318   1.735   8.796  0.2916  0.4896  0.2225
24412SOL    HW179198   4.409   1.745   8.826  0.6231 -2.7015  0.5968
24412SOL    HW279199   4.318   1.653   8.747 -2.2341  0.9153 -0.6211
24413SOL     OW79200   3.655   4.559   9.346  0.1251 -0.4411  0.7029
24413SOL    HW179201   3.696   4.580   9.430 -0.9831  1.4876  0.8164
24413SOL    HW279202   3.619   4.642   9.315  3.5317 -0.1743 -3.4933
24414SOL     OW79203   9.119   3.933   5.784  0.5618 -0.2501 -0.3723
24414SOL    HW179204   9.100   3.842   5.808 -1.8302  0.0075 -0.9636
24414SOL    HW279205   9.051   3.955   5.720  2.6001  1.2086 -2.1638
24415SOL     OW79206   3.261   7.789   9.352  0.2875 -0.1667  0.4003
24415SOL    HW179207   3.262   7.729   9.277 -0.5486  1.8873 -1.3947
24415SOL    HW279208   3.175   7.777   9.392 -0.0150  0.0361 -0.1681
24416SOL     OW79209   8.733   6.997   4.873 -0.1717 -0.2223 -0.4706
24416SOL    HW179210   8.787   7.043   4.937 -1.2117  0.0512  0.2533
24416SOL    HW279211   8.718   7.061   4.804 -0.1861 -0.0435 -0.3038
24417SOL     OW79212   2.099   7.329   1.317  0.0801 -0.6133  0.1021
24417SOL    HW179213   2.041   7.276   1.371  0.4907 -0.6369  0.5271
24417SOL    HW279214   2.188   7.304   1.344  0.3050  1.1357  1.1991
24418SOL     OW79215   8.162   2.239   1.077  0.2801 -0.3978 -0.1433
24418SOL    HW179216   8.115   2.297   1.137  1.1442 -1.3249  1.4904
24418SOL    HW279217   8.107   2.160   1.072  1.5833 -1.5194  1.8356
24419SOL     OW79218   2.944   4.907   7.758  0.4431  0.0033 -0.5186
24419SOL    HW179219   2.905   4.863   7.682  0.5210 -0.3274 -0.3671
24419SOL    HW279220   2.918   4.999   7.748  0.9387  0.0746 -1.2629
24420SOL     OW79221   1.276   4.460   0.256  0.4375  0.1031 -1.3332
24420SOL    HW179222   1.332   4.503   0.320 -1.3799  0.2936  0.2517
24420SOL    HW279223   1.194   4.510   0.258 -1.1058 -2.2514 -0.7892
24421SOL     OW79224   2.619   1.190   0.820 -0.4289 -0.0450  0.1911
24421SOL    HW179225   2.707   1.189   0.781 -0.4324  0.4678  0.1552
24421SOL    HW279226   2.562   1.219   0.749 -0.7092 -0.8686  0.0719
24422SOL     OW79227   1.991   1.808   0.783 -0.2744 -0.0770  0.1183
24422SOL    HW179228   2.039   1.728   0.763 -1.8336 -0.9363 -0.4009
24422SOL    HW279229   2.057   1.877   0.785  0.9156 -1.1462 -0.8930
24423SOL     OW79230   1.243   4.424   7.682  0.0842  0.0116 -0.0209
24423SOL    HW179231   1.268   4.413   7.773  0.3491 -1.2737 -0.2418
24423SOL    HW279232   1.302   4.368   7.633 -1.5336 -1.1175 -0.7778
24424SOL     OW79233   6.674   0.787   2.225 -0.0390 -0.2947 -0.1530
24424SOL    HW179234   6.602   0.744   2.272 -0.8223 -0.4708 -1.4507
24424SOL    HW279235   6.635   0.867   2.189 -0.5118 -1.7764 -3.3239
24425SOL     OW79236   0.604   3.623   0.785  0.1324 -0.7139 -0.5650
24425SOL    HW179237   0.607   3.528   0.799 -2.1841 -0.6193  1.1932
24425SOL    HW279238   0.647   3.660   0.862 -0.4097 -0.3500 -0.4262
24426SOL     OW79239   1.933   6.214   1.902  0.1703  0.0947  0.8832
24426SOL    HW179240   1.968   6.210   1.813  0.6880  2.1830  0.9501
24426SOL    HW279241   2.007   6.194   1.958  0.0199 -0.4779  0.8874
24427SOL     OW79242   0.836   2.761   1.471 -0.3022  0.3515  0.2050
24427SOL    HW179243   0.758   2.814   1.488 -1.0105 -0.8902  0.9490
24427SOL    HW279244   0.902   2.798   1.530 -1.0327 -0.0847  1.3408
24428SOL     OW79245   0.673   5.096   6.160  0.4164  0.2499  0.4115
24428SOL    HW179246   0.625   5.025   6.118 -1.7202  0.4802  2.2356
24428SOL    HW279247   0.620   5.174   6.142  2.8796  1.5697 -1.8368
24429SOL     OW79248   6.785   3.885   8.920 -0.5707 -0.2714 -0.4221
24429SOL    HW179249   6.828   3.876   8.835  2.8326  2.0808  0.8340
24429SOL    HW279250   6.728   3.961   8.910  1.4882  1.4043 -0.1592
24430SOL     OW79251   4.301   3.724   0.147  0.0382  0.1571  0.1899
24430SOL    HW179252   4.323   3.661   0.079 -0.1521  1.0077 -0.6731
24430SOL    HW279253   4.313   3.810   0.106  0.0152  0.6906  1.2539
24431SOL     OW79254   8.950   2.828   6.155 -0.4000 -0.0430 -0.5959
24431SOL    HW179255   8.947   2.923   6.152 -1.8045 -0.0774 -1.1993
24431SOL    HW279256   8.971   2.807   6.246 -1.8247  0.8523 -0.0225
24432SOL     OW79257   4.822   8.539   1.359  0.7526 -0.4063 -0.1003
24432SOL    HW179258   4.867   8.475   1.414  2.2488 -0.3603 -1.2110
24432SOL    HW279259   4.860   8.623   1.383  0.3163 -0.1977 -0.1325
24433SOL     OW79260   8.279   2.233   6.504 -0.6375  0.0385 -0.2332
24433SOL    HW179261   8.346   2.248   6.571 -0.0825  3.0137 -1.2787
24433SOL    HW279262   8.202   2.207   6.553  0.7558 -1.6879  1.1707
24434SOL     OW79263   6.230   3.055   6.966  0.3636 -0.1556  0.5778
24434SOL    HW179264   6.207   3.127   6.907 -1.0661  0.1401  1.4364
24434SOL    HW279265   6.193   3.081   7.050  2.5826 -0.4422  1.7080
24435SOL     OW79266   9.159   4.260   6.773 -0.1009 -0.3144  0.5074
24435SOL    HW179267   9.236   4.271   6.717 -1.2061  0.5429 -0.9347
24435SOL    HW279268   9.176   4.317   6.848  0.2772  0.5867 -0.2414
24436SOL     OW79269   6.898   1.784   3.894  0.0055 -0.0152 -0.1220
24436SOL    HW179270   6.810   1.795   3.931 -0.3654  0.5285 -1.1294
24436SOL    HW279271   6.946   1.862   3.923 -0.2749  0.3934 -0.7316
24437SOL     OW79272   1.046   5.077   6.730  0.4933 -0.1138  0.5780
24437SOL    HW179273   1.114   5.144   6.735 -0.1246  0.5438  0.3772
24437SOL    HW279274   1.020   5.064   6.822  1.3166 -0.8239  0.7160
24438SOL     OW79275   6.765   2.738   1.833  0.3405  0.3110  0.0114
24438SOL    HW179276   6.807   2.786   1.762  0.8991  1.7907  1.2864
24438SOL    HW279277   6.780   2.791   1.911 -1.4988 -0.5189  1.0165
24439SOL     OW79278   4.723   1.985   2.730  0.2914  0.3414  0.1113
24439SOL    HW179279   4.743   1.986   2.636  0.9671 -3.1188  0.1144
24439SOL    HW279280   4.784   2.048   2.768  0.7290  1.0157 -1.6081
24440SOL     OW79281   7.685   5.327   0.103 -0.0436 -0.4327 -0.4271
24440SOL    HW179282   7.728   5.249   0.070 -0.1405  0.0166 -1.6875
24440SOL    HW279283   7.737   5.400   0.069 -0.9576  0.0846 -0.7743
24441SOL     OW79284   3.952   7.383   7.560 -0.2598  0.2471  0.3237
24441SOL    HW179285   4.033   7.331   7.558  0.2771  0.9356  2.3270
24441SOL    HW279286   3.888   7.327   7.516  0.9868 -0.8588 -0.1779
24442SOL     OW79287   4.204   5.512   6.451  0.1180  0.0628 -0.4990
24442SOL    HW179288   4.271   5.476   6.393  0.8280  0.0042  0.3377
24442SOL    HW279289   4.121   5.479   6.416  0.6813 -1.5845 -0.3202
24443SOL     OW79290   3.651   3.327   0.245 -0.0672  0.0960 -0.2027
24443SOL    HW179291   3.630   3.256   0.306  0.1905  0.7059  0.6173
24443SOL    HW279292   3.595   3.311   0.170  0.4952 -1.3786 -0.3380
24444SOL     OW79293   7.781   8.419   4.540 -0.5665  0.9944  0.3744
24444SOL    HW179294   7.729   8.486   4.585 -1.5170  1.7513 -1.7410
24444SOL    HW279295   7.732   8.401   4.460  2.1736  1.4030 -1.5165
24445SOL     OW79296   5.740   6.734   9.059  0.7610  0.0719 -0.4122
24445SOL    HW179297   5.820   6.702   9.019  0.8320 -0.9225  0.4638
24445SOL    HW279298   5.717   6.667   9.124  0.3753  1.3396  0.8241
24446SOL     OW79299   1.418   7.283   9.040  0.2742  0.1461 -0.0809
24446SOL    HW179300   1.449   7.353   9.097 -2.4812  0.9848  0.5659
24446SOL    HW279301   1.439   7.313   8.952 -1.0381  1.9904  0.1624
24447SOL     OW79302   9.292   4.191   1.291  0.0339 -0.1462  0.6561
24447SOL    HW179303   9.299   4.187   1.386 -1.8253  0.4260  0.8530
24447SOL    HW279304   9.208   4.150   1.271  1.0018 -1.5675 -0.8994
24448SOL     OW79305   2.117   3.121   0.568 -0.7745 -0.0176  0.6327
24448SOL    HW179306   2.068   3.040   0.556  1.4429 -1.2923 -0.4274
24448SOL    HW279307   2.190   3.097   0.626  0.3471  1.0056 -0.3081
24449SOL     OW79308   8.850   8.982   3.785 -0.2528 -0.0900  0.2613
24449SOL    HW179309   8.826   8.895   3.752 -1.7602 -0.0472  1.1826
24449SOL    HW279310   8.946   8.982   3.782 -0.2413 -0.4888 -3.0202
24450SOL     OW79311   0.202   4.179   8.019  0.1078  0.2656 -0.1499
24450SOL    HW179312   0.236   4.100   8.061  1.7924 -0.0284 -1.8794
24450SOL    HW279313   0.226   4.251   8.078  0.5191 -0.3138  0.3947
24451SOL     OW79314   5.102   3.089   3.237  0.2725  0.5014 -0.4430
24451SOL    HW179315   5.172   3.131   3.285  0.6627 -0.7050  0.0781
24451SOL    HW279316   5.069   3.021   3.296  0.5030 -0.7605 -1.7018
24452SOL     OW79317   0.478   8.209   4.479  0.1102  0.4106 -0.5283
24452SOL    HW179318   0.460   8.244   4.392  3.6214 -0.9392 -1.9870
24452SOL    HW279319   0.502   8.285   4.532  2.3064  0.9074 -2.1063
24453SOL     OW79320   7.202   6.904   1.262 -0.1593  0.0013 -0.1629
24453SOL    HW179321   7.143   6.979   1.266 -0.7024 -0.4545  2.5538
24453SOL    HW279322   7.284   6.939   1.228 -0.8574  1.4822 -0.4046
24454SOL     OW79323   3.327   1.047   2.218 -0.1396 -0.4653  0.2040
24454SOL    HW179324   3.398   0.984   2.207 -0.6091 -0.9373 -0.1469
24454SOL    HW279325   3.313   1.084   2.131 -0.4555 -0.5189  0.2292
24455SOL     OW79326   1.924   8.075   4.225 -0.6072 -0.3589  0.6022
24455SOL    HW179327   2.016   8.059   4.249 -0.6876  0.1578  1.2790
24455SOL    HW279328   1.880   7.992   4.241 -0.3997 -0.3920  0.9932
24456SOL     OW79329   3.657   1.509   0.215  0.4319 -0.5728 -0.3500
24456SOL    HW179330   3.622   1.456   0.286  0.0131  0.0845 -0.0529
24456SOL    HW279331   3.638   1.458   0.136  0.5278 -1.1135 -0.0319
24457SOL     OW79332   6.604   3.593   6.697 -0.4403  0.2469  0.0269
24457SOL    HW179333   6.593   3.619   6.606 -0.5095  0.4133  0.0831
24457SOL    HW279334   6.659   3.662   6.735  1.0415 -0.6806 -0.3178
24458SOL     OW79335   0.561   2.216   2.354  0.4917 -0.3490  0.0431
24458SOL    HW179336   0.566   2.312   2.363 -0.9047 -0.4128  2.4944
24458SOL    HW279337   0.639   2.184   2.401  0.1131 -0.4409  0.6112
24459SOL     OW79338   0.348   0.226   7.451 -0.0650  0.6015  0.1665
24459SOL    HW179339   0.378   0.277   7.376 -3.8996  0.3107 -1.8487
24459SOL    HW279340   0.359   0.285   7.526  0.3422  2.4472 -1.2660
24460SOL     OW79341   4.348   9.194   4.181  0.7010  0.4447 -0.6813
24460SOL    HW179342   4.271   9.196   4.238  0.3137  2.2453 -1.2150
24460SOL    HW279343   4.339   9.112   4.132  0.5831 -0.7131  1.1587
24461SOL     OW79344   6.915   4.886   3.629 -0.4507  0.9671  0.2702
24461SOL    HW179345   6.885   4.914   3.716 -0.7339  1.1793  0.1024
24461SOL    HW279346   6.837   4.891   3.574 -0.5932 -0.4884  0.3133
24462SOL     OW79347   4.864   0.468   7.445  0.5421 -0.4426  0.4231
24462SOL    HW179348   4.843   0.498   7.533  0.5976 -0.9427  0.6090
24462SOL    HW279349   4.960   0.470   7.441  0.5202  0.2121  0.1496
24463SOL     OW79350   2.601   3.365   9.369 -0.1932  0.3529 -0.4792
24463SOL    HW179351   2.599   3.270   9.380 -1.3352  0.1803 -1.9009
24463SOL    HW279352   2.556   3.399   9.446  1.2550 -0.1549  0.6426
24464SOL     OW79353   2.187   1.972   7.519  0.0904  0.0316  0.6481
24464SOL    HW179354   2.158   1.895   7.568 -1.2810  1.1138  1.5854
24464SOL    HW279355   2.218   2.033   7.586  0.7056  0.4987 -0.0463
24465SOL     OW79356   3.859   9.217   1.834  0.0776  0.0874  0.2066
24465SOL    HW179357   3.822   9.295   1.794  1.9888  0.0273 -1.8349
24465SOL    HW279358   3.835   9.146   1.775  0.7391 -0.4396  0.5615
24466SOL     OW79359   9.366   3.204   8.671 -0.1969  0.6080  0.0588
24466SOL    HW179360   9.308   3.244   8.606 -0.6294  0.9386  0.6333
24466SOL    HW279361   9.307   3.174   8.740  0.2131 -0.1639  0.0807
24467SOL     OW79362   2.742   7.566   1.168 -0.0928 -0.2782  0.4953
24467SOL    HW179363   2.661   7.573   1.116 -0.3533 -0.9477  0.7939
24467SOL    HW279364   2.771   7.656   1.178 -1.1896  0.0409  0.9778
24468SOL     OW79365   9.208   6.212   8.273  0.2692  0.5567  0.0454
24468SOL    HW179366   9.164   6.176   8.197  2.3516 -0.4439 -0.7662
24468SOL    HW279367   9.180   6.303   8.277 -2.3612 -0.1819  0.0446
24469SOL     OW79368   4.251   4.338   0.728  0.3143 -0.1758 -0.7093
24469SOL    HW179369   4.325   4.300   0.680  0.3031 -0.3957 -0.5546
24469SOL    HW279370   4.292   4.384   0.802  0.3771  0.7196 -1.2907
24470SOL     OW79371   7.258   8.069   4.998 -0.0598 -0.0683  0.2590
24470SOL    HW179372   7.340   8.019   4.996 -1.4517 -2.5247  0.9300
24470SOL    HW279373   7.244   8.095   4.907  1.3804  0.3427  0.1195
24471SOL     OW79374   7.644   3.546   7.502  0.0946 -0.4105  0.3060
24471SOL    HW179375   7.644   3.642   7.506 -0.2120 -0.3665 -0.4341
24471SOL    HW279376   7.736   3.522   7.493  0.1938 -0.1986  0.7396
24472SOL     OW79377   5.917   6.210   6.345 -0.4419 -0.7316  0.8279
24472SOL    HW179378   5.872   6.126   6.339 -0.8174 -0.7914  3.4804
24472SOL    HW279379   5.993   6.192   6.400  0.6314  0.2577 -0.2764
24473SOL     OW79380   3.220   8.632   0.498 -0.5594 -0.2993 -0.1865
24473SOL    HW179381   3.238   8.551   0.546  0.6430 -0.3705 -0.7231
24473SOL    HW279382   3.204   8.697   0.566 -2.8986 -1.2490  0.2392
24474SOL     OW79383   4.166   5.031   0.157  0.6284  0.2440 -0.3629
24474SOL    HW179384   4.112   5.109   0.144  0.3586  0.1482  0.1552
24474SOL    HW279385   4.218   5.024   0.077 -0.5858 -0.0268 -1.1641
24475SOL     OW79386   4.425   5.540   4.650  0.0706 -0.1005 -0.1061
24475SOL    HW179387   4.498   5.601   4.635  1.2761 -1.8113 -1.6195
24475SOL    HW279388   4.415   5.494   4.567 -1.3285 -1.4082  0.7442
24476SOL     OW79389   5.556   7.654   1.500  0.6144  0.4161 -0.3127
24476SOL    HW179390   5.519   7.668   1.412  0.8835  0.8640 -0.3605
24476SOL    HW279391   5.650   7.674   1.489  0.3557  2.3482  0.4734
24477SOL     OW79392   2.087   6.777   4.717  0.1560 -0.4039 -0.3058
24477SOL    HW179393   2.087   6.819   4.631 -0.1690 -1.8142 -1.0146
24477SOL    HW279394   2.018   6.711   4.712  0.2628 -0.6402  0.9767
24478SOL     OW79395   8.625   8.135   3.110  0.3849  0.0451  0.0908
24478SOL    HW179396   8.708   8.181   3.105  1.2307 -1.4325 -0.0260
24478SOL    HW279397   8.646   8.052   3.154 -1.2091  0.0537  0.9474
24479SOL     OW79398   0.620   0.486   0.562 -0.0072 -0.0750  0.1973
24479SOL    HW179399   0.530   0.493   0.530 -0.0480  0.3124  0.3869
24479SOL    HW279400   0.674   0.519   0.490 -0.0426  0.0435  0.2254
24480SOL     OW79401   6.661   3.859   5.626  0.5469 -0.4836  0.1680
24480SOL    HW179402   6.632   3.949   5.613  0.6607 -0.7092 -1.8248
24480SOL    HW279403   6.698   3.832   5.542  5.1029 -0.7975  2.0094
24481SOL     OW79404   1.213   6.704   6.525  0.5584  0.0899 -0.0758
24481SOL    HW179405   1.291   6.753   6.548  1.0761  0.3721 -2.2844
24481SOL    HW279406   1.221   6.687   6.431 -2.7526  1.4747 -0.7421
24482SOL     OW79407   3.509   9.098   7.036 -0.5731  0.2405  0.4004
24482SOL    HW179408   3.567   9.056   7.099 -1.4506  0.8224  1.6534
24482SOL    HW279409   3.424   9.057   7.051 -0.4270 -1.0156 -1.8016
24483SOL     OW79410   6.544   1.232   6.108 -0.0568 -0.6298  0.1591
24483SOL    HW179411   6.468   1.190   6.068 -0.8515  0.0926  0.8677
24483SOL    HW279412   6.544   1.320   6.071  0.3348 -0.5760  0.2899
24484SOL     OW79413   5.506   8.965   3.514 -0.5595  0.0549 -0.1999
24484SOL    HW179414   5.598   8.972   3.539 -1.1652 -0.5954  2.6617
24484SOL    HW279415   5.507   8.919   3.431  1.6809 -1.1840  0.4244
24485SOL     OW79416   4.495   4.047   7.049  0.1544  0.3570  0.1028
24485SOL    HW179417   4.403   4.069   7.032  0.0743 -0.2791 -0.3051
24485SOL    HW279418   4.542   4.081   6.973  0.0155 -0.9504 -0.5860
24486SOL     OW79419   4.561   2.032   9.048 -0.0669  0.0189  0.2896
24486SOL    HW179420   4.543   1.995   9.134  1.0374  1.3855  1.1426
24486SOL    HW279421   4.629   2.098   9.063  1.5692 -1.0263 -1.9124
24487SOL     OW79422   2.222   1.991   5.666 -0.3513  0.6116 -0.1881
24487SOL    HW179423   2.315   1.973   5.653 -0.3917 -0.4096  0.7950
24487SOL    HW279424   2.220   2.055   5.737 -0.3539  1.9433 -1.3477
24488SOL     OW79425   3.989   8.930   7.185  0.9704 -0.2049 -0.0210
24488SOL    HW179426   4.037   8.870   7.242 -1.1776 -1.7500  0.3113
24488SOL    HW279427   4.051   8.952   7.116  2.1457 -2.1225  0.3453
24489SOL     OW79428   2.837   9.046   6.220  0.0036 -0.0525  0.0372
24489SOL    HW179429   2.924   9.038   6.260 -0.6090 -0.4123  1.3735
24489SOL    HW279430   2.814   9.138   6.229  1.0651  0.4903 -2.1954
24490SOL     OW79431   8.897   7.775   8.023  0.2355 -0.3377 -0.1440
24490SOL    HW179432   8.912   7.864   8.056 -0.8936  0.1909 -0.9721
24490SOL    HW279433   8.847   7.732   8.092 -0.6218  0.2045 -0.4085
24491SOL     OW79434   0.978   6.963   1.508 -0.4970 -0.0084  0.1786
24491SOL    HW179435   1.058   6.980   1.459 -0.4658  1.3199  0.6483
24491SOL    HW279436   0.909   7.003   1.455 -0.6650  0.0282  0.4238
24492SOL     OW79437   5.220   6.373   3.795  0.7090  0.1043  0.0449
24492SOL    HW179438   5.206   6.278   3.793  0.7259  0.1055 -0.1576
24492SOL    HW279439   5.209   6.397   3.887  0.0882  0.0021 -0.0004
24493SOL     OW79440   1.250   6.565   9.277 -0.9991 -0.3139  0.2030
24493SOL    HW179441   1.344   6.553   9.292 -0.7796 -0.1727 -0.9426
24493SOL    HW279442   1.231   6.654   9.307 -0.5300  0.0510 -0.5428
24494SOL     OW79443   7.081   0.992   6.750  0.6876 -0.1914 -0.0488
24494SOL    HW179444   6.989   0.967   6.739  0.7422 -0.1103 -0.7447
24494SOL    HW279445   7.126   0.952   6.675  1.2751 -0.4969  0.4573
24495SOL     OW79446   2.660   0.585   5.211 -0.4886  0.3857 -0.2417
24495SOL    HW179447   2.665   0.551   5.300 -2.4452  0.7406  0.0682
24495SOL    HW279448   2.618   0.671   5.222 -1.5760  0.0437 -1.5720
24496SOL     OW79449   0.656   0.246   0.250 -0.7294 -0.4627 -0.6019
24496SOL    HW179450   0.629   0.311   0.314 -0.3244 -0.4813 -0.4160
24496SOL    HW279451   0.584   0.183   0.249 -1.6411  0.5437 -1.5737
24497SOL     OW79452   6.708   3.346   7.584  0.0284  0.2020 -0.4860
24497SOL    HW179453   6.721   3.268   7.637  1.0913  0.3711 -0.4658
24497SOL    HW279454   6.770   3.410   7.620 -2.0698  1.6986  0.6810
24498SOL     OW79455   6.353   3.561   4.373  0.0971  1.0285 -0.3103
24498SOL    HW179456   6.423   3.525   4.426 -0.0883  1.7148  0.4336
24498SOL    HW279457   6.276   3.559   4.430 -0.4166  0.5833 -1.0013
24499SOL     OW79458   4.638   2.765   4.197  0.2238 -0.2608  0.2664
24499SOL    HW179459   4.704   2.713   4.152  0.1667  0.0487 -0.1765
24499SOL    HW279460   4.685   2.809   4.268  0.8175  1.1659 -0.9749
24500SOL     OW79461   6.959   4.164   3.610  0.2302 -0.1351 -0.7469
24500SOL    HW179462   7.015   4.115   3.550 -1.3242 -0.6380 -1.8559
24500SOL    HW279463   6.870   4.145   3.580 -0.6742 -1.0989  2.2388
24501SOL     OW79464   2.967   4.381   4.537  0.1772 -0.1070  0.4024
24501SOL    HW179465   3.052   4.407   4.501 -0.1734  0.1005 -0.2959
24501SOL    HW279466   2.918   4.463   4.543  0.0291 -0.2262  0.8050
24502SOL     OW79467   6.409   2.242   8.331  0.2078  0.1153  0.4324
24502SOL    HW179468   6.504   2.250   8.328  0.3349 -0.7019  1.5880
24502SOL    HW279469   6.391   2.162   8.283  0.1628 -0.0654  0.7485
24503SOL     OW79470   3.712   4.668   7.112  0.5198  0.0981 -0.1078
24503SOL    HW179471   3.670   4.592   7.072 -1.8146  0.7186  0.9791
24503SOL    HW279472   3.643   4.708   7.165  2.2536  1.8142  0.9765
24504SOL     OW79473   0.769   3.281   7.982  0.0986  0.2168  0.2521
24504SOL    HW179474   0.705   3.230   8.031 -0.2246 -0.7770 -1.1433
24504SOL    HW279475   0.723   3.307   7.902  1.2042  0.1066 -0.4476
24505SOL     OW79476   8.650   5.251   8.113  0.3145  0.0144 -0.1370
24505SOL    HW179477   8.561   5.227   8.140 -0.5693  2.8595 -0.1748
24505SOL    HW279478   8.647   5.251   8.017 -0.0823  1.3811 -0.1455
24506SOL     OW79479   1.665   4.093   2.539  0.4291  0.0095 -0.0506
24506SOL    HW179480   1.611   4.128   2.610  1.3284  0.4773  0.4166
24506SOL    HW279481   1.684   4.003   2.566  0.4768  0.0749  0.1401
24507SOL     OW79482   1.975   2.396   2.505  0.0948 -0.6464  0.1428
24507SOL    HW179483   1.991   2.349   2.587  0.2842 -0.4472  0.2191
24507SOL    HW279484   1.910   2.463   2.528  1.1060  0.2666  0.4369
24508SOL     OW79485   9.135   2.006   5.952  0.1372  0.2307 -0.2072
24508SOL    HW179486   9.123   2.014   6.046  1.1609  1.3837 -0.1547
24508SOL    HW279487   9.186   1.926   5.941 -1.6219 -0.9928  0.0358
24509SOL     OW79488   0.194   2.754   1.956  0.2391 -0.9018  0.3210
24509SOL    HW179489   0.240   2.686   1.907  0.1800 -0.2868 -0.6075
24509SOL    HW279490   0.252   2.774   2.029  1.3623 -0.3131 -0.6915
24510SOL     OW79491   0.058   0.201   5.402  0.4538  0.4107  0.5877
24510SOL    HW179492   0.044   0.295   5.411 -0.8081  0.1737  1.3078
24510SOL    HW279493   0.122   0.193   5.332 -0.4869  1.7602 -0.4827
24511SOL     OW79494   0.132   0.585   6.166  0.0254 -0.3517 -0.0106
24511SOL    HW179495   0.116   0.652   6.100 -0.0818 -1.7906 -1.4986
24511SOL    HW279496   0.046   0.547   6.183 -0.0905  0.5637  1.6328
24512SOL     OW79497   4.406   3.660   0.541  0.0519  0.4114  0.1569
24512SOL    HW179498   4.341   3.659   0.612 -2.2084  1.8993 -1.7609
24512SOL    HW279499   4.460   3.736   0.560  0.8543 -0.4272  1.3864
24513SOL     OW79500   5.046   8.708   7.368 -0.5155 -0.3390  0.0351
24513SOL    HW179501   5.096   8.627   7.364  1.4373  0.6129  2.4663
24513SOL    HW279502   4.968   8.686   7.419 -0.2047 -0.7837  0.3206
24514SOL     OW79503   0.224   6.299   3.777 -0.1299  0.6055  0.2722
24514SOL    HW179504   0.215   6.218   3.728 -0.0271  1.2337 -0.8024
24514SOL    HW279505   0.197   6.368   3.716 -0.2108  1.3852  1.1634
24515SOL     OW79506   5.509   8.390   7.105  0.4650  0.1404 -0.1441
24515SOL    HW179507   5.463   8.440   7.172 -0.2218 -0.3491 -0.2406
24515SOL    HW279508   5.599   8.421   7.109  0.0265  1.4714 -0.2866
24516SOL     OW79509   1.002   4.831   5.652 -0.4312  0.6439  0.2258
24516SOL    HW179510   0.990   4.926   5.646 -1.0144  0.6640  1.5013
24516SOL    HW279511   1.082   4.820   5.703 -0.8457  0.4472  0.8384
24517SOL     OW79512   0.625   1.814   3.938  0.0743  0.3693 -0.0515
24517SOL    HW179513   0.714   1.812   3.902  0.3105  1.2042  0.4416
24517SOL    HW279514   0.568   1.816   3.861  0.5712  2.2643 -0.4310
24518SOL     OW79515   5.499   2.014   8.963 -0.3315 -0.2052 -0.2239
24518SOL    HW179516   5.543   2.089   8.923 -0.8650 -0.4816 -1.3635
24518SOL    HW279517   5.521   2.021   9.056 -1.0789  1.8593 -0.1559
24519SOL     OW79518   8.820   6.718   5.347  0.8082 -0.2221 -0.0299
24519SOL    HW179519   8.769   6.670   5.413  2.0955 -0.9393  0.4877
24519SOL    HW279520   8.757   6.741   5.279 -0.2250 -0.9428  0.6658
24520SOL     OW79521   4.650   4.026   4.604 -0.3252  0.1045  0.4744
24520SOL    HW179522   4.693   4.030   4.689 -0.1757  0.1056  0.3993
24520SOL    HW279523   4.721   4.033   4.540 -0.4100 -0.1524  0.3472
24521SOL     OW79524   8.686   0.714   2.840 -0.3589 -0.0277  0.0510
24521SOL    HW179525   8.657   0.780   2.903  0.8258  1.6420 -1.0782
24521SOL    HW279526   8.652   0.745   2.756  0.5017 -0.6702 -0.5484
24522SOL     OW79527   6.000   0.345   9.263 -0.0343 -0.5460 -0.0172
24522SOL    HW179528   6.062   0.320   9.331  0.6878  1.1596  0.0115
24522SOL    HW279529   6.056   0.368   9.188 -0.6048  1.1271  0.0462
24523SOL     OW79530   0.030   6.769   6.623  0.7114  0.4760  0.5398
24523SOL    HW179531  -0.000   6.764   6.714 -0.8081  0.0983  0.0491
24523SOL    HW279532   0.117   6.808   6.628  0.5649  0.6430  2.1399
24524SOL     OW79533   6.468   7.797   7.460  0.5444 -0.1334  0.0335
24524SOL    HW179534   6.498   7.716   7.419 -0.4348 -1.2352  1.3742
24524SOL    HW279535   6.422   7.844   7.391  0.0390 -1.3307 -0.4742
24525SOL     OW79536   7.059   7.479   1.122  0.1587 -0.1790 -0.6131
24525SOL    HW179537   7.106   7.423   1.060 -0.9897 -0.9630 -0.7993
24525SOL    HW279538   7.033   7.420   1.193  1.7810  0.7717  0.8493
24526SOL     OW79539   6.073   3.767   9.296 -0.2593 -0.4579 -0.6185
24526SOL    HW179540   5.978   3.772   9.290 -0.6927 -0.3476  3.4243
24526SOL    HW279541   6.105   3.841   9.244 -2.5904  1.3559  0.3508
24527SOL     OW79542   4.582   6.432   4.657 -0.0041  0.3112  0.1618
24527SOL    HW179543   4.587   6.521   4.622 -1.8889  0.0371 -0.9380
24527SOL    HW279544   4.542   6.443   4.743 -0.5425  0.4930 -0.1104
24528SOL     OW79545   4.997   0.751   1.328 -0.6378 -0.2318 -0.8104
24528SOL    HW179546   5.005   0.660   1.356 -0.2732  0.4352  1.4569
24528SOL    HW279547   4.905   0.774   1.344 -0.3305  0.2784  0.3328
24529SOL     OW79548   1.684   0.384   4.941 -0.2120  0.1884 -0.0456
24529SOL    HW179549   1.650   0.295   4.938 -0.0430  0.1530 -1.5734
24529SOL    HW279550   1.758   0.384   4.880 -1.0882  1.7083 -1.1740
24530SOL     OW79551   1.804   3.845   0.896 -0.1392  0.6833 -0.2619
24530SOL    HW179552   1.761   3.901   0.832 -1.3598 -0.5974 -0.6151
24530SOL    HW279553   1.746   3.846   0.972 -0.0065  0.1866 -0.1494
24531SOL     OW79554   5.252   8.513   6.698 -0.4317  0.1887 -0.0615
24531SOL    HW179555   5.270   8.458   6.774 -0.4145  0.0425 -0.1704
24531SOL    HW279556   5.158   8.501   6.682 -0.5879  0.7881  0.3794
24532SOL     OW79557   9.047   5.671   5.489 -0.3710 -0.2085  0.2942
24532SOL    HW179558   9.063   5.755   5.445 -0.4078  0.7441  2.0009
24532SOL    HW279559   8.958   5.647   5.462  0.7657 -1.4491 -2.8305
24533SOL     OW79560   0.333   4.862   1.965  0.1147 -0.3065  0.3507
24533SOL    HW179561   0.240   4.840   1.971  0.0507 -0.2183 -0.2756
24533SOL    HW279562   0.370   4.797   1.906  0.5736 -0.6970  1.0524
24534SOL     OW79563   1.181   0.771   6.039  0.1142  0.2024  0.4897
24534SOL    HW179564   1.207   0.741   5.952 -1.5674 -0.1861  0.0825
24534SOL    HW279565   1.183   0.867   6.032  0.0695  0.1736  0.0426
24535SOL     OW79566   8.816   7.348   2.539  0.1237  0.0435  0.0633
24535SOL    HW179567   8.733   7.390   2.563  0.6207  0.2142  1.5416
24535SOL    HW279568   8.883   7.412   2.560  0.7214 -0.5221 -0.0755
24536SOL     OW79569   6.038   1.040   2.264 -0.0665  0.5296 -0.2744
24536SOL    HW179570   5.964   0.984   2.242 -0.5831  0.5428  1.3560
24536SOL    HW279571   6.092   1.039   2.185 -1.2102 -0.4072 -1.0848
24537SOL     OW79572   0.355   4.205   6.006 -0.2126  0.8182 -0.0367
24537SOL    HW179573   0.295   4.248   5.944 -0.5909 -0.0720 -0.3093
24537SOL    HW279574   0.441   4.216   5.967 -0.5611 -0.7888 -1.4019
24538SOL     OW79575   3.079   6.887   7.163  0.2638  0.8358  0.7246
24538SOL    HW179576   3.147   6.873   7.229 -1.9010 -1.1488  2.7661
24538SOL    HW279577   3.031   6.964   7.194 -0.7615 -0.1049  1.5657
24539SOL     OW79578   4.699   5.941   1.488 -0.4224 -0.2223  0.2260
24539SOL    HW179579   4.775   5.994   1.511 -1.1379  0.9871 -0.1156
24539SOL    HW279580   4.643   5.942   1.566 -0.6317 -0.1222  0.0760
24540SOL     OW79581   4.817   0.994   1.484 -0.7498  0.0845  0.0839
24540SOL    HW179582   4.734   0.952   1.459 -1.0632  1.1370 -0.7278
24540SOL    HW279583   4.801   1.087   1.471  1.1150  0.2067 -1.7656
24541SOL     OW79584   4.567   3.957   3.349 -0.1603  0.2423 -0.0458
24541SOL    HW179585   4.506   3.940   3.277 -1.3559  3.0121  0.1895
24541SOL    HW279586   4.644   3.994   3.307  0.4159 -0.9669 -0.1110
24542SOL     OW79587   5.601   3.719   1.727 -0.0614 -0.2604 -0.4995
24542SOL    HW179588   5.678   3.724   1.670 -0.4882 -1.1333 -1.1850
24542SOL    HW279589   5.633   3.745   1.813  0.5946  1.1162 -1.1344
24543SOL     OW79590   5.850   4.386   4.950  0.4682 -0.1967  0.4324
24543SOL    HW179591   5.922   4.330   4.980  0.3734 -0.5636 -0.0211
24543SOL    HW279592   5.891   4.472   4.936  0.5241 -0.0171  1.5668
24544SOL     OW79593   2.050   3.552   0.724 -0.1935  0.2684  0.3134
24544SOL    HW179594   2.002   3.470   0.712  1.0136 -0.2107 -1.6250
24544SOL    HW279595   2.003   3.616   0.671 -0.0658  0.3736  0.3267
24545SOL     OW79596   0.473   2.797   8.460 -0.4021 -0.8813 -0.1925
24545SOL    HW179597   0.494   2.883   8.496 -0.4162 -1.2985  0.8510
24545SOL    HW279598   0.418   2.815   8.383 -1.6157  0.0090  0.8421
24546SOL     OW79599   6.345   7.168   1.757  0.4902 -0.0216  0.5260
24546SOL    HW179600   6.338   7.073   1.767 -2.4927  0.2724  2.4561
24546SOL    HW279601   6.387   7.197   1.838  1.7658  0.3244 -0.2326
24547SOL     OW79602   4.115   3.939   7.024  0.5924  0.0105 -0.1705
24547SOL    HW179603   4.150   3.950   6.935 -0.0996  1.4080 -0.3031
24547SOL    HW279604   4.128   4.025   7.065 -1.0010  0.0244  0.3534
24548SOL     OW79605   6.437   8.249   7.044 -0.0831 -0.7101 -0.1770
24548SOL    HW179606   6.488   8.274   7.121  0.5490 -0.3352 -0.7161
24548SOL    HW279607   6.359   8.206   7.081  0.2825 -0.6761  0.6658
24549SOL     OW79608   3.622   9.311   0.655 -0.1557 -0.2116 -0.0579
24549SOL    HW179609   3.699   9.312   0.598  0.9383 -0.4171  1.3636
24549SOL    HW279610   3.555   9.267   0.603  0.5721  0.2451 -1.4484
24550SOL     OW79611   7.542   2.707   2.227  0.3804 -0.2775 -0.0161
24550SOL    HW179612   7.497   2.633   2.187 -3.1149  1.9914 -0.7689
24550SOL    HW279613   7.573   2.759   2.154  4.7515 -1.7845  0.4732
24551SOL     OW79614   2.089   4.062   6.873 -0.4646 -0.1934 -0.2731
24551SOL    HW179615   2.093   4.135   6.935  0.2073 -0.6885  0.2865
24551SOL    HW279616   1.999   4.063   6.841 -0.3635  1.1086 -0.5645
24552SOL     OW79617   3.579   8.552   9.248 -0.3894 -0.3470 -0.1534
24552SOL    HW179618   3.637   8.589   9.315 -0.1977 -1.3823  0.2787
24552SOL    HW279619   3.555   8.466   9.283 -0.6448 -0.7171 -1.2146
24553SOL     OW79620   1.259   6.687   6.245  0.2167  0.0327  0.5841
24553SOL    HW179621   1.263   6.595   6.222  1.3894  0.4413 -1.0432
24553SOL    HW279622   1.221   6.730   6.169 -1.6963  0.7738  1.8728
24554SOL     OW79623   0.930   5.249   4.385 -0.5908  0.6578 -0.5269
24554SOL    HW179624   0.880   5.277   4.308 -2.5006 -0.0864  0.3646
24554SOL    HW279625   0.914   5.317   4.450 -1.1662  0.0124  0.0335
24555SOL     OW79626   5.463   3.433   2.889 -0.1475  0.1826 -0.1002
24555SOL    HW179627   5.449   3.519   2.849 -1.6203  0.4631  0.9545
24555SOL    HW279628   5.468   3.451   2.983  0.1488 -0.8167  0.0825
24556SOL     OW79629   9.013   8.195   7.089 -0.3153  0.1273 -0.4955
24556SOL    HW179630   9.099   8.163   7.117 -0.0773  1.0331 -0.1544
24556SOL    HW279631   8.969   8.219   7.170 -1.4677 -1.6659 -0.5371
24557SOL     OW79632   5.274   5.040   4.663 -0.5736 -0.1241 -0.2070
24557SOL    HW179633   5.268   5.025   4.569 -1.5068 -0.8345 -0.0461
24557SOL    HW279634   5.354   4.994   4.690  1.4414  2.5735 -1.0798
24558SOL     OW79635   3.476   5.472   3.840  0.2329  0.4756 -0.1636
24558SOL    HW179636   3.388   5.493   3.873  0.8195  1.3374  0.9380
24558SOL    HW279637   3.463   5.397   3.782 -1.2584  0.7322 -0.1986
24559SOL     OW79638   8.670   9.234   7.790  0.3737 -0.2273  0.0965
24559SOL    HW179639   8.719   9.316   7.794 -0.9732  0.5894  0.3793
24559SOL    HW279640   8.597   9.246   7.851  1.2441 -2.4168  1.6911
24560SOL     OW79641   5.924   3.975   7.159 -0.0002  0.0951  0.5062
24560SOL    HW179642   5.864   3.903   7.180 -0.9425  0.4019 -0.9953
24560SOL    HW279643   5.936   3.970   7.065  0.7722  1.2611  0.5212
24561SOL     OW79644   5.693   1.387   3.795  0.0806 -0.0903  0.7317
24561SOL    HW179645   5.723   1.478   3.805 -2.0863  0.5587  2.3218
24561SOL    HW279646   5.743   1.338   3.860  0.5935  0.1580  0.5288
24562SOL     OW79647   0.581   5.143   4.395 -0.3803 -0.4419  0.2557
24562SOL    HW179648   0.615   5.163   4.482 -0.3603 -0.5438  0.2716
24562SOL    HW279649   0.560   5.228   4.357 -0.3936 -0.3976  0.3622
24563SOL     OW79650   8.330   7.189   2.521 -0.8459 -0.2459 -0.1064
24563SOL    HW179651   8.337   7.109   2.468  0.5462 -0.5676  0.5280
24563SOL    HW279652   8.371   7.166   2.604 -0.2900  1.1746  0.0337
24564SOL     OW79653   5.659   7.810   8.390  0.9044  0.1703  0.2647
24564SOL    HW179654   5.701   7.849   8.467 -2.4484  1.5434  1.5953
24564SOL    HW279655   5.711   7.841   8.316  0.7653  4.0797  1.5590
24565SOL     OW79656   7.014   5.438   0.781 -0.2475  0.1270 -0.4573
24565SOL    HW179657   7.019   5.413   0.689 -1.6458  1.3693 -0.9053
24565SOL    HW279658   6.930   5.403   0.810  0.2771 -0.4443  0.4389
24566SOL     OW79659   4.509   6.324   0.002 -0.5815 -0.0642  0.0425
24566SOL    HW179660   4.509   6.388  -0.069 -0.9919  0.3417  0.4089
24566SOL    HW279661   4.578   6.262  -0.022  0.2629  0.8658  0.0029
24567SOL     OW79662   7.466   4.291   7.493 -0.1148 -0.9684  0.0183
24567SOL    HW179663   7.454   4.200   7.467  0.2746 -0.9675 -0.1839
24567SOL    HW279664   7.382   4.332   7.477  0.0609 -1.0070 -1.1030
24568SOL     OW79665   8.828   3.928   3.763  0.5163  0.0009 -0.0616
24568SOL    HW179666   8.870   3.975   3.691  0.2188  0.3728  0.0077
24568SOL    HW279667   8.815   3.839   3.729 -1.7828  0.7468 -1.3605
24569SOL     OW79668   2.910   0.089   1.506 -0.1496 -0.2789 -0.4321
24569SOL    HW179669   2.973   0.151   1.469 -0.4649  0.6195  0.4856
24569SOL    HW279670   2.900   0.022   1.439  0.9534  0.1409 -1.0448
24570SOL     OW79671   3.212   5.740   3.462 -0.1262  0.3159 -0.2734
24570SOL    HW179672   3.139   5.777   3.512  0.2112  0.9165 -0.2177
24570SOL    HW279673   3.284   5.736   3.525 -0.1551 -0.4430 -0.2806
24571SOL     OW79674   5.903   6.667   4.725  0.0712 -0.3320  0.0966
24571SOL    HW179675   5.824   6.705   4.686 -0.2326 -0.7606  0.2826
24571SOL    HW279676   5.975   6.714   4.684 -0.2700 -0.2429 -0.4081
24572SOL     OW79677   1.268   3.112   2.652  0.2578 -0.0906  0.1480
24572SOL    HW179678   1.352   3.070   2.670  0.4853  0.1144 -0.4207
24572SOL    HW279679   1.230   3.060   2.582 -0.6373 -0.9047  1.1940
24573SOL     OW79680   4.428   4.152   4.763 -0.1370 -0.8271 -0.2950
24573SOL    HW179681   4.450   4.231   4.714 -0.3449  1.0510  2.4072
24573SOL    HW279682   4.464   4.080   4.712  1.6879  1.1686 -1.9559
24574SOL     OW79683   3.008   9.142   5.776 -0.3375  0.0408 -0.1693
24574SOL    HW179684   3.030   9.221   5.824  1.1383 -1.1283  1.1964
24574SOL    HW279685   3.041   9.157   5.688  0.9804  0.5183  0.3856
24575SOL     OW79686   6.039   7.585   0.225 -0.0994 -0.1873  0.4533
24575SOL    HW179687   6.130   7.571   0.249  0.0809  1.6219  0.9628
24575SOL    HW279688   6.041   7.598   0.130  0.2070  0.0728  0.4938
24576SOL     OW79689   3.817   5.272   8.007  0.1493  0.5299  0.1325
24576SOL    HW179690   3.836   5.366   8.014 -2.0641  0.9823  0.9351
24576SOL    HW279691   3.727   5.263   8.039  0.6637 -2.0333  1.1548
24577SOL     OW79692   4.465   1.081   8.060  0.2448  0.1844 -0.0404
24577SOL    HW179693   4.472   0.989   8.087  2.6268  0.4199  0.3901
24577SOL    HW279694   4.458   1.129   8.142 -0.7034  0.4265 -0.2541
24578SOL     OW79695   1.251   1.962   6.084  0.3252  0.3029  0.4011
24578SOL    HW179696   1.241   1.877   6.041 -0.4472  0.3956  0.3906
24578SOL    HW279697   1.276   2.021   6.013  0.1254  0.2368  0.2758
24579SOL     OW79698   4.004   3.750   9.098 -0.3387 -0.3901 -0.4136
24579SOL    HW179699   3.922   3.710   9.071  0.2573 -0.2895 -2.5346
24579SOL    HW279700   4.067   3.725   9.030  0.6717  2.0167 -0.4709
24580SOL     OW79701   1.233   5.788   3.604  0.2308  0.2580 -0.0077
24580SOL    HW179702   1.295   5.727   3.566  0.1533 -0.9992  1.7862
24580SOL    HW279703   1.150   5.741   3.606 -0.2283  1.0363 -0.1433
24581SOL     OW79704   1.008   3.334   9.209  0.6067  0.5516  0.2196
24581SOL    HW179705   1.082   3.342   9.270 -0.0135  1.1083  0.9079
24581SOL    HW279706   1.032   3.390   9.135  1.1643  0.2110  0.1300
24582SOL     OW79707   3.094   4.114   2.572  0.2239  0.0274 -0.1139
24582SOL    HW179708   3.056   4.124   2.659 -1.1335 -0.3841 -0.6282
24582SOL    HW279709   3.053   4.035   2.536  0.7782  0.1679 -1.1105
24583SOL     OW79710   5.434   6.277   4.383  0.1528 -0.1442  0.0735
24583SOL    HW179711   5.499   6.255   4.450 -0.3610  0.1206  0.6744
24583SOL    HW279712   5.371   6.205   4.387  0.1570 -0.1625 -0.1802
24584SOL     OW79713   7.560   0.651   1.712 -0.2955  0.1150  0.3257
24584SOL    HW179714   7.521   0.655   1.625 -1.4872 -0.4368  0.8210
24584SOL    HW279715   7.518   0.721   1.761 -1.7594 -1.3598  1.2720
24585SOL     OW79716   2.543   6.248   7.959  0.2810  0.3787  0.3804
24585SOL    HW179717   2.550   6.262   8.053  1.7182  0.2729  0.3137
24585SOL    HW279718   2.536   6.336   7.922  0.8978  0.4967  0.5238
24586SOL     OW79719   9.127   4.716   2.738  0.5147  0.1453  0.1922
24586SOL    HW179720   9.093   4.627   2.734  0.1344  0.0937  2.8921
24586SOL    HW279721   9.050   4.771   2.727  0.6053  0.1518 -0.4636
24587SOL     OW79722   2.531   7.277   5.264 -0.1470  0.0244  0.0093
24587SOL    HW179723   2.617   7.311   5.286  0.2980 -0.4708 -0.9043
24587SOL    HW279724   2.472   7.315   5.329  0.7380  0.4691  0.5595
24588SOL     OW79725   9.142   5.203   1.833 -0.0788  0.1538 -0.4598
24588SOL    HW179726   9.129   5.270   1.900  2.0256  1.8126 -1.5661
24588SOL    HW279727   9.137   5.251   1.750  0.5146 -1.2485 -1.3475
24589SOL     OW79728   2.558   8.898   8.657  0.8975 -0.4163 -0.1633
24589SOL    HW179729   2.589   8.829   8.599  1.4857 -1.5562  1.4394
24589SOL    HW279730   2.502   8.854   8.720 -0.2443  0.8990 -0.2003
24590SOL     OW79731   0.056   2.671   6.202 -0.6606 -0.3633 -0.0364
24590SOL    HW179732   0.006   2.648   6.280  0.2377  3.0646  1.7307
24590SOL    HW279733   0.148   2.658   6.228 -0.3957 -0.4705 -1.0003
24591SOL     OW79734   9.293   6.729   0.257 -0.3472 -0.1879 -0.2024
24591SOL    HW179735   9.248   6.759   0.178 -0.1175 -1.2363 -0.7541
24591SOL    HW279736   9.378   6.696   0.225  0.1858  0.3516  0.6208
24592SOL     OW79737   1.933   4.832   8.363  0.5472 -0.1335 -0.5102
24592SOL    HW179738   1.992   4.861   8.293  1.9170  0.2671  0.7470
24592SOL    HW279739   1.975   4.754   8.398 -0.8766 -1.1656 -1.0463
24593SOL     OW79740   2.450   1.391   8.714 -0.1254 -0.0243 -0.0523
24593SOL    HW179741   2.482   1.342   8.790 -1.1926 -1.4600 -0.4704
24593SOL    HW279742   2.435   1.479   8.747 -0.8817 -0.6884  1.5259
24594SOL     OW79743   9.285   6.467   4.049 -0.1305 -0.0516 -0.2087
24594SOL    HW179744   9.362   6.519   4.025  0.6869 -1.0760  0.0849
24594SOL    HW279745   9.256   6.427   3.968  0.5340 -0.7890 -0.0977
24595SOL     OW79746   4.592   4.188   2.561 -0.5031  0.0122 -0.1401
24595SOL    HW179747   4.651   4.258   2.588  1.0317 -1.4692  0.5436
24595SOL    HW279748   4.504   4.220   2.583  0.2679  1.1497  1.4196
24596SOL     OW79749   9.088   6.078   8.086 -0.1274 -0.3084  0.0369
24596SOL    HW179750   9.029   6.113   8.019  0.5788  2.3958  0.6809
24596SOL    HW279751   9.055   5.991   8.105 -2.6894  0.3423 -1.0565
24597SOL     OW79752   2.505   4.102   1.772  0.3583 -0.4858  0.0249
24597SOL    HW179753   2.416   4.124   1.747 -0.6051 -2.1248  1.7059
24597SOL    HW279754   2.559   4.130   1.699 -1.5700  0.2186 -1.1941
24598SOL     OW79755   2.597   7.653   7.139  0.0877  0.8868  0.1254
24598SOL    HW179756   2.648   7.593   7.085 -0.6098 -0.1028  0.5312
24598SOL    HW279757   2.594   7.611   7.226 -0.1178  1.6773  0.5120
24599SOL     OW79758   5.022   2.579   4.160 -0.0286  0.4388  0.0204
24599SOL    HW179759   5.001   2.566   4.253 -0.7269 -0.4074 -0.2369
24599SOL    HW279760   5.065   2.498   4.134  0.7149  0.9159 -0.2541
24600SOL     OW79761   2.069   6.015   3.574  0.2841 -0.2808  0.5435
24600SOL    HW179762   2.111   6.028   3.659 -1.4429  1.5722  1.2147
24600SOL    HW279763   1.975   6.021   3.593 -0.1349  1.7099 -1.6557
24601SOL     OW79764   0.678   6.318   1.596 -0.1105 -0.1062 -0.1087
24601SOL    HW179765   0.766   6.347   1.618  0.8868 -2.2852 -0.9517
24601SOL    HW279766   0.635   6.397   1.561  1.8782  0.7528 -0.7745
24602SOL     OW79767   4.537   5.138   3.818 -0.0015  0.1686 -0.5308
24602SOL    HW179768   4.632   5.126   3.812  0.3047  2.5782 -1.9327
24602SOL    HW279769   4.525   5.197   3.892 -0.5570 -1.0061  0.3475
24603SOL     OW79770   8.058   6.264   2.824  0.3950  0.1753 -0.0641
24603SOL    HW179771   8.039   6.263   2.918  0.1511  0.1341 -0.1121
24603SOL    HW279772   8.153   6.259   2.819  0.3687 -0.7674  0.1692
24604SOL     OW79773   0.009   8.144   0.800  0.2775  0.3061  0.0116
24604SOL    HW179774   0.091   8.095   0.804  0.9259  1.3464 -0.0625
24604SOL    HW279775   0.002   8.171   0.709 -0.1107  0.2864  0.0340
24605SOL     OW79776   0.297   3.093   7.577  0.0135  0.1707  0.5303
24605SOL    HW179777   0.285   3.001   7.554 -0.3897 -0.0570  1.6087
24605SOL    HW279778   0.390   3.110   7.559  0.0772 -0.4259  0.2694
24606SOL     OW79779   4.142   8.888   3.465 -0.7398 -0.1468 -0.0886
24606SOL    HW179780   4.065   8.851   3.509 -0.8039  1.1048  0.9016
24606SOL    HW279781   4.190   8.932   3.535  0.1669  0.2598 -0.9474
24607SOL     OW79782   9.285   0.765   6.518  0.5276  0.4138  0.3056
24607SOL    HW179783   9.270   0.860   6.513  1.7267  0.6246  0.3572
24607SOL    HW279784   9.379   0.757   6.537  0.5157 -0.7933 -0.0766
24608SOL     OW79785   7.512   4.593   0.903  0.4008  0.0355  0.2921
24608SOL    HW179786   7.599   4.607   0.939  0.2628  1.1055  0.2610
24608SOL    HW279787   7.470   4.532   0.963  1.1454 -0.4263  0.3472
24609SOL     OW79788   2.409   9.316   0.460 -0.3912  0.3327 -0.7558
24609SOL    HW179789   2.387   9.409   0.471 -1.8302 -0.1507  1.0935
24609SOL    HW279790   2.449   9.311   0.374 -0.7851  2.5856 -1.1480
24610SOL     OW79791   2.829   5.396   4.422 -0.2905 -0.2968  0.2181
24610SOL    HW179792   2.914   5.400   4.379 -0.7366  0.7867 -0.5858
24610SOL    HW279793   2.835   5.458   4.495 -1.2695  1.9547 -1.5067
24611SOL     OW79794   7.885   8.006   5.657  0.6397  0.6754 -0.2738
24611SOL    HW179795   7.823   8.079   5.665  0.8081  0.8010 -0.0929
24611SOL    HW279796   7.853   7.955   5.583 -1.6874 -1.1831  1.8056
24612SOL     OW79797   0.661   0.993   0.237  0.3011  0.0167  0.4335
24612SOL    HW179798   0.632   1.048   0.164  0.4042  0.2111  0.5391
24612SOL    HW279799   0.685   0.909   0.196 -0.6655 -0.2425  0.3828
24613SOL     OW79800   1.859   6.784   1.019  0.2218 -0.0947  0.0164
24613SOL    HW179801   1.935   6.729   1.001 -0.2783 -1.2400  1.1870
24613SOL    HW279802   1.788   6.745   0.968  0.1059  0.1378 -0.0037
24614SOL     OW79803   6.260   4.779   0.049  0.9246  0.0830  0.5032
24614SOL    HW179804   6.206   4.841   0.098 -0.3257 -0.2549 -0.3695
24614SOL    HW279805   6.350   4.806   0.066  0.4275  1.8916  0.4710
24615SOL     OW79806   1.168   6.251   7.168  1.0020  0.0039  0.0034
24615SOL    HW179807   1.210   6.178   7.213 -0.1631  0.0605  1.2063
24615SOL    HW279808   1.242   6.300   7.130  1.9178 -0.7771  0.7100
24616SOL     OW79809   4.851   4.497   8.656  0.2340 -0.0531  0.4267
24616SOL    HW179810   4.861   4.576   8.603 -0.0812 -0.3678 -0.1189
24616SOL    HW279811   4.938   4.481   8.692  0.5557 -0.0569 -0.3312
24617SOL     OW79812   0.374   7.617   4.513 -0.2713  0.2820 -0.2494
24617SOL    HW179813   0.455   7.598   4.561 -1.1887  0.2266  1.3516
24617SOL    HW279814   0.356   7.709   4.532  0.2773  0.7863 -1.9904
24618SOL     OW79815   6.855   1.984   6.192  0.0776  0.4685 -0.0622
24618SOL    HW179816   6.778   1.998   6.136  0.3918  0.4972 -0.4911
24618SOL    HW279817   6.915   2.054   6.168  0.3826  0.2355  0.0223
24619SOL     OW79818   0.664   2.621   7.699  0.2418  0.1828 -0.4241
24619SOL    HW179819   0.616   2.702   7.683 -1.1384 -0.7171 -0.9926
24619SOL    HW279820   0.663   2.575   7.615  1.3533 -0.2590 -0.2147
24620SOL     OW79821   2.717   8.769   7.091  0.0062 -0.4562 -0.1414
24620SOL    HW179822   2.797   8.764   7.143  0.3598  2.9195 -0.1343
24620SOL    HW279823   2.658   8.824   7.142 -0.2178  1.6570 -2.4458
24621SOL     OW79824   7.214   8.219   9.099  0.3727  0.7065 -0.2458
24621SOL    HW179825   7.248   8.270   9.173 -0.3981  1.8411 -0.6437
24621SOL    HW279826   7.129   8.259   9.080 -0.5318 -1.1057 -0.2101
24622SOL     OW79827   5.685   4.462   8.923 -0.1599 -0.1067  0.7470
24622SOL    HW179828   5.695   4.486   8.831 -1.3724  0.6628  0.7874
24622SOL    HW279829   5.699   4.543   8.971  0.8043 -0.5735  1.2791
24623SOL     OW79830   7.575   7.775   1.104 -0.0274  0.3594  0.6345
24623SOL    HW179831   7.503   7.812   1.155 -0.7564  1.7403 -1.2559
24623SOL    HW279832   7.534   7.744   1.024  1.0241 -2.0490  0.9534
24624SOL     OW79833   3.165   7.490   7.312  0.2653  0.2591 -0.1985
24624SOL    HW179834   3.093   7.548   7.338 -0.2747  0.0700 -1.2054
24624SOL    HW279835   3.147   7.470   7.220  2.3384  1.3332 -0.9178
24625SOL     OW79836   8.769   0.136   2.530 -0.2153 -0.4346 -0.1438
24625SOL    HW179837   8.837   0.179   2.479 -1.2678 -0.4026 -1.5731
24625SOL    HW279838   8.815   0.063   2.573  1.0512  0.5821  0.3158
24626SOL     OW79839   5.376   8.825   9.365 -0.0892  0.2658  0.3942
24626SOL    HW179840   5.321   8.854   9.292 -1.2447 -0.9423  0.7357
24626SOL    HW279841   5.315   8.783   9.425  1.1126 -0.3937  1.1921
24627SOL     OW79842   2.372   7.395   8.149  0.0106 -0.2175  0.1918
24627SOL    HW179843   2.353   7.451   8.074 -0.7593 -1.5586 -0.6481
24627SOL    HW279844   2.442   7.440   8.196 -0.3179  1.2390 -0.6601
24628SOL     OW79845   8.775   4.033   1.121 -0.7693  0.0143 -0.0248
24628SOL    HW179846   8.812   3.945   1.133 -0.4367  0.1757  0.1713
24628SOL    HW279847   8.696   4.033   1.174 -1.2685 -0.4618 -0.7539
24629SOL     OW79848   3.169   6.714   2.150  0.3882  0.4822 -0.0995
24629SOL    HW179849   3.169   6.799   2.195 -1.8303  0.2146  0.5602
24629SOL    HW279850   3.115   6.658   2.206  1.9056 -1.4331 -0.4532
24630SOL     OW79851   1.279   3.488   4.828 -0.0996  1.1553  0.1218
24630SOL    HW179852   1.240   3.572   4.801 -0.9360  0.7575  0.0463
24630SOL    HW279853   1.227   3.462   4.904  0.1171  0.6790  0.1067
24631SOL     OW79854   8.529   4.715   1.229 -0.7430  0.0549  0.9244
24631SOL    HW179855   8.515   4.687   1.139 -1.8584 -0.4369  1.2247
24631SOL    HW279856   8.562   4.638   1.274  2.0858  0.9067  0.4804
24632SOL     OW79857   1.974   4.525   0.523  0.2692 -0.4130 -0.4530
24632SOL    HW179858   1.947   4.433   0.514  3.0966 -1.3778 -0.1238
24632SOL    HW279859   2.018   4.529   0.608 -0.1375  1.3521 -0.2927
24633SOL     OW79860   1.475   4.936   7.343 -0.0395 -0.3219  0.5072
24633SOL    HW179861   1.497   5.023   7.309 -1.6745 -0.2467 -0.4677
24633SOL    HW279862   1.557   4.887   7.339  0.8875  1.1149  0.9711
24634SOL     OW79863   5.517   0.252   2.641  0.3559  0.0846 -0.4500
24634SOL    HW179864   5.572   0.265   2.564  0.9662 -1.2189 -0.2690
24634SOL    HW279865   5.521   0.158   2.658 -4.3300 -0.6973 -2.1701
24635SOL     OW79866   0.380   7.691   3.340 -0.3981 -0.0996  0.1830
24635SOL    HW179867   0.356   7.676   3.249  0.0707  0.9307 -0.1266
24635SOL    HW279868   0.323   7.761   3.369 -0.0012  0.1226  0.4358
24636SOL     OW79869   7.141   0.215   8.286  0.1433 -0.4790 -0.2513
24636SOL    HW179870   7.108   0.304   8.278 -0.0346 -0.3074  1.9797
24636SOL    HW279871   7.233   0.226   8.313  0.6625 -0.9925 -1.7083
24637SOL     OW79872   2.278   0.608   5.959 -0.1022  0.0959 -0.0381
24637SOL    HW179873   2.293   0.702   5.970 -0.2255  0.5851 -3.2201
24637SOL    HW279874   2.186   0.595   5.981  0.3713  0.2611  2.3702
24638SOL     OW79875   6.787   5.025   1.434  0.1781  0.8178  0.4088
24638SOL    HW179876   6.831   4.948   1.469  1.1053  0.1227 -2.0316
24638SOL    HW279877   6.854   5.069   1.381 -0.9752  1.9861 -0.1468
24639SOL     OW79878   2.611   6.184   4.585 -0.5755  0.0444  0.1198
24639SOL    HW179879   2.606   6.197   4.490  0.5844  2.3815  0.2973
24639SOL    HW279880   2.547   6.245   4.621 -0.1794  0.0333  0.8673
24640SOL     OW79881   6.883   2.876   7.128  0.1697  0.5005 -0.0954
24640SOL    HW179882   6.888   2.965   7.094 -0.8266  0.2288 -1.0092
24640SOL    HW279883   6.803   2.875   7.181  1.2190  0.6663  1.5510
24641SOL     OW79884   2.322   7.987   8.659 -0.3690 -0.2529 -0.0621
24641SOL    HW179885   2.394   7.940   8.616 -1.1758 -0.4069 -1.3088
24641SOL    HW279886   2.328   8.075   8.623  0.3932  0.2999  1.3509
24642SOL     OW79887   3.595   3.474   7.259  0.0548 -0.2578  0.3989
24642SOL    HW179888   3.642   3.555   7.279  0.4435  0.3682 -2.5682
24642SOL    HW279889   3.506   3.490   7.291  0.5300  0.6693  1.3215
24643SOL     OW79890   1.646   3.112   8.478  0.4543  0.2263  0.0638
24643SOL    HW179891   1.605   3.038   8.524  0.3474 -0.6912 -1.4360
24643SOL    HW279892   1.722   3.134   8.532 -2.1789  2.3943  3.2869
24644SOL     OW79893   0.042   6.482   7.416 -1.1587 -0.1383  0.1003
24644SOL    HW179894   0.103   6.411   7.433 -1.4800 -0.6245 -0.7630
24644SOL    HW279895  -0.037   6.458   7.464 -1.4719 -0.6573 -0.6767
24645SOL     OW79896   2.583   5.812   7.339  0.1359 -0.2835 -0.4154
24645SOL    HW179897   2.642   5.880   7.369 -0.9508  1.2474 -1.6022
24645SOL    HW279898   2.617   5.788   7.252 -0.1239 -0.4920 -0.4605
24646SOL     OW79899   7.785   5.046   2.386 -0.0672 -0.0985  0.6513
24646SOL    HW179900   7.800   5.090   2.469  0.6401 -1.2061  1.1391
24646SOL    HW279901   7.869   5.007   2.363 -0.3561 -0.1534 -0.3783
24647SOL     OW79902   1.931   4.132   1.330 -0.1579  0.4957  0.2387
24647SOL    HW179903   1.921   4.038   1.312 -3.3827  0.6402  0.7068
24647SOL    HW279904   1.961   4.135   1.421  1.0683 -0.0640 -0.1258
24648SOL     OW79905   6.372   1.950   0.624  0.4546 -0.0187  0.1307
24648SOL    HW179906   6.442   1.894   0.591  0.3312 -0.9392  1.3489
24648SOL    HW279907   6.395   2.038   0.594  2.6430 -0.1395  1.2517
24649SOL     OW79908   1.020   2.195   5.064 -0.2888  0.0866  0.1594
24649SOL    HW179909   0.983   2.171   4.978 -2.4063  1.3739  0.6338
24649SOL    HW279910   1.051   2.285   5.052 -0.5245  0.2444  0.7284
24650SOL     OW79911   8.014   7.670   8.761  0.1553  0.9130 -0.4760
24650SOL    HW179912   8.042   7.646   8.672  2.6234 -0.2118  0.5193
24650SOL    HW279913   8.076   7.737   8.789  0.8195 -0.3244  1.1671
24651SOL     OW79914   8.780   9.165   8.864  0.1847  0.2267 -0.1732
24651SOL    HW179915   8.754   9.166   8.772 -2.0863  2.9516  0.3689
24651SOL    HW279916   8.838   9.240   8.873  1.0733 -0.5163  0.4968
24652SOL     OW79917   4.986   6.954   4.564 -0.2716  0.0586 -0.5406
24652SOL    HW179918   4.944   6.902   4.633 -0.9046  1.8578  0.4813
24652SOL    HW279919   4.917   6.967   4.499  0.2319 -1.3534 -1.4037
24653SOL     OW79920   5.729   4.167   3.098  0.6921 -0.1067  0.4384
24653SOL    HW179921   5.774   4.249   3.120  0.9250  0.0636 -0.6093
24653SOL    HW279922   5.741   4.158   3.003 -3.9063  1.4682 -0.5541
24654SOL     OW79923   0.802   1.645   0.418  0.6313  0.3727 -0.3830
24654SOL    HW179924   0.721   1.607   0.452  0.9455 -0.8154 -0.9354
24654SOL    HW279925   0.830   1.707   0.486  0.8905 -1.4645  1.2652
24655SOL     OW79926   8.827   9.139   4.193 -1.0218  0.0167 -0.0129
24655SOL    HW179927   8.842   9.045   4.186 -0.3755  0.1608 -0.7246
24655SOL    HW279928   8.849   9.161   4.284  3.2883  0.1974 -0.8675
24656SOL     OW79929   4.964   0.443   1.615 -0.0503 -0.4228  1.1615
24656SOL    HW179930   4.940   0.479   1.530 -0.0902 -1.4104  0.7433
24656SOL    HW279931   5.052   0.477   1.631 -0.6635  1.1126  1.5100
24657SOL     OW79932   4.637   5.467   1.112 -0.3243 -0.2828 -0.2684
24657SOL    HW179933   4.605   5.554   1.086  0.5210  0.2529  0.3954
24657SOL    HW279934   4.676   5.432   1.032  0.9980  0.7644 -0.1399
24658SOL     OW79935   7.013   2.835   8.010 -0.0083 -0.3942  1.1948
24658SOL    HW179936   7.104   2.860   8.023  0.4440 -0.7841 -0.8446
24658SOL    HW279937   7.009   2.806   7.919 -2.1102 -0.6799  1.3276
24659SOL     OW79938   8.946   1.224   8.916  0.2562  0.1460  0.1390
24659SOL    HW179939   9.019   1.281   8.892 -0.9302  1.3119 -0.8333
24659SOL    HW279940   8.880   1.239   8.849 -0.9483 -0.7738  1.0620
24660SOL     OW79941   7.147   7.391   0.583  0.0123  0.0587 -0.6150
24660SOL    HW179942   7.225   7.428   0.624 -1.1491  1.7193  0.1941
24660SOL    HW279943   7.147   7.299   0.610  0.6208  0.5153  1.0482
24661SOL     OW79944   1.603   0.944   9.258 -0.2938  0.4457 -0.9814
24661SOL    HW179945   1.683   0.994   9.243  1.6749 -1.8520  1.0159
24661SOL    HW279946   1.554   0.995   9.322  0.7939  0.7408 -0.3528
24662SOL     OW79947   1.077   9.250   1.418 -0.4814  0.2681 -0.4289
24662SOL    HW179948   1.013   9.276   1.484 -0.3488  2.6739 -1.1814
24662SOL    HW279949   1.057   9.304   1.342  0.3710 -1.3187 -1.8416
24663SOL     OW79950   2.085   1.311   5.037 -1.0252 -0.0519 -0.3850
24663SOL    HW179951   2.143   1.237   5.050 -1.7844 -0.6970 -0.5805
24663SOL    HW279952   2.106   1.371   5.108 -1.3144 -1.0589  0.5895
24664SOL     OW79953   0.054   2.031   9.130  0.2127  0.4222 -0.3317
24664SOL    HW179954   0.041   2.110   9.077 -1.1851  1.0270  0.8611
24664SOL    HW279955  -0.022   1.976   9.111 -0.9713  1.1689  1.8675
24665SOL     OW79956   6.781   8.050   4.413 -0.2662  0.1961  0.1987
24665SOL    HW179957   6.741   8.009   4.489 -0.8267 -2.2506 -1.3231
24665SOL    HW279958   6.844   7.986   4.380  2.0959  2.3612  0.2143
24666SOL     OW79959   6.156   3.507   9.318 -0.1663  0.2730 -0.3893
24666SOL    HW179960   6.143   3.601   9.306  0.5731  0.4085 -0.1891
24666SOL    HW279961   6.227   3.501   9.383 -0.2748 -0.4217 -0.3291
24667SOL     OW79962   3.534   8.000   1.028  0.9128 -0.0081  0.6784
24667SOL    HW179963   3.554   7.908   1.011  0.3497 -0.3918  1.9068
24667SOL    HW279964   3.494   8.032   0.948  1.4267 -0.7323  0.1197
24668SOL     OW79965   4.139   6.748   6.779 -0.6223 -0.4580  0.5348
24668SOL    HW179966   4.200   6.675   6.777 -1.6710 -1.3474 -0.9235
24668SOL    HW279967   4.182   6.814   6.833  0.9179 -1.6460  0.8229
24669SOL     OW79968   0.960   7.696   6.785  0.0584 -0.0301 -0.2645
24669SOL    HW179969   0.939   7.677   6.876 -0.2457 -0.8793 -0.5008
24669SOL    HW279970   1.039   7.750   6.789 -1.1898  1.8410  0.5757
24670SOL     OW79971   1.015   0.715   6.239 -0.0069  0.1697 -0.1686
24670SOL    HW179972   1.056   0.718   6.153 -1.0438  2.1067 -0.6365
24670SOL    HW279973   1.025   0.803   6.274 -0.5612 -0.2986  1.2509
24671SOL     OW79974   5.496   7.225   1.840 -0.1235  0.0396 -0.1357
24671SOL    HW179975   5.579   7.271   1.846 -0.2543  0.5139 -1.5336
24671SOL    HW279976   5.435   7.289   1.804 -1.1569 -0.2488  1.0259
24672SOL     OW79977   8.658   0.626   1.378  0.1262  0.1151 -0.0734
24672SOL    HW179978   8.673   0.549   1.432  0.7960 -2.0346 -3.0764
24672SOL    HW279979   8.744   0.647   1.341 -0.4760  0.8027 -1.1588
24673SOL     OW79980   4.739   0.787   0.734 -0.1394 -0.2872  0.1202
24673SOL    HW179981   4.681   0.863   0.730 -1.2259 -1.1250 -1.3589
24673SOL    HW279982   4.816   0.813   0.684  0.4670  0.5861  1.4830
24674SOL     OW79983   9.300   8.458   6.385 -0.6011  0.1001 -0.1163
24674SOL    HW179984   9.268   8.418   6.466  1.2241  1.1070  1.1696
24674SOL    HW279985   9.226   8.509   6.353 -0.8990  0.9357  1.7749
24675SOL     OW79986   4.779   0.677   9.218 -0.7433  0.3524  0.4690
24675SOL    HW179987   4.768   0.767   9.190  1.5384  0.7651  0.6838
24675SOL    HW279988   4.755   0.677   9.311  0.2198  1.0134  0.7390
24676SOL     OW79989   3.008   6.026   6.198  0.4275  0.6733  0.3765
24676SOL    HW179990   2.952   6.097   6.166  0.2751  0.8777  1.0745
24676SOL    HW279991   3.002   6.033   6.293  2.0114  0.9779  0.4694
24677SOL     OW79992   6.050   2.330   2.906 -0.0558  0.4893 -0.4073
24677SOL    HW179993   6.134   2.285   2.911 -0.7533 -0.9033 -0.6027
24677SOL    HW279994   6.052   2.376   2.822  1.2523  2.0860  0.4547
24678SOL     OW79995   0.127   8.670   3.081  0.4472  0.3613  0.5415
24678SOL    HW179996   0.174   8.598   3.124 -1.6757 -1.5177 -0.0582
24678SOL    HW279997   0.100   8.728   3.152  1.3310  0.0168  1.1665
24679SOL     OW79998   2.558   0.295   0.670 -0.1875  0.3025  0.0182
24679SOL    HW179999   2.571   0.201   0.676 -0.1968  0.3748  2.8576
24679SOL    HW280000   2.644   0.330   0.649  0.1755 -0.2848  0.4886
24680SOL     OW80001   5.299   8.390   5.538  0.2853 -0.4578  0.0452
24680SOL    HW180002   5.389   8.360   5.553 -0.5425 -2.5947  1.2163
24680SOL    HW280003   5.254   8.371   5.621 -1.3983 -0.0304 -0.7355
24681SOL     OW80004   5.410   1.295   9.145  0.0392  1.0250  0.8009
24681SOL    HW180005   5.504   1.287   9.129 -0.1915 -0.9902  0.1571
24681SOL    HW280006   5.403   1.317   9.238  1.1439  1.5887  0.7636
24682SOL     OW80007   1.925   4.231   7.216  0.0025 -0.6558  0.3155
24682SOL    HW180008   1.880   4.311   7.189  0.7031  0.7683  3.0721
24682SOL    HW280009   2.003   4.228   7.161 -1.6551 -1.3887 -2.1928
24683SOL     OW80010   9.013   1.039   0.087 -0.0202 -0.0310  0.3607
24683SOL    HW180011   9.020   1.050   0.182 -0.2970 -1.8298  0.6096
24683SOL    HW280012   9.103   1.026   0.057  0.1995  1.6320  0.1925
24684SOL     OW80013   6.800   3.906   2.832 -0.0268  0.7017 -0.0046
24684SOL    HW180014   6.825   3.987   2.786 -0.0098  0.5827 -0.2051
24684SOL    HW280015   6.756   3.937   2.911 -2.4783  0.9477 -1.3505
24685SOL     OW80016   6.784   3.716   7.521  0.0765  0.3734 -0.2861
24685SOL    HW180017   6.789   3.701   7.427  0.6505 -3.6696  0.2055
24685SOL    HW280018   6.690   3.728   7.539 -0.0456  1.0192 -1.3116
24686SOL     OW80019   3.478   0.076   2.225  0.8775  0.5470 -0.0551
24686SOL    HW180020   3.493   0.020   2.149 -0.3383  1.5252 -1.0805
24686SOL    HW280021   3.404   0.131   2.199  0.6120  1.1025  1.7530
24687SOL     OW80022   2.334   6.050   7.925 -0.2974 -0.0817 -0.3992
24687SOL    HW180023   2.397   5.983   7.900  1.5232  1.7998 -1.1711
24687SOL    HW280024   2.383   6.132   7.921 -2.5042  1.3630  0.1405
24688SOL     OW80025   8.473   6.883   7.919  0.2947  0.3295  0.6235
24688SOL    HW180026   8.560   6.904   7.887  0.6431  1.8572  2.3867
24688SOL    HW280027   8.481   6.885   8.015 -1.7615  1.1174  0.8461
24689SOL     OW80028   9.077   4.293   0.491 -0.2935 -0.3554  0.7393
24689SOL    HW180029   8.999   4.239   0.475 -0.0306 -0.9419  1.4112
24689SOL    HW280030   9.065   4.369   0.433 -2.9238  1.1720  3.0135
24690SOL     OW80031   8.100   4.640   3.641  0.8020 -0.5186  0.5807
24690SOL    HW180032   8.099   4.722   3.691  1.4149  1.4104 -2.3354
24690SOL    HW280033   8.186   4.601   3.660 -0.0764 -1.4273  3.1955
24691SOL     OW80034   5.222   3.924   5.569 -0.4180  0.1986 -0.1577
24691SOL    HW180035   5.183   4.004   5.603  1.9654  0.9363  1.0891
24691SOL    HW280036   5.237   3.942   5.476  0.2438  1.2842  0.1477
24692SOL     OW80037   3.829   6.790   1.777 -0.6922 -0.2776  0.3899
24692SOL    HW180038   3.816   6.836   1.860 -1.1556  0.9976 -0.3663
24692SOL    HW280039   3.814   6.856   1.710  3.1978 -0.2434 -0.7315
24693SOL     OW80040   4.712   5.918   6.553 -0.3368 -0.2549 -0.4187
24693SOL    HW180041   4.785   5.904   6.614 -0.7810 -2.5385 -0.3358
24693SOL    HW280042   4.724   5.851   6.485 -1.5243  0.3027 -1.2115
24694SOL     OW80043   6.194   0.769   8.051 -0.3621 -0.0199 -0.2333
24694SOL    HW180044   6.169   0.774   7.959  0.7396 -1.2189 -0.6190
24694SOL    HW280045   6.125   0.717   8.092  0.2960 -1.4279 -0.8553
24695SOL     OW80046   4.346   3.574   4.559  0.0218  0.5936  0.3179
24695SOL    HW180047   4.261   3.615   4.542 -1.1873 -1.1039  1.8996
24695SOL    HW280048   4.409   3.630   4.514 -1.8424  2.3451 -0.2572
24696SOL     OW80049   4.163   2.559   2.104 -0.0492  0.0095 -0.1327
24696SOL    HW180050   4.249   2.600   2.092  0.2702 -1.0276 -1.7053
24696SOL    HW280051   4.163   2.485   2.043 -1.1307 -1.4945  1.6021
24697SOL     OW80052   6.910   1.268   9.124  0.3232  0.1826  0.6134
24697SOL    HW180053   6.896   1.298   9.213  0.4305  1.4436  0.2177
24697SOL    HW280054   6.848   1.319   9.071 -0.1892 -0.9911  0.0364
24698SOL     OW80055   8.701   9.028   6.452 -0.2566 -0.2247 -0.0661
24698SOL    HW180056   8.776   9.078   6.419 -1.4707  1.0832 -0.9557
24698SOL    HW280057   8.690   9.057   6.542 -0.7299  0.8914 -0.4674
24699SOL     OW80058   7.735   1.042   0.878 -0.0093  0.1856 -0.2037
24699SOL    HW180059   7.728   1.119   0.934 -2.1164 -0.1532  0.0710
24699SOL    HW280060   7.653   1.041   0.828 -0.1019 -1.9200 -0.1138
24700SOL     OW80061   0.555   5.434   6.879 -0.5363 -0.6587 -0.0386
24700SOL    HW180062   0.474   5.485   6.886 -0.4209 -0.5558  0.6198
24700SOL    HW280063   0.559   5.384   6.961  0.3879 -0.1771  0.2165
24701SOL     OW80064   8.967   3.721   5.890 -0.5719  0.0801 -0.0299
24701SOL    HW180065   8.995   3.679   5.971 -3.6416 -0.9420  0.6484
24701SOL    HW280066   8.983   3.656   5.822  0.1877  0.1807  0.0421
24702SOL     OW80067   1.113   3.637   2.896 -0.5844  0.0130 -0.3919
24702SOL    HW180068   1.054   3.564   2.875  1.8180 -2.6749  1.4362
24702SOL    HW280069   1.150   3.663   2.812 -1.3700 -1.0253 -1.0786
24703SOL     OW80070   4.445   4.630   6.888  0.5563 -1.1731  0.4734
24703SOL    HW180071   4.460   4.709   6.837 -0.1059 -1.0856  0.4072
24703SOL    HW280072   4.417   4.662   6.975 -0.2570 -1.3237  0.2784
24704SOL     OW80073   5.146   5.826   2.927 -0.4743 -0.9418  0.1369
24704SOL    HW180074   5.130   5.914   2.963 -0.0376 -0.5986 -0.4862
24704SOL    HW280075   5.173   5.774   3.003  2.0963  0.1886  0.0973
24705SOL     OW80076   5.156   1.347   1.257 -0.3339  0.2121  0.5564
24705SOL    HW180077   5.075   1.296   1.253  0.5724 -1.2397  0.0405
24705SOL    HW280078   5.155   1.385   1.345 -0.9345 -0.9085  1.0608
24706SOL     OW80079   8.915   3.489   6.434  0.0805  0.3034  0.0438
24706SOL    HW180080   8.841   3.547   6.451 -2.1775 -2.1567 -0.8061
24706SOL    HW280081   8.922   3.487   6.338 -2.2625 -3.3896 -0.2254
24707SOL     OW80082   3.199   4.734   3.340  0.2313  0.5911 -0.2815
24707SOL    HW180083   3.270   4.672   3.322 -0.7848 -0.8359  0.4619
24707SOL    HW280084   3.155   4.746   3.256  0.0957 -0.1307 -0.3151
24708SOL     OW80085   6.771   6.474   1.019 -0.2555  0.3881 -0.3553
24708SOL    HW180086   6.778   6.381   1.039  0.2020  1.0094  3.0217
24708SOL    HW280087   6.850   6.494   0.969 -0.4133 -1.0246 -1.2203
24709SOL     OW80088   8.722   1.858   3.467 -0.1707  0.4408  0.0510
24709SOL    HW180089   8.658   1.927   3.486 -0.9215 -0.1995 -0.0561
24709SOL    HW280090   8.715   1.843   3.373 -0.6220 -0.3361  0.1931
24710SOL     OW80091   7.655   3.496   9.340  0.1519  0.0613 -0.4324
24710SOL    HW180092   7.670   3.431   9.408  0.6991  0.3957 -0.2226
24710SOL    HW280093   7.614   3.447   9.268 -1.4574 -0.0705  0.5447
24711SOL     OW80094   0.536   1.739   6.328 -0.3606  0.1328 -0.3071
24711SOL    HW180095   0.498   1.690   6.255  3.1537 -2.1849 -0.8713
24711SOL    HW280096   0.533   1.679   6.402 -0.8212  1.1810  0.5598
24712SOL     OW80097   9.136   2.616   5.671  0.2937  0.2239  0.1371
24712SOL    HW180098   9.071   2.679   5.701 -0.1335  0.1894 -0.6894
24712SOL    HW280099   9.094   2.572   5.597  0.7634 -0.7073  0.4102
24713SOL     OW80100   6.142   5.008   2.998  0.4102 -0.3655  0.5232
24713SOL    HW180101   6.202   5.057   3.055  1.3348  0.9230 -1.4557
24713SOL    HW280102   6.197   4.980   2.924 -1.2959  0.4806 -1.1445
24714SOL     OW80103   2.653   0.413   1.145  0.1028  0.2591  0.0361
24714SOL    HW180104   2.677   0.352   1.076  1.0965 -0.0367  0.6284
24714SOL    HW280105   2.564   0.439   1.123  0.5030  0.4283 -1.5421
24715SOL     OW80106   5.385   7.597   8.783 -0.0542  0.1631  0.0577
24715SOL    HW180107   5.464   7.621   8.735 -0.0988 -0.4343 -0.3184
24715SOL    HW280108   5.353   7.518   8.740 -0.6224  0.1563  0.4749
24716SOL     OW80109   3.230   0.519   7.720 -0.1450  0.3474 -0.3949
24716SOL    HW180110   3.163   0.474   7.772  1.4686 -0.1910  1.2930
24716SOL    HW280111   3.279   0.449   7.678  1.4637  0.5139  1.0924
24717SOL     OW80112   3.915   6.810   9.276 -0.2618 -0.0396 -0.6894
24717SOL    HW180113   3.938   6.902   9.265  0.1173  0.0105  0.4253
24717SOL    HW280114   3.820   6.809   9.282 -0.2223  0.3581  0.0119
24718SOL     OW80115   0.166   2.559   6.606 -0.2335 -0.5000 -0.4448
24718SOL    HW180116   0.162   2.525   6.517  0.9257 -0.6049 -0.4730
24718SOL    HW280117   0.195   2.650   6.596 -2.6466  0.3584 -0.3239
24719SOL     OW80118   4.576   3.760   8.945  0.1181 -0.1673 -0.3348
24719SOL    HW180119   4.509   3.815   8.904  0.4159  0.2053 -0.3299
24719SOL    HW280120   4.656   3.812   8.941  0.8525 -1.3479 -2.0443
24720SOL     OW80121   9.312   2.402   7.314 -0.5955  0.6572 -0.3624
24720SOL    HW180122   9.331   2.471   7.377 -1.2162 -1.3361  2.1887
24720SOL    HW280123   9.217   2.394   7.315 -0.5561  0.0079 -0.8560
24721SOL     OW80124   2.112   2.923   1.087 -0.3991 -0.3698 -0.1498
24721SOL    HW180125   2.062   2.841   1.081 -2.2488  0.5990  0.9761
24721SOL    HW280126   2.097   2.966   1.002 -1.2765 -0.2292  0.0642
24722SOL     OW80127   9.116   4.519   0.325  0.6329  0.4704 -0.4891
24722SOL    HW180128   9.059   4.539   0.251  1.1032 -2.6787 -1.8397
24722SOL    HW280129   9.199   4.493   0.285  1.1390 -0.6066  1.1809
24723SOL     OW80130   8.099   9.232   1.702  0.0741  0.4588  0.3138
24723SOL    HW180131   8.090   9.284   1.622  0.4679  2.1035  1.2991
24723SOL    HW280132   8.012   9.236   1.742  0.5107  1.7474  1.1861
24724SOL     OW80133   4.368   2.225   6.632 -0.0651 -0.5562 -0.3277
24724SOL    HW180134   4.391   2.132   6.634 -1.5003 -0.9279 -0.3447
24724SOL    HW280135   4.291   2.230   6.575 -1.9691  0.1761  2.1362
24725SOL     OW80136   5.465   0.750   2.414 -0.3716 -0.2233  0.1378
24725SOL    HW180137   5.536   0.779   2.473 -0.7551 -1.5321  1.2933
24725SOL    HW280138   5.495   0.774   2.327  0.5995  1.0354  0.7884
24726SOL     OW80139   7.750   5.817   2.080 -0.2903  0.8431 -0.1513
24726SOL    HW180140   7.699   5.760   2.138  0.3529 -1.4375 -1.6756
24726SOL    HW280141   7.821   5.762   2.048  1.4899  3.0890 -0.3320
24727SOL     OW80142   5.654   0.789   4.232 -0.1369  0.2999  0.2080
24727SOL    HW180143   5.605   0.747   4.161 -0.7434  1.5139 -0.1126
24727SOL    HW280144   5.654   0.724   4.303 -1.2611 -0.1528 -0.1874
24728SOL     OW80145   0.759   4.683   1.420  0.2057  0.6792 -0.4987
24728SOL    HW180146   0.773   4.769   1.460 -0.1779  0.6281 -0.2489
24728SOL    HW280147   0.715   4.632   1.487  0.5428  0.2435 -0.6044
24729SOL     OW80148   8.651   8.036   2.292 -0.0710  0.4085  0.0625
24729SOL    HW180149   8.594   8.072   2.224 -0.6889  1.2436  0.9799
24729SOL    HW280150   8.597   7.971   2.337  0.2484  0.0396 -0.0857
24730SOL     OW80151   2.932   9.354   5.952  0.3260  0.0162 -0.0586
24730SOL    HW180152   3.009   9.342   6.008  0.8983 -0.4121 -0.9243
24730SOL    HW280153   2.881   9.421   5.997  2.4704  2.2699 -0.7599
24731SOL     OW80154   1.626   9.162   4.432 -0.1776  0.5975 -0.4078
24731SOL    HW180155   1.635   9.256   4.417 -0.0912  0.4089 -1.6203
24731SOL    HW280156   1.568   9.155   4.508 -1.0737  1.6132 -0.9752
24732SOL     OW80157   0.341   3.391   2.311 -0.5036  0.1339  0.1838
24732SOL    HW180158   0.384   3.472   2.284 -2.2028  0.5952 -1.3211
24732SOL    HW280159   0.287   3.417   2.386 -0.1936  0.1266  0.4134
24733SOL     OW80160   8.979   7.940   6.095 -0.0065 -0.2215 -0.1237
24733SOL    HW180161   9.031   7.938   6.176 -0.1891 -0.8415 -0.0167
24733SOL    HW280162   8.895   7.977   6.121 -0.2024 -0.7882  0.0548
24734SOL     OW80163   1.122   5.389   1.742  0.0654 -0.2120 -0.2674
24734SOL    HW180164   1.067   5.414   1.668 -1.0528 -2.6738 -0.3780
24734SOL    HW280165   1.067   5.406   1.819  0.6147  0.8338 -0.0919
24735SOL     OW80166   2.702   4.776   3.569  0.4655  0.2836 -0.4529
24735SOL    HW180167   2.662   4.734   3.493  0.5090 -2.7631  1.0690
24735SOL    HW280168   2.794   4.788   3.544 -0.2906  3.4692 -2.3888
24736SOL     OW80169   8.129   3.945   1.399  0.1737 -0.3685 -0.5121
24736SOL    HW180170   8.092   3.920   1.484 -0.3666  0.4342 -0.4992
24736SOL    HW280171   8.220   3.916   1.403  0.5375  0.8419  0.8681
24737SOL     OW80172   2.124   4.458   6.402 -0.2979  0.7005  0.1117
24737SOL    HW180173   2.212   4.422   6.409 -0.7483 -0.3100  0.8627
24737SOL    HW280174   2.134   4.551   6.424  0.3469  0.2534  1.8945
24738SOL     OW80175   8.416   2.440   2.343  1.1608  0.0774  0.3178
24738SOL    HW180176   8.388   2.530   2.327  0.1291 -0.2546  0.1966
24738SOL    HW280177   8.461   2.414   2.263 -0.1294 -0.1077 -0.3786
24739SOL     OW80178   7.183   3.972   2.251  0.0901 -0.1521 -0.0368
24739SOL    HW180179   7.109   3.965   2.191 -0.8777 -1.3527  1.2055
24739SOL    HW280180   7.235   3.893   2.234  1.9077  1.3505 -1.8612
24740SOL     OW80181   4.403   5.373   3.398  0.6039 -0.0385  0.1540
24740SOL    HW180182   4.453   5.437   3.448  1.4205  0.4458 -1.1992
24740SOL    HW280183   4.312   5.400   3.408  0.9931  2.0743 -1.2776
24741SOL     OW80184   1.365   4.235   7.518  0.0300  0.1500  0.1697
24741SOL    HW180185   1.351   4.160   7.576 -1.0165  0.2571  0.0693
24741SOL    HW280186   1.344   4.201   7.431  1.9314 -0.1095 -0.2210
24742SOL     OW80187   8.827   5.039   4.195 -0.0372  0.2812  1.3023
24742SOL    HW180188   8.744   5.006   4.162 -0.3110  0.7025  1.5542
24742SOL    HW280189   8.802   5.104   4.261  0.4922  0.2590  1.5283
24743SOL     OW80190   3.871   7.668   1.563  0.4172  0.2922 -0.4658
24743SOL    HW180191   3.900   7.656   1.473 -0.4768 -0.0847 -0.7126
24743SOL    HW280192   3.948   7.646   1.616  1.3543  1.7732 -1.1470
24744SOL     OW80193   3.803   4.093   0.429 -0.2030 -0.0815 -0.5993
24744SOL    HW180194   3.889   4.086   0.388 -0.5601 -2.4087 -1.1041
24744SOL    HW280195   3.741   4.082   0.357 -1.0336  2.9407 -0.4811
24745SOL     OW80196   4.200   4.968   7.787  0.1613  0.2862 -0.0312
24745SOL    HW180197   4.180   4.965   7.880 -1.9720  1.9261 -0.3821
24745SOL    HW280198   4.143   5.035   7.751  0.5550 -0.6342 -2.6375
24746SOL     OW80199   7.124   7.247   5.651  0.3313 -0.3170  0.3306
24746SOL    HW180200   7.204   7.196   5.635  0.9261  0.6878 -0.0378
24746SOL    HW280201   7.106   7.290   5.567  0.4154  0.8358  0.8831
24747SOL     OW80202   0.417   8.016   0.180  0.1602  0.1780 -0.0067
24747SOL    HW180203   0.326   7.987   0.170 -0.0978  1.2215 -0.9221
24747SOL    HW280204   0.433   8.072   0.104  1.0190  1.4322  1.0498
24748SOL     OW80205   1.745   1.084   0.452  0.1321  0.1209 -0.1232
24748SOL    HW180206   1.831   1.098   0.492  1.5140 -0.9438 -2.5118
24748SOL    HW280207   1.705   1.016   0.506  0.5302  0.9990  1.3286
24749SOL     OW80208   2.921   2.210   5.896 -0.3724 -0.2973 -0.2025
24749SOL    HW180209   3.015   2.226   5.906 -0.3010 -1.2013  0.6520
24749SOL    HW280210   2.885   2.296   5.873  0.4474  0.3986  0.9985
24750SOL     OW80211   5.515   4.701   4.593  0.1777  0.4345 -0.4947
24750SOL    HW180212   5.501   4.778   4.539 -0.4276  0.2369 -0.6259
24750SOL    HW280213   5.598   4.665   4.563 -1.0066 -0.7205 -2.5780
24751SOL     OW80214   7.451   3.905   1.714  0.5171  0.6961  0.0866
24751SOL    HW180215   7.544   3.892   1.697  0.4449  0.3791 -0.0835
24751SOL    HW280216   7.443   3.902   1.809  0.4407 -1.1055  0.0571
24752SOL     OW80217   0.661   7.528   2.339 -0.4196 -0.6323 -0.2324
24752SOL    HW180218   0.581   7.546   2.390  0.3160  0.5948  0.5371
24752SOL    HW280219   0.632   7.469   2.270 -1.7721 -1.1281  0.7017
24753SOL     OW80220   8.296   2.816   5.341  0.0569  0.6821  0.4729
24753SOL    HW180221   8.215   2.799   5.390 -0.4841 -0.4559 -0.7335
24753SOL    HW280222   8.360   2.756   5.380 -0.1617  0.3321  0.3034
24754SOL     OW80223   0.588   7.144   8.599  0.2113 -0.0622 -0.0235
24754SOL    HW180224   0.547   7.231   8.596 -0.9313 -0.4873  1.8781
24754SOL    HW280225   0.671   7.159   8.645 -1.3854 -0.3685  3.2539
24755SOL     OW80226   1.972   9.030   8.491  0.0828 -0.1230 -0.1910
24755SOL    HW180227   1.887   9.073   8.491 -0.4917 -1.1379  1.4108
24755SOL    HW280228   1.962   8.955   8.432 -0.3542 -0.5857  0.4535
24756SOL     OW80229   7.691   1.055   7.861  0.0173  0.2583  0.2188
24756SOL    HW180230   7.722   1.084   7.946  1.2639 -0.8291  0.1660
24756SOL    HW280231   7.726   1.119   7.799 -0.0584  0.4989  0.4253
24757SOL     OW80232   3.058   5.828   2.765 -0.0017 -0.0355  0.2740
24757SOL    HW180233   3.149   5.823   2.794 -0.2847 -0.3140  1.1458
24757SOL    HW280234   3.013   5.878   2.833 -0.2810  1.1461 -0.7364
24758SOL     OW80235   7.758   3.998   6.686  0.0880  0.0559  0.4949
24758SOL    HW180236   7.794   4.020   6.600 -1.8041  0.4712 -0.2424
24758SOL    HW280237   7.799   4.060   6.746 -1.2919  2.2771 -0.7374
24759SOL     OW80238   2.951   8.810   8.926 -0.1534 -0.1547  0.1371
24759SOL    HW180239   2.922   8.744   8.989 -0.1517  1.0234  1.4370
24759SOL    HW280240   2.896   8.886   8.945  0.1577  0.3698 -1.0092
24760SOL     OW80241   8.817   8.699   5.500  0.3504  0.0222 -0.3633
24760SOL    HW180242   8.774   8.782   5.479  2.0069  1.0675  0.1963
24760SOL    HW280243   8.757   8.657   5.561 -0.6394  0.6851 -0.8425
24761SOL     OW80244   0.312   1.207   8.409  0.2591 -0.5039  0.8285
24761SOL    HW180245   0.273   1.294   8.397 -1.6935 -1.2430  1.3218
24761SOL    HW280246   0.248   1.147   8.370  2.1545 -1.6656 -0.6641
24762SOL     OW80247   2.393   4.808   2.471 -0.6215 -0.1584 -0.0743
24762SOL    HW180248   2.316   4.821   2.415 -1.6877 -2.0335  0.8532
24762SOL    HW280249   2.376   4.863   2.548 -0.1885  0.7401 -0.6017
24763SOL     OW80250   1.508   6.553   8.086  0.4022 -0.4285  0.5614
24763SOL    HW180251   1.441   6.508   8.034 -0.1446  1.0934 -0.1022
24763SOL    HW280252   1.583   6.561   8.028  0.4922 -0.4678  0.6723
24764SOL     OW80253   1.053   2.111   8.107 -0.1449  0.0991  0.3183
24764SOL    HW180254   1.098   2.042   8.058  2.1535  2.8200 -1.7449
24764SOL    HW280255   0.987   2.144   8.046 -0.5431  0.3680  0.8892
24765SOL     OW80256   9.232   1.711   0.107 -0.5822  0.4932  0.0063
24765SOL    HW180257   9.321   1.709   0.141 -0.8914  0.7156  0.8578
24765SOL    HW280258   9.176   1.703   0.185 -1.3233  1.3399 -0.4131
24766SOL     OW80259   9.154   5.833   4.385 -0.4059  0.0719 -0.0535
24766SOL    HW180260   9.202   5.911   4.412 -0.5881  0.4421 -0.7910
24766SOL    HW280261   9.085   5.865   4.328 -0.9769 -0.5508  0.2766
24767SOL     OW80262   8.611   6.286   6.534 -0.7601  0.3288  0.0570
24767SOL    HW180263   8.635   6.204   6.489 -0.0640 -0.5230  1.8765
24767SOL    HW280264   8.517   6.293   6.521 -1.0759 -1.5272  0.9842
24768SOL     OW80265   7.510   2.347   4.904  0.1657 -0.0632  0.2184
24768SOL    HW180266   7.567   2.420   4.879  0.0108 -0.0689 -0.1603
24768SOL    HW280267   7.485   2.307   4.821  0.9722 -1.1063  0.4442
24769SOL     OW80268   3.277   2.128   4.490  0.2837 -0.4002  0.0893
24769SOL    HW180269   3.343   2.164   4.549  1.9452  0.4553 -2.1574
24769SOL    HW280270   3.278   2.034   4.507  0.4980 -0.1485  1.5915
24770SOL     OW80271   0.550   8.222   2.171 -0.1154  0.4855 -0.3460
24770SOL    HW180272   0.503   8.268   2.241  1.1022  0.5838  0.4376
24770SOL    HW280273   0.485   8.162   2.134 -0.2103 -1.3919  2.5174
24771SOL     OW80274   9.154   0.742   0.851 -0.2318  0.5636  0.3441
24771SOL    HW180275   9.060   0.741   0.864 -0.6200  0.7914 -2.1097
24771SOL    HW280276   9.177   0.651   0.833  0.1300  0.4160  1.4815
24772SOL     OW80277   5.748   2.382   6.772 -0.4122 -0.0441  0.3708
24772SOL    HW180278   5.826   2.347   6.728 -0.6793  0.0077 -0.1524
24772SOL    HW280279   5.720   2.312   6.831 -0.1196 -0.1612  0.3757
24773SOL     OW80280   2.691   8.351   1.058 -0.1231 -0.0247  0.2422
24773SOL    HW180281   2.652   8.306   0.983 -0.4430 -1.0646  1.0054
24773SOL    HW280282   2.783   8.361   1.034 -0.4934  0.9695 -0.8821
24774SOL     OW80283   1.744   5.354   8.508  0.0359 -0.0990  0.1269
24774SOL    HW180284   1.790   5.338   8.590 -0.1406 -2.3822 -0.1612
24774SOL    HW280285   1.813   5.354   8.441  0.0297  0.4587  0.1119
24775SOL     OW80286   8.844   8.069   7.556 -0.4864 -0.1913 -0.6383
24775SOL    HW180287   8.874   8.146   7.604 -0.0970 -0.2965 -0.7083
24775SOL    HW280288   8.835   8.002   7.623  0.5508 -0.4845 -0.7676
24776SOL     OW80289   5.394   7.841   3.447  0.4598  0.0891  0.1185
24776SOL    HW180290   5.353   7.778   3.507  0.3773  0.2268  0.2061
24776SOL    HW280291   5.399   7.922   3.497 -0.0434  0.3314 -0.2211
24777SOL     OW80292   8.718   4.822   4.500 -0.0068  0.3635  0.2767
24777SOL    HW180293   8.764   4.898   4.463  1.2125  0.5906  2.1540
24777SOL    HW280294   8.783   4.752   4.500 -1.4797 -1.1686 -2.6274
24778SOL     OW80295   7.025   5.302   9.057  0.0196  0.0033 -0.0927
24778SOL    HW180296   6.977   5.219   9.062  0.0311 -0.1858 -2.3085
24778SOL    HW280297   7.053   5.308   8.966 -1.0754  3.0990 -0.3215
24779SOL     OW80298   8.860   3.430   9.118 -0.3908 -0.1738 -0.5548
24779SOL    HW180299   8.876   3.341   9.149  0.3116 -0.5350 -1.8812
24779SOL    HW280300   8.766   3.444   9.132 -0.1175 -0.2695  1.7448
24780SOL     OW80301   4.867   6.930   5.091  0.0988 -0.7488 -0.1825
24780SOL    HW180302   4.845   6.872   5.164  0.3636 -0.4360  0.1469
24780SOL    HW280303   4.865   6.873   5.014  0.9815 -1.3444  0.2186
24781SOL     OW80304   9.266   1.932   3.377 -0.2501 -0.2139 -0.4729
24781SOL    HW180305   9.354   1.935   3.414 -0.0260  0.1215 -1.0354
24781SOL    HW280306   9.208   1.945   3.453  0.2230  1.0630 -0.3014
24782SOL     OW80307   4.926   4.642   8.147 -0.5243 -0.6019  0.0593
24782SOL    HW180308   5.001   4.702   8.151 -1.2204  0.2321  1.1815
24782SOL    HW280309   4.881   4.665   8.066 -0.8889  0.5525  0.5663
24783SOL     OW80310   6.406   6.315   5.934 -0.1117  0.2976 -0.2833
24783SOL    HW180311   6.346   6.241   5.928  0.2322  0.0758 -1.2943
24783SOL    HW280312   6.466   6.292   6.005 -0.8289  0.2391  0.3167
24784SOL     OW80313   7.560   9.018   3.092  0.2209  0.4951  0.6392
24784SOL    HW180314   7.500   8.945   3.107 -0.3754  1.1830  1.7595
24784SOL    HW280315   7.521   9.065   3.017 -0.4308  0.6959  1.0886
24785SOL     OW80316   7.439   2.952   5.210 -0.4894 -0.2641 -0.4414
24785SOL    HW180317   7.457   2.862   5.182 -3.1922 -0.8042 -0.6831
24785SOL    HW280318   7.378   2.986   5.145 -1.0624  1.0585  0.7382
24786SOL     OW80319   6.215   7.263   3.432 -0.0284 -0.2340 -0.1718
24786SOL    HW180320   6.205   7.252   3.526 -0.5956  2.0350  0.0775
24786SOL    HW280321   6.187   7.179   3.395  0.9270 -1.4363  1.6730
24787SOL     OW80322   9.369   7.197   2.125  0.2160 -0.0941 -0.2209
24787SOL    HW180323   9.315   7.276   2.124 -0.5862 -0.5788  1.2702
24787SOL    HW280324   9.311   7.129   2.160  0.7929 -1.4421 -1.7462
24788SOL     OW80325   5.259   1.436   2.406 -0.1809 -0.1323 -0.3215
24788SOL    HW180326   5.312   1.481   2.473 -0.2361 -0.0082 -0.3606
24788SOL    HW280327   5.322   1.413   2.338 -0.1377 -0.1868 -0.2625
24789SOL     OW80328   4.544   0.483   8.715  0.0079  0.3490  0.0193
24789SOL    HW180329   4.610   0.526   8.660 -0.6047  1.4320  0.1069
24789SOL    HW280330   4.590   0.464   8.796  0.8548 -1.0410 -0.7384
24790SOL     OW80331   3.433   5.308   5.557 -0.1810  0.7487  0.0774
24790SOL    HW180332   3.493   5.236   5.537 -1.3830 -0.7070  1.4574
24790SOL    HW280333   3.481   5.362   5.621 -0.4270 -0.6448  1.5065
24791SOL     OW80334   8.166   2.591   6.000  0.3639  0.2751 -0.1593
24791SOL    HW180335   8.213   2.512   6.026 -1.6662 -0.7626  0.5414
24791SOL    HW280336   8.189   2.655   6.067  1.3360  0.0552 -0.2530
24792SOL     OW80337   0.990   5.448   2.786 -0.0499  0.1549 -0.1786
24792SOL    HW180338   1.050   5.376   2.770  0.5751  0.5512  0.2891
24792SOL    HW280339   1.007   5.511   2.716 -1.0263 -0.4017 -0.9420
24793SOL     OW80340   3.592   7.690   6.503 -0.6030 -0.3426  0.0710
24793SOL    HW180341   3.629   7.777   6.522 -0.5634 -0.2897 -0.2450
24793SOL    HW280342   3.503   7.693   6.540 -0.4549 -0.3134  0.4295
24794SOL     OW80343   6.035   2.510   0.145  0.8909  0.0160 -0.2904
24794SOL    HW180344   5.975   2.497   0.217  0.2297  0.5651 -0.7294
24794SOL    HW280345   6.113   2.549   0.185  1.0915 -1.0040  0.3280
24795SOL     OW80346   1.077   2.036   7.557  0.0820  0.8216 -0.0483
24795SOL    HW180347   1.108   1.986   7.633  1.0113  0.7186 -0.4822
24795SOL    HW280348   1.129   2.116   7.559  0.4120  0.6277 -0.8187
24796SOL     OW80349   1.534   1.367   9.296  0.3865  0.6310  0.1545
24796SOL    HW180350   1.477   1.438   9.265 -0.5263  0.8061  2.0671
24796SOL    HW280351   1.489   1.287   9.270  0.3032  0.7677 -0.1198
24797SOL     OW80352   1.635   6.056   8.810  0.3597 -0.6416 -0.3735
24797SOL    HW180353   1.609   6.126   8.871  0.2129 -0.6309 -0.4490
24797SOL    HW280354   1.651   6.102   8.727  0.7372 -0.6296 -0.2976
24798SOL     OW80355   5.991   3.566   2.243 -0.2476  0.1000 -1.0401
24798SOL    HW180356   6.082   3.538   2.234 -0.1883  0.1572 -0.6513
24798SOL    HW280357   5.947   3.530   2.167 -0.7582 -3.4259  0.7397
24799SOL     OW80358   3.360   9.143   8.933 -0.2255  0.2688  0.1102
24799SOL    HW180359   3.345   9.103   9.018 -0.5856 -1.5968 -0.7806
24799SOL    HW280360   3.409   9.078   8.883 -4.1645 -0.9853 -2.7151
24800SOL     OW80361   0.741   6.679   1.545  0.3025  0.2457 -0.2503
24800SOL    HW180362   0.794   6.671   1.466  0.0073 -0.1198 -0.4174
24800SOL    HW280363   0.659   6.718   1.515 -0.2795 -1.0020 -0.3467
24801SOL     OW80364   5.696   9.240   5.157  0.6540 -0.2281 -0.3847
24801SOL    HW180365   5.715   9.268   5.246 -0.0994  0.9579 -0.5705
24801SOL    HW280366   5.769   9.273   5.105  0.2870  0.5085 -0.4432
24802SOL     OW80367   6.723   7.128   1.213 -0.1448 -0.3285  0.5955
24802SOL    HW180368   6.658   7.168   1.156  1.7613  0.4134 -1.1732
24802SOL    HW280369   6.731   7.038   1.181  1.0364  0.1305 -0.5189
24803SOL     OW80370   0.988   5.887   9.132  0.0551 -0.3587  0.1605
24803SOL    HW180371   0.964   5.930   9.214 -0.5868 -0.3066 -0.0423
24803SOL    HW280372   1.074   5.922   9.110  1.2209 -1.9447  1.8852
24804SOL     OW80373   1.654   0.543   1.094  0.1550 -0.2425 -0.1835
24804SOL    HW180374   1.665   0.497   1.177 -0.6634 -0.7360 -0.3377
24804SOL    HW280375   1.733   0.521   1.045  0.6738  0.1030  0.4787
24805SOL     OW80376   4.106   2.092   1.067 -0.1681 -0.4991 -0.0455
24805SOL    HW180377   4.149   2.170   1.104 -0.4322 -1.9869  3.7825
24805SOL    HW280378   4.174   2.051   1.013  0.3567  1.6420 -1.1455
24806SOL     OW80379   4.747   5.427   7.137 -0.2830 -0.0849 -0.6088
24806SOL    HW180380   4.802   5.408   7.061 -0.5402 -0.0400 -0.8077
24806SOL    HW280381   4.803   5.410   7.212  0.8435  2.3807 -0.8131
24807SOL     OW80382   5.299   9.360   0.465  0.1558  0.2326 -0.1599
24807SOL    HW180383   5.328   9.280   0.421 -0.5675 -0.4019  0.4726
24807SOL    HW280384   5.228   9.394   0.410  1.6706  1.4840 -1.4147
24808SOL     OW80385   6.191   8.448   1.325  0.6417 -0.2061  0.0594
24808SOL    HW180386   6.285   8.452   1.338  0.5772 -2.4467  2.0089
24808SOL    HW280387   6.179   8.393   1.248  0.9626 -0.5537  0.2518
24809SOL     OW80388   0.738   0.076   5.032  0.4294  0.1773 -0.9490
24809SOL    HW180389   0.683   0.006   5.066  1.0692 -0.0093 -0.2696
24809SOL    HW280390   0.760   0.129   5.108  1.0497  0.3414 -1.2274
24810SOL     OW80391   2.414   9.354   5.429  0.0826  0.4497  0.0729
24810SOL    HW180392   2.355   9.390   5.495  0.0415  1.6128 -0.5763
24810SOL    HW280393   2.470   9.293   5.477 -1.2705 -0.2526  0.7926
24811SOL     OW80394   2.967   8.079   8.556 -0.0347 -0.1409 -0.1681
24811SOL    HW180395   3.060   8.093   8.568  0.1774 -0.2540 -1.5367
24811SOL    HW280396   2.927   8.164   8.574  0.3534 -0.0216  0.1360
24812SOL     OW80397   2.733   0.452   3.781 -0.9206  0.1183  0.1757
24812SOL    HW180398   2.697   0.370   3.747 -0.4126  0.0913 -0.3281
24812SOL    HW280399   2.811   0.424   3.829 -1.4745  0.1868  1.1301
24813SOL     OW80400   6.103   1.509   3.752 -0.1825 -0.0794  0.3451
24813SOL    HW180401   6.148   1.561   3.819 -2.7938 -0.3389  2.4517
24813SOL    HW280402   6.129   1.419   3.770  1.1172  0.0523 -0.7002
24814SOL     OW80403   4.988   7.406   3.741 -0.1115 -0.2625  0.5268
24814SOL    HW180404   5.034   7.325   3.718 -0.2142  0.0176 -0.7454
24814SOL    HW280405   5.021   7.428   3.828  1.0098 -0.8986  0.2828
24815SOL     OW80406   8.600   1.146   4.502  0.2925  0.1107  0.3627
24815SOL    HW180407   8.512   1.170   4.529  0.0290  0.1517 -0.5107
24815SOL    HW280408   8.619   1.203   4.428  0.8673 -0.2309  0.2398
24816SOL     OW80409   0.092   1.220   0.267  0.2160  0.0471 -0.2497
24816SOL    HW180410   0.107   1.144   0.211  2.2411  0.2425 -0.0550
24816SOL    HW280411   0.140   1.201   0.347  2.3448  2.2108 -0.8615
24817SOL     OW80412   2.259   0.317   1.170  0.1118  0.2935  0.1980
24817SOL    HW180413   2.316   0.387   1.136  0.4360  0.0746  0.2888
24817SOL    HW280414   2.316   0.266   1.227  0.6717 -1.7381 -2.0106
24818SOL     OW80415   3.351   9.152   2.031 -0.2553 -0.3674 -0.2951
24818SOL    HW180416   3.432   9.201   2.018 -1.1880  0.6660 -2.6272
24818SOL    HW280417   3.368   9.066   1.992  0.1396 -0.6568  0.4802
24819SOL     OW80418   4.353   5.087   3.244  0.1570 -0.2893 -0.1412
24819SOL    HW180419   4.258   5.093   3.233  0.3143  0.6007 -1.1214
24819SOL    HW280420   4.373   4.996   3.224 -0.2444  0.0150 -2.1485
24820SOL     OW80421   3.894   0.326   5.882 -0.1322 -0.3402 -0.4815
24820SOL    HW180422   3.933   0.239   5.884  1.2778  0.2645 -0.2860
24820SOL    HW280423   3.877   0.347   5.974  0.5824  0.0220 -0.4226
24821SOL     OW80424   7.353   6.966   3.375 -0.2778 -0.6881 -0.0361
24821SOL    HW180425   7.376   6.909   3.448 -0.5476 -1.8744 -0.8506
24821SOL    HW280426   7.435   7.012   3.355 -0.2565 -0.1680  1.1336
24822SOL     OW80427   3.310   5.894   0.109  0.4606  0.5550 -0.0287
24822SOL    HW180428   3.239   5.831   0.120  1.6809 -1.2490 -1.8240
24822SOL    HW280429   3.390   5.844   0.127  1.3736  2.2599  0.9183
24823SOL     OW80430   4.636   0.683   5.400 -0.2639 -0.8699  0.2393
24823SOL    HW180431   4.718   0.722   5.429 -0.6037 -1.0399  1.4854
24823SOL    HW280432   4.663   0.603   5.354  0.2447 -1.2845  1.2328
24824SOL     OW80433   6.238   9.365   2.471 -0.3680  0.5846  0.1843
24824SOL    HW180434   6.281   9.340   2.553  0.0194 -1.9072 -0.7042
24824SOL    HW280435   6.299   9.428   2.431  0.9738 -0.5308  0.3948
24825SOL     OW80436   3.172   0.535   3.915  0.1095 -0.0782 -0.3551
24825SOL    HW180437   3.109   0.463   3.904  0.1572 -0.3568  0.9844
24825SOL    HW280438   3.239   0.517   3.850  0.3434 -1.5300  0.2309
24826SOL     OW80439   4.635   9.211   7.126 -0.0958  0.1519 -0.0447
24826SOL    HW180440   4.673   9.145   7.183 -0.2203 -0.1626 -0.3240
24826SOL    HW280441   4.674   9.293   7.156 -1.1357  0.1736  1.3488
24827SOL     OW80442   1.047   7.699   4.633  0.0996  0.2928  0.3762
24827SOL    HW180443   0.990   7.634   4.591  0.3632 -0.0448  0.5441
24827SOL    HW280444   1.070   7.661   4.717  1.2191  0.0766 -0.0139
24828SOL     OW80445   0.347   0.062   4.850 -0.1144  0.4587 -0.2954
24828SOL    HW180446   0.261   0.051   4.891 -0.3812  1.2680 -0.6110
24828SOL    HW280447   0.405   0.088   4.922  0.2739 -1.6749  0.2421
24829SOL     OW80448   6.115   3.458   7.254 -0.0314  0.6719  0.0765
24829SOL    HW180449   6.074   3.525   7.199  1.4226  2.0291  0.5576
24829SOL    HW280450   6.209   3.473   7.243  0.3306 -1.0101  0.5811
24830SOL     OW80451   7.848   2.678   7.768  0.3530 -0.0520 -0.0371
24830SOL    HW180452   7.891   2.619   7.706  0.9247  0.3291 -0.0077
24830SOL    HW280453   7.823   2.622   7.841 -0.6374 -0.5768 -0.7481
24831SOL     OW80454   8.460   3.502   2.405 -0.5666 -0.2895  0.4520
24831SOL    HW180455   8.410   3.534   2.330 -2.1282 -0.7146  1.2774
24831SOL    HW280456   8.395   3.488   2.474  0.7091 -0.7457  1.6190
24832SOL     OW80457   7.735   1.460   4.837 -0.5545 -0.2002  0.1471
24832SOL    HW180458   7.825   1.491   4.826 -0.0901 -1.7751 -0.7542
24832SOL    HW280459   7.739   1.365   4.823 -2.1477 -0.5223  1.3865
24833SOL     OW80460   0.147   3.120   3.301 -0.2775  0.2575 -0.3580
24833SOL    HW180461   0.226   3.066   3.295 -0.7913 -0.7619  1.4217
24833SOL    HW280462   0.180   3.207   3.324  0.3167 -0.3808  1.3799
24834SOL     OW80463   8.023   9.030   9.175 -0.1563  0.0369  0.1730
24834SOL    HW180464   8.091   8.971   9.143 -0.3244 -0.5186  0.8163
24834SOL    HW280465   8.061   9.117   9.168  0.0652 -0.1253 -0.8752
24835SOL     OW80466   6.073   8.752   6.040  0.3816  0.7212 -0.7397
24835SOL    HW180467   6.089   8.842   6.013  2.5429  0.3506 -0.8845
24835SOL    HW280468   6.150   8.704   6.009 -1.2613 -1.4312 -1.7681
24836SOL     OW80469   7.987   7.757   0.520  0.3393 -0.2744 -0.0232
24836SOL    HW180470   8.030   7.835   0.555  0.7273 -0.3624 -0.2921
24836SOL    HW280471   8.021   7.749   0.431  0.1977 -0.6705 -0.0441
24837SOL     OW80472   7.300   3.829   5.453  0.0832  0.5681 -0.5253
24837SOL    HW180473   7.374   3.829   5.393  1.6482  1.7471  1.2611
24837SOL    HW280474   7.268   3.920   5.452 -1.7500 -0.0253 -1.6573
24838SOL     OW80475   2.483   7.865   2.524 -0.1951  0.4085 -0.4946
24838SOL    HW180476   2.506   7.852   2.432  0.1976 -0.3642 -0.2942
24838SOL    HW280477   2.568   7.868   2.569 -0.3857  0.7944 -0.1572
24839SOL     OW80478   3.052   2.819   6.217  0.4024  0.1541 -0.3976
24839SOL    HW180479   3.027   2.786   6.130 -0.8567 -0.7979  0.2886
24839SOL    HW280480   3.094   2.744   6.260  1.0514  0.6312 -0.1954
24840SOL     OW80481   6.744   5.658   3.420 -0.7026 -0.1991  0.2854
24840SOL    HW180482   6.824   5.701   3.391 -0.0534 -0.8854  1.0084
24840SOL    HW280483   6.770   5.567   3.434 -1.1407 -0.0378  2.3564
24841SOL     OW80484   7.101   8.678   8.313 -0.0427  0.0725  0.0897
24841SOL    HW180485   7.047   8.641   8.383  0.1246  0.0180  0.1897
24841SOL    HW280486   7.082   8.772   8.316 -0.9015 -0.0684 -0.5356
24842SOL     OW80487   7.914   8.496   1.134  0.4503  0.7252  0.5085
24842SOL    HW180488   7.951   8.575   1.172  0.5376  0.7862  0.2978
24842SOL    HW280489   7.989   8.444   1.107  0.3916  0.6365  0.5149
24843SOL     OW80490   8.948   9.121   6.140  0.0387 -0.0149  0.7208
24843SOL    HW180491   8.897   9.187   6.186 -1.9663 -1.1267  0.2182
24843SOL    HW280492   9.037   9.129   6.176  0.1959  3.6626 -0.1205
24844SOL     OW80493   7.228   8.132   3.919 -0.5603 -0.4201 -0.5600
24844SOL    HW180494   7.239   8.187   3.997 -0.2354 -1.8226  0.4246
24844SOL    HW280495   7.205   8.046   3.954  0.7767 -1.3842 -1.9437
24845SOL     OW80496   5.772   8.323   5.838 -0.8934  0.2022  0.0254
24845SOL    HW180497   5.792   8.414   5.814  0.8206  0.1585  1.0807
24845SOL    HW280498   5.855   8.277   5.826 -1.4984 -1.0187  0.4261
24846SOL     OW80499   4.424   0.783   5.268  0.0614 -0.1088 -0.2621
24846SOL    HW180500   4.442   0.873   5.243  0.6236  0.0485  0.6661
24846SOL    HW280501   4.509   0.746   5.288 -0.1443 -0.9088 -0.7764
24847SOL     OW80502   3.472   6.438   5.601 -0.4496 -0.2615 -0.7503
24847SOL    HW180503   3.403   6.400   5.655 -1.5699  1.3770 -0.9702
24847SOL    HW280504   3.552   6.426   5.652 -1.4957  1.5250  1.4821
24848SOL     OW80505   4.407   7.803   5.794 -0.4943  0.4033  0.1213
24848SOL    HW180506   4.338   7.750   5.833  0.5493 -0.4812  0.8175
24848SOL    HW280507   4.453   7.743   5.735 -0.4506  1.0460 -0.5196
24849SOL     OW80508   3.030   7.224   2.742 -0.1082  0.5539 -0.5330
24849SOL    HW180509   3.006   7.317   2.745 -0.3958  0.4732 -0.2029
24849SOL    HW280510   3.122   7.224   2.719 -0.1679  0.9141 -0.7828
24850SOL     OW80511   5.561   2.273   6.621  0.4324  0.6126  0.4037
24850SOL    HW180512   5.608   2.325   6.686 -0.4874  1.2887  0.5422
24850SOL    HW280513   5.522   2.337   6.562 -0.2539  0.0663  0.2472
24851SOL     OW80514   7.551   1.691   3.463 -0.0639  0.2710  0.0308
24851SOL    HW180515   7.645   1.690   3.482 -0.1634 -0.4029  0.5121
24851SOL    HW280516   7.542   1.752   3.390  0.8150 -0.0353 -0.3483
24852SOL     OW80517   7.750   5.208   6.608  0.1777 -0.4022 -0.3959
24852SOL    HW180518   7.830   5.256   6.587 -0.7398  0.4323 -2.2769
24852SOL    HW280519   7.767   5.118   6.581  1.8751 -1.2921  3.0570
24853SOL     OW80520   7.402   0.156   1.503 -0.1761  0.3905 -0.2920
24853SOL    HW180521   7.449   0.169   1.585 -0.2036 -1.2351  0.0169
24853SOL    HW280522   7.444   0.079   1.463 -1.7843 -0.3780 -0.5784
24854SOL     OW80523   8.645   3.177   2.827  0.1389 -0.0412 -0.7042
24854SOL    HW180524   8.701   3.237   2.777  1.5044 -0.1006  0.6808
24854SOL    HW280525   8.596   3.234   2.886 -1.0958 -0.0192 -1.7108
24855SOL     OW80526   4.293   8.119   0.625  0.3439 -0.9743 -0.0666
24855SOL    HW180527   4.305   8.174   0.547 -1.0955  0.6233  0.7599
24855SOL    HW280528   4.374   8.129   0.675  0.8820 -1.2288 -0.8665
24856SOL     OW80529   5.009   2.139   2.400  0.0059  0.5828 -0.2313
24856SOL    HW180530   5.052   2.220   2.425  1.0585  0.2067 -0.7670
24856SOL    HW280531   5.076   2.089   2.354 -1.2134  0.2891 -1.7680
24857SOL     OW80532   3.002   5.719   4.734  0.1563  0.3388  0.0056
24857SOL    HW180533   3.094   5.719   4.760  0.0422  0.7716  0.4064
24857SOL    HW280534   2.993   5.797   4.680  0.2263 -0.1772 -0.7732
24858SOL     OW80535   0.869   6.207   1.871  0.1439 -0.0629  0.1080
24858SOL    HW180536   0.811   6.194   1.796  1.3969  0.8786 -1.0875
24858SOL    HW280537   0.951   6.164   1.845  1.4808  2.5193 -0.2525
24859SOL     OW80538   1.111   3.788   3.332 -0.1857 -0.0585  0.4472
24859SOL    HW180539   1.162   3.721   3.377  1.9966  1.4223  0.3358
24859SOL    HW280540   1.096   3.856   3.399 -3.9507 -1.3160  1.0900
24860SOL     OW80541   8.835   6.546   0.769 -0.2764  0.5400  0.3207
24860SOL    HW180542   8.875   6.482   0.829  0.0474  1.1892  0.8156
24860SOL    HW280543   8.873   6.630   0.796 -0.5296  0.9096 -0.4617
24861SOL     OW80544   6.374   4.735   8.691  0.2128  0.1442 -0.2427
24861SOL    HW180545   6.451   4.745   8.746  2.6624 -0.8339 -3.2561
24861SOL    HW280546   6.372   4.642   8.670 -2.2413  0.0142  0.2609
24862SOL     OW80547   8.679   2.057   8.600  0.1604 -0.4165 -0.4661
24862SOL    HW180548   8.720   2.025   8.680 -0.2891  0.7983  0.2803
24862SOL    HW280549   8.624   2.130   8.629  0.4926  0.4658 -1.9707
24863SOL     OW80550   4.917   3.366   4.207  0.3672  0.2458  0.5457
24863SOL    HW180551   4.926   3.304   4.279  0.2699 -0.8571 -0.3730
24863SOL    HW280552   4.834   3.343   4.166  1.2143 -0.2636 -0.9522
24864SOL     OW80553   4.459   4.859   0.655  0.0258  0.0841 -0.0293
24864SOL    HW180554   4.437   4.822   0.570 -0.3804  0.3390 -0.0366
24864SOL    HW280555   4.407   4.808   0.718  0.9842 -0.6863  0.1548
24865SOL     OW80556   7.106   8.869   2.733  0.8093 -0.4761 -0.3752
24865SOL    HW180557   7.116   8.841   2.823 -0.5220  0.0816 -0.0287
24865SOL    HW280558   7.103   8.787   2.682  1.0006 -0.8085  0.1479
24866SOL     OW80559   8.040   9.145   0.811  0.5399 -0.0739  0.5811
24866SOL    HW180560   8.023   9.111   0.723  0.6085  1.7591 -0.1862
24866SOL    HW280561   8.122   9.103   0.837 -0.6692 -2.4491  0.7920
24867SOL     OW80562   8.935   4.113   6.814 -0.0940 -0.7156  0.3781
24867SOL    HW180563   8.853   4.148   6.779  0.6518  0.8123  0.0924
24867SOL    HW280564   8.998   4.184   6.805  0.5612 -0.7946  3.3910
24868SOL     OW80565   7.387   1.977   5.764 -0.1237  0.2644  0.0422
24868SOL    HW180566   7.356   1.902   5.713  0.6081  1.4536 -2.3261
24868SOL    HW280567   7.446   1.940   5.829 -0.1390 -1.2640 -0.7687
24869SOL     OW80568   8.277   9.229   2.254  0.0384  0.7826 -0.4243
24869SOL    HW180569   8.332   9.297   2.292  1.6381  0.2476 -1.6577
24869SOL    HW280570   8.222   9.275   2.191  3.1203  0.7627 -3.4367
24870SOL     OW80571   1.010   3.273   4.225 -0.2230  0.5320 -0.7656
24870SOL    HW180572   1.103   3.267   4.202  0.6427  1.8498  1.9744
24870SOL    HW280573   0.990   3.189   4.265  0.3215  0.8520  0.2194
24871SOL     OW80574   0.139   5.829   7.583  0.0078  0.0541  0.4220
24871SOL    HW180575   0.182   5.769   7.643 -0.0559  0.5052  0.9266
24871SOL    HW280576   0.102   5.897   7.639 -0.4947  0.2086 -0.0866
24872SOL     OW80577   8.074   7.822   7.265 -0.5009 -0.0655  0.6210
24872SOL    HW180578   8.065   7.874   7.345 -0.5601  1.2235 -0.1973
24872SOL    HW280579   8.151   7.858   7.222 -1.4713  0.4755 -0.7540
24873SOL     OW80580   8.751   8.435   4.966 -0.2697 -0.1989 -0.1569
24873SOL    HW180581   8.770   8.363   4.906  0.2670 -0.0825 -0.1355
24873SOL    HW280582   8.689   8.490   4.918 -0.1424 -0.3094 -0.4519
24874SOL     OW80583   4.416   5.238   8.503  0.1265  0.0482 -0.5070
24874SOL    HW180584   4.419   5.219   8.596  2.6916  2.0387 -0.0716
24874SOL    HW280585   4.394   5.155   8.462 -1.7180 -0.7245  1.8664
24875SOL     OW80586   3.703   6.324   0.001  0.2000 -0.0387  0.2478
24875SOL    HW180587   3.756   6.324  -0.079  1.1134 -0.0904  0.8395
24875SOL    HW280588   3.677   6.233   0.012 -2.0590  0.3440 -1.3414
24876SOL     OW80589   3.165   9.184   7.278 -0.2994  0.3516  0.0500
24876SOL    HW180590   3.189   9.168   7.369 -0.4680 -0.9724 -0.1175
24876SOL    HW280591   3.143   9.277   7.275 -0.7833  0.3033  1.4708
24877SOL     OW80592   6.269   4.131   7.565 -0.4992 -0.2759  0.1486
24877SOL    HW180593   6.197   4.190   7.541 -0.8743 -0.6561  0.3180
24877SOL    HW280594   6.327   4.132   7.490 -2.7940 -3.2553 -1.9137
24878SOL     OW80595   8.132   6.677   5.448 -0.2925  0.3636  0.4257
24878SOL    HW180596   8.149   6.652   5.358 -0.0288  2.0950 -0.0508
24878SOL    HW280597   8.063   6.618   5.478 -1.1306  0.4398 -1.2544
24879SOL     OW80598   6.199   6.091   9.116 -0.0316 -0.7550  0.0539
24879SOL    HW180599   6.118   6.090   9.166 -0.4200 -1.1605 -0.5720
24879SOL    HW280600   6.252   6.022   9.155 -0.0518 -0.6127  0.3427
24880SOL     OW80601   5.665   3.926   5.115 -0.2107 -0.2194 -0.0941
24880SOL    HW180602   5.671   4.009   5.163 -2.5674  0.7632 -1.2942
24880SOL    HW280603   5.670   3.952   5.022 -0.7547 -1.4324 -0.4820
24881SOL     OW80604   4.564   9.253   8.266 -0.0144  0.2281 -0.0967
24881SOL    HW180605   4.502   9.186   8.238  0.1037  0.5036 -1.0851
24881SOL    HW280606   4.651   9.215   8.250  0.0528  0.4566 -0.3024
24882SOL     OW80607   3.795   0.078   3.091  0.1039 -0.0361  0.3556
24882SOL    HW180608   3.734   0.030   3.147  0.6139 -0.3751  0.6282
24882SOL    HW280609   3.809   0.021   3.016 -1.0159  0.6619 -0.4046
24883SOL     OW80610   3.603   8.914   0.613 -0.1075 -0.1148  0.0258
24883SOL    HW180611   3.562   8.907   0.700 -0.9568  1.0433 -0.2505
24883SOL    HW280612   3.557   8.987   0.571  0.3970 -0.5621 -1.3486
24884SOL     OW80613   1.343   4.080   2.823  0.0220 -0.4896  0.3456
24884SOL    HW180614   1.282   4.011   2.797  0.2920 -0.6234  0.0553
24884SOL    HW280615   1.288   4.146   2.864 -0.3877 -0.3736 -0.3732
24885SOL     OW80616   1.790   3.325   3.418  0.2538 -0.3586 -0.5000
24885SOL    HW180617   1.753   3.282   3.340 -4.0283  1.1796  0.4006
24885SOL    HW280618   1.810   3.414   3.388 -1.4128  0.2385  0.0652
24886SOL     OW80619   0.605   9.299   3.112 -0.2248  0.2432  0.2117
24886SOL    HW180620   0.623   9.206   3.093 -2.1246 -0.2082  0.4568
24886SOL    HW280621   0.634   9.310   3.203  0.3048 -0.0155  0.0815
24887SOL     OW80622   1.668   6.027   2.567  0.1464 -0.2236  0.1826
24887SOL    HW180623   1.736   5.968   2.533 -1.5529 -0.2516 -3.6671
24887SOL    HW280624   1.696   6.114   2.539 -1.3640 -0.2527 -1.5613
24888SOL     OW80625   2.161   4.343   1.154 -0.3904 -0.3509  0.1701
24888SOL    HW180626   2.077   4.385   1.174 -1.1916 -1.3945 -0.8379
24888SOL    HW280627   2.167   4.271   1.218 -0.4074 -0.4459  0.0657
24889SOL     OW80628   8.191   5.779   4.118 -0.5207  0.2041 -0.3899
24889SOL    HW180629   8.133   5.835   4.066  0.4240  0.6228 -1.0318
24889SOL    HW280630   8.254   5.745   4.055  1.0552  1.2286  0.5469
24890SOL     OW80631   0.457   6.295   1.388  0.1816 -0.5632 -0.4780
24890SOL    HW180632   0.520   6.260   1.451  0.9773  1.5805 -0.0049
24890SOL    HW280633   0.509   6.351   1.330 -1.2066  1.0561 -0.2412
24891SOL     OW80634   0.001   6.265   4.569  0.3282  0.2327  0.3443
24891SOL    HW180635   0.017   6.358   4.556 -0.8591  0.1760 -2.2061
24891SOL    HW280636   0.068   6.237   4.631  2.1257  2.3461 -0.5227
24892SOL     OW80637   7.933   9.288   3.672 -0.0060  0.3548  0.0372
24892SOL    HW180638   7.961   9.323   3.587  1.8751 -1.2808 -0.0641
24892SOL    HW280639   7.838   9.306   3.674  0.2617  2.3732 -1.4131
24893SOL     OW80640   6.074   6.863   3.085  0.0829  0.2296  0.1798
24893SOL    HW180641   6.114   6.780   3.113  1.3593  0.6762 -0.2324
24893SOL    HW280642   5.980   6.846   3.085  0.2905 -1.0261  0.7069
24894SOL     OW80643   1.567   2.432   1.410 -0.0712  0.2251 -0.1936
24894SOL    HW180644   1.507   2.366   1.373 -1.6407  1.0221  0.8075
24894SOL    HW280645   1.621   2.382   1.471  0.5435 -0.5746 -1.3503
24895SOL     OW80646   8.962   4.371   1.547  0.1645 -0.1082 -0.3116
24895SOL    HW180647   8.979   4.456   1.587  0.2512  0.8372 -2.2679
24895SOL    HW280648   8.955   4.389   1.453 -0.5649 -2.1472 -0.7016
24896SOL     OW80649   7.329   8.650   6.189 -0.0485 -0.2754 -0.8150
24896SOL    HW180650   7.239   8.683   6.189 -0.4463 -1.2239  0.9575
24896SOL    HW280651   7.383   8.727   6.174 -1.0782  0.7120  0.3540
24897SOL     OW80652   6.151   0.398   7.984 -0.5714  0.0598 -0.7700
24897SOL    HW180653   6.179   0.340   8.054 -1.9658 -0.3404 -0.4962
24897SOL    HW280654   6.094   0.462   8.027 -1.4230 -0.1720 -1.5064
24898SOL     OW80655   7.431   3.015   6.962  0.0564  0.3204 -0.2489
24898SOL    HW180656   7.440   2.949   7.030  2.9535 -0.9828 -1.7436
24898SOL    HW280657   7.343   3.001   6.927 -0.4279 -0.8313  1.3047
24899SOL     OW80658   2.459   1.509   3.997  0.1445 -0.5779 -0.3968
24899SOL    HW180659   2.484   1.593   4.036  0.5234 -0.4003 -1.0027
24899SOL    HW280660   2.504   1.444   4.050 -0.7665 -0.4560  0.5597
24900SOL     OW80661   1.584   9.267   8.591  0.4651  0.4351 -0.1400
24900SOL    HW180662   1.584   9.224   8.677  2.0514  1.5756  0.4696
24900SOL    HW280663   1.634   9.209   8.534  0.2752  0.1678 -0.0331
24901SOL     OW80664   5.054   4.620   6.886 -0.1258 -0.3442 -0.7798
24901SOL    HW180665   5.070   4.643   6.795  1.0806  1.1660 -0.2307
24901SOL    HW280666   5.112   4.678   6.936 -1.3947 -0.5312  0.9940
24902SOL     OW80667   8.932   0.794   8.125  0.1637  0.1162 -0.6230
24902SOL    HW180668   8.853   0.744   8.146  0.6197 -0.8146 -1.0351
24902SOL    HW280669   8.902   0.884   8.114 -0.4241  0.2756  1.8448
24903SOL     OW80670   6.017   8.837   5.713 -0.0115 -0.0355 -0.2355
24903SOL    HW180671   6.088   8.830   5.776 -0.0101 -1.2190 -0.3526
24903SOL    HW280672   6.050   8.897   5.646  1.0843 -0.9554 -0.5433
24904SOL     OW80673   8.162   1.300   6.600 -0.1063 -0.5952  0.1010
24904SOL    HW180674   8.212   1.220   6.611  0.1248 -0.5823 -0.8091
24904SOL    HW280675   8.185   1.331   6.512 -0.5318  0.2268  0.2718
24905SOL     OW80676   1.054   3.900   3.086  0.0567  0.5697  0.3150
24905SOL    HW180677   1.117   3.873   3.020 -0.8855  0.4431 -0.5554
24905SOL    HW280678   1.067   3.839   3.159  0.8068  0.4366  0.0753
24906SOL     OW80679   3.382   5.775   0.638  0.0728 -0.2420  0.0753
24906SOL    HW180680   3.295   5.738   0.625  0.0253 -0.2428  0.3744
24906SOL    HW280681   3.382   5.804   0.730 -0.4570  2.0026 -0.5878
24907SOL     OW80682   6.912   5.335   4.695 -0.0914  0.2372  0.2832
24907SOL    HW180683   6.956   5.414   4.726 -0.1774  0.0222  0.9677
24907SOL    HW280684   6.849   5.314   4.763 -0.7744  0.1419 -0.3654
24908SOL     OW80685   5.028   2.420   1.700  0.8099  0.4235  0.3995
24908SOL    HW180686   5.052   2.495   1.754 -3.8383  3.5989 -1.2769
24908SOL    HW280687   5.015   2.457   1.612 -2.1006 -2.1711 -0.4484
24909SOL     OW80688   5.240   2.264   7.590 -0.0733 -0.2482  0.2665
24909SOL    HW180689   5.273   2.344   7.548 -0.3368 -0.0866  0.3651
24909SOL    HW280690   5.226   2.203   7.518  3.0257 -1.3033  0.3977
24910SOL     OW80691   6.371   2.861   1.434  0.1703 -0.5047  0.9452
24910SOL    HW180692   6.461   2.850   1.464  0.4067  1.0046  0.8617
24910SOL    HW280693   6.379   2.909   1.352 -0.7086 -0.3894  0.9204
24911SOL     OW80694   1.094   2.725   5.043 -0.2025 -0.6707  0.2279
24911SOL    HW180695   1.034   2.757   4.976  0.1827 -1.5608 -0.5763
24911SOL    HW280696   1.104   2.631   5.023  2.0161 -0.4151 -0.1318
24912SOL     OW80697   3.582   6.640   6.373 -0.0248 -0.0674 -0.3866
24912SOL    HW180698   3.497   6.684   6.373 -0.1024 -0.2165 -0.0603
24912SOL    HW280699   3.646   6.711   6.367 -0.1393  0.1162  0.4605
24913SOL     OW80700   0.674   6.352   8.628 -0.1793  0.0468  0.3912
24913SOL    HW180701   0.725   6.273   8.610 -1.7986 -0.8666 -0.4357
24913SOL    HW280702   0.620   6.329   8.703 -2.7904 -0.7685 -1.5904
24914SOL     OW80703   8.995   1.563   8.385 -0.6764  0.1082  0.5136
24914SOL    HW180704   8.985   1.656   8.368  2.2237  0.0250 -2.8792
24914SOL    HW280705   9.064   1.558   8.452 -1.1323  0.3844  1.0083
24915SOL     OW80706   4.937   6.800   1.335  0.6298  0.4196 -0.5977
24915SOL    HW180707   5.024   6.779   1.369  0.0525 -0.3806  0.4653
24915SOL    HW280708   4.878   6.741   1.383 -0.6476  1.8994 -0.2777
24916SOL     OW80709   3.445   1.281   8.634 -0.0671  0.1936 -0.4970
24916SOL    HW180710   3.457   1.348   8.702 -3.5984  2.0959 -1.5206
24916SOL    HW280711   3.386   1.217   8.674  0.6018 -0.5645 -0.6846
24917SOL     OW80712   2.312   7.895   1.561  0.2655  0.4501  0.4930
24917SOL    HW180713   2.260   7.939   1.494  1.3300 -0.2267 -0.8272
24917SOL    HW280714   2.400   7.889   1.523  0.9687  0.2749  2.0686
24918SOL     OW80715   0.939   1.812   6.683  0.7985  0.9200 -0.3520
24918SOL    HW180716   0.950   1.719   6.662  0.1285  0.8590 -0.4535
24918SOL    HW280717   0.926   1.854   6.598  0.9129  1.0801 -0.2906
24919SOL     OW80718   3.968   5.886   5.778  0.0600  0.4302  0.5184
24919SOL    HW180719   3.972   5.951   5.849 -1.4478 -0.6578  1.6734
24919SOL    HW280720   3.981   5.802   5.822 -2.5724 -0.4295 -0.1742
24920SOL     OW80721   3.081   3.271   7.404  0.5531  0.0010 -0.0749
24920SOL    HW180722   3.151   3.337   7.402 -0.9765  1.7175 -2.0798
24920SOL    HW280723   3.125   3.190   7.427  3.0192  1.2055 -0.2200
24921SOL     OW80724   0.833   1.512   8.802  0.1508 -0.3050 -0.2110
24921SOL    HW180725   0.741   1.506   8.826 -0.2113 -0.0268 -1.4503
24921SOL    HW280726   0.832   1.523   8.707  1.5028 -1.3018 -0.3689
24922SOL     OW80727   0.196   2.788   3.350 -0.0712  0.0168  0.2200
24922SOL    HW180728   0.216   2.831   3.267  1.0399 -1.3110 -0.2395
24922SOL    HW280729   0.112   2.826   3.377 -0.8920 -0.1220 -1.9296
24923SOL     OW80730   1.933   6.122   3.189  0.0561 -0.0949  0.0331
24923SOL    HW180731   1.950   6.181   3.261 -0.4478  0.1573 -0.0541
24923SOL    HW280732   1.974   6.163   3.113 -0.2455  0.1169 -0.0161
24924SOL     OW80733   0.313   0.810   4.614  0.5387  0.0015  0.5034
24924SOL    HW180734   0.246   0.796   4.547 -0.2229  2.6658  0.6296
24924SOL    HW280735   0.285   0.889   4.660  3.7755  1.2510  0.5446
24925SOL     OW80736   5.085   2.653   4.696  0.1101 -0.0322 -0.2407
24925SOL    HW180737   5.067   2.741   4.730  0.0290 -0.2882  0.3840
24925SOL    HW280738   5.166   2.627   4.740 -0.9062 -1.0576  1.1048
24926SOL     OW80739   8.168   3.683   6.609 -0.3192 -0.0915 -0.0292
24926SOL    HW180740   8.143   3.754   6.549 -1.3585 -0.2473  0.2189
24926SOL    HW280741   8.180   3.726   6.693  2.1676  0.3176 -0.4894
24927SOL     OW80742   8.226   7.333   5.657 -0.0249 -0.0600 -0.3407
24927SOL    HW180743   8.296   7.381   5.613  0.5430  0.9523  1.5461
24927SOL    HW280744   8.204   7.262   5.597  2.5052 -0.3267 -1.0787
24928SOL     OW80745   0.385   8.435   7.182  0.3082 -0.2361 -0.0054
24928SOL    HW180746   0.438   8.356   7.197  1.6570  0.6294 -0.0826
24928SOL    HW280747   0.361   8.465   7.270 -1.5241 -1.5402  0.0092
24929SOL     OW80748   6.476   3.641   2.469  0.1478  0.3733 -0.0139
24929SOL    HW180749   6.487   3.577   2.539  2.9992  1.5899  0.7985
24929SOL    HW280750   6.435   3.592   2.398  0.4034 -1.8092  1.2485
24930SOL     OW80751   0.191   6.207   4.746  0.1144 -0.3851  0.0420
24930SOL    HW180752   0.278   6.216   4.707 -0.1818 -1.8840 -1.0541
24930SOL    HW280753   0.204   6.146   4.819  0.3057  0.8668  1.0770
24931SOL     OW80754   4.187   7.940   2.255 -0.3992  0.4174 -0.0606
24931SOL    HW180755   4.208   7.857   2.211  0.3339  1.1188 -1.0758
24931SOL    HW280756   4.213   8.008   2.192 -1.3310  1.4208  0.6049
24932SOL     OW80757   9.151   9.294   6.250 -0.1909  0.1166 -0.2470
24932SOL    HW180758   9.115   9.377   6.281 -1.4363 -0.5534  0.1867
24932SOL    HW280759   9.175   9.310   6.159  0.1038  1.1054  0.0008
24933SOL     OW80760   0.169   5.748   3.941  0.3306 -0.1877 -0.7428
24933SOL    HW180761   0.170   5.659   3.906 -1.9961  0.0837 -1.6578
24933SOL    HW280762   0.165   5.736   4.036  0.4907 -1.0333 -0.8300
24934SOL     OW80763   4.885   5.844   0.249  0.2848 -0.0348 -0.5732
24934SOL    HW180764   4.835   5.909   0.299  0.7799  0.8429 -1.1968
24934SOL    HW280765   4.911   5.889   0.169  0.5676 -1.0348 -1.0643
24935SOL     OW80766   8.630   7.205   0.669  0.0602  0.1525  0.4901
24935SOL    HW180767   8.570   7.245   0.606  0.3326  0.8690  0.6868
24935SOL    HW280768   8.587   7.122   0.692  0.1024 -0.2799 -0.8564
24936SOL     OW80769   8.832   8.778   7.577  0.0288 -0.2360 -0.4128
24936SOL    HW180770   8.788   8.833   7.642  0.2973 -0.6017  0.0834
24936SOL    HW280771   8.845   8.836   7.502 -1.0676 -0.0498 -0.4774
24937SOL     OW80772   1.167   5.332   2.461  0.2982  0.3671 -0.5798
24937SOL    HW180773   1.182   5.269   2.390 -1.1104 -0.0009 -0.5814
24937SOL    HW280774   1.231   5.401   2.445  1.4522 -0.7434 -0.9571
24938SOL     OW80775   1.947   1.383   6.305 -0.0322 -0.3164  0.1823
24938SOL    HW180776   1.924   1.344   6.389  2.3956 -0.3060  0.9198
24938SOL    HW280777   1.866   1.424   6.275 -0.4090  2.1076  3.8486
24939SOL     OW80778   3.753   3.972   3.175 -0.3561  0.2935 -0.4140
24939SOL    HW180779   3.796   4.035   3.117 -1.2176  1.6855  0.3933
24939SOL    HW280780   3.738   3.895   3.120 -0.6290  1.3408 -1.8728
24940SOL     OW80781   0.521   1.934   7.092  0.0000 -0.0150  0.0631
24940SOL    HW180782   0.593   1.884   7.054  0.2582  0.7539 -0.4813
24940SOL    HW280783   0.447   1.917   7.034  0.2378  0.6839 -0.4498
24941SOL     OW80784   5.462   2.441   5.928  0.0601 -0.4871  0.1953
24941SOL    HW180785   5.510   2.430   5.847 -1.3273  1.3546 -0.9507
24941SOL    HW280786   5.509   2.509   5.976  0.1215 -0.6110  0.3113
24942SOL     OW80787   8.977   0.462   9.103 -0.1856 -0.5998 -0.2845
24942SOL    HW180788   8.993   0.550   9.138 -2.4570 -0.9094  1.8688
24942SOL    HW280789   8.966   0.407   9.181 -2.6680 -1.9601 -1.4517
24943SOL     OW80790   0.404   5.822   1.452 -0.2024  0.4154 -0.2832
24943SOL    HW180791   0.419   5.895   1.393  0.3761  0.1031 -0.5350
24943SOL    HW280792   0.471   5.757   1.428  0.2216  0.3955  0.8872
24944SOL     OW80793   4.085   4.768   1.778  0.5556  0.2077 -0.1204
24944SOL    HW180794   4.018   4.748   1.844  0.5799 -1.6412 -0.5933
24944SOL    HW280795   4.152   4.701   1.791  0.3576 -0.4802 -2.2614
24945SOL     OW80796   2.539   4.156   5.817 -0.1078  0.2761  0.8895
24945SOL    HW180797   2.484   4.230   5.791 -0.5036  0.1987  1.4774
24945SOL    HW280798   2.541   4.099   5.740  1.4641  1.6037 -0.1210
24946SOL     OW80799   2.128   2.609   8.349 -0.2080  0.5022 -0.0237
24946SOL    HW180800   2.095   2.601   8.439  1.5084  0.8006  0.6673
24946SOL    HW280801   2.104   2.527   8.307 -0.6994  0.2050  0.8216
24947SOL     OW80802   2.732   4.014   5.182  0.2662  0.2581 -0.5638
24947SOL    HW180803   2.667   3.996   5.115  1.9641 -2.2537 -1.6723
24947SOL    HW280804   2.785   4.085   5.145  1.1094 -1.0158 -1.8760
24948SOL     OW80805   2.523   4.407   2.697 -0.4927 -0.5820 -0.3751
24948SOL    HW180806   2.544   4.454   2.778  0.3375 -0.5175 -0.6260
24948SOL    HW280807   2.604   4.364   2.672 -1.6153 -3.6442  0.7816
24949SOL     OW80808   6.470   2.148   7.204 -0.7382  0.2801 -0.0576
24949SOL    HW180809   6.427   2.068   7.175  0.3280 -0.2416 -0.2586
24949SOL    HW280810   6.563   2.124   7.210 -0.6142  1.0294  1.5118
24950SOL     OW80811   8.585   2.833   1.068 -0.1088 -0.5033  0.5295
24950SOL    HW180812   8.511   2.822   1.009  0.5683 -0.3139 -0.3872
24950SOL    HW280813   8.551   2.885   1.140 -0.1524  2.3613 -1.3927
24951SOL     OW80814   5.723   4.233   9.037  0.0245 -0.0470 -0.1311
24951SOL    HW180815   5.708   4.311   8.983 -3.1263  0.6731  1.5602
24951SOL    HW280816   5.682   4.254   9.121 -1.0288 -3.5487  0.3892
24952SOL     OW80817   2.097   2.788   8.144 -0.3519 -0.3039 -0.2251
24952SOL    HW180818   2.100   2.735   8.224 -2.3907  2.2780  1.7589
24952SOL    HW280819   2.189   2.801   8.120  0.2633 -2.2881  0.8408
24953SOL     OW80820   7.100   1.726   8.256 -0.1653  0.6820 -0.3016
24953SOL    HW180821   7.178   1.719   8.311  0.4700 -0.0705 -1.2590
24953SOL    HW280822   7.038   1.664   8.294  0.4552 -0.2088 -0.6991
24954SOL     OW80823   8.393   8.350   6.205  0.3629  0.0208 -0.6003
24954SOL    HW180824   8.406   8.328   6.113  1.4398  1.8069 -0.9280
24954SOL    HW280825   8.389   8.266   6.250  0.2597 -0.8678 -2.2154
24955SOL     OW80826   2.113   2.882   8.635 -0.8253 -0.5981 -0.4200
24955SOL    HW180827   2.117   2.902   8.728 -0.7213 -2.2801 -0.0322
24955SOL    HW280828   2.175   2.810   8.623  0.8861  1.0487 -2.2308
24956SOL     OW80829   3.609   4.956   1.365 -0.4594 -0.2528  0.6383
24956SOL    HW180830   3.521   4.933   1.397 -0.3529 -1.0780  0.3547
24956SOL    HW280831   3.596   4.975   1.272 -0.3117 -0.5084  0.5669
24957SOL     OW80832   3.126   2.172   8.726 -0.7774  0.0982 -0.0161
24957SOL    HW180833   3.143   2.233   8.655 -1.1261  1.1870  0.8139
24957SOL    HW280834   3.114   2.087   8.682  0.7322  0.4097 -1.0988
24958SOL     OW80835   0.145   6.654   5.285  0.9827 -0.0801  0.1668
24958SOL    HW180836   0.107   6.578   5.241 -1.1012  1.1781 -0.3661
24958SOL    HW280837   0.138   6.634   5.378  1.1064 -0.8269  0.0220
24959SOL     OW80838   4.926   0.246   8.828  0.2778  0.0478 -0.0350
24959SOL    HW180839   5.009   0.282   8.799  0.3621 -1.0727 -1.3275
24959SOL    HW280840   4.898   0.189   8.755 -1.1234 -0.3636  0.7801
24960SOL     OW80841   7.395   5.524   4.354 -0.3288 -0.4891  0.7277
24960SOL    HW180842   7.330   5.457   4.332 -0.7576  0.2785 -0.4405
24960SOL    HW280843   7.478   5.478   4.353 -0.1024 -0.4348 -3.7563
24961SOL     OW80844   0.231   4.981   2.456 -0.2247  0.5391  0.2640
24961SOL    HW180845   0.304   4.928   2.423 -0.4442  0.2598  0.2190
24961SOL    HW280846   0.166   4.976   2.386 -1.0765 -0.8329  1.1253
24962SOL     OW80847   8.470   3.744   7.489 -0.2087 -0.3676  0.0223
24962SOL    HW180848   8.431   3.813   7.542 -1.2135  0.8163 -2.0920
24962SOL    HW280849   8.437   3.761   7.400  0.9369 -2.5334 -0.8998
24963SOL     OW80850   4.654   6.479   3.603  0.3009  0.1199  0.7535
24963SOL    HW180851   4.721   6.540   3.573  0.8131 -0.0055  1.6151
24963SOL    HW280852   4.579   6.496   3.546  1.1451  0.0675 -0.4187
24964SOL     OW80853   6.862   1.926   2.875  0.3806 -0.4590 -0.0063
24964SOL    HW180854   6.822   1.874   2.945 -2.1066  1.5523  0.1880
24964SOL    HW280855   6.861   2.016   2.907  0.8305  0.2858 -1.9369
24965SOL     OW80856   6.822   0.798   1.409  0.3002 -0.4891  0.3521
24965SOL    HW180857   6.741   0.826   1.366 -0.9621  1.3599  3.5583
24965SOL    HW280858   6.799   0.715   1.452 -0.0587  0.1688  1.4835
24966SOL     OW80859   5.484   2.173   2.082 -0.1587 -0.2489  0.7668
24966SOL    HW180860   5.422   2.100   2.069 -0.8886  0.6871 -1.5672
24966SOL    HW280861   5.542   2.169   2.006  0.4330  0.9963  1.1300
24967SOL     OW80862   2.393   9.224   4.406 -0.3750  0.1908 -0.5896
24967SOL    HW180863   2.315   9.203   4.458 -1.3905  1.3543 -1.5753
24967SOL    HW280864   2.418   9.142   4.365  0.2715 -0.6935  1.4314
24968SOL     OW80865   4.685   1.187   1.071 -0.5021 -0.1100  0.0199
24968SOL    HW180866   4.620   1.242   1.115 -0.3363  1.0377 -1.0950
24968SOL    HW280867   4.698   1.229   0.986  0.7704 -1.0309 -0.2750
24969SOL     OW80868   7.780   2.363   3.294 -0.2141 -0.1797 -0.0568
24969SOL    HW180869   7.725   2.342   3.218 -1.3497  0.3917  0.5845
24969SOL    HW280870   7.823   2.445   3.270  1.3339 -1.2266 -1.0449
24970SOL     OW80871   7.949   1.310   3.989  0.1605  0.1453  0.2857
24970SOL    HW180872   7.868   1.261   4.006 -0.2140  0.2122 -1.1702
24970SOL    HW280873   7.985   1.269   3.910  1.1111  0.6685  0.4395
24971SOL     OW80874   4.216   8.677   2.222 -0.0476  0.2767 -0.7549
24971SOL    HW180875   4.309   8.661   2.237 -0.1743  0.9198  0.8808
24971SOL    HW280876   4.214   8.761   2.176  0.1373  0.9402  0.4234
24972SOL     OW80877   8.423   5.776   0.918 -0.0742  0.3516 -0.0172
24972SOL    HW180878   8.504   5.813   0.884  0.9843 -0.2083  1.7694
24972SOL    HW280879   8.395   5.713   0.852  1.3520  0.0052 -0.3173
24973SOL     OW80880   2.055   0.664   6.122  0.0577  0.1115  0.6174
24973SOL    HW180881   1.989   0.613   6.075  2.1084 -1.2863 -0.9535
24973SOL    HW280882   2.007   0.737   6.160 -2.3286 -0.7241 -0.5945
24974SOL     OW80883   1.821   3.261   8.268 -0.2113  0.1602 -0.0535
24974SOL    HW180884   1.765   3.211   8.327 -0.2598  0.3413  0.0530
24974SOL    HW280885   1.891   3.295   8.324  0.3152 -0.5195 -0.2752
24975SOL     OW80886   8.160   8.251   4.780 -0.2254 -0.2256  0.0711
24975SOL    HW180887   8.236   8.208   4.740  1.3388  3.1029 -0.9613
24975SOL    HW280888   8.111   8.285   4.705 -0.9216  0.4828  0.8339
24976SOL     OW80889   4.152   1.922   1.278 -0.1815 -0.2388  0.0752
24976SOL    HW180890   4.202   1.844   1.253  0.7809  0.3577  0.1240
24976SOL    HW280891   4.125   1.961   1.195  1.0070  0.4441 -0.0029
24977SOL     OW80892   2.178   5.780   1.975 -0.3535 -0.7802 -0.4315
24977SOL    HW180893   2.133   5.834   2.040 -1.6343 -0.3102 -1.6492
24977SOL    HW280894   2.109   5.723   1.940 -0.0327 -0.1015 -2.3045
24978SOL     OW80895   5.312   2.615   2.344 -0.2145  0.3082  0.3194
24978SOL    HW180896   5.339   2.594   2.434 -2.0342  0.9621  1.0720
24978SOL    HW280897   5.233   2.668   2.355 -2.0700 -1.8226 -1.6862
24979SOL     OW80898   0.650   1.730   4.704  0.4059 -0.1217  0.5398
24979SOL    HW180899   0.612   1.714   4.790  1.2608 -2.4312  0.5698
24979SOL    HW280900   0.577   1.719   4.643  0.0096  0.4934  0.8968
24980SOL     OW80901   1.083   0.980   6.867  0.4570  0.9235  0.1547
24980SOL    HW180902   1.157   1.026   6.906  1.8988  0.0341 -1.3744
24980SOL    HW280903   1.098   0.987   6.772 -0.5410 -0.6506 -0.1624
24981SOL     OW80904   8.372   2.127   3.613  0.5642  0.0313 -0.1614
24981SOL    HW180905   8.445   2.185   3.590  0.7071  0.0241  0.2570
24981SOL    HW280906   8.331   2.105   3.530  0.3721  0.9061 -0.3092
24982SOL     OW80907   5.279   1.410   5.648  0.0204  0.3959  0.1047
24982SOL    HW180908   5.349   1.475   5.656  0.1836  0.0647  1.8294
24982SOL    HW280909   5.243   1.424   5.561  1.2255  1.5987 -0.2398
24983SOL     OW80910   1.763   2.527   5.743  0.4133  0.4776  0.4346
24983SOL    HW180911   1.676   2.565   5.732  0.8294  1.1688 -0.6825
24983SOL    HW280912   1.748   2.446   5.793 -0.8480  0.6300  0.3402
24984SOL     OW80913   3.841   6.058   0.992  0.2239 -0.7134 -0.1569
24984SOL    HW180914   3.747   6.075   0.983  0.3696  0.0189 -0.3280
24984SOL    HW280915   3.846   5.985   1.054 -0.3720  0.8844  1.9209
24985SOL     OW80916   4.513   2.946   5.318 -0.2403 -0.2433 -0.1575
24985SOL    HW180917   4.548   3.035   5.308  0.8195 -0.4311  1.4431
24985SOL    HW280918   4.469   2.928   5.235 -0.9463  1.9757 -0.3408
24986SOL     OW80919   5.961   8.516   8.649 -0.2866 -0.4021 -0.1600
24986SOL    HW180920   5.866   8.510   8.659 -0.5947  2.3989 -0.7067
24986SOL    HW280921   5.981   8.609   8.656  2.5244 -0.9576  0.5081
24987SOL     OW80922   2.251   6.816   3.959 -0.0498  0.0373 -0.3672
24987SOL    HW180923   2.225   6.725   3.966  0.3357 -0.3428 -2.9072
24987SOL    HW280924   2.311   6.830   4.033 -0.8550 -1.4475  0.6134
24988SOL     OW80925   8.079   3.004   0.870 -0.0861  0.1810  0.0808
24988SOL    HW180926   8.114   2.974   0.786  0.6375  1.0200  0.0718
24988SOL    HW280927   7.998   3.050   0.848  0.4213  0.9299 -0.2187
24989SOL     OW80928   0.613   7.826   5.399 -0.8172  0.0279  0.0760
24989SOL    HW180929   0.529   7.828   5.352 -0.6686  0.3219 -0.1805
24989SOL    HW280930   0.624   7.915   5.432 -0.2788  0.1721 -0.4796
24990SOL     OW80931   6.600   6.474   5.444 -0.1730  0.5999 -0.3402
24990SOL    HW180932   6.614   6.425   5.524 -0.9491  1.2953  0.2423
24990SOL    HW280933   6.628   6.415   5.374  0.5310 -0.0001  0.4387
24991SOL     OW80934   8.702   8.750   1.525  0.0964  0.7488  0.2231
24991SOL    HW180935   8.647   8.823   1.494 -0.3976  0.6143  0.7725
24991SOL    HW280936   8.704   8.760   1.620  0.0598  0.0676  0.2983
24992SOL     OW80937   1.997   6.175   8.838 -0.1304  0.1579 -0.3994
24992SOL    HW180938   1.955   6.259   8.857 -1.4737 -0.7895  1.1006
24992SOL    HW280939   1.943   6.135   8.770 -0.0386  0.1085 -0.4445
24993SOL     OW80940   1.578   6.601   3.293 -0.2457 -0.3007  0.3415
24993SOL    HW180941   1.532   6.580   3.212 -1.2990 -0.9483  1.0959
24993SOL    HW280942   1.538   6.682   3.323  0.1021 -0.0955  0.2633
24994SOL     OW80943   7.634   9.275   4.392  0.7565  0.2600  0.1954
24994SOL    HW180944   7.639   9.196   4.339  2.1684 -0.0047  0.6951
24994SOL    HW280945   7.607   9.343   4.331 -0.2320 -0.5382 -0.2956
24995SOL     OW80946   5.756   0.755   7.314 -0.1874  0.5717 -0.8348
24995SOL    HW180947   5.748   0.731   7.407 -2.7417  0.9748 -0.8788
24995SOL    HW280948   5.734   0.675   7.267 -2.1150  1.1581 -1.0177
24996SOL     OW80949   7.935   8.309   0.782  0.0322  0.2498 -0.1913
24996SOL    HW180950   7.972   8.314   0.871 -0.7870 -0.0249  0.1674
24996SOL    HW280951   8.012   8.302   0.725  0.5191 -0.9999  0.5908
24997SOL     OW80952   5.418   4.807   2.166 -0.2469  0.2151 -1.1214
24997SOL    HW180953   5.382   4.718   2.171  0.5162 -0.0616 -0.2587
24997SOL    HW280954   5.479   4.812   2.240  0.2584  1.2161 -1.5917
24998SOL     OW80955   2.347   1.572   7.151  0.4417 -0.2977  0.2307
24998SOL    HW180956   2.340   1.598   7.243  2.3955 -1.5054  0.7868
24998SOL    HW280957   2.283   1.628   7.105 -1.0496 -0.1173  2.3724
24999SOL     OW80958   3.831   1.303   5.647 -0.2190 -0.7528 -0.4225
24999SOL    HW180959   3.833   1.207   5.648  1.3604 -0.7377 -0.7308
24999SOL    HW280960   3.758   1.326   5.706  0.9479 -2.0991  1.6581
25000SOL     OW80961   7.712   5.951   7.822 -0.1593  0.0311 -0.6286
25000SOL    HW180962   7.704   5.898   7.902 -0.3990  0.6924 -0.1998
25000SOL    HW280963   7.653   6.025   7.837  0.8313  0.8821 -0.8268
25001SOL     OW80964   7.752   7.766   4.976  0.0425  0.3706 -0.2291
25001SOL    HW180965   7.768   7.717   5.057 -1.1060  1.6381  0.8223
25001SOL    HW280966   7.809   7.842   4.982  0.2350  0.2727 -0.7984
25002SOL     OW80967   0.664   2.415   7.165  0.0477  0.1880 -0.3217
25002SOL    HW180968   0.753   2.383   7.150 -0.0628 -0.1049 -0.3703
25002SOL    HW280969   0.608   2.339   7.145 -0.2142  0.3884 -0.3497
25003SOL     OW80970   1.618   2.816   2.056  0.2693  0.4047  0.2648
25003SOL    HW180971   1.681   2.792   1.988 -0.3719 -0.6673  0.0300
25003SOL    HW280972   1.551   2.749   2.051 -1.8851  2.4859 -0.7148
25004SOL     OW80973   3.403   7.543   3.160  0.9118 -1.3245 -0.3402
25004SOL    HW180974   3.445   7.574   3.240  0.6028  0.8930 -0.9700
25004SOL    HW280975   3.312   7.526   3.185  0.4795  0.6184 -0.4385
25005SOL     OW80976   2.819   6.219   6.103 -0.0587  0.4533 -0.1146
25005SOL    HW180977   2.849   6.310   6.094 -0.3429  0.3506 -2.6300
25005SOL    HW280978   2.728   6.226   6.130 -0.4078  0.9598 -1.3841
25006SOL     OW80979   3.124   3.977   3.455 -0.5397 -0.0977  0.1435
25006SOL    HW180980   3.053   3.967   3.391 -0.5391 -1.7758  0.3456
25006SOL    HW280981   3.164   4.061   3.434 -0.9950 -0.2803 -1.6042
25007SOL     OW80982   8.936   3.290   6.622 -0.1734 -0.4321  0.1172
25007SOL    HW180983   9.030   3.274   6.629 -0.0522 -0.5661 -1.4169
25007SOL    HW280984   8.928   3.353   6.550 -1.3167 -1.2643 -0.5209
25008SOL     OW80985   0.835   0.001   7.899  0.0688 -0.0823 -0.0812
25008SOL    HW180986   0.781   0.079   7.884 -1.1007 -0.3505  2.2793
25008SOL    HW280987   0.791  -0.069   7.851  0.1474  0.3296 -0.7739
25009SOL     OW80988   0.100   7.073   0.991  0.4537 -0.4281  0.1821
25009SOL    HW180989   0.055   6.993   0.962 -0.3045 -0.1184  0.4795
25009SOL    HW280990   0.187   7.067   0.951 -0.5730  0.0432 -2.3696
25010SOL     OW80991   9.167   7.223   1.364  0.2440  0.3662  0.5796
25010SOL    HW180992   9.111   7.187   1.432  0.3710  0.0230  0.5019
25010SOL    HW280993   9.135   7.313   1.352 -1.2441 -0.2778 -0.5019
25011SOL     OW80994   0.363   3.828   5.997  0.2509  0.3439  0.3094
25011SOL    HW180995   0.351   3.907   5.944  0.6528  1.8093  2.2583
25011SOL    HW280996   0.432   3.851   6.058  0.0566 -1.3834  1.2424
25012SOL     OW80997   7.411   5.387   5.263 -0.1924 -0.1396  0.2517
25012SOL    HW180998   7.399   5.295   5.287  0.2158 -0.6666 -1.4330
25012SOL    HW280999   7.385   5.436   5.341 -1.6768 -1.6331  0.7531
25013SOL     OW81000   9.156   2.927   8.859  0.4415  0.1474  0.3237
25013SOL    HW181001   9.150   3.019   8.886  1.1427 -0.1281  1.5182
25013SOL    HW281002   9.250   2.911   8.851  0.2956 -0.2584 -0.6800
25014SOL     OW81003   0.470   9.191   0.887  0.2345 -0.5753  0.2249
25014SOL    HW181004   0.483   9.166   0.978 -0.0345 -0.3479  0.3248
25014SOL    HW281005   0.499   9.115   0.837  0.8530 -0.5179  0.4822
25015SOL     OW81006   5.041   6.005   7.532 -0.5896  0.1682 -0.1528
25015SOL    HW181007   5.052   6.065   7.606  5.1920 -0.8183  0.2942
25015SOL    HW281008   5.061   6.057   7.455 -2.3556  0.2220 -0.6130
25016SOL     OW81009   0.831   1.181   3.378 -0.1330  0.3777 -0.3818
25016SOL    HW181010   0.821   1.161   3.470  0.1131  0.4564 -0.3355
25016SOL    HW281011   0.782   1.113   3.332  0.3045 -0.0576 -0.2136
25017SOL     OW81012   7.403   8.663   3.910  0.1998  0.2914 -0.1303
25017SOL    HW181013   7.338   8.619   3.855 -0.0639 -0.8862  1.0776
25017SOL    HW281014   7.394   8.756   3.888  2.1711 -0.2814 -4.2913
25018SOL     OW81015   6.309   5.588   1.775 -0.2905 -0.3868 -0.9811
25018SOL    HW181016   6.298   5.675   1.812 -0.2443  0.5440 -3.0369
25018SOL    HW281017   6.281   5.528   1.844 -0.2511  1.2445  0.4890
25019SOL     OW81018   7.647   5.263   9.074  0.6250  0.1023 -0.5768
25019SOL    HW181019   7.632   5.184   9.022  0.7545 -0.2403 -0.0990
25019SOL    HW281020   7.575   5.321   9.049  0.3403 -0.2923 -0.6943
25020SOL     OW81021   2.567   2.616   2.167 -0.2934  0.6469 -0.0448
25020SOL    HW181022   2.642   2.576   2.212  0.1053  0.0565 -1.2133
25020SOL    HW281023   2.491   2.591   2.220 -0.0089 -1.3154 -0.4837
25021SOL     OW81024   4.994   2.420   0.446  0.2643 -0.3693 -0.3212
25021SOL    HW181025   5.053   2.357   0.404  0.3540 -0.5668  0.0994
25021SOL    HW281026   4.942   2.367   0.506 -1.2024 -0.4108 -1.5536
25022SOL     OW81027   4.122   0.289   2.620  0.7026  0.9352 -0.2795
25022SOL    HW181028   4.071   0.366   2.645  2.0915  1.7318  0.2167
25022SOL    HW281029   4.057   0.221   2.603 -0.6503  2.6144 -2.2436
25023SOL     OW81030   4.605   1.760   2.475 -0.5684  0.2321  0.0278
25023SOL    HW181031   4.528   1.816   2.485 -1.5151 -1.0773  0.3905
25023SOL    HW281032   4.679   1.820   2.473 -1.6187  1.5473 -0.5947
25024SOL     OW81033   2.563   5.276   4.118 -0.5552 -0.3021  0.4496
25024SOL    HW181034   2.501   5.301   4.187 -0.6237  0.9554 -0.0478
25024SOL    HW281035   2.510   5.224   4.057 -0.2558 -2.3406  1.8299
25025SOL     OW81036   8.371   8.676   2.790  0.5704  0.2151 -0.1060
25025SOL    HW181037   8.281   8.670   2.759  0.9865  0.5459 -1.4576
25025SOL    HW281038   8.422   8.696   2.712  1.7233  0.8446  0.7747
25026SOL     OW81039   0.076   6.189   6.653  0.1359  0.0559  0.3964
25026SOL    HW181040   0.155   6.179   6.707  0.0877  1.2152  0.7137
25026SOL    HW281041   0.062   6.102   6.614  0.1746 -0.8436  2.2525
25027SOL     OW81042   7.829   6.868   9.064 -0.2823  0.1416  0.3421
25027SOL    HW181043   7.798   6.948   9.021 -0.5628 -0.2143 -0.1232
25027SOL    HW281044   7.886   6.826   9.000 -0.9358 -0.5417  0.1832
25028SOL     OW81045   8.798   3.648   0.380  0.3550 -0.8531 -0.4145
25028SOL    HW181046   8.775   3.563   0.342 -0.3604 -1.2796  0.8972
25028SOL    HW281047   8.829   3.626   0.469 -2.1484  0.4166  0.8488
25029SOL     OW81048   8.933   1.779   0.375  0.0483 -0.2774  0.0804
25029SOL    HW181049   9.003   1.717   0.394 -0.3549 -0.3933  1.2867
25029SOL    HW281050   8.913   1.819   0.459 -1.7219 -0.6562 -0.1118
25030SOL     OW81051   6.374   4.616   8.992  0.2285  0.5277  0.1303
25030SOL    HW181052   6.438   4.671   9.037  1.9291  0.3369 -1.9104
25030SOL    HW281053   6.426   4.546   8.953 -1.3380 -0.0977 -0.9215
25031SOL     OW81054   7.360   8.304   1.690  0.4397 -0.0603 -0.0765
25031SOL    HW181055   7.280   8.338   1.650 -0.1466 -2.0247 -0.6820
25031SOL    HW281056   7.429   8.331   1.630  0.0651  0.4349 -0.2988
25032SOL     OW81057   5.867   5.758   4.047  0.3045  0.0063  0.1331
25032SOL    HW181058   5.944   5.701   4.039  0.3388  0.1174 -0.3798
25032SOL    HW281059   5.885   5.831   3.988 -0.3381 -0.1348 -0.2541
25033SOL     OW81060   2.846   6.008   6.458  0.2081  0.0600 -0.5423
25033SOL    HW181061   2.809   6.094   6.478 -0.1799  0.2855 -2.0574
25033SOL    HW281062   2.781   5.967   6.400  0.8142 -0.8906 -0.5758
25034SOL     OW81063   3.811   4.594   4.490  0.3728  0.1930  0.3949
25034SOL    HW181064   3.753   4.667   4.469  0.5506 -0.2315 -1.8134
25034SOL    HW281065   3.898   4.633   4.497  0.3372  0.3178  0.1344
25035SOL     OW81066   7.753   1.070   0.145  0.6641 -0.8108  0.5340
25035SOL    HW181067   7.808   1.080   0.068  0.7459  0.3666  0.7267
25035SOL    HW281068   7.744   0.975   0.156  0.1277 -1.0058 -1.2684
25036SOL     OW81069   7.838   4.078   0.515  0.1306 -0.3042 -0.0131
25036SOL    HW181070   7.910   4.077   0.578  1.3598 -2.0089 -1.3554
25036SOL    HW281071   7.865   4.141   0.449 -0.9577  1.1544  0.8784
25037SOL     OW81072   7.214   6.551   9.334 -0.2254 -0.7203  0.2235
25037SOL    HW181073   7.203   6.462   9.301 -0.2241 -1.4172  2.0416
25037SOL    HW281074   7.307   6.557   9.356 -0.1045 -0.0603 -0.4075
25038SOL     OW81075   3.525   2.822   0.358  0.1899  0.0287 -0.0854
25038SOL    HW181076   3.443   2.785   0.324  0.0476 -0.4652  0.7596
25038SOL    HW281077   3.594   2.774   0.313  0.0068 -1.3936  1.0775
25039SOL     OW81078   8.282   1.942   8.013  0.2470  0.1652  0.2624
25039SOL    HW181079   8.220   1.970   7.946  0.6873  0.0529 -0.2082
25039SOL    HW281080   8.344   2.015   8.020 -0.0272  0.3419  0.8389
25040SOL     OW81081   6.577   7.146   3.111 -0.2668  0.1996 -0.3686
25040SOL    HW181082   6.643   7.215   3.111 -1.1958  1.1267 -0.8109
25040SOL    HW281083   6.618   7.074   3.063  1.1082  0.0202  1.0067
25041SOL     OW81084   5.036   2.572   7.739 -0.5567  0.3855 -0.5734
25041SOL    HW181085   5.020   2.480   7.717  0.3295  0.4142 -1.4007
25041SOL    HW281086   5.128   2.576   7.764 -0.0289  1.3651 -2.4717
25042SOL     OW81087   3.830   0.253   0.049  0.1208 -0.6005  0.4010
25042SOL    HW181088   3.755   0.251  -0.010  0.5362  0.6448 -0.1935
25042SOL    HW281089   3.801   0.202   0.125 -1.4593  0.1016  0.3235
25043SOL     OW81090   6.251   1.977   2.786  0.0279 -0.2709  0.2123
25043SOL    HW181091   6.299   1.942   2.711  0.1144 -0.2226  0.2447
25043SOL    HW281092   6.246   1.904   2.848 -0.3427 -0.4130  0.0176
25044SOL     OW81093   2.680   4.473   6.174 -0.1446 -0.3361  0.7832
25044SOL    HW181094   2.692   4.460   6.267  2.6961  0.9669  0.6881
25044SOL    HW281095   2.702   4.389   6.134  0.5042 -0.3534  1.1777
25045SOL     OW81096   7.483   1.967   8.837  0.1078  0.1409  0.2927
25045SOL    HW181097   7.442   2.051   8.859  0.8815  0.8777 -0.9302
25045SOL    HW281098   7.434   1.936   8.761 -1.0093 -1.1939  1.5027
25046SOL     OW81099   6.199   7.778   8.940 -0.2350 -0.0186 -0.0420
25046SOL    HW181100   6.241   7.814   9.019 -0.0417  0.1004 -0.1992
25046SOL    HW281101   6.191   7.852   8.881 -1.2205  0.0916  0.2183
25047SOL     OW81102   5.884   2.780   3.085 -0.6684 -0.0514  0.0319
25047SOL    HW181103   5.847   2.839   3.019  1.7050  0.4873 -0.9289
25047SOL    HW281104   5.954   2.830   3.125 -0.3586 -1.3146  1.1412
25048SOL     OW81105   4.560   1.678   3.735  0.1761  0.5082 -0.1064
25048SOL    HW181106   4.572   1.632   3.653  0.4204 -0.2929  0.3687
25048SOL    HW281107   4.641   1.664   3.784 -0.2484  0.3358  0.5709
25049SOL     OW81108   7.741   2.533   1.757 -0.0570 -0.9661  0.2528
25049SOL    HW181109   7.801   2.460   1.745  0.7776 -0.6816  2.3178
25049SOL    HW281110   7.656   2.492   1.772  0.3805 -1.5483  1.2644
25050SOL     OW81111   5.269   1.297   8.561  0.3738  0.2505 -0.2747
25050SOL    HW181112   5.279   1.288   8.466  0.8932  1.9767 -0.4135
25050SOL    HW281113   5.358   1.293   8.595  0.3213  1.1673 -0.0199
25051SOL     OW81114   4.248   7.108   8.642  0.1971  0.4110  0.2393
25051SOL    HW181115   4.252   7.078   8.551  0.5140  1.2639 -0.0400
25051SOL    HW281116   4.160   7.144   8.652  0.5478  1.3795 -0.0857
25052SOL     OW81117   8.780   4.282   5.546  0.1331 -0.1360 -0.5227
25052SOL    HW181118   8.730   4.248   5.619  0.9051  0.4415  0.2997
25052SOL    HW281119   8.832   4.353   5.583  1.7431 -0.8609 -1.2577
25053SOL     OW81120   6.246   2.901   8.318 -0.6649  0.4215 -0.0616
25053SOL    HW181121   6.337   2.907   8.288 -0.7718 -0.2516 -0.5341
25053SOL    HW281122   6.216   2.992   8.321  0.6321  0.8743  2.0659
25054SOL     OW81123   6.077   2.363   7.067 -0.6695  0.0120  0.4919
25054SOL    HW181124   5.991   2.324   7.078  0.7508 -3.2327  1.2895
25054SOL    HW281125   6.117   2.361   7.154  0.7397  0.0945 -0.1103
25055SOL     OW81126   7.779   6.022   3.148 -0.2147 -0.0007 -0.1296
25055SOL    HW181127   7.816   6.110   3.144 -0.1376  0.0886  1.7665
25055SOL    HW281128   7.686   6.034   3.125 -0.4206  0.7475  1.0365
25056SOL     OW81129   3.472   2.119   9.134  0.1422  0.1461  0.7308
25056SOL    HW181130   3.469   2.026   9.113 -1.7184  0.1262  0.9574
25056SOL    HW281131   3.537   2.155   9.073 -1.4763 -0.7374 -1.6504
25057SOL     OW81132   6.088   5.683   5.560 -0.5141  0.9400  0.1570
25057SOL    HW181133   6.104   5.711   5.470  0.2688  0.1688  0.0382
25057SOL    HW281134   6.025   5.746   5.595 -0.8792  1.2018 -0.9516
25058SOL     OW81135   0.353   3.825   7.250  0.5540 -0.2991  0.1008
25058SOL    HW181136   0.280   3.768   7.274  0.5741  0.3342  1.7955
25058SOL    HW281137   0.406   3.772   7.191 -0.4558 -1.3177  0.0680
25059SOL     OW81138   1.726   8.738   1.613 -0.1017 -0.0609 -0.5432
25059SOL    HW181139   1.692   8.758   1.526 -1.0717 -0.4280 -0.2687
25059SOL    HW281140   1.740   8.644   1.613  0.3490  0.0034 -0.4520
25060SOL     OW81141   8.628   8.646   5.723 -0.1052 -0.5916  0.2739
25060SOL    HW181142   8.540   8.625   5.755  0.4908 -1.3567  1.5249
25060SOL    HW281143   8.677   8.668   5.802  0.6820  0.4410 -0.4755
25061SOL     OW81144   0.436   4.427   8.438 -0.2495 -0.3597 -0.0673
25061SOL    HW181145   0.532   4.429   8.434 -0.1419 -1.7278  0.8836
25061SOL    HW281146   0.410   4.519   8.439  1.1327  0.0576  0.9819
25062SOL     OW81147   6.885   4.759   4.619 -0.0753 -0.4193  0.3726
25062SOL    HW181148   6.945   4.686   4.604  2.1551  1.2473  0.5942
25062SOL    HW281149   6.928   4.812   4.685 -1.4884  1.2473  0.0369
25063SOL     OW81150   7.416   9.169   7.595  0.2907  0.0023 -0.3717
25063SOL    HW181151   7.394   9.245   7.648 -2.7591 -0.2103 -1.1609
25063SOL    HW281152   7.451   9.207   7.514  0.5090  0.4833 -0.0595
25064SOL     OW81153   1.377   6.520   3.995  0.3660 -0.3920  0.3929
25064SOL    HW181154   1.452   6.467   3.968  1.3287  0.2995  1.6209
25064SOL    HW281155   1.340   6.473   4.071 -0.4669 -0.7265 -0.1977
25065SOL     OW81156   0.601   8.572   5.331 -0.0319  0.5010  0.1802
25065SOL    HW181157   0.620   8.479   5.319  1.6467  0.8184  0.0730
25065SOL    HW281158   0.506   8.576   5.341 -0.0230 -1.3942  1.7362
25066SOL     OW81159   6.908   5.730   2.955 -0.3357  0.0159 -0.1852
25066SOL    HW181160   6.925   5.783   3.033 -1.2599  0.8935 -0.5435
25066SOL    HW281161   6.874   5.647   2.988 -1.4812  0.6759  0.3493
25067SOL     OW81162   6.060   4.476   2.958  0.1034 -0.4629  0.3352
25067SOL    HW181163   6.024   4.490   3.046  0.4683 -0.3697  0.4724
25067SOL    HW281164   6.143   4.430   2.974  1.2218  1.4079  0.1788
25068SOL     OW81165   5.531   3.443   4.237  0.0898 -0.2484  0.4119
25068SOL    HW181166   5.475   3.519   4.255  0.1015 -0.2599  0.5006
25068SOL    HW281167   5.471   3.372   4.218  0.0722 -0.2726  0.5543
25069SOL     OW81168   6.564   1.597   0.929 -0.5035  0.3367 -0.1441
25069SOL    HW181169   6.555   1.686   0.962 -0.3678 -0.1303  1.2147
25069SOL    HW281170   6.476   1.560   0.935 -0.5019  0.2818 -0.4369
25070SOL     OW81171   1.616   3.561   3.680 -0.3840 -0.0452 -0.4813
25070SOL    HW181172   1.560   3.638   3.671 -0.9673 -0.3543  0.3866
25070SOL    HW281173   1.581   3.499   3.615 -0.7140 -0.0394 -0.3127
25071SOL     OW81174   3.203   8.279   3.137 -0.6037  0.5663 -0.0391
25071SOL    HW181175   3.125   8.316   3.178  0.3791  1.0208  1.5107
25071SOL    HW281176   3.220   8.336   3.061 -1.8136  0.3935 -0.4611
25072SOL     OW81177   6.210   0.838   1.659  0.1754  0.0379 -0.1380
25072SOL    HW181178   6.204   0.805   1.569  1.7267  1.1152 -0.6859
25072SOL    HW281179   6.299   0.816   1.687  0.1783  0.9259  0.6120
25073SOL     OW81180   6.577   7.996   1.123 -0.1671 -0.4219 -0.2915
25073SOL    HW181181   6.660   7.952   1.142  0.8806  1.8707  0.8898
25073SOL    HW281182   6.593   8.043   1.041 -0.0994  0.4218  0.1936
25074SOL     OW81183   8.623   0.986   7.214 -0.4724 -0.1977  0.0638
25074SOL    HW181184   8.636   0.895   7.187  2.1153 -0.2799  1.2861
25074SOL    HW281185   8.533   0.989   7.246 -1.2470 -1.8152 -1.7928
25075SOL     OW81186   3.455   9.032   7.417 -0.2153 -0.1863  0.3148
25075SOL    HW181187   3.505   9.052   7.496  0.3564 -0.2876 -0.0220
25075SOL    HW281188   3.518   8.994   7.357 -0.3119  1.1973 -0.7237
25076SOL     OW81189   0.490   8.151   0.565  0.1774 -0.2318 -0.2733
25076SOL    HW181190   0.497   8.076   0.506  0.3561 -0.6706  0.2891
25076SOL    HW281191   0.562   8.209   0.540  0.0655 -0.2675 -0.6818
25077SOL     OW81192   6.739   4.998   2.623  1.0096  0.2113  0.2129
25077SOL    HW181193   6.812   4.988   2.683  0.8949 -0.2151  0.2846
25077SOL    HW281194   6.688   5.071   2.658  1.1411  0.2006  0.4255
25078SOL     OW81195   0.247   7.143   6.724  0.4549 -0.0651 -0.1495
25078SOL    HW181196   0.200   7.196   6.660 -0.8495 -1.6206 -0.5317
25078SOL    HW281197   0.281   7.207   6.788  1.0745  1.4334 -1.8937
25079SOL     OW81198   2.997   8.560   3.231  0.1996 -0.4601 -0.0332
25079SOL    HW181199   3.087   8.555   3.262  0.5576 -0.1467 -0.9876
25079SOL    HW281200   2.959   8.635   3.277  0.3758 -0.6732  0.4669
25080SOL     OW81201   4.520   4.377   4.084 -0.1272  0.3361  0.2580
25080SOL    HW181202   4.429   4.353   4.067 -0.3072 -0.6455  2.3118
25080SOL    HW281203   4.566   4.358   4.002 -1.5362 -0.4180 -0.3791
25081SOL     OW81204   3.994   4.249   7.236  0.0836 -0.3888 -0.0080
25081SOL    HW181205   3.978   4.267   7.143  0.1811 -0.3893 -0.0245
25081SOL    HW281206   3.926   4.299   7.282  0.3446  0.0141 -0.0524
25082SOL     OW81207   4.716   0.398   9.218  0.3506 -0.1315 -0.7404
25082SOL    HW181208   4.712   0.493   9.224  1.1562 -0.1839  3.3044
25082SOL    HW281209   4.627   0.372   9.196 -0.5458  1.5002  0.7352
25083SOL     OW81210   4.495   1.648   0.940 -0.0511 -0.1679  0.1344
25083SOL    HW181211   4.498   1.700   0.859  0.0096  0.7875  0.7337
25083SOL    HW281212   4.578   1.669   0.984 -0.9124  0.8144  1.3392
25084SOL     OW81213   5.868   4.943   0.730  0.1655 -0.1117 -0.0886
25084SOL    HW181214   5.959   4.925   0.753  0.7072  3.7750  1.5656
25084SOL    HW281215   5.873   4.985   0.644  0.2087  1.6842  0.7557
25085SOL     OW81216   8.979   1.472   3.996 -0.0393 -0.7288 -0.4776
25085SOL    HW181217   9.023   1.524   3.928  0.3314 -1.3323 -0.7077
25085SOL    HW281218   8.890   1.508   4.000 -0.3362 -1.2353 -1.8966
25086SOL     OW81219   0.288   7.895   8.045 -0.3871 -0.1753  0.2938
25086SOL    HW181220   0.364   7.883   8.103 -0.6243  0.7264  0.8150
25086SOL    HW281221   0.219   7.843   8.085 -0.9864  1.6025  1.7098
25087SOL     OW81222   3.819   5.054   7.593  0.3870  0.1147 -0.1609
25087SOL    HW181223   3.831   5.045   7.498 -0.0585  0.2490 -0.2336
25087SOL    HW281224   3.838   4.967   7.628  0.0598 -0.0648 -0.4253
25088SOL     OW81225   8.686   8.797   8.960 -0.0327 -0.5928 -0.2232
25088SOL    HW181226   8.649   8.711   8.983 -2.0829 -0.1932 -1.7238
25088SOL    HW281227   8.610   8.854   8.949  1.3014  1.7577  1.7055
25089SOL     OW81228   0.571   7.672   0.224  0.1353  0.0258  0.4880
25089SOL    HW181229   0.620   7.606   0.272  0.8040  0.9488  1.1099
25089SOL    HW281230   0.637   7.733   0.192 -0.5001  0.6227  0.2718
25090SOL     OW81231   7.127   1.950   6.702 -0.4057 -0.1557  0.5493
25090SOL    HW181232   7.033   1.948   6.724 -1.4365 -1.1094 -3.2549
25090SOL    HW281233   7.148   1.859   6.680  0.9241  0.3565 -0.3776
25091SOL     OW81234   8.885   2.946   3.125 -0.4297 -0.5957  0.4014
25091SOL    HW181235   8.824   2.936   3.051  1.4333  1.8238 -1.6368
25091SOL    HW281236   8.953   2.881   3.108  0.5530  0.6665 -0.7109
25092SOL     OW81237   0.276   8.709   2.806 -0.0786  0.6714 -0.7040
25092SOL    HW181238   0.245   8.644   2.870  1.5158  1.4261  0.8995
25092SOL    HW281239   0.209   8.777   2.807 -1.1914 -0.3635 -1.5542
25093SOL     OW81240   1.749   7.576   7.405  0.1240  0.2870 -0.1247
25093SOL    HW181241   1.813   7.598   7.338 -0.1096  1.6466  0.0742
25093SOL    HW281242   1.773   7.632   7.480 -1.6542  1.3061 -0.2706
25094SOL     OW81243   8.660   2.517   7.076  0.5051 -0.0282 -0.4273
25094SOL    HW181244   8.743   2.472   7.062 -0.4002 -2.3068  1.0626
25094SOL    HW281245   8.597   2.448   7.096 -1.7537  1.6309 -1.2561
25095SOL     OW81246   7.264   1.898   3.785 -0.5762  0.0165  0.7388
25095SOL    HW181247   7.342   1.855   3.819 -0.2733 -0.4767 -0.4987
25095SOL    HW281248   7.209   1.912   3.861  0.3795 -0.3534  1.5211
25096SOL     OW81249   3.020   4.049   0.083  0.6127 -0.0952  0.0442
25096SOL    HW181250   2.941   4.018   0.039  0.4491  1.3583 -0.7430
25096SOL    HW281251   3.012   4.016   0.173 -0.5142 -0.6020 -0.2280
25097SOL     OW81252   0.687   7.133   8.344  0.1943 -0.2147 -0.0402
25097SOL    HW181253   0.756   7.196   8.325  0.8114 -1.0167 -0.5760
25097SOL    HW281254   0.657   7.155   8.432 -0.8998  1.9756 -0.9033
25098SOL     OW81255   1.559   6.306   8.926 -0.1150  0.3949  0.1643
25098SOL    HW181256   1.489   6.356   8.886  0.0165  1.0127  0.6845
25098SOL    HW281257   1.619   6.372   8.960 -0.0011 -0.1132  0.9776
25099SOL     OW81258   7.331   4.649   2.264  0.0104  0.4424  0.6642
25099SOL    HW181259   7.365   4.580   2.321  4.1477  1.4019 -0.3249
25099SOL    HW281260   7.273   4.700   2.320  0.8489 -0.8733  2.8662
25100SOL     OW81261   2.207   1.636   8.661 -0.6832 -0.1363 -0.0700
25100SOL    HW181262   2.272   1.613   8.727  1.5605  0.4314 -1.9539
25100SOL    HW281263   2.207   1.732   8.660 -1.9364 -0.1157  0.2239
25101SOL     OW81264   6.717   0.158   0.187  0.8502 -0.6263 -0.2292
25101SOL    HW181265   6.640   0.210   0.166  0.7101 -1.0421 -0.7814
25101SOL    HW281266   6.790   0.207   0.149  0.8821 -0.1571  0.4232
25102SOL     OW81267   4.234   4.807   5.294  0.5184 -0.1396 -0.2451
25102SOL    HW181268   4.220   4.898   5.268 -0.1676 -0.2777 -0.3805
25102SOL    HW281269   4.298   4.812   5.366  0.5566  0.4366 -0.3140
25103SOL     OW81270   4.787   7.228   7.870 -0.6041 -0.2991 -0.3271
25103SOL    HW181271   4.865   7.243   7.924  0.8449 -1.5112 -1.9515
25103SOL    HW281272   4.796   7.291   7.798 -1.2429 -0.3389 -0.4463
25104SOL     OW81273   4.837   5.070   8.797 -0.0071 -0.6087 -0.2579
25104SOL    HW181274   4.755   5.074   8.847 -0.5955  1.0000 -1.3005
25104SOL    HW281275   4.811   5.043   8.709  0.5697 -0.0174 -0.6179
25105SOL     OW81276   6.796   0.369   0.924  0.1538 -0.1517 -0.1246
25105SOL    HW181277   6.797   0.442   0.862  1.0737  1.1240  1.3014
25105SOL    HW281278   6.706   0.364   0.954 -0.2228 -0.5530 -1.2747
25106SOL     OW81279   3.209   3.084   8.352  0.2077 -0.0934 -0.4896
25106SOL    HW181280   3.228   3.042   8.436  0.8971  1.4410  0.1660
25106SOL    HW281281   3.133   3.139   8.371  0.5088  0.4342 -0.8004
25107SOL     OW81282   8.593   0.621   6.232  0.4349  0.5898 -0.0282
25107SOL    HW181283   8.510   0.623   6.186 -0.3916  1.0284  1.4373
25107SOL    HW281284   8.613   0.712   6.252  0.9050  0.4343  0.2577
25108SOL     OW81285   6.598   8.777   4.456  0.3019 -0.3628  0.1553
25108SOL    HW181286   6.520   8.743   4.412  0.6688 -0.4862 -0.4152
25108SOL    HW281287   6.577   8.869   4.474 -0.5512 -0.7774  1.3752
25109SOL     OW81288   4.172   0.569   0.556 -0.1282  0.2238 -0.5158
25109SOL    HW181289   4.253   0.564   0.606 -0.2791  0.0883 -0.2802
25109SOL    HW281290   4.167   0.486   0.509  0.0881  0.4139 -0.8701
25110SOL     OW81291   4.078   3.130   3.588 -0.4641 -0.8160 -0.2684
25110SOL    HW181292   4.045   3.129   3.678 -2.0755  0.9326 -0.7764
25110SOL    HW281293   4.157   3.076   3.591 -0.7465 -1.2028  2.0783
25111SOL     OW81294   1.545   3.344   6.347 -0.1957  0.4565 -0.5400
25111SOL    HW181295   1.517   3.265   6.395  0.2570  0.5902 -0.0532
25111SOL    HW281296   1.515   3.329   6.257  0.2325 -0.4524 -0.5430
25112SOL     OW81297   6.899   2.352   0.297 -0.6319 -0.3198 -0.2131
25112SOL    HW181298   6.907   2.443   0.268 -2.1373 -0.5860 -1.5881
25112SOL    HW281299   6.984   2.332   0.337 -0.0441  1.4724 -0.4931
25113SOL     OW81300   1.692   5.320   5.610 -0.5140 -0.2692  0.3637
25113SOL    HW181301   1.640   5.248   5.576  0.2162 -0.6969  0.1127
25113SOL    HW281302   1.690   5.309   5.705 -2.4125  0.8250  0.4944
25114SOL     OW81303   4.102   6.685   0.545 -0.3391 -0.0820 -0.3661
25114SOL    HW181304   4.059   6.770   0.540  0.1996  0.4427  2.4023
25114SOL    HW281305   4.170   6.689   0.478 -0.2866  1.7049 -0.2533
25115SOL     OW81306   1.177   0.300   0.874  0.5585 -0.3672  0.2733
25115SOL    HW181307   1.232   0.256   0.810 -0.8429 -1.9786  0.0951
25115SOL    HW281308   1.238   0.337   0.938  1.9476  0.5635 -1.4960
25116SOL     OW81309   6.655   8.735   5.922 -0.0817 -0.3746  0.0080
25116SOL    HW181310   6.571   8.779   5.916  0.2159  0.3226  0.7503
25116SOL    HW281311   6.635   8.649   5.960 -0.4860 -0.3252 -0.0941
25117SOL     OW81312   4.803   9.134   8.208  0.1390  0.5383 -0.0249
25117SOL    HW181313   4.843   9.098   8.287  0.5174 -0.0824 -0.4951
25117SOL    HW281314   4.874   9.137   8.144 -0.0550  1.4596 -0.2175
25118SOL     OW81315   8.218   7.527   8.020 -0.2938 -0.3928  0.4515
25118SOL    HW181316   8.135   7.574   8.014  0.0314  0.1377  0.0427
25118SOL    HW281317   8.198   7.440   7.986 -0.3584  0.1644 -1.0293
25119SOL     OW81318   7.527   4.147   5.254  0.0001  0.0324 -0.0572
25119SOL    HW181319   7.576   4.066   5.246  0.5435  0.0043  2.5108
25119SOL    HW281320   7.438   4.119   5.275 -0.1504  0.0930 -0.6178
25120SOL     OW81321   2.666   3.099   1.214 -0.2840  0.1690  0.2373
25120SOL    HW181322   2.677   3.086   1.120 -3.8745 -1.0410 -0.1441
25120SOL    HW281323   2.736   3.047   1.253 -0.5177 -1.7791 -1.7464
25121SOL     OW81324   8.520   4.272   0.188  0.0282  0.1926  0.2507
25121SOL    HW181325   8.427   4.295   0.200 -0.2364 -0.5768 -0.2659
25121SOL    HW281326   8.525   4.179   0.211  0.9157  0.5216  1.4633
25122SOL     OW81327   4.962   7.700   5.788  0.2815  0.0603 -0.4439
25122SOL    HW181328   4.888   7.670   5.842  0.2862 -0.8384 -0.9233
25122SOL    HW281329   5.034   7.709   5.850 -0.0743  0.3633 -0.0701
25123SOL     OW81330   8.592   6.548   1.728  0.0334 -0.6172 -0.2552
25123SOL    HW181331   8.673   6.589   1.759  0.2521 -0.3658 -1.1282
25123SOL    HW281332   8.586   6.466   1.777 -0.6626  0.6303  1.8737
25124SOL     OW81333   6.502   0.050   3.380 -0.2563 -0.3887 -0.6842
25124SOL    HW181334   6.582   0.003   3.402 -0.5148 -0.6203 -0.2273
25124SOL    HW281335   6.490   0.112   3.452 -0.0912  0.1582 -1.1206
25125SOL     OW81336   5.652   0.826   2.207 -0.7405 -0.4327 -0.1322
25125SOL    HW181337   5.728   0.769   2.220 -0.7638 -0.1166  1.6542
25125SOL    HW281338   5.605   0.787   2.134  0.3467 -1.4905 -0.3014
25126SOL     OW81339   3.190   3.028   7.474 -0.4639  0.0503  0.4765
25126SOL    HW181340   3.266   2.971   7.487 -1.0369 -0.7419  0.4251
25126SOL    HW281341   3.116   2.968   7.466 -1.0330  0.7890  0.0428
25127SOL     OW81342   2.805   9.147   0.499  0.5522 -0.5511  0.1676
25127SOL    HW181343   2.855   9.155   0.580  1.0912 -0.4020 -0.1697
25127SOL    HW281344   2.774   9.056   0.499  1.1926 -0.7790  0.1799
25128SOL     OW81345   4.946   4.812   6.416  0.0945 -0.3134 -0.0380
25128SOL    HW181346   4.872   4.873   6.411  0.0136 -0.4317 -0.3133
25128SOL    HW281347   5.022   4.866   6.393  0.0240 -0.3107 -0.2743
25129SOL     OW81348   8.648   7.644   8.987 -0.4289  0.1215  0.0671
25129SOL    HW181349   8.560   7.682   8.981 -0.8197 -0.6760  0.5693
25129SOL    HW281350   8.682   7.677   9.070 -0.6204 -0.2884  0.3169
25130SOL     OW81351   8.762   4.966   5.282  0.2661 -0.4981  0.3248
25130SOL    HW181352   8.845   4.957   5.331  0.1071  0.0984  0.7182
25130SOL    HW281353   8.751   5.060   5.271 -1.4174 -0.4055  2.1512
25131SOL     OW81354   6.495   4.261   6.922 -0.2495  0.0858 -0.4978
25131SOL    HW181355   6.564   4.284   6.984 -0.0252  0.0211 -0.7233
25131SOL    HW281356   6.431   4.333   6.930 -1.5652 -1.2107  1.7512
25132SOL     OW81357   4.490   1.187   7.820  0.0875 -0.3931 -0.1959
25132SOL    HW181358   4.474   1.140   7.902  2.1147 -1.2673 -0.2532
25132SOL    HW281359   4.403   1.219   7.795 -1.2465 -3.1405  0.4308
25133SOL     OW81360   8.984   5.189   8.134  0.2842 -0.2325  0.2802
25133SOL    HW181361   8.979   5.155   8.044 -0.5972 -0.8716  0.5548
25133SOL    HW281362   9.071   5.166   8.164  0.7567  0.3958 -0.5629
25134SOL     OW81363   5.526   3.300   8.719 -0.1399  0.3286  0.1252
25134SOL    HW181364   5.454   3.308   8.781  1.4162 -0.0211  2.1030
25134SOL    HW281365   5.600   3.343   8.763  0.7725  1.1087 -2.0186
25135SOL     OW81366   7.023   1.206   3.792  0.0754 -0.2811 -0.3964
25135SOL    HW181367   6.948   1.251   3.831  0.9035  0.3671  0.4881
25135SOL    HW281368   6.990   1.119   3.770 -0.6902 -0.3293  0.8508
25136SOL     OW81369   0.547   0.654   1.329 -0.0318  0.3739 -0.1984
25136SOL    HW181370   0.601   0.575   1.331  0.0682  0.4525  1.7843
25136SOL    HW281371   0.581   0.703   1.254  1.5718 -0.3204  0.0167
25137SOL     OW81372   4.485   1.833   7.343 -0.4239 -0.0834  0.3936
25137SOL    HW181373   4.551   1.837   7.412 -0.0528  3.8236 -0.0135
25137SOL    HW281374   4.405   1.804   7.389  0.8574 -2.4041  1.3580
25138SOL     OW81375   0.655   7.484   3.016 -0.3819 -0.2817  0.2336
25138SOL    HW181376   0.650   7.390   3.035  0.2981 -0.2946  0.3596
25138SOL    HW281377   0.704   7.489   2.934  1.8793  0.0760  1.5255
25139SOL     OW81378   6.098   3.246   8.027 -0.7774 -0.2484 -0.1143
25139SOL    HW181379   6.094   3.155   7.999  1.5354 -0.0909 -1.2115
25139SOL    HW281380   6.110   3.242   8.122  0.0802 -1.1505 -0.2441
25140SOL     OW81381   2.654   3.950   6.853 -0.1272  0.1070  1.1440
25140SOL    HW181382   2.737   3.907   6.829  0.3985  2.2239 -1.3373
25140SOL    HW281383   2.674   3.997   6.934  1.1991  0.7534  0.4714
25141SOL     OW81384   1.686   1.935   4.057  0.2339  0.6663  0.0694
25141SOL    HW181385   1.635   1.961   3.981 -1.8194 -1.0467  0.7901
25141SOL    HW281386   1.747   2.008   4.071  0.3878  1.2199 -2.8965
25142SOL     OW81387   1.629   7.540   6.080  0.3510  0.1577 -0.0585
25142SOL    HW181388   1.569   7.545   6.005 -0.8295 -1.3288  0.7102
25142SOL    HW281389   1.686   7.466   6.059  0.2242 -0.0573  0.3453
25143SOL     OW81390   7.499   3.517   7.744  0.3396  0.3786 -0.4356
25143SOL    HW181391   7.569   3.537   7.682  0.2479  0.6021 -0.4692
25143SOL    HW281392   7.420   3.549   7.701 -0.0598 -1.5255 -1.2339
25144SOL     OW81393   5.594   7.078   1.592 -0.0126 -0.5118 -0.4100
25144SOL    HW181394   5.637   7.157   1.624  0.6394 -1.1492  0.3230
25144SOL    HW281395   5.508   7.107   1.563  1.0358  0.8976 -2.3415
25145SOL     OW81396   0.249   2.067   1.751  0.0680 -0.0089 -0.5778
25145SOL    HW181397   0.273   1.993   1.696  0.0021  1.1826 -2.2582
25145SOL    HW281398   0.332   2.113   1.766  0.2652 -0.8483  1.2030
25146SOL     OW81399   5.673   9.289   1.426 -0.5414 -0.4250  0.4422
25146SOL    HW181400   5.648   9.375   1.458 -0.8517 -0.5729  0.6088
25146SOL    HW281401   5.761   9.274   1.463  0.7338  0.9567 -1.8145
25147SOL     OW81402   8.561   8.995   1.508 -0.6286 -0.3365 -0.2349
25147SOL    HW181403   8.532   9.084   1.528 -0.6135 -0.1955 -0.8132
25147SOL    HW281404   8.588   8.999   1.416  1.9437 -0.2569  0.4421
25148SOL     OW81405   1.434   7.183   4.913 -0.2967  1.0051  0.2869
25148SOL    HW181406   1.463   7.138   4.833 -1.9094  0.4347 -0.0143
25148SOL    HW281407   1.450   7.120   4.983  2.6734  2.1052  0.7471
25149SOL     OW81408   0.764   4.203   7.173  0.1845  0.0924 -0.0705
25149SOL    HW181409   0.821   4.279   7.182  0.4286 -0.0736 -0.2448
25149SOL    HW281410   0.814   4.131   7.212  0.1252 -0.0684 -0.2957
25150SOL     OW81411   8.131   5.339   9.172 -0.2510  0.3386 -0.0774
25150SOL    HW181412   8.122   5.307   9.262  1.2671  2.0003  0.7250
25150SOL    HW281413   8.046   5.378   9.152 -0.5188  0.2069  0.7330
25151SOL     OW81414   1.983   8.200   8.472 -0.0427 -0.3110  0.1901
25151SOL    HW181415   1.991   8.281   8.420 -1.7400  0.2469  0.7404
25151SOL    HW281416   2.048   8.210   8.541  0.5268  0.0691 -0.3861
25152SOL     OW81417   2.199   7.192   2.299 -0.0923 -0.0020  0.1703
25152SOL    HW181418   2.281   7.195   2.250  0.2486  0.8784  0.7532
25152SOL    HW281419   2.171   7.101   2.295  0.8729 -0.2949 -0.1090
25153SOL     OW81420   4.872   7.460   7.713  0.1279 -0.5113  0.3244
25153SOL    HW181421   4.797   7.511   7.683 -0.1154 -0.8276  0.3930
25153SOL    HW281422   4.923   7.522   7.767 -0.8711 -0.6998  1.5240
25154SOL     OW81423   6.352   0.750   1.948  0.2220 -0.1658  0.0552
25154SOL    HW181424   6.427   0.764   1.890  0.9490 -1.7240  0.5501
25154SOL    HW281425   6.342   0.655   1.951 -0.6946 -0.0543  1.3667
25155SOL     OW81426   6.307   0.859   2.262  0.2049  0.2904 -0.1639
25155SOL    HW181427   6.346   0.771   2.266  1.3125  0.6676 -1.7743
25155SOL    HW281428   6.267   0.871   2.348  0.9536 -1.3639  0.4645
25156SOL     OW81429   3.631   4.620   0.371  0.2765  0.2558 -0.0263
25156SOL    HW181430   3.714   4.576   0.350  1.0643  2.2253 -1.3600
25156SOL    HW281431   3.580   4.613   0.290  0.4591  1.7829 -0.3110
25157SOL     OW81432   6.018   0.800   3.893 -0.0153 -0.2725 -0.1059
25157SOL    HW181433   6.080   0.824   3.962  0.7182  2.3816 -1.5223
25157SOL    HW281434   6.051   0.718   3.857  1.1974 -0.2155  0.8412
25158SOL     OW81435   8.992   6.424   6.501  0.4177  0.0883  0.6402
25158SOL    HW181436   8.941   6.457   6.426 -1.4271 -0.2191  1.7071
25158SOL    HW281437   9.062   6.488   6.511  1.6890 -0.6531 -2.2749
25159SOL     OW81438   5.658   1.457   5.926  0.3559 -0.2416 -0.2344
25159SOL    HW181439   5.697   1.477   6.011 -1.7049  0.1780  0.6724
25159SOL    HW281440   5.718   1.393   5.886  1.3374 -0.4796  1.5312
25160SOL     OW81441   1.201   7.363   4.177  0.6354  0.2825 -0.1711
25160SOL    HW181442   1.197   7.458   4.165 -3.9901  0.2504 -0.8566
25160SOL    HW281443   1.162   7.348   4.263 -0.7170 -0.9933 -0.9527
25161SOL     OW81444   8.916   0.929   8.947  0.2913 -0.0792 -0.6770
25161SOL    HW181445   8.929   1.022   8.966  1.4794 -0.6414  1.7215
25161SOL    HW281446   8.828   0.924   8.910 -0.7129  1.7782  1.2148
25162SOL     OW81447   9.168   0.871   1.202 -0.3713  0.4264  0.2754
25162SOL    HW181448   9.078   0.877   1.170 -0.1529 -0.7326 -0.5936
25162SOL    HW281449   9.158   0.853   1.296 -1.1764 -3.5054 -0.4029
25163SOL     OW81450   8.324   3.174   8.411 -0.4911  0.1547 -0.1786
25163SOL    HW181451   8.281   3.120   8.478  0.3067 -0.8899 -0.4916
25163SOL    HW281452   8.255   3.193   8.348 -0.2488 -2.7422 -1.4502
25164SOL     OW81453   7.088   0.251   3.468  0.0853  0.8763  0.0982
25164SOL    HW181454   7.043   0.228   3.387  0.4702 -1.1072  0.3944
25164SOL    HW281455   7.040   0.204   3.536  1.6335 -0.0687  0.5925
25165SOL     OW81456   8.995   8.750   5.791 -0.0158  0.1206  0.3918
25165SOL    HW181457   8.945   8.826   5.764  1.4256 -0.2024 -4.0119
25165SOL    HW281458   8.938   8.675   5.771  0.5541 -0.0806 -0.5744
25166SOL     OW81459   8.310   1.051   2.815  0.1445 -0.0242  0.5481
25166SOL    HW181460   8.260   1.099   2.881 -0.9456 -0.6035  0.1704
25166SOL    HW281461   8.323   1.114   2.744 -1.2297 -0.2182  0.0795
25167SOL     OW81462   0.922   8.499   0.647 -0.2000 -0.1626  0.1323
25167SOL    HW181463   0.868   8.437   0.696  2.4676 -3.0101 -0.1758
25167SOL    HW281464   0.867   8.526   0.574 -1.9603 -1.0835  1.0469
25168SOL     OW81465   7.034   6.472   2.971  0.6628 -0.5411  0.2459
25168SOL    HW181466   7.095   6.440   3.039  1.3755  0.3837  0.0669
25168SOL    HW281467   6.947   6.454   3.007  1.0308 -1.5667  0.6742
25169SOL     OW81468   5.210   4.324   7.605 -0.4306  0.0395 -0.5235
25169SOL    HW181469   5.115   4.322   7.591 -0.4096 -1.1475 -0.5558
25169SOL    HW281470   5.247   4.325   7.516 -0.3920 -2.3761 -0.6043
25170SOL     OW81471   8.837   7.922   1.332  0.0346  0.1679  0.1508
25170SOL    HW181472   8.898   7.993   1.314  0.6632 -0.6908 -1.3271
25170SOL    HW281473   8.759   7.944   1.281 -0.5340  0.7428  1.2258
25171SOL     OW81474   0.782   8.146   0.147 -0.0383 -0.3728 -0.3908
25171SOL    HW181475   0.717   8.215   0.139  1.9461  1.5119 -1.3774
25171SOL    HW281476   0.800   8.140   0.241 -1.1641 -0.5206 -0.1689
25172SOL     OW81477   4.460   6.845   2.878  0.0159  0.3609 -0.5042
25172SOL    HW181478   4.543   6.860   2.832  1.0427  0.4582  1.2543
25172SOL    HW281479   4.453   6.750   2.884 -0.6495  0.3167 -1.7114
25173SOL     OW81480   7.596   9.334   1.461  0.1692  0.4472 -0.3738
25173SOL    HW181481   7.609   9.241   1.482  0.0063  0.2544 -1.0848
25173SOL    HW281482   7.646   9.346   1.380 -0.8902  0.6524 -1.0054
25174SOL     OW81483   4.140   7.845   9.115  0.7611 -0.7964  0.3225
25174SOL    HW181484   4.197   7.793   9.058  2.2525  2.8854 -1.8550
25174SOL    HW281485   4.077   7.886   9.056 -0.2197  0.0372  1.8844
25175SOL     OW81486   5.279   5.711   7.064 -0.3783 -0.0721  0.2359
25175SOL    HW181487   5.230   5.753   6.994 -2.8511 -1.4446  1.0359
25175SOL    HW281488   5.323   5.783   7.109 -1.2707  1.1785 -0.8283
25176SOL     OW81489   4.817   6.607   4.421  0.1553 -0.6629 -0.0266
25176SOL    HW181490   4.817   6.645   4.509  1.8711  0.7858 -0.6150
25176SOL    HW281491   4.762   6.666   4.369  2.1611  0.6473 -0.7510
25177SOL     OW81492   6.380   3.189   0.560  0.1852 -0.0366 -0.0563
25177SOL    HW181493   6.399   3.214   0.651 -2.7071  0.7221  0.4624
25177SOL    HW281494   6.413   3.262   0.508 -0.0547  0.5541  0.6000
25178SOL     OW81495   8.758   8.215   2.017 -0.1374 -0.8501  0.3316
25178SOL    HW181496   8.823   8.208   2.087 -0.5821  1.0737  0.9905
25178SOL    HW281497   8.711   8.296   2.035 -0.0186 -0.0474 -2.4122
25179SOL     OW81498   3.056   7.245   0.879  0.4401 -0.0652  0.5306
25179SOL    HW181499   3.022   7.187   0.811  0.8464  0.2762  0.0252
25179SOL    HW281500   2.979   7.282   0.921  0.1827  0.1577 -0.1294
25180SOL     OW81501   0.710   2.151   2.632  0.3800 -0.4639 -0.3136
25180SOL    HW181502   0.800   2.181   2.617  0.4230 -0.7429 -0.6414
25180SOL    HW281503   0.674   2.213   2.695  0.9383 -0.5971  0.1468
25181SOL     OW81504   2.856   1.450   1.742  0.0263  0.0710 -0.1712
25181SOL    HW181505   2.782   1.451   1.682 -0.0423 -2.2397 -0.2471
25181SOL    HW281506   2.931   1.425   1.688  0.2718 -0.4813  0.4092
25182SOL     OW81507   0.283   8.143   6.959  0.3028 -0.0408  0.3796
25182SOL    HW181508   0.290   8.172   6.868  1.2475 -0.2530  0.3758
25182SOL    HW281509   0.332   8.208   7.009  1.6271 -1.0916  0.4790
25183SOL     OW81510   1.243   8.771   5.216 -0.1172  0.6175 -0.2920
25183SOL    HW181511   1.186   8.760   5.292  2.2932 -0.0692  1.5451
25183SOL    HW281512   1.276   8.861   5.223  2.1580 -0.2546  1.0901
25184SOL     OW81513   4.818   4.762   2.986 -0.2481  0.2486 -0.0220
25184SOL    HW181514   4.819   4.770   3.082 -1.1172 -0.0735  0.0216
25184SOL    HW281515   4.818   4.852   2.954  1.4186  0.3690  0.2446
25185SOL     OW81516   3.495   2.545   6.579 -0.1138  0.0392  0.5211
25185SOL    HW181517   3.580   2.584   6.557  0.3163 -1.3543 -0.4548
25185SOL    HW281518   3.504   2.519   6.671  0.4740  0.0199  0.4609
25186SOL     OW81519   7.082   0.468   8.226  0.1055 -0.0325 -0.2962
25186SOL    HW181520   7.011   0.476   8.162  0.5765  0.5932 -0.7500
25186SOL    HW281521   7.134   0.546   8.214  1.0868 -0.6599 -0.2217
25187SOL     OW81522   1.134   0.198   1.190 -0.2026 -0.0592  0.0940
25187SOL    HW181523   1.169   0.129   1.134  0.0984 -0.3638  0.6538
25187SOL    HW281524   1.202   0.266   1.191  0.8111 -1.0311  1.8937
25188SOL     OW81525   8.333   4.171   6.023 -0.0374 -0.1568 -0.1275
25188SOL    HW181526   8.376   4.099   5.977 -1.6199 -1.1519 -0.1120
25188SOL    HW281527   8.261   4.130   6.071 -0.3472  1.2995  0.7273
25189SOL     OW81528   5.228   1.935   6.083 -0.5306  0.0846 -0.3422
25189SOL    HW181529   5.241   2.016   6.033  0.1506  1.2938  1.6553
25189SOL    HW281530   5.283   1.946   6.161 -2.0156 -1.3967  1.0069
25190SOL     OW81531   7.315   0.905   4.408 -0.3638 -0.0327  0.1832
25190SOL    HW181532   7.309   0.996   4.377  1.3395  0.2896  0.7342
25190SOL    HW281533   7.287   0.853   4.332  0.8820  0.8744 -0.9636
25191SOL     OW81534   0.670   7.281   7.458  0.2703  0.0341  0.1246
25191SOL    HW181535   0.716   7.198   7.475  1.2237  1.0452  3.1325
25191SOL    HW281536   0.740   7.345   7.446 -0.3071  1.0569  1.8045
25192SOL     OW81537   3.999   2.619   8.014 -0.4235 -0.4097 -0.0787
25192SOL    HW181538   3.940   2.619   8.089  0.4245 -1.1950  0.6072
25192SOL    HW281539   3.963   2.552   7.955 -0.3245 -0.7559  0.2520
25193SOL     OW81540   0.593   6.698   0.871  0.4783  0.6134  0.2900
25193SOL    HW181541   0.560   6.782   0.903 -2.8874 -0.8847  1.2132
25193SOL    HW281542   0.576   6.699   0.777  2.4856  1.7011 -0.1280
25194SOL     OW81543   2.902   2.631   2.424  0.5130  0.2302 -0.0729
25194SOL    HW181544   2.907   2.727   2.422 -0.9794  0.3625  0.8257
25194SOL    HW281545   2.814   2.612   2.392 -0.2016 -0.6751  2.2466
25195SOL     OW81546   6.291   4.013   0.033  0.1865 -0.1636 -0.0141
25195SOL    HW181547   6.333   4.029   0.117 -0.3420 -0.8176  0.3838
25195SOL    HW281548   6.227   4.083   0.024  0.1268 -0.1905  0.2076
25196SOL     OW81549   2.066   3.209   3.324  0.0257 -0.1717  0.1707
25196SOL    HW181550   2.052   3.303   3.316 -0.6281 -0.1562  1.2886
25196SOL    HW281551   2.053   3.190   3.417 -3.2124 -1.8491 -0.4338
25197SOL     OW81552   5.537   7.468   4.389  0.4296 -0.5831  0.3611
25197SOL    HW181553   5.530   7.442   4.297 -0.3126 -1.3310  0.6140
25197SOL    HW281554   5.518   7.562   4.390  1.3511 -0.3778 -0.3570
25198SOL     OW81555   4.836   4.031   8.226  0.0394  0.5401 -0.4008
25198SOL    HW181556   4.765   4.091   8.208 -1.0554 -0.3813  0.6825
25198SOL    HW281557   4.793   3.946   8.240  1.3809 -0.1303 -0.1657
25199SOL     OW81558   0.010   7.903   1.263 -0.1736  0.3607  0.3140
25199SOL    HW181559   0.086   7.949   1.229 -0.0466 -1.1528 -1.6042
25199SOL    HW281560   0.038   7.868   1.347  1.3137 -0.2513 -0.4116
25200SOL     OW81561   1.694   2.005   9.004  0.0865 -0.0411 -0.6315
25200SOL    HW181562   1.647   1.966   9.078 -0.1723  1.1032 -0.1689
25200SOL    HW281563   1.782   1.967   9.008 -0.2641 -0.8516 -0.4315
25201SOL     OW81564   5.804   0.121   4.312 -0.1182  0.3782 -0.0612
25201SOL    HW181565   5.827   0.119   4.219 -0.6887 -1.1304 -0.2122
25201SOL    HW281566   5.868   0.179   4.352 -0.2758  1.5941 -1.4968
25202SOL     OW81567   5.962   8.862   0.016  0.9217 -0.6193 -0.4368
25202SOL    HW181568   6.008   8.802  -0.043  1.0873 -1.0785  0.1625
25202SOL    HW281569   5.889   8.895  -0.037  1.2290 -0.8101 -0.9949
25203SOL     OW81570   5.010   8.301   6.476 -0.3213 -0.2376  0.1200
25203SOL    HW181571   4.986   8.371   6.538  0.1192 -0.4262  0.5087
25203SOL    HW281572   5.052   8.235   6.531 -1.5507 -1.2238 -0.1005
25204SOL     OW81573   2.209   1.570   1.658  0.0637 -0.1673 -0.0997
25204SOL    HW181574   2.226   1.641   1.720  0.1517 -0.7165  0.5137
25204SOL    HW281575   2.116   1.578   1.638 -0.2459 -0.7279  1.0550
25205SOL     OW81576   4.880   5.621   5.427 -0.2559 -0.1125  0.0283
25205SOL    HW181577   4.802   5.667   5.396 -1.0643 -0.2349  1.7640
25205SOL    HW281578   4.932   5.689   5.470  0.2216 -0.1810 -0.4349
25206SOL     OW81579   3.206   0.948   6.023  0.5695 -0.4668 -0.6563
25206SOL    HW181580   3.279   0.888   6.038  1.2010 -0.0344 -1.8053
25206SOL    HW281581   3.145   0.899   5.968  0.5372 -0.4582 -0.6275
25207SOL     OW81582   8.610   6.547   4.822  0.0261 -0.3635 -0.1303
25207SOL    HW181583   8.686   6.587   4.863 -0.7936  0.5019  0.5730
25207SOL    HW281584   8.559   6.620   4.788 -0.6672 -0.9071 -0.2898
25208SOL     OW81585   0.131   5.474   2.159 -0.2548 -0.6608  0.0633
25208SOL    HW181586   0.046   5.463   2.116 -0.2676  0.9244 -0.3868
25208SOL    HW281587   0.170   5.387   2.157 -1.3529 -1.1650 -0.8385
25209SOL     OW81588   8.548   8.163   7.706  0.0647  0.1613 -0.1171
25209SOL    HW181589   8.604   8.240   7.699  0.7289 -0.4415 -2.6246
25209SOL    HW281590   8.461   8.194   7.681 -0.6234  0.8958  2.8647
25210SOL     OW81591   5.487   4.364   5.821  0.0890 -0.1404 -0.1510
25210SOL    HW181592   5.546   4.353   5.747  3.2838  0.6661  2.0621
25210SOL    HW281593   5.502   4.287   5.876  0.5696  0.9889  1.3647
25211SOL     OW81594   6.239   7.830   6.889 -0.2041 -0.1563  0.3820
25211SOL    HW181595   6.237   7.767   6.962  0.8163  0.6152  1.0966
25211SOL    HW281596   6.277   7.780   6.817 -0.3486 -0.6581  0.6423
25212SOL     OW81597   8.255   0.630   1.462  0.2606 -0.2893 -0.0362
25212SOL    HW181598   8.230   0.718   1.435 -0.9242 -0.6659 -0.2575
25212SOL    HW281599   8.316   0.642   1.534 -1.2863  0.7220  1.1649
25213SOL     OW81600   0.421   1.657   1.397  0.1656  0.2426 -0.1122
25213SOL    HW181601   0.461   1.628   1.479 -0.7986 -0.5606  0.1016
25213SOL    HW281602   0.464   1.605   1.330 -1.1430 -1.3426  0.2135
25214SOL     OW81603   2.866   1.828   9.018 -0.1311 -0.3281 -0.0014
25214SOL    HW181604   2.888   1.902   9.074 -0.6675 -0.9201  1.0263
25214SOL    HW281605   2.918   1.755   9.052 -1.8170 -1.1524  0.9675
25215SOL     OW81606   6.658   8.191   6.012 -0.4587  0.0114  0.7682
25215SOL    HW181607   6.573   8.161   6.042  0.4453 -3.0313  0.6538
25215SOL    HW281608   6.711   8.195   6.092 -0.2015 -0.1222  0.6063
25216SOL     OW81609   2.423   1.022   7.492  0.0504 -0.7739  0.3054
25216SOL    HW181610   2.382   1.039   7.577  1.4748 -0.4345  0.9568
25216SOL    HW281611   2.368   1.068   7.429  0.9252  2.0375  1.4521
25217SOL     OW81612   0.660   7.666   1.101 -0.7604  0.0074 -0.6013
25217SOL    HW181613   0.738   7.672   1.046 -0.7994  2.5953 -0.4826
25217SOL    HW281614   0.674   7.587   1.153  1.3568 -0.1003 -1.2301
25218SOL     OW81615   7.202   9.268   2.483 -0.3210 -0.3298 -0.0562
25218SOL    HW181616   7.120   9.268   2.531  1.7656 -1.4973  3.9723
25218SOL    HW281617   7.249   9.191   2.516  2.1473 -0.1763 -2.7474
25219SOL     OW81618   2.490   8.126   0.555  0.8672 -0.0341  0.7122
25219SOL    HW181619   2.524   8.182   0.485  1.2164  0.8354  1.5437
25219SOL    HW281620   2.395   8.129   0.545  0.8511  1.1467  1.0356
25220SOL     OW81621   3.976   2.738   6.710 -0.2280  0.4148 -0.0878
25220SOL    HW181622   4.040   2.667   6.721  3.0736  3.0903 -0.2691
25220SOL    HW281623   3.936   2.747   6.797  1.9320  0.5746  0.9619
25221SOL     OW81624   2.683   0.880   3.260 -0.0933 -0.2063 -0.9754
25221SOL    HW181625   2.647   0.954   3.212 -0.2065  0.8959  0.7391
25221SOL    HW281626   2.659   0.804   3.207 -2.2710  0.7515 -1.4813
25222SOL     OW81627   5.994   4.243   4.425  0.5389 -0.1432 -0.3636
25222SOL    HW181628   6.084   4.213   4.433  0.8403  0.7035 -0.4854
25222SOL    HW281629   5.947   4.169   4.387  1.3505 -0.3066 -1.0711
25223SOL     OW81630   8.385   3.498   8.979 -0.3652  0.2240 -0.7241
25223SOL    HW181631   8.370   3.514   8.886 -0.0116  0.1803 -0.7907
25223SOL    HW281632   8.351   3.576   9.023  1.2145  1.1413 -1.0331
25224SOL     OW81633   7.847   5.345   1.761 -0.1585 -0.7487  0.5407
25224SOL    HW181634   7.863   5.370   1.670 -1.9715 -1.9943 -0.1771
25224SOL    HW281635   7.762   5.301   1.759  0.0632 -1.3772  2.7383
25225SOL     OW81636   3.700   4.058   7.934  0.2964  0.2028 -0.6621
25225SOL    HW181637   3.719   3.984   7.877  0.9858 -0.4874  0.4248
25225SOL    HW281638   3.770   4.056   8.000 -0.9907  0.3798  0.7679
25226SOL     OW81639   7.007   7.922   7.144  0.0221 -0.3280  0.3950
25226SOL    HW181640   6.997   7.959   7.056  4.3695  0.4347  0.0019
25226SOL    HW281641   6.965   7.986   7.201 -0.9507  0.2958 -0.9518
25227SOL     OW81642   1.135   8.597   0.765  0.1941  0.1003  0.7489
25227SOL    HW181643   1.050   8.559   0.743  0.5198 -1.2786  1.7972
25227SOL    HW281644   1.115   8.686   0.795 -0.6521  0.5312 -0.9656
25228SOL     OW81645   0.881   5.943   2.118 -0.0079  0.3876 -0.0446
25228SOL    HW181646   0.885   6.006   2.190 -0.5419  0.6647 -0.2568
25228SOL    HW281647   0.958   5.887   2.131 -2.3441 -2.4207  3.3134
25229SOL     OW81648   2.979   5.010   0.892 -0.3165 -0.2781  0.3833
25229SOL    HW181649   2.977   5.063   0.972  0.9148 -0.2241  0.3950
25229SOL    HW281650   3.021   5.066   0.827 -0.0242 -0.8350  0.0875
25230SOL     OW81651   8.726   3.875   1.768  0.2478  0.4437  0.4927
25230SOL    HW181652   8.797   3.837   1.820  1.0203  0.0983 -0.7543
25230SOL    HW281653   8.743   3.844   1.679 -1.1127  0.8897  0.0547
25231SOL     OW81654   7.897   5.998   1.623  0.0486  0.2509  0.1313
25231SOL    HW181655   7.934   6.087   1.617  1.2536 -0.3081 -2.1478
25231SOL    HW281656   7.805   6.009   1.600  0.3417  0.8552 -0.8209
25232SOL     OW81657   8.050   0.851   1.878  0.5038  0.1017 -0.4031
25232SOL    HW181658   7.980   0.790   1.853  0.0638 -0.4237  1.9224
25232SOL    HW281659   8.004   0.927   1.914  1.0989  1.1339 -1.7424
25233SOL     OW81660   5.060   6.597   2.468 -0.0946 -0.0151 -0.1199
25233SOL    HW181661   5.100   6.646   2.396 -1.4882 -0.9886 -1.6401
25233SOL    HW281662   4.967   6.616   2.461 -0.2176  0.2733  1.7999
25234SOL     OW81663   8.518   5.657   1.939 -0.4198 -0.3083 -0.3198
25234SOL    HW181664   8.486   5.747   1.925  1.4580  0.4080 -0.3313
25234SOL    HW281665   8.555   5.632   1.855 -0.5031 -0.9225 -0.1776
25235SOL     OW81666   5.038   9.148   8.072  0.8266 -0.1475 -0.1699
25235SOL    HW181667   5.090   9.226   8.055 -0.8899  0.5632 -2.7695
25235SOL    HW281668   5.050   9.094   7.994 -1.6601 -0.2761 -0.5518
25236SOL     OW81669   0.757   8.975   0.863  0.6093 -0.2622  0.0406
25236SOL    HW181670   0.775   9.060   0.823  2.9890  0.1134  1.7250
25236SOL    HW281671   0.765   8.912   0.792  0.6666  0.7465 -0.8646
25237SOL     OW81672   6.558   2.873   1.159  0.1884 -0.2236  0.5140
25237SOL    HW181673   6.535   2.798   1.103  0.2411  0.0474  0.1236
25237SOL    HW281674   6.479   2.927   1.161  0.2065 -0.2028  0.6519
25238SOL     OW81675   1.436   3.922   7.226 -0.4928  0.1226  0.1058
25238SOL    HW181676   1.529   3.926   7.206 -0.4490 -1.5525 -0.1654
25238SOL    HW281677   1.405   4.012   7.216  0.8719  0.5126 -0.8579
25239SOL     OW81678   8.572   7.532   4.979  0.3419  0.3250 -0.1544
25239SOL    HW181679   8.607   7.564   5.062  1.8297 -1.1527 -0.1779
25239SOL    HW281680   8.635   7.467   4.949 -0.6157  0.1864 -2.0228
25240SOL     OW81681   8.954   8.904   8.951 -0.6281 -0.5603 -0.3821
25240SOL    HW181682   8.917   8.988   8.925  0.4182 -0.8825 -3.3078
25240SOL    HW281683   8.879   8.844   8.951 -0.9590 -0.1533 -0.8592
25241SOL     OW81684   8.456   7.918   1.627 -0.2574 -0.4161  0.0208
25241SOL    HW181685   8.384   7.978   1.643 -2.8088 -3.2872  0.3148
25241SOL    HW281686   8.456   7.904   1.532  0.1686 -0.1746 -0.0203
25242SOL     OW81687   1.626   4.986   4.202 -0.2356 -0.1854 -0.7176
25242SOL    HW181688   1.589   4.942   4.126  0.5210  0.9381 -1.7687
25242SOL    HW281689   1.551   5.000   4.260 -0.9518 -0.4690 -1.5477
25243SOL     OW81690   9.177   0.706   8.979 -0.1246  0.3238  0.2914
25243SOL    HW181691   9.209   0.668   8.897 -0.6436 -1.3579  0.8193
25243SOL    HW281692   9.084   0.725   8.962 -0.0991  0.4824  0.3255
25244SOL     OW81693   4.147   8.480   5.324  0.6421  0.3048  0.4352
25244SOL    HW181694   4.057   8.473   5.293  1.2796  0.3959 -1.5724
25244SOL    HW281695   4.140   8.482   5.419 -1.4191 -0.3873  0.3376
25245SOL     OW81696   8.349   2.533   0.433  0.0044  0.3086  1.0085
25245SOL    HW181697   8.271   2.565   0.478 -0.4419  0.9229 -0.1496
25245SOL    HW281698   8.340   2.566   0.344  1.1894 -0.3071  0.6403
25246SOL     OW81699   1.806   1.171   2.873  0.2671 -0.3647 -0.0856
25246SOL    HW181700   1.731   1.123   2.838 -0.6327  2.0192 -1.6737
25246SOL    HW281701   1.881   1.131   2.829 -0.3816 -0.7363 -0.8954
25247SOL     OW81702   2.911   0.718   6.001  0.5387  0.5816 -0.1660
25247SOL    HW181703   2.920   0.722   6.096  0.8718  0.2839 -0.1826
25247SOL    HW281704   2.820   0.692   5.986  0.6811 -0.0915  0.0930
25248SOL     OW81705   4.902   2.793   7.686  0.0545 -0.1668 -0.5059
25248SOL    HW181706   4.826   2.787   7.743 -0.4277 -0.6740 -1.1831
25248SOL    HW281707   4.946   2.709   7.696 -0.5843 -0.6621 -1.6125
25249SOL     OW81708   0.106   4.994   4.417  0.0975 -0.2281  0.2906
25249SOL    HW181709   0.024   5.022   4.377  0.1356  2.6407  1.9729
25249SOL    HW281710   0.104   4.899   4.412 -2.5179 -0.1801 -1.2336
25250SOL     OW81711   5.483   2.379   0.573 -0.3378  0.1149 -0.0957
25250SOL    HW181712   5.395   2.367   0.607 -0.1736  2.8990  1.5457
25250SOL    HW281713   5.482   2.466   0.534  2.0747  0.9329  1.4536
25251SOL     OW81714   7.038   2.181   6.136  0.6845 -0.0249  0.4133
25251SOL    HW181715   7.055   2.275   6.122 -0.5679  0.1845  0.2412
25251SOL    HW281716   7.117   2.150   6.180  2.3000  0.5287 -1.9110
25252SOL     OW81717   0.175   4.442   3.007 -0.3597 -0.3794  0.4740
25252SOL    HW181718   0.234   4.451   3.082  1.5796 -3.4297 -0.5135
25252SOL    HW281719   0.196   4.516   2.950  2.9710 -1.5783 -0.0325
25253SOL     OW81720   1.955   3.967   7.274 -0.3661 -0.1445  0.4964
25253SOL    HW181721   1.942   4.062   7.267 -1.3250 -0.3414 -0.5593
25253SOL    HW281722   2.030   3.958   7.334  0.7348  1.3253 -0.5774
25254SOL     OW81723   2.907   8.896   5.797  0.0115  0.3103 -0.3751
25254SOL    HW181724   2.982   8.861   5.750 -0.0324 -1.5766  0.8216
25254SOL    HW281725   2.919   8.991   5.796  2.2348  0.0777 -0.4931
25255SOL     OW81726   9.143   1.049   0.565 -0.0981  0.0544 -0.4154
25255SOL    HW181727   9.149   0.953   0.567 -0.0945  0.0603  2.0259
25255SOL    HW281728   9.231   1.078   0.544  0.0627 -0.4695 -0.4809
25256SOL     OW81729   5.591   4.164   0.796  0.3747 -0.2977  0.4491
25256SOL    HW181730   5.633   4.245   0.824  3.5461 -0.9013 -2.0664
25256SOL    HW281731   5.517   4.192   0.742  0.7959  0.8697  0.4594
25257SOL     OW81732   7.129   4.370   4.840  0.4601  0.0510 -0.4487
25257SOL    HW181733   7.058   4.394   4.900 -0.0088 -0.3525 -0.8363
25257SOL    HW281734   7.208   4.379   4.893 -0.0748 -2.3024  0.8917
25258SOL     OW81735   2.510   5.178   9.196  0.0233 -0.8607  0.2996
25258SOL    HW181736   2.435   5.122   9.176 -0.3624 -0.3466  0.2690
25258SOL    HW281737   2.527   5.224   9.114 -1.1416  0.7718  0.9171
25259SOL     OW81738   5.618   0.346   5.688  0.0407  0.0384 -0.2975
25259SOL    HW181739   5.679   0.392   5.631  0.4865 -1.3790 -1.0168
25259SOL    HW281740   5.586   0.413   5.748  0.5325  1.2971 -1.3918
25260SOL     OW81741   4.491   7.909   6.917 -0.9648 -0.6867  0.1079
25260SOL    HW181742   4.577   7.922   6.958 -0.3317 -1.0920 -1.0282
25260SOL    HW281743   4.442   7.988   6.940 -0.0195 -0.0867  0.1544
25261SOL     OW81744   0.482   3.148   2.347  0.2573  0.4159  0.3833
25261SOL    HW181745   0.536   3.162   2.425  0.6891  1.0908 -0.0299
25261SOL    HW281746   0.412   3.213   2.354 -0.1903 -0.0815  0.6282
25262SOL     OW81747   4.913   6.409   3.835 -0.1399 -0.0288  0.4220
25262SOL    HW181748   4.873   6.342   3.892  0.4554 -1.3692 -0.6714
25262SOL    HW281749   4.936   6.361   3.756 -0.7935  1.7515 -0.9035
25263SOL     OW81750   7.692   1.016   5.253  0.5663 -0.1701 -0.0618
25263SOL    HW181751   7.734   1.056   5.328  0.6732 -0.7990  0.2210
25263SOL    HW281752   7.702   0.921   5.267  0.8585 -0.2901 -1.0193
25264SOL     OW81753   0.740   1.331   6.653  0.3528 -0.6842 -0.6392
25264SOL    HW181754   0.813   1.272   6.673  1.8287  0.7248 -1.5758
25264SOL    HW281755   0.773   1.387   6.583 -1.6406  0.0498 -1.0650
25265SOL     OW81756   0.657   7.902   3.684 -0.2767 -0.1475 -0.8104
25265SOL    HW181757   0.715   7.888   3.609 -0.2017  0.4078 -0.8582
25265SOL    HW281758   0.696   7.975   3.731  0.1108 -0.9940  0.2111
25266SOL     OW81759   2.036   9.070   7.451 -0.1937  0.2319 -0.1296
25266SOL    HW181760   2.079   9.149   7.483 -1.9540  0.1408  2.7600
25266SOL    HW281761   2.101   9.000   7.465  0.7905  0.8832 -1.2492
25267SOL     OW81762   6.748   8.512   0.801  0.1637  0.5383  0.5538
25267SOL    HW181763   6.835   8.473   0.808  0.2579  0.8525  1.2805
25267SOL    HW281764   6.763   8.606   0.811 -0.2911  0.5661  1.0771
25268SOL     OW81765   1.843   5.793   0.792 -0.4506  0.0622  0.6854
25268SOL    HW181766   1.847   5.845   0.872  0.8956  0.9092  0.0999
25268SOL    HW281767   1.895   5.843   0.728 -0.3631 -1.2662 -0.3219
25269SOL     OW81768   5.434   4.106   7.918  0.4482 -0.0890  0.2071
25269SOL    HW181769   5.416   4.022   7.875  1.3815  0.0396 -0.4761
25269SOL    HW281770   5.495   4.149   7.859 -0.0491  1.0938  0.5367
25270SOL     OW81771   3.212   8.512   3.945  0.0053  0.5172  0.1953
25270SOL    HW181772   3.250   8.528   4.031  0.1521  2.0922 -0.1246
25270SOL    HW281773   3.118   8.500   3.962  0.2900 -1.0558  0.7468
25271SOL     OW81774   8.974   7.193   3.802  0.2164 -0.1516 -0.2631
25271SOL    HW181775   8.988   7.242   3.883  0.7167 -0.7571  0.0309
25271SOL    HW281776   9.033   7.234   3.738 -1.6236  1.6197 -0.9069
25272SOL     OW81777   1.613   7.281   7.967 -0.4255  0.5993 -0.7436
25272SOL    HW181778   1.551   7.209   7.977 -0.8942  1.2322  1.3513
25272SOL    HW281779   1.569   7.341   7.905 -0.6119 -0.2727 -1.4731
25273SOL     OW81780   4.716   3.703   0.886 -0.5509  0.0073  0.4480
25273SOL    HW181781   4.626   3.669   0.885 -0.4582 -0.3227 -2.3474
25273SOL    HW281782   4.771   3.626   0.872 -0.0790  0.6434 -1.4624
25274SOL     OW81783   8.333   4.662   7.979  0.1736  0.1883  0.0493
25274SOL    HW181784   8.309   4.594   8.042 -3.6753  2.6259  1.5760
25274SOL    HW281785   8.423   4.686   8.003  0.4188 -1.9736  1.6459
25275SOL     OW81786   3.778   7.915   2.774  0.4877  0.4598  0.4157
25275SOL    HW181787   3.825   7.833   2.759 -0.6762 -0.2125  0.3517
25275SOL    HW281788   3.714   7.893   2.842 -1.0383  0.8279 -0.8562
25276SOL     OW81789   5.856   6.746   6.236  0.4028  0.2003 -0.6884
25276SOL    HW181790   5.773   6.712   6.201  0.2582 -0.1068 -0.0650
25276SOL    HW281791   5.888   6.676   6.292  0.7344  0.6015 -0.3730
25277SOL     OW81792   5.028   1.758   1.188 -0.3161 -0.0899 -0.0851
25277SOL    HW181793   5.077   1.684   1.152 -2.1913 -1.4134 -0.0470
25277SOL    HW281794   5.044   1.754   1.282  0.8168  0.5193 -0.2358
25278SOL     OW81795   3.657   6.945   8.116 -0.6908 -0.1689 -0.2736
25278SOL    HW181796   3.573   6.928   8.158 -0.0037 -0.2962  1.1099
25278SOL    HW281797   3.645   7.027   8.069 -0.8574  1.2479  2.1066
25279SOL     OW81798   8.011   4.879   5.985 -0.0659 -0.4085 -0.1248
25279SOL    HW181799   8.053   4.840   5.908  0.2775 -0.2803 -0.0052
25279SOL    HW281800   8.016   4.812   6.052  1.2015  0.0869  0.3128
25280SOL     OW81801   7.653   7.992   0.800  0.1047 -0.3467  0.1587
25280SOL    HW181802   7.732   7.940   0.810 -0.3656 -1.0208  0.4736
25280SOL    HW281803   7.589   7.950   0.858 -0.3918  0.3615  0.1369
25281SOL     OW81804   6.657   4.865   8.320  1.0880 -0.0767 -0.4602
25281SOL    HW181805   6.580   4.817   8.287  1.0034 -3.1166  3.4828
25281SOL    HW281806   6.627   4.905   8.401  2.3132  3.6839 -1.6552
25282SOL     OW81807   1.990   8.511   0.234  0.1033 -0.9210  0.4449
25282SOL    HW181808   1.926   8.572   0.271 -0.0637  0.5316 -2.0525
25282SOL    HW281809   1.960   8.425   0.264 -1.9271 -0.1129  0.9003
25283SOL     OW81810   3.905   2.496   2.357 -0.4412  0.1713 -0.0044
25283SOL    HW181811   3.939   2.412   2.327  0.6158 -0.8155  3.4971
25283SOL    HW281812   3.981   2.554   2.358 -1.0222  1.0538 -1.6797
25284SOL     OW81813   6.648   7.056   0.409 -0.6117 -0.2391 -0.2792
25284SOL    HW181814   6.592   7.035   0.335  0.4839  0.0367 -1.2202
25284SOL    HW281815   6.711   6.984   0.413 -1.2929 -0.8064  1.0752
25285SOL     OW81816   1.751   2.220   4.710  0.3680  0.2771  0.0401
25285SOL    HW181817   1.797   2.302   4.729  0.5620  0.0952  0.3621
25285SOL    HW281818   1.734   2.224   4.615  0.2047  0.7750  0.0830
25286SOL     OW81819   1.463   7.064   5.835  0.4939  0.3449 -0.2456
25286SOL    HW181820   1.390   7.082   5.775  1.7365  2.7994 -1.1584
25286SOL    HW281821   1.527   7.017   5.781 -0.8434 -3.1815  0.9350
25287SOL     OW81822   5.630   4.451   7.720 -0.0140 -0.4711  0.2278
25287SOL    HW181823   5.719   4.465   7.752  0.2344 -0.4038 -0.4823
25287SOL    HW281824   5.617   4.519   7.654 -0.3656 -0.8805 -0.1305
25288SOL     OW81825   2.672   7.351   6.129 -0.0583 -0.0864 -0.2223
25288SOL    HW181826   2.731   7.423   6.110 -1.1452  1.0684  0.5992
25288SOL    HW281827   2.586   7.382   6.101 -0.4127 -1.4203 -0.6700
25289SOL     OW81828   8.008   9.263   8.268  0.0763 -0.6870  0.2439
25289SOL    HW181829   7.960   9.285   8.348 -0.3283  0.0847 -0.2071
25289SOL    HW281830   7.941   9.249   8.202  0.3977 -1.6337  0.1031
25290SOL     OW81831   2.665   2.163   8.970 -0.0594  0.3116 -0.5279
25290SOL    HW181832   2.707   2.245   8.996  0.7896 -0.0869 -0.6044
25290SOL    HW281833   2.689   2.101   9.039  0.4502 -0.2175 -1.1735
25291SOL     OW81834   9.344   1.468   2.701 -0.7762  1.0762 -0.0261
25291SOL    HW181835   9.341   1.381   2.661  1.0534  1.6753 -1.5988
25291SOL    HW281836   9.255   1.483   2.731 -0.8810 -1.9102  1.6436
25292SOL     OW81837   6.438   2.933   0.464 -0.2391  0.3807 -0.7613
25292SOL    HW181838   6.447   3.028   0.473  0.8428  0.4834 -2.4464
25292SOL    HW281839   6.343   2.919   0.458 -0.4007  1.3901 -0.8515
25293SOL     OW81840   3.761   6.448   6.505 -0.3800  0.2764 -0.5070
25293SOL    HW181841   3.692   6.513   6.488  0.1604  0.7785 -0.8215
25293SOL    HW281842   3.727   6.367   6.467 -1.3665  0.1881  0.4871
25294SOL     OW81843   6.014   8.022   3.489  0.0905 -0.0097  0.3207
25294SOL    HW181844   5.942   7.995   3.432  1.4579 -0.4377 -1.2900
25294SOL    HW281845   6.058   7.940   3.514  0.9698  0.3297 -0.0542
25295SOL     OW81846   2.810   5.563   4.620 -0.4756  0.3412  0.0826
25295SOL    HW181847   2.740   5.526   4.675 -1.4891  2.2982  0.1984
25295SOL    HW281848   2.864   5.614   4.680  1.8725 -2.0649  0.2193
25296SOL     OW81849   1.565   9.093   1.886  0.2821 -0.2780  0.0623
25296SOL    HW181850   1.585   9.088   1.792  0.9906 -1.9849  0.2712
25296SOL    HW281851   1.650   9.100   1.929 -0.0378  0.4680  0.5927
25297SOL     OW81852   5.445   1.895   1.252  0.2832  0.2428 -0.3911
25297SOL    HW181853   5.407   1.912   1.338  2.0306 -0.3302  0.5529
25297SOL    HW281854   5.427   1.975   1.202 -2.7705 -0.2946 -0.3210
25298SOL     OW81855   1.771   0.483   7.765 -0.6045 -0.1398 -0.2018
25298SOL    HW181856   1.862   0.462   7.745 -0.3857  1.8830 -1.6306
25298SOL    HW281857   1.768   0.491   7.860  0.7339 -0.1714 -0.1379
25299SOL     OW81858   8.761   2.968   7.766  0.6816  0.0161  0.3778
25299SOL    HW181859   8.727   3.051   7.798  2.2166 -0.3675  3.4155
25299SOL    HW281860   8.684   2.913   7.752 -0.1950  0.8105  1.9140
25300SOL     OW81861   5.172   8.604   8.344 -0.5247  0.1731 -0.0135
25300SOL    HW181862   5.166   8.668   8.272 -2.1372  0.1565  0.0756
25300SOL    HW281863   5.103   8.630   8.405 -3.7219 -3.5446 -1.5663
25301SOL     OW81864   3.016   4.162   5.775 -0.0735  0.0753  0.6349
25301SOL    HW181865   3.060   4.078   5.760 -0.0877  0.0257  0.8679
25301SOL    HW281866   2.976   4.183   5.690 -0.4213 -0.3565  0.6859
25302SOL     OW81867   8.074   6.210   7.063  0.1867  0.0069  0.1065
25302SOL    HW181868   8.168   6.217   7.043  0.2213  0.0909  0.2973
25302SOL    HW281869   8.034   6.187   6.979  0.3819 -0.0666  0.0312
25303SOL     OW81870   7.707   3.893   7.969  0.1019 -0.1925 -0.2388
25303SOL    HW181871   7.720   3.812   8.018  3.0547  0.3141  0.0135
25303SOL    HW281872   7.732   3.872   7.879  0.2345  0.2710 -0.3159
25304SOL     OW81873   3.594   4.382   7.946 -0.2570  0.1542 -0.1962
25304SOL    HW181874   3.625   4.353   8.032  1.8227 -0.4662 -1.0974
25304SOL    HW281875   3.573   4.475   7.959  0.6706  0.2443  0.8286
25305SOL     OW81876   1.234   8.435   0.553  0.1007  0.1214  0.3755
25305SOL    HW181877   1.297   8.501   0.525 -0.1535 -0.3833 -1.5300
25305SOL    HW281878   1.169   8.483   0.604  0.6933  1.0738  0.2468
25306SOL     OW81879   2.644   1.681   1.882 -0.0206 -0.2054 -0.0255
25306SOL    HW181880   2.735   1.665   1.856 -0.1479  1.0831 -1.4351
25306SOL    HW281881   2.592   1.655   1.806 -0.7834 -0.3013  0.5170
25307SOL     OW81882   8.932   2.892   7.544  0.1136  0.4670  0.1193
25307SOL    HW181883   8.986   2.846   7.608 -0.1311 -0.9955 -0.6695
25307SOL    HW281884   8.898   2.968   7.591  2.1576  0.9643  0.8703
25308SOL     OW81885   7.843   8.481   7.518 -0.4774  0.0326  0.7040
25308SOL    HW181886   7.852   8.531   7.437  1.5276  0.5508  1.1860
25308SOL    HW281887   7.773   8.418   7.499 -0.2859  0.3395 -1.3275
25309SOL     OW81888   1.095   6.988   7.266  0.0846  0.2980  0.1867
25309SOL    HW181889   1.105   6.902   7.307 -0.0452  0.7684  1.2526
25309SOL    HW281890   1.177   7.034   7.284  0.5191  0.0946 -1.1742
25310SOL     OW81891   4.269   4.554   4.477  0.0557  0.1830 -0.0300
25310SOL    HW181892   4.188   4.602   4.495 -0.6197 -0.9180 -0.0490
25310SOL    HW281893   4.319   4.560   4.559 -0.3037  0.3783  0.1757
25311SOL     OW81894   1.382   1.615   0.735 -0.0915 -0.3455  0.2165
25311SOL    HW181895   1.443   1.561   0.785 -0.4577  0.2883  1.3787
25311SOL    HW281896   1.426   1.699   0.727 -0.6631  0.0126  0.7690
25312SOL     OW81897   8.304   1.330   6.876  0.5208 -0.0733  0.7504
25312SOL    HW181898   8.226   1.325   6.821  0.8652  0.2125  0.2361
25312SOL    HW281899   8.296   1.414   6.922 -0.7687 -1.1433  2.6748
25313SOL     OW81900   7.042   0.077   2.284  0.1519  0.0397  0.3997
25313SOL    HW181901   6.993  -0.003   2.263 -0.1818  0.4344 -0.3399
25313SOL    HW281902   7.016   0.097   2.374 -0.5091 -0.1437  0.2540
25314SOL     OW81903   8.523   2.292   1.680  0.5088 -0.5912  0.1224
25314SOL    HW181904   8.597   2.280   1.739  0.5206 -2.8434 -0.2716
25314SOL    HW281905   8.538   2.231   1.608 -1.0977 -0.1910 -0.6215
25315SOL     OW81906   2.159   6.670   9.171 -0.2809 -0.3390 -0.6815
25315SOL    HW181907   2.210   6.604   9.219 -2.3345 -0.5528  1.4180
25315SOL    HW281908   2.217   6.745   9.164  0.1726 -0.2938  2.3135
25316SOL     OW81909   8.368   3.281   5.689 -0.1433 -0.5099 -0.2182
25316SOL    HW181910   8.315   3.353   5.655  0.2726 -0.2694 -0.3667
25316SOL    HW281911   8.412   3.246   5.611  1.4031  0.5244  0.1417
25317SOL     OW81912   2.253   2.015   7.919  0.0045 -0.1831  0.0268
25317SOL    HW181913   2.172   2.058   7.945 -1.1301 -0.9214 -1.9769
25317SOL    HW281914   2.262   1.943   7.981 -0.5119  0.2980  0.6825
25318SOL     OW81915   8.941   8.467   6.522 -0.1821 -1.1270 -0.0787
25318SOL    HW181916   8.952   8.435   6.432  0.8439  1.0768 -0.7878
25318SOL    HW281917   9.027   8.457   6.562 -0.5335 -1.6959  0.5673
25319SOL     OW81918   1.423   5.579   8.755  0.5996  1.1017  0.1099
25319SOL    HW181919   1.357   5.639   8.720 -0.2490  0.5129  0.6328
25319SOL    HW281920   1.476   5.632   8.814 -1.1422  1.0438  1.8214
25320SOL     OW81921   5.788   5.474   1.681 -0.1875 -0.2312  0.5744
25320SOL    HW181922   5.748   5.389   1.700  0.0382 -0.4884 -0.0893
25320SOL    HW281923   5.781   5.484   1.586 -1.1984  0.9875  0.7445
25321SOL     OW81924   0.632   5.879   1.981  0.2612 -0.3506  0.3681
25321SOL    HW181925   0.712   5.868   2.032 -0.1521  0.8967  1.3294
25321SOL    HW281926   0.645   5.960   1.933 -0.9868  0.6512  1.6530
25322SOL     OW81927   7.861   2.853   7.262  0.1534 -0.4080 -0.5235
25322SOL    HW181928   7.772   2.819   7.271 -0.2476  0.3669 -1.3883
25322SOL    HW281929   7.906   2.788   7.207  0.3035 -1.0808  0.3653
25323SOL     OW81930   7.721   4.013   7.510  0.6633  0.3553  0.2057
25323SOL    HW181931   7.759   3.999   7.597 -0.4675 -1.1617  0.5184
25323SOL    HW281932   7.770   4.085   7.472  2.8907 -0.6236  1.1002
25324SOL     OW81933   7.424   6.969   6.760  0.0201  0.0896  0.2046
25324SOL    HW181934   7.505   6.998   6.718 -0.6475 -0.2473 -1.3979
25324SOL    HW281935   7.382   7.049   6.791  0.2270  0.4172 -0.3524
25325SOL     OW81936   7.299   7.190   3.755 -0.5712  0.0816 -0.2023
25325SOL    HW181937   7.235   7.253   3.724 -0.9211  0.5946  1.4471
25325SOL    HW281938   7.382   7.219   3.717 -0.7026  1.6538  0.6416
25326SOL     OW81939   2.176   6.979   8.516 -0.1037  0.2672 -0.0941
25326SOL    HW181940   2.164   7.051   8.577  0.0890 -0.2148  0.5235
25326SOL    HW281941   2.090   6.938   8.508  0.0059 -0.0420  0.3256
25327SOL     OW81942   7.986   1.415   1.324 -0.1208 -0.3069  0.3457
25327SOL    HW181943   7.918   1.435   1.388  0.3786  0.6710  0.5919
25327SOL    HW281944   8.038   1.496   1.318  0.5886 -0.7996 -0.3611
25328SOL     OW81945   2.164   7.591   1.517 -0.0809 -0.2643  0.4142
25328SOL    HW181946   2.179   7.515   1.573  0.9752 -0.5045 -0.1619
25328SOL    HW281947   2.170   7.666   1.576  2.2093 -0.4394  0.4897
25329SOL     OW81948   3.189   8.980   6.795 -1.1528 -0.1438 -0.4582
25329SOL    HW181949   3.147   8.902   6.757  1.0209 -1.2168 -0.7909
25329SOL    HW281950   3.271   8.988   6.748 -0.2934  1.0048  1.1547
25330SOL     OW81951   1.768   5.600   2.311  0.4494 -0.1133 -0.0445
25330SOL    HW181952   1.714   5.522   2.294 -2.1419  1.8224 -1.2810
25330SOL    HW281953   1.785   5.596   2.405 -0.1425 -1.8519  0.0391
25331SOL     OW81954   1.611   5.172   1.658  0.0058  0.2789  0.0112
25331SOL    HW181955   1.607   5.163   1.563 -1.3522 -1.2514  0.1494
25331SOL    HW281956   1.530   5.217   1.681 -0.3825 -0.6343  0.5144
25332SOL     OW81957   5.048   3.705   5.531  0.7407  0.1889  0.1811
25332SOL    HW181958   5.083   3.793   5.524  2.8805 -0.6621 -0.5653
25332SOL    HW281959   5.122   3.648   5.513 -0.5354 -1.7829  0.8387
25333SOL     OW81960   3.403   9.066   6.054  0.1248 -0.5839  0.0199
25333SOL    HW181961   3.461   9.110   5.992  0.8291 -0.4386  0.7826
25333SOL    HW281962   3.372   9.135   6.113  1.2689 -1.0825  1.2454
25334SOL     OW81963   2.826   7.199   8.315 -0.1673 -0.1665 -0.3294
25334SOL    HW181964   2.878   7.126   8.280 -0.3812  0.7135 -2.6298
25334SOL    HW281965   2.865   7.217   8.401  2.1144 -0.7430 -1.1785
25335SOL     OW81966   1.870   5.231   8.289  0.0484 -0.2653 -0.0784
25335SOL    HW181967   1.814   5.177   8.346  0.2573 -0.2344  0.1601
25335SOL    HW281968   1.946   5.175   8.270 -0.4660 -0.6250 -1.1115
25336SOL     OW81969   0.445   7.694   8.739  0.7210  0.2051  0.0630
25336SOL    HW181970   0.448   7.735   8.825 -0.5369 -0.6370  0.5461
25336SOL    HW281971   0.536   7.670   8.720  1.1740  1.4130  0.6293
25337SOL     OW81972   8.370   2.072   2.272 -0.2231 -0.6099 -0.1330
25337SOL    HW181973   8.287   2.095   2.314 -0.6359  0.8200 -1.6239
25337SOL    HW281974   8.352   2.076   2.178  1.5032 -0.3511 -0.4969
25338SOL     OW81975   5.486   7.161   6.378 -0.5271 -0.3191  0.3116
25338SOL    HW181976   5.538   7.100   6.326 -1.4527 -2.1328  1.4013
25338SOL    HW281977   5.543   7.184   6.452  0.9848  2.6652 -1.6070
25339SOL     OW81978   5.587   2.197   4.487  0.1568 -0.0461 -0.0497
25339SOL    HW181979   5.683   2.189   4.484  0.1692 -0.0119  0.2848
25339SOL    HW281980   5.559   2.179   4.397  0.2873 -2.3460  0.3197
25340SOL     OW81981   5.505   6.800   5.080 -0.1105  0.0209 -0.3129
25340SOL    HW181982   5.581   6.855   5.063  0.0232 -0.5187 -1.5062
25340SOL    HW281983   5.503   6.736   5.009 -1.8206  0.1780 -0.4673
25341SOL     OW81984   5.123   7.898   4.378  0.2536  0.3221  0.7240
25341SOL    HW181985   5.165   7.848   4.307 -0.7280 -1.1867  1.1712
25341SOL    HW281986   5.185   7.892   4.451  0.8189  1.0384  0.3070
25342SOL     OW81987   0.846   5.254   1.707 -0.2895 -0.0959  0.1130
25342SOL    HW181988   0.800   5.200   1.643 -2.7894 -1.1745  2.6592
25342SOL    HW281989   0.821   5.344   1.684  0.9781 -0.1907 -1.9247
25343SOL     OW81990   7.881   0.400   8.034 -0.0961  0.4522  0.6197
25343SOL    HW181991   7.810   0.428   7.977  0.2255  0.0262 -0.0007
25343SOL    HW281992   7.928   0.480   8.055 -0.0910  0.5859  0.1121
25344SOL     OW81993   5.743   4.817   4.784  0.0070 -0.1462  0.5192
25344SOL    HW181994   5.792   4.821   4.702 -0.9219  0.7977 -0.0171
25344SOL    HW281995   5.706   4.730   4.786 -0.3885 -0.0051 -0.3293
25345SOL     OW81996   8.389   8.848   4.980  0.0009  0.1587  0.4840
25345SOL    HW181997   8.388   8.753   4.976 -0.3958  0.2098 -0.9176
25345SOL    HW281998   8.402   8.867   5.073  2.4104 -1.2447  0.5263
25346SOL     OW81999   3.809   8.814   2.146 -0.4261 -0.6177 -0.6034
25346SOL    HW182000   3.730   8.861   2.172 -0.2471 -1.2824  1.3796
25346SOL    HW282001   3.832   8.762   2.224  3.1572  1.1469 -0.2721
25347SOL     OW82002   2.723   4.156   7.070  0.0845  0.7594  0.4950
25347SOL    HW182003   2.805   4.122   7.106 -0.8270  0.3104  2.2615
25347SOL    HW282004   2.749   4.234   7.022  1.5249  0.7424  1.1863
25348SOL     OW82005   8.867   6.634   2.401  0.0076  0.3360  0.1606
25348SOL    HW182006   8.845   6.582   2.478  0.2558  0.7973  0.5417
25348SOL    HW282007   8.799   6.611   2.337  0.6872 -1.2413 -0.0520
25349SOL     OW82008   1.857   6.929   6.318 -0.1805 -0.1684  0.0310
25349SOL    HW182009   1.881   6.847   6.361 -1.2866 -0.1214  0.7969
25349SOL    HW282010   1.835   6.904   6.228 -0.2700 -0.6719  0.1937
25350SOL     OW82011   4.533   4.309   6.211 -0.4196 -0.5933 -0.3288
25350SOL    HW182012   4.469   4.273   6.272 -1.4315  0.6852 -0.6033
25350SOL    HW282013   4.607   4.334   6.265 -1.7288  1.5242  0.5770
25351SOL     OW82014   5.840   5.849   8.744 -0.7077  0.2984 -0.2246
25351SOL    HW182015   5.897   5.902   8.688 -1.7353  1.2904 -0.3570
25351SOL    HW282016   5.866   5.759   8.725 -2.0719  0.4649 -3.5589
25352SOL     OW82017   2.658   3.429   4.176 -0.2430 -0.2978  0.4365
25352SOL    HW182018   2.713   3.506   4.164 -2.2319  1.0861 -0.2989
25352SOL    HW282019   2.607   3.448   4.255  0.3722 -1.6005  1.1721
25353SOL     OW82020   7.499   4.852   0.451  0.0732 -0.0570 -0.8302
25353SOL    HW182021   7.407   4.837   0.469  0.0172  0.3467 -0.7603
25353SOL    HW282022   7.528   4.775   0.402 -0.3827 -0.0362 -1.1377
25354SOL     OW82023   5.794   2.491   6.074 -0.0795 -0.0993 -0.0755
25354SOL    HW182024   5.833   2.575   6.098  0.0786 -0.2737  0.2884
25354SOL    HW282025   5.740   2.467   6.149  1.3515 -1.2215  0.6647
25355SOL     OW82026   9.209   9.164   9.345 -0.6358 -0.2499 -0.4007
25355SOL    HW182027   9.129   9.153   9.295  0.5861  2.2918 -3.2584
25355SOL    HW282028   9.216   9.259   9.358  0.7234 -0.5880  1.9567
25356SOL     OW82029   4.980   7.275   9.067  0.1822 -0.5360 -0.5532
25356SOL    HW182030   5.018   7.344   9.015  1.8862 -1.0548 -0.0569
25356SOL    HW282031   4.914   7.235   9.010 -0.4570  1.1095 -1.0244
25357SOL     OW82032   1.591   5.196   2.117 -0.1942  0.3001 -0.5819
25357SOL    HW182033   1.524   5.152   2.169 -0.0457  0.2636 -0.4225
25357SOL    HW282034   1.603   5.140   2.040 -0.5589  0.4554 -0.7595
25358SOL     OW82035   2.448   2.808   4.064  0.3977  0.1765  0.4038
25358SOL    HW182036   2.511   2.792   4.135  0.5568  0.4328  0.3221
25358SOL    HW282037   2.395   2.881   4.096  0.6268  0.4523  0.1571
25359SOL     OW82038   8.576   0.391   6.400  0.2453  0.2146 -0.2921
25359SOL    HW182039   8.486   0.417   6.418  0.1951 -0.7012  0.8735
25359SOL    HW282040   8.610   0.461   6.344 -0.3803  1.9005  1.3257
25360SOL     OW82041   4.727   8.096   7.490  0.1617 -0.0848  0.9271
25360SOL    HW182042   4.638   8.076   7.521 -0.7271 -0.4293 -1.5551
25360SOL    HW282043   4.714   8.161   7.421  1.4322 -2.2979 -1.5975
25361SOL     OW82044   1.270   6.421   7.668  0.0744  0.2262 -0.2213
25361SOL    HW182045   1.210   6.480   7.622 -0.7851  0.1059  0.6875
25361SOL    HW282046   1.255   6.335   7.628 -0.5304  0.1590  0.1233
25362SOL     OW82047   6.371   2.785   2.355  0.1273 -0.3007 -0.3413
25362SOL    HW182048   6.372   2.707   2.411 -1.1675 -0.6634 -0.8059
25362SOL    HW282049   6.311   2.764   2.284  0.8042  0.6221 -1.2238
25363SOL     OW82050   1.533   3.347   8.553  0.0631 -0.1431 -0.3771
25363SOL    HW182051   1.553   3.254   8.566  0.8209  0.1506  0.8129
25363SOL    HW282052   1.619   3.389   8.546 -0.2027  0.6606  0.7596
25364SOL     OW82053   0.550   1.648   5.684 -0.0865 -0.2148 -0.4520
25364SOL    HW182054   0.474   1.614   5.731 -1.2019 -0.4881 -2.3557
25364SOL    HW282055   0.611   1.673   5.753 -1.6674 -0.4939  1.1305
25365SOL     OW82056   0.814   3.883   4.129  0.1192 -0.0103 -0.0587
25365SOL    HW182057   0.843   3.955   4.186  1.9919 -0.8734  0.1549
25365SOL    HW282058   0.736   3.918   4.085  1.7728  2.7925 -1.1141
25366SOL     OW82059   3.447   8.747   1.890  0.5517 -0.6471  0.6293
25366SOL    HW182060   3.391   8.681   1.931  0.3636 -0.6625  0.3505
25366SOL    HW282061   3.509   8.771   1.958 -0.0599 -0.3199  1.0835
25367SOL     OW82062   4.630   6.951   5.356  0.2559  0.1726  0.3767
25367SOL    HW182063   4.700   6.887   5.348 -0.5935 -0.6621 -0.6995
25367SOL    HW282064   4.635   6.981   5.446  3.1479  1.5139 -0.1183
25368SOL     OW82065   2.997   6.127   9.022 -0.2859  0.0748  0.5959
25368SOL    HW182066   3.052   6.169   8.955 -0.1339  1.4771  1.5487
25368SOL    HW282067   3.055   6.119   9.098 -0.1041 -2.5521  0.2857
25369SOL     OW82068   8.915   5.031   2.992  0.0735  0.1474 -0.4148
25369SOL    HW182069   8.978   5.070   3.051 -2.0258  1.4904  1.0782
25369SOL    HW282070   8.966   5.007   2.914  2.8874 -1.3906  1.7212
25370SOL     OW82071   1.653   5.090   8.863 -0.0273 -0.3624  0.3354
25370SOL    HW182072   1.712   5.083   8.938  0.4933 -4.1652 -0.2324
25370SOL    HW282073   1.565   5.082   8.900  0.1068 -0.1966  0.6909
25371SOL     OW82074   1.983   2.095   8.379 -0.2721 -0.4617  0.0976
25371SOL    HW182075   1.975   2.053   8.465  0.7173  0.1096  0.4847
25371SOL    HW282076   1.894   2.098   8.346 -0.9482  0.9835  1.9011
25372SOL     OW82077   8.188   1.531   7.291  0.0123  0.5009 -0.0895
25372SOL    HW182078   8.190   1.609   7.348 -0.0932  0.3229  0.1606
25372SOL    HW282079   8.125   1.473   7.333  2.1189 -0.9164  1.3027
25373SOL     OW82080   9.184   2.209   4.186 -0.3873 -0.4833  0.4657
25373SOL    HW182081   9.187   2.113   4.181 -0.9294 -0.5097  0.5864
25373SOL    HW282082   9.172   2.228   4.279  1.2023 -0.2453  0.6495
25374SOL     OW82083   0.633   8.886   2.234 -0.5242  0.6171 -0.2632
25374SOL    HW182084   0.656   8.799   2.267 -0.1718  0.7483 -0.1565
25374SOL    HW282085   0.655   8.883   2.141  0.4144  0.8995 -0.0638
25375SOL     OW82086   4.980   4.245   6.274  0.0603 -0.1464 -0.0030
25375SOL    HW182087   4.949   4.163   6.236  0.2571 -0.5543  0.6989
25375SOL    HW282088   5.066   4.224   6.312 -0.8067 -0.1853  2.0794
25376SOL     OW82089   0.336   9.147   1.632 -1.5492 -0.3141 -0.3631
25376SOL    HW182090   0.430   9.134   1.619 -1.4196 -0.7680  0.9398
25376SOL    HW282091   0.299   9.059   1.626 -1.6834 -0.3347  0.6240
25377SOL     OW82092   8.882   0.274   0.202 -0.2255 -0.7013 -0.0631
25377SOL    HW182093   8.969   0.300   0.231 -1.1467  0.6847  1.5652
25377SOL    HW282094   8.865   0.327   0.124  0.7548 -1.7330 -1.0192
25378SOL     OW82095   0.959   2.456   5.372  0.0368 -0.0733  0.4832
25378SOL    HW182096   0.890   2.400   5.336  0.1773 -0.6420  1.0837
25378SOL    HW282097   1.039   2.422   5.334  0.0409  0.2604  0.1895
25379SOL     OW82098   5.893   0.171   8.151  0.0381  0.0513  0.2064
25379SOL    HW182099   5.929   0.107   8.089 -0.7931  0.1660 -0.4111
25379SOL    HW282100   5.851   0.236   8.095 -0.6009  0.2340  0.8950
25380SOL     OW82101   9.230   0.411   7.321 -0.3903  0.6919  0.1272
25380SOL    HW182102   9.232   0.507   7.326 -2.5081  0.7562  0.7947
25380SOL    HW282103   9.174   0.385   7.393 -0.4989 -1.0137 -0.5414
25381SOL     OW82104   2.797   3.878   1.883  0.3522 -0.8298 -0.2719
25381SOL    HW182105   2.835   3.796   1.915  1.4264 -0.0128  0.6035
25381SOL    HW282106   2.723   3.850   1.830  2.2550 -2.5147 -2.2417
25382SOL     OW82107   9.099   6.490   8.283 -0.7208 -0.3213 -0.5089
25382SOL    HW182108   9.003   6.495   8.287 -0.6974  2.0827 -1.5308
25382SOL    HW282109   9.123   6.548   8.211  1.6306  0.6670  0.9572
25383SOL     OW82110   1.340   5.829   7.625 -0.2241  0.2552  0.1236
25383SOL    HW182111   1.379   5.904   7.670  0.2782 -1.2483  2.3613
25383SOL    HW282112   1.408   5.798   7.566  0.1496  0.6041  0.3689
25384SOL     OW82113   1.062   2.733   4.271  0.0912 -0.7085  0.6371
25384SOL    HW182114   1.029   2.749   4.183  1.7280  1.0817  0.2707
25384SOL    HW282115   0.984   2.712   4.323 -0.8378 -2.3819 -1.2983
25385SOL     OW82116   0.957   5.369   5.207  0.0425  0.2029  0.1388
25385SOL    HW182117   0.872   5.398   5.174 -0.4245 -1.0184  0.1990
25385SOL    HW282118   1.011   5.357   5.129  0.0649  0.7065  0.0781
25386SOL     OW82119   6.935   8.959   7.430  0.3729 -0.0504 -0.3211
25386SOL    HW182120   6.964   9.007   7.508 -0.5767  0.3676 -0.2141
25386SOL    HW282121   6.873   9.019   7.387  2.7330  0.8272 -2.7813
25387SOL     OW82122   6.125   6.246   3.876  0.1306 -0.3063  0.1080
25387SOL    HW182123   6.075   6.217   3.952  0.2371  1.2690  0.8198
25387SOL    HW282124   6.087   6.197   3.803 -0.9701 -0.7602  0.9439
25388SOL     OW82125   2.310   1.809   8.100 -0.0511  0.6614 -0.1321
25388SOL    HW182126   2.306   1.830   8.193 -0.1534  1.2630 -0.2726
25388SOL    HW282127   2.379   1.742   8.094 -2.4855 -2.2056  0.8839
25389SOL     OW82128   6.802   7.103   3.325  0.3790  0.2945 -0.1109
25389SOL    HW182129   6.877   7.141   3.371  1.0053 -1.6152  0.5770
25389SOL    HW282130   6.733   7.169   3.332  0.9296  0.7137  2.3216
25390SOL     OW82131   6.137   3.483   8.826  0.2880 -0.2405  0.3506
25390SOL    HW182132   6.206   3.429   8.788  1.3267  0.7715  0.7148
25390SOL    HW282133   6.091   3.520   8.751  1.2922  0.4649  0.0582
25391SOL     OW82134   0.719   8.362   1.952  0.5519 -0.1573 -0.2575
25391SOL    HW182135   0.669   8.440   1.927  0.4103 -0.1308  0.1049
25391SOL    HW282136   0.653   8.300   1.981  0.7491  0.0003  0.5590
25392SOL     OW82137   5.666   5.399   4.997  0.2199  0.0540  0.3777
25392SOL    HW182138   5.672   5.326   5.058  1.5769  0.4179  0.7250
25392SOL    HW282139   5.607   5.461   5.039 -0.5814 -0.6377  0.2895
25393SOL     OW82140   2.628   4.537   0.750 -0.6506  0.0608  0.3029
25393SOL    HW182141   2.640   4.512   0.659  1.2051  0.0131  0.5188
25393SOL    HW282142   2.691   4.608   0.764 -0.8727  0.0469  1.5445
25394SOL     OW82143   7.279   9.336   5.734 -0.2069  0.4928  0.3573
25394SOL    HW182144   7.263   9.318   5.642 -0.2026  1.3242  0.1870
25394SOL    HW282145   7.215   9.281   5.781 -0.1152 -0.0356 -0.1257
25395SOL     OW82146   3.328   3.152   0.238  0.1267  0.1214 -0.4988
25395SOL    HW182147   3.301   3.222   0.299  2.9232  1.4409 -0.6228
25395SOL    HW282148   3.373   3.088   0.293  0.4008  0.0340 -0.8211
25396SOL     OW82149   5.557   8.338   3.916  0.1746  0.2246  0.0663
25396SOL    HW182150   5.601   8.258   3.887  0.7810  1.2454 -1.9709
25396SOL    HW282151   5.560   8.333   4.012 -0.4346 -2.4990  0.0405
25397SOL     OW82152   0.328   9.368   5.452 -0.0859  0.2033  0.1344
25397SOL    HW182153   0.410   9.418   5.451  0.1798 -0.1680 -2.1404
25397SOL    HW282154   0.275   9.408   5.383 -1.1506 -0.6314  0.4442
25398SOL     OW82155   1.546   6.138   8.527 -0.2805  0.4896  0.2241
25398SOL    HW182156   1.522   6.046   8.520  2.2814 -0.2768  0.2210
25398SOL    HW282157   1.479   6.185   8.478 -0.7014 -1.5635 -1.2985
25399SOL     OW82158   6.546   6.289   5.206 -0.2106 -0.1406 -0.0296
25399SOL    HW182159   6.532   6.196   5.188 -3.2939  0.5300 -1.7555
25399SOL    HW282160   6.463   6.318   5.244  0.6744  1.9426  0.3980
25400SOL     OW82161   4.651   4.314   3.861  0.3836  0.0676  0.7993
25400SOL    HW182162   4.564   4.320   3.821 -0.3135  0.5085  2.3015
25400SOL    HW282163   4.707   4.280   3.791 -0.5548  1.7012 -0.8436
25401SOL     OW82164   5.474   0.609   3.783  0.6964  0.5639 -0.1037
25401SOL    HW182165   5.504   0.518   3.787  0.5916  0.4932 -0.8641
25401SOL    HW282166   5.517   0.645   3.706 -0.2675  0.7860 -0.5501
25402SOL     OW82167   8.923   3.365   2.508  0.3409 -0.4506 -0.3857
25402SOL    HW182168   8.871   3.402   2.579  0.9218  0.6151 -0.5042
25402SOL    HW282169   8.870   3.381   2.429  0.1798 -0.6944 -0.3293
25403SOL     OW82170   6.738   9.058   2.510 -0.5145 -0.5777 -0.2360
25403SOL    HW182171   6.827   9.091   2.515 -0.4149 -1.0108  1.4611
25403SOL    HW282172   6.739   8.978   2.563 -1.5819 -1.3636 -1.3502
25404SOL     OW82173   0.781   3.910   8.569  0.7412 -0.4837 -0.2918
25404SOL    HW182174   0.815   4.000   8.570 -0.3273 -0.0645 -0.1145
25404SOL    HW282175   0.714   3.910   8.500 -1.5150 -0.2389  1.7347
25405SOL     OW82176   2.289   4.933   1.540  0.3021 -0.1640  0.6488
25405SOL    HW182177   2.248   5.015   1.511 -0.1953  0.3597  2.6993
25405SOL    HW282178   2.222   4.866   1.523 -0.4676  0.3172  1.6560
25406SOL     OW82179   5.846   6.897   3.536  0.2901  0.2327  0.0475
25406SOL    HW182180   5.909   6.838   3.494  0.4004  0.1121  0.3778
25406SOL    HW282181   5.763   6.850   3.531  0.4994 -0.2503  0.8955
25407SOL     OW82182   4.087   6.545   2.670  0.2830 -0.1858  0.4170
25407SOL    HW182183   4.023   6.479   2.644 -1.1154  1.4637 -0.5201
25407SOL    HW282184   4.035   6.620   2.699  1.8182  0.4613  1.6603
25408SOL     OW82185   6.528   4.713   2.993 -0.2017 -0.2164 -0.7857
25408SOL    HW182186   6.568   4.721   3.080  1.0511  0.5787 -1.3902
25408SOL    HW282187   6.542   4.799   2.953 -1.6959 -0.2376 -1.4056
25409SOL     OW82188   0.409   4.553   8.050 -0.4075 -0.3842 -0.0311
25409SOL    HW182189   0.339   4.614   8.025 -1.1058 -1.4276 -0.7056
25409SOL    HW282190   0.364   4.470   8.066  0.4325 -0.5665  1.6025
25410SOL     OW82191   0.922   4.461   2.358 -0.5154  0.4366 -1.0120
25410SOL    HW182192   0.885   4.547   2.340 -1.8333 -0.1308 -1.1678
25410SOL    HW282193   0.892   4.441   2.447 -0.9106 -0.1949 -1.2804
25411SOL     OW82194   7.848   7.071   0.381 -0.0368 -0.7808  0.6416
25411SOL    HW182195   7.904   7.096   0.455 -0.9714 -1.8002  1.7372
25411SOL    HW282196   7.839   7.152   0.330  3.7071 -0.9178 -0.5295
25412SOL     OW82197   1.689   3.242   1.927 -0.5420 -0.4939  0.0651
25412SOL    HW182198   1.639   3.185   1.986 -0.0507  0.6495  1.6707
25412SOL    HW282199   1.691   3.195   1.844 -1.9933 -1.7944  0.7121
25413SOL     OW82200   2.143   3.804   5.438 -0.5470  0.4346  0.4513
25413SOL    HW182201   2.194   3.838   5.511 -0.0112 -1.8572  1.2339
25413SOL    HW282202   2.203   3.808   5.363  0.0654 -0.2700  0.8917
25414SOL     OW82203   2.191   0.193   5.271 -0.2127 -0.1166  0.4198
25414SOL    HW182204   2.262   0.174   5.209 -0.6058 -1.5614  0.3829
25414SOL    HW282205   2.117   0.217   5.215 -0.7799 -2.1060  0.2172
25415SOL     OW82206   0.397   0.717   2.421 -0.4573 -0.3999 -0.4348
25415SOL    HW182207   0.405   0.623   2.408  0.1412 -0.3232 -0.6214
25415SOL    HW282208   0.304   0.731   2.439 -0.6354 -0.9591 -0.9185
25416SOL     OW82209   7.893   8.356   0.013 -0.4551 -0.0259  0.4102
25416SOL    HW182210   7.877   8.307  -0.067 -0.9242  1.5576 -0.5250
25416SOL    HW282211   7.854   8.303   0.083  1.2353 -2.1382 -0.1668
25417SOL     OW82212   0.228   7.338   5.990 -0.0854  0.2345  0.2380
25417SOL    HW182213   0.208   7.248   6.014 -0.1184  0.8404  2.7532
25417SOL    HW282214   0.305   7.332   5.933 -0.2484 -1.3684  0.1597
25418SOL     OW82215   4.433   8.211   6.758  0.1851  0.7733  0.3235
25418SOL    HW182216   4.426   8.300   6.795  2.2894  0.3395  1.9536
25418SOL    HW282217   4.524   8.205   6.729 -0.3047 -0.4190 -1.0283
25419SOL     OW82218   1.184   3.174   6.053 -0.1342 -0.1530  0.5971
25419SOL    HW182219   1.168   3.218   5.969  0.6333  0.8379  0.9500
25419SOL    HW282220   1.111   3.113   6.062 -1.1313  0.9081 -0.0177
25420SOL     OW82221   6.361   8.871   6.203 -0.1983  0.0987 -0.0637
25420SOL    HW182222   6.368   8.869   6.107 -0.1587  1.0412 -0.0888
25420SOL    HW282223   6.342   8.781   6.227 -0.2209 -0.1506 -0.9635
25421SOL     OW82224   6.741   3.046   5.090 -0.1420 -0.4147 -0.2629
25421SOL    HW182225   6.792   3.035   5.171 -0.0921 -0.3927 -0.2914
25421SOL    HW282226   6.657   3.005   5.110  0.8329 -3.0994 -1.1783
25422SOL     OW82227   1.421   0.479   3.271 -0.1112  0.0941 -0.5100
25422SOL    HW182228   1.494   0.535   3.298 -0.1587  0.2234 -0.6497
25422SOL    HW282229   1.352   0.540   3.245 -0.7328 -0.0057  0.8285
25423SOL     OW82230   1.227   2.052   0.832  0.1350  0.2438  0.1535
25423SOL    HW182231   1.161   1.989   0.862  0.5308 -0.4187 -0.3299
25423SOL    HW282232   1.180   2.135   0.824 -0.6204 -0.1975 -0.0947
25424SOL     OW82233   7.703   2.367   9.183 -1.2856  0.1113 -0.1634
25424SOL    HW182234   7.719   2.455   9.149  0.1988 -0.4817 -1.0711
25424SOL    HW282235   7.720   2.309   9.109 -3.3768 -0.9145  0.0775
25425SOL     OW82236   5.368   4.557   6.124  0.2338 -0.3907 -0.3641
25425SOL    HW182237   5.312   4.484   6.150  0.3938  0.3037  2.1759
25425SOL    HW282238   5.421   4.522   6.052  0.3359 -2.8098  0.7961
25426SOL     OW82239   5.688   4.919   6.965  0.6102 -0.3653  0.2093
25426SOL    HW182240   5.595   4.940   6.972  0.8348  0.8112 -0.0961
25426SOL    HW282241   5.731   4.980   7.026  1.3605  0.6388 -1.2757
25427SOL     OW82242   5.924   3.047   8.161  0.6245  0.0941  0.0420
25427SOL    HW182243   5.838   3.067   8.123  1.5780  2.2711 -1.1540
25427SOL    HW282244   5.978   3.023   8.086  1.5915  0.8454  0.4760
25428SOL     OW82245   8.942   6.737   0.908 -0.0598  0.3808 -0.7606
25428SOL    HW182246   9.028   6.712   0.941 -1.4989 -1.3642  2.0526
25428SOL    HW282247   8.930   6.827   0.938  0.6957  0.5881 -1.0562
25429SOL     OW82248   6.390   3.410   7.265  0.6182  0.1095  0.6312
25429SOL    HW182249   6.450   3.485   7.264 -1.2936  1.7471  1.9031
25429SOL    HW282250   6.410   3.364   7.346  1.0232 -0.0973  0.4144
25430SOL     OW82251   4.859   7.407   0.610 -0.7398 -0.0672 -0.2728
25430SOL    HW182252   4.775   7.369   0.637  0.5271 -2.9133 -0.0074
25430SOL    HW282253   4.901   7.338   0.559  0.9198  1.7832 -1.5454
25431SOL     OW82254   6.962   8.234   1.743 -0.8416  0.3357  0.4293
25431SOL    HW182255   7.014   8.287   1.803  2.8527 -0.8806 -1.3706
25431SOL    HW282256   6.975   8.144   1.772  0.5132 -0.2290 -1.6763
25432SOL     OW82257   0.787   0.143   6.495  0.4240  0.0356  0.2927
25432SOL    HW182258   0.778   0.115   6.586  0.2702  1.4732  0.7436
25432SOL    HW282259   0.796   0.238   6.500  0.9356  0.0909 -1.1660
25433SOL     OW82260   6.327   1.497   2.947 -0.1465  0.2431  0.2420
25433SOL    HW182261   6.273   1.545   2.884  1.4243  2.3880  0.4343
25433SOL    HW282262   6.264   1.449   3.000 -1.5833 -0.9435 -2.3366
25434SOL     OW82263   5.964   3.323   5.427 -0.0416  0.3814 -0.3198
25434SOL    HW182264   5.973   3.262   5.500 -1.2559 -1.0140 -1.2939
25434SOL    HW282265   5.914   3.396   5.464 -1.0261 -0.5076  0.1604
25435SOL     OW82266   5.548   6.885   2.569 -0.2046  0.3800  0.6340
25435SOL    HW182267   5.608   6.929   2.509  0.3306 -1.0385  0.0717
25435SOL    HW282268   5.590   6.893   2.655  1.5708 -1.7406  0.0588
25436SOL     OW82269   6.463   4.113   3.380 -0.2629  0.5626  0.2757
25436SOL    HW182270   6.425   4.128   3.294  2.6582  2.1393 -0.9009
25436SOL    HW282271   6.462   4.018   3.392 -1.8942  0.4091 -0.8954
25437SOL     OW82272   8.774   6.517   2.632 -0.1561  0.0534 -0.1832
25437SOL    HW182273   8.841   6.560   2.684 -0.2488 -0.7018  0.6023
25437SOL    HW282274   8.691   6.544   2.672 -0.2722  0.1840 -0.5096
25438SOL     OW82275   6.001   1.329   9.198 -0.0381 -0.0731 -0.0425
25438SOL    HW182276   6.010   1.422   9.176  0.7326 -0.2317 -0.4440
25438SOL    HW282277   6.001   1.327   9.293 -3.1339  0.6018  0.0832
25439SOL     OW82278   8.078   1.304   8.225  0.0889  0.4520  0.5907
25439SOL    HW182279   8.016   1.231   8.221  0.5393  0.1138 -1.0897
25439SOL    HW282280   8.138   1.280   8.296  2.1521 -2.5221 -1.8574
25440SOL     OW82281   7.792   0.756   4.809 -0.2472 -0.0806 -0.1707
25440SOL    HW182282   7.743   0.743   4.728  2.3728 -0.5226 -1.8204
25440SOL    HW282283   7.757   0.691   4.870 -2.8443  0.8241 -0.5933
25441SOL     OW82284   5.460   1.132   1.382  0.4125  0.8094 -0.4832
25441SOL    HW182285   5.536   1.165   1.333 -0.0018 -0.6205 -2.1717
25441SOL    HW282286   5.498   1.087   1.457  1.1866  1.0094 -0.7419
25442SOL     OW82287   3.744   8.264   1.673  0.2927  0.1712  0.2687
25442SOL    HW182288   3.824   8.228   1.633 -0.4636 -0.6394 -0.5498
25442SOL    HW282289   3.680   8.265   1.602  0.0806  2.5873  0.4090
25443SOL     OW82290   4.651   6.754   1.433  0.2889  0.0646  0.4204
25443SOL    HW182291   4.606   6.676   1.464 -3.2179  0.9609 -1.8298
25443SOL    HW282292   4.588   6.825   1.447  2.4771  2.1358  0.3682
25444SOL     OW82293   7.488   4.069   2.136  0.0411 -0.2899  0.0827
25444SOL    HW182294   7.485   4.038   2.226  0.5500  0.2761  0.3060
25444SOL    HW282295   7.532   4.154   2.142  1.8107 -1.0806 -0.9110
25445SOL     OW82296   7.810   7.826   2.902 -0.3002 -0.0069 -0.0270
25445SOL    HW182297   7.727   7.802   2.862 -1.0021  0.0011  1.3717
25445SOL    HW282298   7.826   7.916   2.873 -1.4366  0.4513  0.7142
25446SOL     OW82299   7.416   7.829   1.349 -0.3464  0.4222  0.0903
25446SOL    HW182300   7.412   7.746   1.397  0.2016  0.7770  0.7734
25446SOL    HW282301   7.330   7.868   1.362  0.1307  1.0112  1.7378
25447SOL     OW82302   0.782   7.290   8.000  0.4702 -0.4848  0.0861
25447SOL    HW182303   0.855   7.230   7.986  1.2318  0.7070 -1.3864
25447SOL    HW282304   0.719   7.267   7.931 -0.1631 -0.9327  0.8034
25448SOL     OW82305   4.054   7.811   9.369  0.1133 -0.1467  0.2440
25448SOL    HW182306   4.094   7.830   9.284 -0.2818 -0.1537  0.0582
25448SOL    HW282307   3.964   7.843   9.361  0.5701  1.5221  1.2674
25449SOL     OW82308   7.058   0.024   0.996 -0.0608  0.3691 -0.6369
25449SOL    HW182309   6.975  -0.025   0.995 -0.5051  1.1286 -1.3092
25449SOL    HW282310   7.102  -0.007   1.076 -2.0227  1.6772  1.0463
25450SOL     OW82311   1.230   7.360   0.951  0.2441  0.5467  0.0131
25450SOL    HW182312   1.153   7.402   0.914 -0.8544 -0.5475  0.9586
25450SOL    HW282313   1.197   7.278   0.988  1.7604  0.3083  0.9333
25451SOL     OW82314   0.382   2.236   3.747 -0.1022  0.2990  0.4751
25451SOL    HW182315   0.298   2.200   3.718  0.5798 -1.3869  0.4591
25451SOL    HW282316   0.374   2.241   3.842  0.1133 -0.8168  0.5648
25452SOL     OW82317   7.356   5.553   2.986  0.2921  0.3203 -0.3564
25452SOL    HW182318   7.365   5.633   2.935 -0.1574  0.3233 -0.4335
25452SOL    HW282319   7.430   5.498   2.957  2.2591  1.7371  1.6576
25453SOL     OW82320   6.332   1.220   8.780 -0.3539  0.3178  0.4676
25453SOL    HW182321   6.393   1.152   8.809 -0.4396  0.4324  0.9380
25453SOL    HW282322   6.247   1.191   8.814 -0.5330  0.2442 -0.0374
25454SOL     OW82323   6.629   3.836   8.678 -0.3372  0.1057 -0.0579
25454SOL    HW182324   6.630   3.914   8.622 -2.4059 -1.0826 -1.8975
25454SOL    HW282325   6.544   3.840   8.722 -1.1242 -1.7855 -1.2938
25455SOL     OW82326   8.410   5.277   0.969 -0.0976  0.1131  0.1873
25455SOL    HW182327   8.412   5.183   0.989 -0.7988 -0.7585 -3.1978
25455SOL    HW282328   8.497   5.296   0.935  0.0490  0.7470  0.8848
25456NA      NA82329   4.108   8.236   0.861 -0.1954 -0.3002 -0.2048
25457NA      NA82330   4.520   5.200   3.347  0.0505  0.2392  0.0988
25458NA      NA82331   8.391   2.532   2.736 -0.3281 -0.2104 -0.3846
25459NA      NA82332   8.627   5.668   0.137  0.2196  0.0447 -0.5797
25460NA      NA82333   4.064   6.288   0.168 -0.0776  0.1578  0.1309
25461NA      NA82334   1.283   3.353   0.476 -0.2206  0.0564  0.6624
25462NA      NA82335   1.880   2.222   0.696 -0.2984 -0.2820  0.2055
25463NA      NA82336   5.030   4.101   7.195 -0.2682  0.0132  0.1436
25464NA      NA82337   1.491   5.783   4.141  0.0006  0.2908 -0.4278
25465NA      NA82338   5.682   2.985   9.090  0.3026 -0.5244 -0.0065
25466NA      NA82339   4.335   6.166   8.620 -0.3036  0.3441  0.4403
25467NA      NA82340   1.635   3.133   7.678 -0.3862  0.1424  0.0529
25468NA      NA82341   2.781   4.551   8.845  0.0420 -0.0661  0.4692
25469NA      NA82342   4.335   6.147   2.660  0.6411  0.7463 -0.4384
25470NA      NA82343   0.595   7.743   3.809  0.0419  0.1493  0.0046
25471NA      NA82344   8.246   3.084   5.025 -0.3084  0.6275 -0.2432
25472NA      NA82345   4.554   5.526   7.138 -0.1746  0.0297  0.4034
25473NA      NA82346   7.358   7.098   0.426 -0.2682 -0.0924 -0.3251
25474NA      NA82347   7.868   3.042   7.363 -0.6022 -0.0952  0.0231
25475NA      NA82348   8.735   3.123   8.692 -0.4587  0.0230  0.2059
25476NA      NA82349   1.588   1.851   0.252 -0.1657  0.5332 -0.2034
25477NA      NA82350   2.359   4.327   2.611 -0.5258  0.3444 -0.1644
25478NA      NA82351   8.671   2.635   1.885 -0.0628  0.2366 -0.0570
25479NA      NA82352   0.218   8.885   0.909  0.1538 -0.1410 -0.3580
25480NA      NA82353   6.364   0.514   5.860 -0.3795 -0.4255 -0.4363
25481NA      NA82354   0.697   4.335   6.242 -0.3826  0.2252  0.3788
25482NA      NA82355   0.431   5.768   1.987 -0.2132  0.1431  0.1070
25483NA      NA82356   1.503   3.724   1.897  0.0159  0.4083 -0.1246
25484NA      NA82357   4.737   1.431   4.627  0.4753  0.3867  0.2552
25485NA      NA82358   1.403   7.453   0.990 -0.2415  0.1077 -0.3921
25486NA      NA82359   0.119   7.183   8.842 -0.2420 -0.0572  0.5794
25487NA      NA82360   1.063   6.115   4.034  0.2272 -0.4578 -0.3038
25488NA      NA82361   6.683   1.837   0.344  0.2466 -0.6595 -0.5199
25489NA      NA82362   1.689   8.060   2.635  0.0466  0.2303 -0.2477
25490NA      NA82363   8.666   3.439   5.384  0.7194  0.2038 -0.1380
25491NA      NA82364   0.234   3.370   5.816  0.4986  0.2212 -0.1934
25492NA      NA82365   0.191   3.108   8.672  0.0375 -0.0171  0.1121
25493NA      NA82366   7.119   6.516   2.778  0.0329 -0.0195 -0.0462
25494NA      NA82367   1.330   7.121   2.270  0.0669  0.5753 -0.3033
25495NA      NA82368   1.200   8.628   2.244  0.0588 -0.5709 -0.0246
25496NA      NA82369   4.544   5.517   1.704 -0.3254 -0.0009 -0.2458
25497NA      NA82370   0.890   6.030   5.939  0.1806 -0.2727 -0.1598
25498NA      NA82371   7.205   5.656   7.311  0.3219 -0.5569  0.2885
25499NA      NA82372   1.738   3.665   7.595 -0.1123  0.3297 -0.3155
25500NA      NA82373   5.413   3.784   1.626  0.1257  0.0576  0.2502
25501NA      NA82374   8.537   8.884   6.094  0.3149  0.0352  0.0253
25502NA      NA82375   4.883   8.076   7.635  0.2689  0.2344  0.2537
25503NA      NA82376   7.927   0.966   0.882 -0.0348  0.0732 -0.3960
25504NA      NA82377   5.963   7.450   4.031  0.4244  0.2578  0.2320
25505NA      NA82378   8.478   5.063   2.457  0.2603 -0.4492  0.4812
25506NA      NA82379   4.907   4.463   4.350 -0.1564  0.5201  0.3200
25507NA      NA82380   4.557   6.051   6.429  0.4608  0.5393  0.2211
25508NA      NA82381   3.829   5.496   7.574  0.2122  0.6758 -0.1081
25509NA      NA82382   2.193   7.311   8.234  0.0466 -0.4376  0.3112
25510NA      NA82383   2.495   4.160   0.920 -0.5314  0.0123  0.4009
25511NA      NA82384   6.934   4.251   6.469 -0.0001  0.0522 -0.1925
25512NA      NA82385   6.330   4.021   0.859  0.2540  0.0378 -0.2536
25513NA      NA82386   9.199   2.194   2.502 -0.0408  0.3448 -0.1570
25514NA      NA82387   0.732   7.418   1.825  0.2534 -0.0137  0.0704
25515NA      NA82388   4.203   4.013   0.476  0.0014 -0.1220 -0.3552
25516NA      NA82389   7.353   4.770   0.956 -0.0514 -0.2157 -0.0128
25517NA      NA82390   6.995   0.536   8.874 -0.0125 -0.2289  0.1496
25518NA      NA82391   9.302   2.489   5.764  0.2985  0.4827 -0.1694
25519NA      NA82392   5.123   7.976   2.452 -0.2123  0.4868  0.2724
25520NA      NA82393   9.326   1.421   6.705 -0.3771 -0.3195  0.0684
25521NA      NA82394   6.039   3.828   3.458  0.5078  0.0846 -0.0212
25522NA      NA82395   8.713   8.044   6.791 -0.0261  0.3280  0.3322
25523NA      NA82396   8.332   1.536   4.075  0.2847  0.1347 -0.6051
25524NA      NA82397   7.191   6.872   3.253 -0.2612  0.0908 -0.3397
25525NA      NA82398   5.891   7.371   2.625  0.0003  0.1146 -0.1285
25526NA      NA82399   8.455   6.121   4.138 -0.2144  0.3482  0.0654
25527NA      NA82400   6.465   3.993   7.855  0.5045  0.2203 -0.0003
25528NA      NA82401   5.203   6.567   2.625 -0.2246  0.5019  0.0740
25529NA      NA82402   9.062   0.249   6.964 -0.3260 -0.1833 -0.0036
25530NA      NA82403   3.268   6.471   0.943 -0.3619  0.0129 -0.0983
25531NA      NA82404   4.810   3.410   8.869  0.3459 -0.4950 -0.1231
25532NA      NA82405   5.456   0.348   2.275 -0.0981 -0.3135 -0.1646
25533NA      NA82406   6.301   6.406   3.381 -0.0080 -0.3963 -0.1593
25534CL      CL82407   1.769   9.156   6.535 -0.1010  0.0719  0.0284
25535CL      CL82408   3.129   0.774   4.625 -0.4626 -0.3600 -0.1161
25536CL      CL82409   3.587   2.115   3.499 -0.2055  0.2038 -0.1484
25537CL      CL82410   5.069   1.889   7.268 -0.0468 -0.0840 -0.1167
25538CL      CL82411   3.293   2.966   3.358  0.1974  0.1056  0.0823
25539CL      CL82412   6.068   0.591   4.903  0.2324 -0.1595 -0.1025
25540CL      CL82413   3.210   3.513   6.162 -0.1279 -0.3224  0.5471
25541CL      CL82414   5.459   0.535   6.255  0.2096 -0.1028 -0.0141
25542CL      CL82415   5.429   2.733   5.130  0.0977  0.0303 -0.1816
25543CL      CL82416   2.762   1.112   8.576 -0.4661 -0.3145  0.2708
25544CL      CL82417   3.786   8.449   5.594  0.3357 -0.0299  0.0257
25545CL      CL82418   1.812   1.012   6.648  0.3672  0.4015 -0.1746
25546CL      CL82419   1.740   6.323   5.363 -0.3105  0.3005 -0.3098
25547CL      CL82420   5.912   7.611   2.580  0.2163  0.1996 -0.3061
25548CL      CL82421   6.310   1.944   8.245 -0.1501  0.1394 -0.0420
25549CL      CL82422   3.151   2.745   4.993 -0.1223 -0.2852  0.3867
25550CL      CL82423   2.518   1.397   6.784 -0.1642  0.1807 -0.3184
25551CL      CL82424   1.795   0.243   6.080 -0.2409 -0.0501  0.0619
25552CL      CL82425   4.130   9.273   3.830 -0.3633  0.3270 -0.0330
25553CL      CL82426   3.181   1.202   6.514  0.0655 -0.1645 -0.1923
25554CL      CL82427   1.550   4.493   4.946 -0.3699 -0.5134 -0.3327
25555CL      CL82428   7.959   6.121   2.419  0.2175 -0.2200  0.0267
25556CL      CL82429   2.012   3.967   3.172  0.3214 -0.2834 -0.4627
25557CL      CL82430   5.776   6.566   3.237  0.0159 -0.1489 -0.0753
25558CL      CL82431   3.927   6.273   5.461  0.3915  0.3606 -0.0504
25559CL      CL82432   6.362   8.832   5.877  0.0520 -0.0214 -0.0148
25560CL      CL82433   7.644   3.220   4.177  0.2091  0.1197  0.2926
25561CL      CL82434   1.047   2.378   4.008 -0.3696 -0.2391 -0.5453
25562CL      CL82435   4.794   2.110   8.502 -0.0671  0.5374 -0.0539
25563CL      CL82436   5.187   9.149   5.166 -0.1576 -0.4534 -0.3925
25564CL      CL82437   0.692   0.963   3.575  0.2256 -0.1242  0.1878
25565CL      CL82438   6.551   7.232   9.065  0.2241  0.1839  0.3142
25566CL      CL82439   3.418   8.892   4.206 -0.3588 -0.0821 -0.5561
25567CL      CL82440   4.686   0.058   4.262  0.1868  0.3000  0.0153
25568CL      CL82441   8.991   1.449   7.943 -0.2059 -0.1759 -0.0842
25569CL      CL82442   7.577   0.632   5.347 -0.3474 -0.0497 -0.1297
25570CL      CL82443   4.173   7.723   3.906  0.0973  0.1851  0.3168
25571CL      CL82444   4.462   2.984   5.035 -0.0399  0.1866 -0.0204
25572CL      CL82445   0.845   7.021   0.999 -0.1224 -0.1784  0.1774
25573CL      CL82446   2.368   6.391   1.896 -0.5267  0.0062  0.2140
25574CL      CL82447   2.675   1.938   2.813  0.0470 -0.1259  0.0810
25575CL      CL82448   2.866   1.025   1.931 -0.1587  0.5628  0.4862
25576CL      CL82449   2.308   7.884   5.124 -0.0087  0.1261  0.3061
25577CL      CL82450   2.137   7.060   7.017 -0.0510  0.2022  0.0829
25578CL      CL82451   2.959   0.304   3.929  0.3832  0.1488 -0.3253
25579CL      CL82452   1.827   7.867   2.069  0.0852 -0.0908 -0.0201
25580CL      CL82453   5.114   5.138   5.302  0.0149  0.0255  0.5043
25581CL      CL82454   4.494   1.429   4.781  0.1756  0.1306  0.2473
25582CL      CL82455   5.820   6.975   2.451  0.0315 -0.1339 -0.1832
25583CL      CL82456   5.686   9.290   1.786  0.5902 -0.6616  0.1460
25584CL      CL82457   8.083   2.245   7.005 -0.3958 -0.3913  0.1053
25585CL      CL82458   1.354   1.651   1.890 -0.2155  0.2151 -0.0932
25586CL      CL82459   9.269   7.613   1.616 -0.2588 -0.1556 -0.1885
25587CL      CL82460   1.693   4.960   5.843  0.0553 -0.0988 -0.1478
25588CL      CL82461   2.309   1.076   5.057  0.3195  0.4337  0.5521
25589CL      CL82462   4.215   9.124   6.727 -0.1038 -0.2112  0.1666
25590CL      CL82463   5.391   3.939   1.439 -0.3393 -0.2120  0.2759
25591CL      CL82464   0.014   7.618   4.235  0.1439  0.4696  0.4883
25592CL      CL82465   2.281   3.035   4.177 -0.1275  0.1522  0.0808
25593CL      CL82466   2.482   8.963   3.644 -0.8248 -0.2175 -0.1771
25594CL      CL82467   3.066   1.121   5.212  0.0133  0.6719  0.3054
25595CL      CL82468   9.327   7.620   6.113  0.1966 -0.3211  0.0196
25596CL      CL82469   6.379   4.734   8.206 -0.0214  0.0368  0.3899
25597CL      CL82470   0.090   1.790   6.254 -0.0771  0.0518 -0.2225
25598CL      CL82471   8.155   7.709   0.247 -0.1580  0.1359 -0.4702
25599CL      CL82472   1.223   3.521   7.193 -0.1625  0.0257  0.2441
25600CL      CL82473   6.374   5.919   7.102  0.0074  0.1450  0.0506
25601CL      CL82474   0.186   0.058   2.534  0.2407  0.1012  0.2157
25602CL      CL82475   1.807   1.481   1.285  0.2537 -0.2031  0.2126
25603CL      CL82476   2.647   1.800   5.439 -0.1164 -0.1892 -0.1311
25604CL      CL82477   4.844   1.271   1.933 -0.2649 -0.0411 -0.2614
25605CL      CL82478   5.811   4.832   1.379  0.0676  0.4011 -0.1862
25606CL      CL82479   1.376   8.553   0.178 -0.0902 -0.1080  0.0052
25607CL      CL82480   3.081   7.880   6.402 -0.4522 -0.6309 -0.1912
25608CL      CL82481   2.540   7.910   4.077 -0.3419  0.0021  0.1798
25609CL      CL82482   8.251   4.349   0.311  0.2117  0.1308  0.4140
25610CL      CL82483   0.959   4.558   1.017  0.1225  0.1753  0.0424
25611CL      CL82484   0.902   3.435   0.773  0.0575  0.0094  0.2162
25612CL      CL82485   4.195   3.404   8.456 -0.2161  0.2775  0.0380
25613CL      CL82486   0.247   8.521   3.336  0.2523  0.5694  0.2591
25614CL      CL82487   3.579   8.630   7.139 -0.2097 -0.2238 -0.0927
25615CL      CL82488   1.967   7.822   7.359 -0.2806  0.1937  0.0984
25616CL      CL82489   5.523   0.256   7.396 -0.3111  0.1770  0.0430
25617CL      CL82490   6.260   7.082   2.279 -0.0406 -0.1878 -0.1393
25618CL      CL82491   5.384   1.985   6.389 -0.2244 -0.1524  0.1633
25619CL      CL82492   1.179   1.956   7.871  0.2769  0.0282 -0.1443
25620CL      CL82493   4.067   4.261   3.382  0.1718 -0.1240  0.1625
25621CL      CL82494   6.522   4.011   4.952 -0.1399  0.3504  0.2772
25622CL      CL82495   6.813   3.158   5.970  0.1136 -0.0897  0.2655
25623CL      CL82496   2.499   9.289   0.172  0.0653  0.1079  0.3853
25624CL      CL82497   1.286   2.021   3.226 -0.1845  0.0352 -0.0366
25625CL      CL82498   1.133   7.797   8.901  0.1738 -0.0662  0.1131
25626CL      CL82499   7.160   0.535   3.156  0.0590  0.0482 -0.2443
25627CL      CL82500   2.101   2.365   2.967  0.2232  0.4282 -0.1264
25628CL      CL82501   4.398   8.432   7.175 -0.2522  0.2406  0.7068
25629CL      CL82502   3.304   7.567   5.794 -0.0493  0.0044  0.2991
25630CL      CL82503   1.814   8.634   4.434  0.3056 -0.1657  0.3347
25631CL      CL82504   2.392   8.848   5.131 -0.1787  0.3721  0.0777
25632CL      CL82505   1.193   0.269   3.886 -0.1977 -0.0023  0.0765
25633CL      CL82506   4.041   1.860   6.348 -0.1156  0.2488  0.1139
25634CL      CL82507   5.486   3.722   3.883  0.2560  0.1615 -0.0566
25635CL      CL82508   1.590   1.380   6.456  0.0818 -0.1497  0.0412
25636CL      CL82509   4.492   6.974   6.335  0.1935 -0.1492  0.1365
25637CL      CL82510   1.582   0.354   4.142 -0.0758 -0.0287 -0.9492
25638CL      CL82511   6.241   0.978   6.662  0.2279 -0.5268  0.1988
25639CL      CL82512   4.784   2.464   3.532 -0.0600  0.1353  0.1101
25640CL      CL82513   2.346   2.479   5.799  0.1060 -0.1094 -0.0398
25641CL      CL82514   0.853   8.322   7.139  0.3256  0.1767 -0.2692
25642CL      CL82515   7.592   7.591   2.314 -0.1315 -0.3267  0.2163
25643CL      CL82516   7.359   3.742   3.420  0.2403 -0.0916  0.5740
25644CL      CL82517   8.313   1.145   0.689 -0.0388  0.2538 -0.1119
25645CL      CL82518   0.703   8.949   5.081 -0.0695  0.1046 -0.4229
25646CL      CL82519   1.839   3.196   8.710 -0.2332 -0.1691 -0.5357
25647CL      CL82520   2.417   3.555   4.657  0.2506  0.1130 -0.4069
25648CL      CL82521   1.132   3.528   1.216 -0.0713  0.0253 -0.2842
25649CL      CL82522   4.818   6.416   5.240  0.3735  0.2126  0.5856
25650CL      CL82523   0.688   5.362   4.794 -0.1829  0.0535  0.3308
25651CL      CL82524   1.482   2.018   4.454  0.0179  0.3197 -0.1688
25652CL      CL82525   4.795   3.656   6.088 -0.2912 -0.1370 -0.3831
25653CL      CL82526   1.465   7.632   5.246  0.3257  0.4144 -0.1394
25654CL      CL82527   3.106   3.975   4.814 -0.0839  0.2227 -0.3896
25655CL      CL82528   0.734   0.464   3.663 -0.0440  0.3817 -0.3082
25656CL      CL82529   4.202   2.991   7.188  0.3684  0.0449  0.4027
25657CL      CL82530   0.309   3.226   6.009 -0.4200  0.4146  0.2777
25658CL      CL82531   4.213   5.963   3.074  0.0614 -0.3020 -0.0600
25659CL      CL82532   4.622   5.839   5.395  0.0396  0.1547  0.0546
25660CL      CL82533   8.846   3.692   1.129  0.5313 -0.1158 -0.0971
25661CL      CL82534   6.288   3.489   2.243 -0.1236 -0.0350 -0.1519
25662CL      CL82535   8.981   7.359   4.049 -0.7105  0.2298 -0.1438
25663CL      CL82536   4.481   6.514   2.859 -0.3088  0.0485  0.9081
25664CL      CL82537   5.513   7.370   4.105 -0.2107 -0.0238 -0.3788
25665CL      CL82538   7.955   3.004   1.575  0.1208 -0.1198 -0.0400
25666CL      CL82539   3.998   0.895   4.717 -0.1638  0.5266 -0.3982
25667CL      CL82540   6.306   1.436   4.001  0.1398 -0.3423 -0.2665
25668CL      CL82541   3.866   0.878   8.469  0.0405 -0.2550  0.0293
25669CL      CL82542   4.708   6.815   8.811 -0.9778 -0.1098  0.0486
25670CL      CL82543   3.663   7.305   0.773  0.2190  0.2408  0.6010
25671CL      CL82544   7.570   4.843   4.902  0.0214  0.2365 -0.0860
25672CL      CL82545   1.515   0.441   5.701 -0.3279 -0.3156  0.2784
25673CL      CL82546   3.752   9.290   4.721  0.0246 -0.2114  0.2885
25674CL      CL82547   0.337   3.129   2.896  0.2382  0.0702 -0.4747
25675CL      CL82548   3.056   2.326   9.242 -0.3672 -0.0207  0.3535
25676CL      CL82549   2.532   1.762   4.192 -0.1446  0.1124 -0.0687
25677CL      CL82550   3.486   8.595   4.830  0.1356 -0.0365  0.1264
25678CL      CL82551   1.332   0.030   4.691  0.3261  0.1583  0.1085
25679CL      CL82552   2.813   2.479   5.806  0.2817  0.0179 -0.2185
25680CL      CL82553   4.836   2.798   2.403  0.3181 -0.2829  0.1503
25681CL      CL82554   1.430   2.757   7.480  0.5868  0.1153  0.1971
25682CL      CL82555   2.644   0.421   3.118 -0.2994  0.2790 -0.2037
25683CL      CL82556   5.949   8.165   5.461 -0.5527 -0.0058 -0.1733
25684CL      CL82557   5.068   4.185   5.627 -0.0702 -0.0453 -0.0154
25685CL      CL82558   4.060   5.435   7.556 -0.0684 -0.0695  0.0214
25686CL      CL82559   3.898   2.795   6.196 -0.2117  0.4848 -0.1054
25687CL      CL82560   0.965   0.148   1.614 -0.2001 -0.0310 -0.3201
25688CL      CL82561   3.788   7.846   3.640 -0.0523 -0.3555 -0.0874
25689CL      CL82562   7.088   4.017   0.681  0.3261  0.1938 -0.3731
25690CL      CL82563   0.477   4.994   7.974  0.0554 -0.0176 -0.0127
25691CL      CL82564   7.550   6.464   3.177  0.1492  0.2252 -0.0637
25692CL      CL82565   8.991   1.112   7.029  0.1478  0.4423 -0.3001
25693CL      CL82566   2.063   1.259   2.291 -0.1535  0.5162 -0.3440
25694CL      CL82567   5.516   7.860   7.361  0.0197 -0.2077  0.1028
25695CL      CL82568   5.866   4.895   5.935  0.2327  0.2764 -0.3132
25696CL      CL82569   3.108   4.580   3.918 -0.3904  0.1720  0.1839
25697CL      CL82570   4.922   1.296   4.509 -0.0258  0.1049  0.3585
25698CL      CL82571   4.182   1.614   4.366 -0.0042 -0.1515 -0.6214
25699CL      CL82572   2.857   4.418   5.446 -0.1780  0.0025 -0.2532
25700CL      CL82573   1.820   7.290   8.613  0.0272 -0.1064 -0.0427
25701CL      CL82574   3.668   9.350   5.226  0.2128 -0.0861  0.4949
25702CL      CL82575   0.189   9.002   7.728  0.4028  0.2671 -0.0550
25703CL      CL82576   1.367   1.329   2.578 -0.1818 -0.0154  0.0050
25704CL      CL82577   6.675   4.326   7.146  0.0331 -0.0867 -0.2300
25705CL      CL82578   0.349   9.126   8.444 -0.0256  0.3165  0.0301
25706CL      CL82579   0.226   1.707   3.746 -0.5230  0.1712 -0.0372
25707CL      CL82580   6.807   8.481   7.936  0.3126 -0.1594 -0.0967
25708CL      CL82581   2.328   4.462   8.989  0.4039  0.1152  0.5314
25709CL      CL82582   3.139   4.588   2.888 -0.0827  0.0023  0.1073
25710CL      CL82583   9.359   9.170   2.842  0.0597 -0.0722 -0.0875
25711CL      CL82584   4.063   4.488   9.302 -0.1313 -0.2941 -0.2367
25712CL      CL82585   1.149   1.727   5.864  0.0637  0.0323  0.3569
25713CL      CL82586   4.778   9.202   3.583  0.1718  0.7329 -0.3670
25714CL      CL82587   2.229   0.067   6.451 -0.2812 -0.1592 -0.0351
25715CL      CL82588   9.323   1.495   5.834  0.5013 -0.4601  0.1350
25716CL      CL82589   4.268   1.446   8.042 -0.2040 -0.2198 -0.1244
25717CL      CL82590   5.323   9.264   7.715 -0.1426  0.0914  0.3558
25718CL      CL82591   2.728   9.010   5.403  0.1508 -0.0666 -0.1054
25719CL      CL82592   2.048   8.183   9.090  0.1395  0.3030 -0.2164
25720CL      CL82593   5.631   8.779   3.871  0.1687  0.1071 -0.1293
25721CL      CL82594   7.298   6.116   2.991 -0.3462  0.1911  0.2338
25722CL      CL82595   3.698   1.519   6.259 -0.1510  0.0740 -0.1539
25723CL      CL82596   1.215   4.762   0.407  0.0391 -0.1835  0.0651
25724CL      CL82597   4.141   1.131   0.323 -0.1959 -0.0464  0.2932
25725CL      CL82598   0.006   3.300   5.749  0.5401 -0.0060  0.1217
25726CL      CL82599   5.440   7.917   4.004 -0.0743 -0.1949 -0.0766
25727CL      CL82600   2.855   2.010   4.433  0.0143 -0.0467 -0.1235
25728CL      CL82601   3.831   8.461   8.637 -0.1005  0.0958  0.0168
25729CL      CL82602   8.850   1.325   2.761  0.5017 -0.6157 -0.1612
25730CL      CL82603   1.948   4.055   1.647  0.2439  0.0549 -0.1633
25731CL      CL82604   1.746   2.070   6.075 -0.4218  0.3231  0.1181
25732CL      CL82605   5.064   5.266   6.482 -0.0710  0.2820  0.3731
25733CL      CL82606   1.931   0.369   4.786 -0.3073  0.0232  0.2622
25734CL      CL82607   2.556   8.900   0.971 -0.1050 -0.4939 -0.3676
25735CL      CL82608   8.536   3.234   5.404  0.3650 -0.1065 -0.1692
25736CL      CL82609   7.935   5.973   5.239 -0.7421 -0.2631  0.1797
25737CL      CL82610   2.770   7.002   0.784 -0.1499 -0.2794 -0.6552
   9.37129   9.37129   9.37129
