;
;   File pamam_g4.5dp_dglucose.itp  was generated
;   By user: sairam (1000)
;   On host: sairam
;   At date: Fri. January  5 09:59:20 2025
;
;   This is a standalone topology file
;
;   Created by:
;   ParmEd:       amb2gro_top_gro.py, VERSION 3.4.1
;   Executable:   amb2gro_top_gro.py
;   Library dir:  /usr/local/gromacs/share/gromacs/top
;   Command line:
;     ./amb2gro_top_gro.py -p pamam_g4.5dp_dglucose.prmtop -c pamam_g4.5dp_dglucose.inpcrd -t pamam_g4.5dp_dglucose.itp -g pamam_g4.5dp_dglucose.gro -b pamam_g4.5dp_dglucose.pdb
;

;[ defaults ]
;; nbfunc        comb-rule       gen-pairs       fudgeLJ fudgeQQ
;1               2               yes             0.5          0.83333333  
;
;[ atomtypes ]
;; name    at.num    mass    charge ptype  sigma      epsilon
;n4             7  14.010000  0.00000000  A     0.32499985        0.71128
;c3             6  12.010000  0.00000000  A     0.33996695      0.4577296
;c              6  12.010000  0.00000000  A     0.33996695       0.359824
;o              8  16.000000  0.00000000  A     0.29599219        0.87864
;hx             1   1.008000  0.00000000  A     0.19599772      0.0656888
;hc             1   1.008000  0.00000000  A     0.26495328      0.0656888
;hn             1   1.008000  0.00000000  A     0.10690785      0.0656888
;n              7  14.010000  0.00000000  A     0.32499985        0.71128
;h1             1   1.008000  0.00000000  A      0.2471353      0.0656888
;h2             1   1.008000  0.00000000  A     0.22931733      0.0656888
;oh             8  16.000000  0.00000000  A     0.30664734      0.8803136
;ho             1   1.008000  0.00000000  A              0              0
;os             8  16.000000  0.00000000  A     0.30000123        0.71128
;n3             7  14.010000  0.00000000  A     0.32499985        0.71128


[ moleculetype ]
; Name            nrexcl
pamam_g4.5dp_dglucose          3

[ atoms ]
;   nr       type  resnr residue  atom   cgnr    charge       mass  typeB    chargeB      massB
; residue    1 aaa rtp aaa q 2.0
    1         n4      1    aaa     N1      1 -0.01815100  14.010000   ; qtot -0.018151
    2         c3      1    aaa     C1      2 0.01243000  12.010000   ; qtot -0.005721
    3         c3      1    aaa     C2      3 0.01243000  12.010000   ; qtot 0.006709
    4         n4      1    aaa     N2      4 -0.01815100  14.010000   ; qtot -0.011442
    5         c3      1    aaa     C3      5 -0.01431700  12.010000   ; qtot -0.025759
    6         c3      1    aaa     C4      6 -0.01431700  12.010000   ; qtot -0.040076
    7         c3      1    aaa     C5      7 -0.01431700  12.010000   ; qtot -0.054393
    8         c3      1    aaa     C6      8 -0.01431700  12.010000   ; qtot -0.068710
    9         c3      1    aaa     C7      9 -0.26758200  12.010000   ; qtot -0.336292
   10          c      1    aaa     C8     10 0.71337400  12.010000   ; qtot 0.377082
   11         c3      1    aaa     C9     11 -0.26758200  12.010000   ; qtot 0.109500
   12          c      1    aaa    C10     12 0.71337400  12.010000   ; qtot 0.822874
   13         c3      1    aaa    C11     13 -0.26758200  12.010000   ; qtot 0.555292
   14          c      1    aaa    C12     14 0.71337400  12.010000   ; qtot 1.268666
   15         c3      1    aaa    C13     15 -0.26758200  12.010000   ; qtot 1.001084
   16          c      1    aaa    C14     16 0.71337400  12.010000   ; qtot 1.714458
   17          o      1    aaa     O1     17 -0.55531800  16.000000   ; qtot 1.159140
   18          o      1    aaa     O2     18 -0.55531800  16.000000   ; qtot 0.603822
   19          o      1    aaa     O3     19 -0.55531800  16.000000   ; qtot 0.048504
   20          o      1    aaa     O4     20 -0.55531800  16.000000   ; qtot -0.506814
   21         hx      1    aaa     H1     21 0.08276100   1.008000   ; qtot -0.424053
   22         hx      1    aaa     H2     22 0.08276100   1.008000   ; qtot -0.341292
   23         hx      1    aaa     H3     23 0.08276100   1.008000   ; qtot -0.258531
   24         hx      1    aaa     H4     24 0.08276100   1.008000   ; qtot -0.175770
   25         hx      1    aaa     H5     25 0.10467000   1.008000   ; qtot -0.071100
   26         hx      1    aaa     H6     26 0.10467000   1.008000   ; qtot 0.033570
   27         hx      1    aaa     H7     27 0.10467000   1.008000   ; qtot 0.138240
   28         hx      1    aaa     H8     28 0.10467000   1.008000   ; qtot 0.242910
   29         hx      1    aaa     H9     29 0.10467000   1.008000   ; qtot 0.347580
   30         hx      1    aaa    H10     30 0.10467000   1.008000   ; qtot 0.452250
   31         hx      1    aaa    H11     31 0.10467000   1.008000   ; qtot 0.556920
   32         hx      1    aaa    H12     32 0.10467000   1.008000   ; qtot 0.661590
   33         hc      1    aaa    H13     33 0.11830200   1.008000   ; qtot 0.779892
   34         hc      1    aaa    H14     34 0.11830200   1.008000   ; qtot 0.898194
   35         hc      1    aaa    H15     35 0.11830200   1.008000   ; qtot 1.016496
   36         hc      1    aaa    H16     36 0.11830200   1.008000   ; qtot 1.134798
   37         hc      1    aaa    H17     37 0.11830200   1.008000   ; qtot 1.253100
   38         hc      1    aaa    H18     38 0.11830200   1.008000   ; qtot 1.371402
   39         hc      1    aaa    H19     39 0.11830200   1.008000   ; qtot 1.489704
   40         hc      1    aaa    H20     40 0.11830200   1.008000   ; qtot 1.608006
   41         hn      1    aaa    H37     41 0.19599700   1.008000   ; qtot 1.804003
   42         hn      1    aaa    H38     42 0.19599700   1.008000   ; qtot 2.000000
; residue    2 bbb rtp bbb q 1.0
   43         n4      2    bbb     N1     43 -0.02747900  14.010000   ; qtot 1.972521
   44         c3      2    bbb     C1     44 -0.05097600  12.010000   ; qtot 1.921545
   45         c3      2    bbb     C2     45 -0.05097600  12.010000   ; qtot 1.870569
   46         c3      2    bbb     C3     46 -0.18457900  12.010000   ; qtot 1.685990
   47          c      2    bbb     C4     47 0.67254400  12.010000   ; qtot 2.358534
   48         c3      2    bbb     C5     48 -0.18457900  12.010000   ; qtot 2.173955
   49          c      2    bbb     C6     49 0.67254400  12.010000   ; qtot 2.846499
   50         c3      2    bbb     C7     50 -0.02083000  12.010000   ; qtot 2.825669
   51         c3      2    bbb     C8     51 -0.03328100  12.010000   ; qtot 2.792388
   52          n      2    bbb     N2     52 -0.33303000  14.010000   ; qtot 2.459358
   53          o      2    bbb     O1     53 -0.52917200  16.000000   ; qtot 1.930186
   54          o      2    bbb     O2     54 -0.52917200  16.000000   ; qtot 1.401014
   55         hx      2    bbb     H1     55 0.11563300   1.008000   ; qtot 1.516647
   56         hx      2    bbb     H2     56 0.11563300   1.008000   ; qtot 1.632280
   57         hx      2    bbb     H3     57 0.11563300   1.008000   ; qtot 1.747913
   58         hx      2    bbb     H4     58 0.11563300   1.008000   ; qtot 1.863546
   59         hc      2    bbb     H5     59 0.08347900   1.008000   ; qtot 1.947025
   60         hc      2    bbb     H6     60 0.08347900   1.008000   ; qtot 2.030504
   61         hc      2    bbb     H7     61 0.08347900   1.008000   ; qtot 2.113983
   62         hc      2    bbb     H8     62 0.08347900   1.008000   ; qtot 2.197462
   63         hx      2    bbb     H9     63 0.07988000   1.008000   ; qtot 2.277342
   64         hx      2    bbb    H10     64 0.07988000   1.008000   ; qtot 2.357222
   65         h1      2    bbb    H11     65 0.10618100   1.008000   ; qtot 2.463403
   66         h1      2    bbb    H12     66 0.10618100   1.008000   ; qtot 2.569584
   67         hn      2    bbb    H13     67 0.25916100   1.008000   ; qtot 2.828745
   68         hn      2    bbb    H25     68 0.17125500   1.008000   ; qtot 3.000000
; residue    3 bbb rtp bbb q 1.0
   69         n4      3    bbb     N1     69 -0.02747900  14.010000   ; qtot 2.972521
   70         c3      3    bbb     C1     70 -0.05097600  12.010000   ; qtot 2.921545
   71         c3      3    bbb     C2     71 -0.05097600  12.010000   ; qtot 2.870569
   72         c3      3    bbb     C3     72 -0.18457900  12.010000   ; qtot 2.685990
   73          c      3    bbb     C4     73 0.67254400  12.010000   ; qtot 3.358534
   74         c3      3    bbb     C5     74 -0.18457900  12.010000   ; qtot 3.173955
   75          c      3    bbb     C6     75 0.67254400  12.010000   ; qtot 3.846499
   76         c3      3    bbb     C7     76 -0.02083000  12.010000   ; qtot 3.825669
   77         c3      3    bbb     C8     77 -0.03328100  12.010000   ; qtot 3.792388
   78          n      3    bbb     N2     78 -0.33303000  14.010000   ; qtot 3.459358
   79          o      3    bbb     O1     79 -0.52917200  16.000000   ; qtot 2.930186
   80          o      3    bbb     O2     80 -0.52917200  16.000000   ; qtot 2.401014
   81         hx      3    bbb     H1     81 0.11563300   1.008000   ; qtot 2.516647
   82         hx      3    bbb     H2     82 0.11563300   1.008000   ; qtot 2.632280
   83         hx      3    bbb     H3     83 0.11563300   1.008000   ; qtot 2.747913
   84         hx      3    bbb     H4     84 0.11563300   1.008000   ; qtot 2.863546
   85         hc      3    bbb     H5     85 0.08347900   1.008000   ; qtot 2.947025
   86         hc      3    bbb     H6     86 0.08347900   1.008000   ; qtot 3.030504
   87         hc      3    bbb     H7     87 0.08347900   1.008000   ; qtot 3.113983
   88         hc      3    bbb     H8     88 0.08347900   1.008000   ; qtot 3.197462
   89         hx      3    bbb     H9     89 0.07988000   1.008000   ; qtot 3.277342
   90         hx      3    bbb    H10     90 0.07988000   1.008000   ; qtot 3.357222
   91         h1      3    bbb    H11     91 0.10618100   1.008000   ; qtot 3.463403
   92         h1      3    bbb    H12     92 0.10618100   1.008000   ; qtot 3.569584
   93         hn      3    bbb    H13     93 0.25916100   1.008000   ; qtot 3.828745
   94         hn      3    bbb    H25     94 0.17125500   1.008000   ; qtot 4.000000
; residue    4 bbb rtp bbb q 1.0
   95         n4      4    bbb     N1     95 -0.02747900  14.010000   ; qtot 3.972521
   96         c3      4    bbb     C1     96 -0.05097600  12.010000   ; qtot 3.921545
   97         c3      4    bbb     C2     97 -0.05097600  12.010000   ; qtot 3.870569
   98         c3      4    bbb     C3     98 -0.18457900  12.010000   ; qtot 3.685990
   99          c      4    bbb     C4     99 0.67254400  12.010000   ; qtot 4.358534
  100         c3      4    bbb     C5    100 -0.18457900  12.010000   ; qtot 4.173955
  101          c      4    bbb     C6    101 0.67254400  12.010000   ; qtot 4.846499
  102         c3      4    bbb     C7    102 -0.02083000  12.010000   ; qtot 4.825669
  103         c3      4    bbb     C8    103 -0.03328100  12.010000   ; qtot 4.792388
  104          n      4    bbb     N2    104 -0.33303000  14.010000   ; qtot 4.459358
  105          o      4    bbb     O1    105 -0.52917200  16.000000   ; qtot 3.930186
  106          o      4    bbb     O2    106 -0.52917200  16.000000   ; qtot 3.401014
  107         hx      4    bbb     H1    107 0.11563300   1.008000   ; qtot 3.516647
  108         hx      4    bbb     H2    108 0.11563300   1.008000   ; qtot 3.632280
  109         hx      4    bbb     H3    109 0.11563300   1.008000   ; qtot 3.747913
  110         hx      4    bbb     H4    110 0.11563300   1.008000   ; qtot 3.863546
  111         hc      4    bbb     H5    111 0.08347900   1.008000   ; qtot 3.947025
  112         hc      4    bbb     H6    112 0.08347900   1.008000   ; qtot 4.030504
  113         hc      4    bbb     H7    113 0.08347900   1.008000   ; qtot 4.113983
  114         hc      4    bbb     H8    114 0.08347900   1.008000   ; qtot 4.197462
  115         hx      4    bbb     H9    115 0.07988000   1.008000   ; qtot 4.277342
  116         hx      4    bbb    H10    116 0.07988000   1.008000   ; qtot 4.357222
  117         h1      4    bbb    H11    117 0.10618100   1.008000   ; qtot 4.463403
  118         h1      4    bbb    H12    118 0.10618100   1.008000   ; qtot 4.569584
  119         hn      4    bbb    H13    119 0.25916100   1.008000   ; qtot 4.828745
  120         hn      4    bbb    H25    120 0.17125500   1.008000   ; qtot 5.000000
; residue    5 bbb rtp bbb q 1.0
  121         n4      5    bbb     N1    121 -0.02747900  14.010000   ; qtot 4.972521
  122         c3      5    bbb     C1    122 -0.05097600  12.010000   ; qtot 4.921545
  123         c3      5    bbb     C2    123 -0.05097600  12.010000   ; qtot 4.870569
  124         c3      5    bbb     C3    124 -0.18457900  12.010000   ; qtot 4.685990
  125          c      5    bbb     C4    125 0.67254400  12.010000   ; qtot 5.358534
  126         c3      5    bbb     C5    126 -0.18457900  12.010000   ; qtot 5.173955
  127          c      5    bbb     C6    127 0.67254400  12.010000   ; qtot 5.846499
  128         c3      5    bbb     C7    128 -0.02083000  12.010000   ; qtot 5.825669
  129         c3      5    bbb     C8    129 -0.03328100  12.010000   ; qtot 5.792388
  130          n      5    bbb     N2    130 -0.33303000  14.010000   ; qtot 5.459358
  131          o      5    bbb     O1    131 -0.52917200  16.000000   ; qtot 4.930186
  132          o      5    bbb     O2    132 -0.52917200  16.000000   ; qtot 4.401014
  133         hx      5    bbb     H1    133 0.11563300   1.008000   ; qtot 4.516647
  134         hx      5    bbb     H2    134 0.11563300   1.008000   ; qtot 4.632280
  135         hx      5    bbb     H3    135 0.11563300   1.008000   ; qtot 4.747913
  136         hx      5    bbb     H4    136 0.11563300   1.008000   ; qtot 4.863546
  137         hc      5    bbb     H5    137 0.08347900   1.008000   ; qtot 4.947025
  138         hc      5    bbb     H6    138 0.08347900   1.008000   ; qtot 5.030504
  139         hc      5    bbb     H7    139 0.08347900   1.008000   ; qtot 5.113983
  140         hc      5    bbb     H8    140 0.08347900   1.008000   ; qtot 5.197462
  141         hx      5    bbb     H9    141 0.07988000   1.008000   ; qtot 5.277342
  142         hx      5    bbb    H10    142 0.07988000   1.008000   ; qtot 5.357222
  143         h1      5    bbb    H11    143 0.10618100   1.008000   ; qtot 5.463403
  144         h1      5    bbb    H12    144 0.10618100   1.008000   ; qtot 5.569584
  145         hn      5    bbb    H13    145 0.25916100   1.008000   ; qtot 5.828745
  146         hn      5    bbb    H25    146 0.17125500   1.008000   ; qtot 6.000000
; residue    6 bbb rtp bbb q 1.0
  147         n4      6    bbb     N1    147 -0.02747900  14.010000   ; qtot 5.972521
  148         c3      6    bbb     C1    148 -0.05097600  12.010000   ; qtot 5.921545
  149         c3      6    bbb     C2    149 -0.05097600  12.010000   ; qtot 5.870569
  150         c3      6    bbb     C3    150 -0.18457900  12.010000   ; qtot 5.685990
  151          c      6    bbb     C4    151 0.67254400  12.010000   ; qtot 6.358534
  152         c3      6    bbb     C5    152 -0.18457900  12.010000   ; qtot 6.173955
  153          c      6    bbb     C6    153 0.67254400  12.010000   ; qtot 6.846499
  154         c3      6    bbb     C7    154 -0.02083000  12.010000   ; qtot 6.825669
  155         c3      6    bbb     C8    155 -0.03328100  12.010000   ; qtot 6.792388
  156          n      6    bbb     N2    156 -0.33303000  14.010000   ; qtot 6.459358
  157          o      6    bbb     O1    157 -0.52917200  16.000000   ; qtot 5.930186
  158          o      6    bbb     O2    158 -0.52917200  16.000000   ; qtot 5.401014
  159         hx      6    bbb     H1    159 0.11563300   1.008000   ; qtot 5.516647
  160         hx      6    bbb     H2    160 0.11563300   1.008000   ; qtot 5.632280
  161         hx      6    bbb     H3    161 0.11563300   1.008000   ; qtot 5.747913
  162         hx      6    bbb     H4    162 0.11563300   1.008000   ; qtot 5.863546
  163         hc      6    bbb     H5    163 0.08347900   1.008000   ; qtot 5.947025
  164         hc      6    bbb     H6    164 0.08347900   1.008000   ; qtot 6.030504
  165         hc      6    bbb     H7    165 0.08347900   1.008000   ; qtot 6.113983
  166         hc      6    bbb     H8    166 0.08347900   1.008000   ; qtot 6.197462
  167         hx      6    bbb     H9    167 0.07988000   1.008000   ; qtot 6.277342
  168         hx      6    bbb    H10    168 0.07988000   1.008000   ; qtot 6.357222
  169         h1      6    bbb    H11    169 0.10618100   1.008000   ; qtot 6.463403
  170         h1      6    bbb    H12    170 0.10618100   1.008000   ; qtot 6.569584
  171         hn      6    bbb    H13    171 0.25916100   1.008000   ; qtot 6.828745
  172         hn      6    bbb    H25    172 0.17125500   1.008000   ; qtot 7.000000
; residue    7 bbb rtp bbb q 1.0
  173         n4      7    bbb     N1    173 -0.02747900  14.010000   ; qtot 6.972521
  174         c3      7    bbb     C1    174 -0.05097600  12.010000   ; qtot 6.921545
  175         c3      7    bbb     C2    175 -0.05097600  12.010000   ; qtot 6.870569
  176         c3      7    bbb     C3    176 -0.18457900  12.010000   ; qtot 6.685990
  177          c      7    bbb     C4    177 0.67254400  12.010000   ; qtot 7.358534
  178         c3      7    bbb     C5    178 -0.18457900  12.010000   ; qtot 7.173955
  179          c      7    bbb     C6    179 0.67254400  12.010000   ; qtot 7.846499
  180         c3      7    bbb     C7    180 -0.02083000  12.010000   ; qtot 7.825669
  181         c3      7    bbb     C8    181 -0.03328100  12.010000   ; qtot 7.792388
  182          n      7    bbb     N2    182 -0.33303000  14.010000   ; qtot 7.459358
  183          o      7    bbb     O1    183 -0.52917200  16.000000   ; qtot 6.930186
  184          o      7    bbb     O2    184 -0.52917200  16.000000   ; qtot 6.401014
  185         hx      7    bbb     H1    185 0.11563300   1.008000   ; qtot 6.516647
  186         hx      7    bbb     H2    186 0.11563300   1.008000   ; qtot 6.632280
  187         hx      7    bbb     H3    187 0.11563300   1.008000   ; qtot 6.747913
  188         hx      7    bbb     H4    188 0.11563300   1.008000   ; qtot 6.863546
  189         hc      7    bbb     H5    189 0.08347900   1.008000   ; qtot 6.947025
  190         hc      7    bbb     H6    190 0.08347900   1.008000   ; qtot 7.030504
  191         hc      7    bbb     H7    191 0.08347900   1.008000   ; qtot 7.113983
  192         hc      7    bbb     H8    192 0.08347900   1.008000   ; qtot 7.197462
  193         hx      7    bbb     H9    193 0.07988000   1.008000   ; qtot 7.277342
  194         hx      7    bbb    H10    194 0.07988000   1.008000   ; qtot 7.357222
  195         h1      7    bbb    H11    195 0.10618100   1.008000   ; qtot 7.463403
  196         h1      7    bbb    H12    196 0.10618100   1.008000   ; qtot 7.569584
  197         hn      7    bbb    H13    197 0.25916100   1.008000   ; qtot 7.828745
  198         hn      7    bbb    H25    198 0.17125500   1.008000   ; qtot 8.000000
; residue    8 bbb rtp bbb q 1.0
  199         n4      8    bbb     N1    199 -0.02747900  14.010000   ; qtot 7.972521
  200         c3      8    bbb     C1    200 -0.05097600  12.010000   ; qtot 7.921545
  201         c3      8    bbb     C2    201 -0.05097600  12.010000   ; qtot 7.870569
  202         c3      8    bbb     C3    202 -0.18457900  12.010000   ; qtot 7.685990
  203          c      8    bbb     C4    203 0.67254400  12.010000   ; qtot 8.358534
  204         c3      8    bbb     C5    204 -0.18457900  12.010000   ; qtot 8.173955
  205          c      8    bbb     C6    205 0.67254400  12.010000   ; qtot 8.846499
  206         c3      8    bbb     C7    206 -0.02083000  12.010000   ; qtot 8.825669
  207         c3      8    bbb     C8    207 -0.03328100  12.010000   ; qtot 8.792388
  208          n      8    bbb     N2    208 -0.33303000  14.010000   ; qtot 8.459358
  209          o      8    bbb     O1    209 -0.52917200  16.000000   ; qtot 7.930186
  210          o      8    bbb     O2    210 -0.52917200  16.000000   ; qtot 7.401014
  211         hx      8    bbb     H1    211 0.11563300   1.008000   ; qtot 7.516647
  212         hx      8    bbb     H2    212 0.11563300   1.008000   ; qtot 7.632280
  213         hx      8    bbb     H3    213 0.11563300   1.008000   ; qtot 7.747913
  214         hx      8    bbb     H4    214 0.11563300   1.008000   ; qtot 7.863546
  215         hc      8    bbb     H5    215 0.08347900   1.008000   ; qtot 7.947025
  216         hc      8    bbb     H6    216 0.08347900   1.008000   ; qtot 8.030504
  217         hc      8    bbb     H7    217 0.08347900   1.008000   ; qtot 8.113983
  218         hc      8    bbb     H8    218 0.08347900   1.008000   ; qtot 8.197462
  219         hx      8    bbb     H9    219 0.07988000   1.008000   ; qtot 8.277342
  220         hx      8    bbb    H10    220 0.07988000   1.008000   ; qtot 8.357222
  221         h1      8    bbb    H11    221 0.10618100   1.008000   ; qtot 8.463403
  222         h1      8    bbb    H12    222 0.10618100   1.008000   ; qtot 8.569584
  223         hn      8    bbb    H13    223 0.25916100   1.008000   ; qtot 8.828745
  224         hn      8    bbb    H25    224 0.17125500   1.008000   ; qtot 9.000000
; residue    9 bbb rtp bbb q 1.0
  225         n4      9    bbb     N1    225 -0.02747900  14.010000   ; qtot 8.972521
  226         c3      9    bbb     C1    226 -0.05097600  12.010000   ; qtot 8.921545
  227         c3      9    bbb     C2    227 -0.05097600  12.010000   ; qtot 8.870569
  228         c3      9    bbb     C3    228 -0.18457900  12.010000   ; qtot 8.685990
  229          c      9    bbb     C4    229 0.67254400  12.010000   ; qtot 9.358534
  230         c3      9    bbb     C5    230 -0.18457900  12.010000   ; qtot 9.173955
  231          c      9    bbb     C6    231 0.67254400  12.010000   ; qtot 9.846499
  232         c3      9    bbb     C7    232 -0.02083000  12.010000   ; qtot 9.825669
  233         c3      9    bbb     C8    233 -0.03328100  12.010000   ; qtot 9.792388
  234          n      9    bbb     N2    234 -0.33303000  14.010000   ; qtot 9.459358
  235          o      9    bbb     O1    235 -0.52917200  16.000000   ; qtot 8.930186
  236          o      9    bbb     O2    236 -0.52917200  16.000000   ; qtot 8.401014
  237         hx      9    bbb     H1    237 0.11563300   1.008000   ; qtot 8.516647
  238         hx      9    bbb     H2    238 0.11563300   1.008000   ; qtot 8.632280
  239         hx      9    bbb     H3    239 0.11563300   1.008000   ; qtot 8.747913
  240         hx      9    bbb     H4    240 0.11563300   1.008000   ; qtot 8.863546
  241         hc      9    bbb     H5    241 0.08347900   1.008000   ; qtot 8.947025
  242         hc      9    bbb     H6    242 0.08347900   1.008000   ; qtot 9.030504
  243         hc      9    bbb     H7    243 0.08347900   1.008000   ; qtot 9.113983
  244         hc      9    bbb     H8    244 0.08347900   1.008000   ; qtot 9.197462
  245         hx      9    bbb     H9    245 0.07988000   1.008000   ; qtot 9.277342
  246         hx      9    bbb    H10    246 0.07988000   1.008000   ; qtot 9.357222
  247         h1      9    bbb    H11    247 0.10618100   1.008000   ; qtot 9.463403
  248         h1      9    bbb    H12    248 0.10618100   1.008000   ; qtot 9.569584
  249         hn      9    bbb    H13    249 0.25916100   1.008000   ; qtot 9.828745
  250         hn      9    bbb    H25    250 0.17125500   1.008000   ; qtot 10.000000
; residue   10 bbb rtp bbb q 1.0
  251         n4     10    bbb     N1    251 -0.02747900  14.010000   ; qtot 9.972521
  252         c3     10    bbb     C1    252 -0.05097600  12.010000   ; qtot 9.921545
  253         c3     10    bbb     C2    253 -0.05097600  12.010000   ; qtot 9.870569
  254         c3     10    bbb     C3    254 -0.18457900  12.010000   ; qtot 9.685990
  255          c     10    bbb     C4    255 0.67254400  12.010000   ; qtot 10.358534
  256         c3     10    bbb     C5    256 -0.18457900  12.010000   ; qtot 10.173955
  257          c     10    bbb     C6    257 0.67254400  12.010000   ; qtot 10.846499
  258         c3     10    bbb     C7    258 -0.02083000  12.010000   ; qtot 10.825669
  259         c3     10    bbb     C8    259 -0.03328100  12.010000   ; qtot 10.792388
  260          n     10    bbb     N2    260 -0.33303000  14.010000   ; qtot 10.459358
  261          o     10    bbb     O1    261 -0.52917200  16.000000   ; qtot 9.930186
  262          o     10    bbb     O2    262 -0.52917200  16.000000   ; qtot 9.401014
  263         hx     10    bbb     H1    263 0.11563300   1.008000   ; qtot 9.516647
  264         hx     10    bbb     H2    264 0.11563300   1.008000   ; qtot 9.632280
  265         hx     10    bbb     H3    265 0.11563300   1.008000   ; qtot 9.747913
  266         hx     10    bbb     H4    266 0.11563300   1.008000   ; qtot 9.863546
  267         hc     10    bbb     H5    267 0.08347900   1.008000   ; qtot 9.947025
  268         hc     10    bbb     H6    268 0.08347900   1.008000   ; qtot 10.030504
  269         hc     10    bbb     H7    269 0.08347900   1.008000   ; qtot 10.113983
  270         hc     10    bbb     H8    270 0.08347900   1.008000   ; qtot 10.197462
  271         hx     10    bbb     H9    271 0.07988000   1.008000   ; qtot 10.277342
  272         hx     10    bbb    H10    272 0.07988000   1.008000   ; qtot 10.357222
  273         h1     10    bbb    H11    273 0.10618100   1.008000   ; qtot 10.463403
  274         h1     10    bbb    H12    274 0.10618100   1.008000   ; qtot 10.569584
  275         hn     10    bbb    H13    275 0.25916100   1.008000   ; qtot 10.828745
  276         hn     10    bbb    H25    276 0.17125500   1.008000   ; qtot 11.000000
; residue   11 bbb rtp bbb q 1.0
  277         n4     11    bbb     N1    277 -0.02747900  14.010000   ; qtot 10.972521
  278         c3     11    bbb     C1    278 -0.05097600  12.010000   ; qtot 10.921545
  279         c3     11    bbb     C2    279 -0.05097600  12.010000   ; qtot 10.870569
  280         c3     11    bbb     C3    280 -0.18457900  12.010000   ; qtot 10.685990
  281          c     11    bbb     C4    281 0.67254400  12.010000   ; qtot 11.358534
  282         c3     11    bbb     C5    282 -0.18457900  12.010000   ; qtot 11.173955
  283          c     11    bbb     C6    283 0.67254400  12.010000   ; qtot 11.846499
  284         c3     11    bbb     C7    284 -0.02083000  12.010000   ; qtot 11.825669
  285         c3     11    bbb     C8    285 -0.03328100  12.010000   ; qtot 11.792388
  286          n     11    bbb     N2    286 -0.33303000  14.010000   ; qtot 11.459358
  287          o     11    bbb     O1    287 -0.52917200  16.000000   ; qtot 10.930186
  288          o     11    bbb     O2    288 -0.52917200  16.000000   ; qtot 10.401014
  289         hx     11    bbb     H1    289 0.11563300   1.008000   ; qtot 10.516647
  290         hx     11    bbb     H2    290 0.11563300   1.008000   ; qtot 10.632280
  291         hx     11    bbb     H3    291 0.11563300   1.008000   ; qtot 10.747913
  292         hx     11    bbb     H4    292 0.11563300   1.008000   ; qtot 10.863546
  293         hc     11    bbb     H5    293 0.08347900   1.008000   ; qtot 10.947025
  294         hc     11    bbb     H6    294 0.08347900   1.008000   ; qtot 11.030504
  295         hc     11    bbb     H7    295 0.08347900   1.008000   ; qtot 11.113983
  296         hc     11    bbb     H8    296 0.08347900   1.008000   ; qtot 11.197462
  297         hx     11    bbb     H9    297 0.07988000   1.008000   ; qtot 11.277342
  298         hx     11    bbb    H10    298 0.07988000   1.008000   ; qtot 11.357222
  299         h1     11    bbb    H11    299 0.10618100   1.008000   ; qtot 11.463403
  300         h1     11    bbb    H12    300 0.10618100   1.008000   ; qtot 11.569584
  301         hn     11    bbb    H13    301 0.25916100   1.008000   ; qtot 11.828745
  302         hn     11    bbb    H25    302 0.17125500   1.008000   ; qtot 12.000000
; residue   12 bbb rtp bbb q 1.0
  303         n4     12    bbb     N1    303 -0.02747900  14.010000   ; qtot 11.972521
  304         c3     12    bbb     C1    304 -0.05097600  12.010000   ; qtot 11.921545
  305         c3     12    bbb     C2    305 -0.05097600  12.010000   ; qtot 11.870569
  306         c3     12    bbb     C3    306 -0.18457900  12.010000   ; qtot 11.685990
  307          c     12    bbb     C4    307 0.67254400  12.010000   ; qtot 12.358534
  308         c3     12    bbb     C5    308 -0.18457900  12.010000   ; qtot 12.173955
  309          c     12    bbb     C6    309 0.67254400  12.010000   ; qtot 12.846499
  310         c3     12    bbb     C7    310 -0.02083000  12.010000   ; qtot 12.825669
  311         c3     12    bbb     C8    311 -0.03328100  12.010000   ; qtot 12.792388
  312          n     12    bbb     N2    312 -0.33303000  14.010000   ; qtot 12.459358
  313          o     12    bbb     O1    313 -0.52917200  16.000000   ; qtot 11.930186
  314          o     12    bbb     O2    314 -0.52917200  16.000000   ; qtot 11.401014
  315         hx     12    bbb     H1    315 0.11563300   1.008000   ; qtot 11.516647
  316         hx     12    bbb     H2    316 0.11563300   1.008000   ; qtot 11.632280
  317         hx     12    bbb     H3    317 0.11563300   1.008000   ; qtot 11.747913
  318         hx     12    bbb     H4    318 0.11563300   1.008000   ; qtot 11.863546
  319         hc     12    bbb     H5    319 0.08347900   1.008000   ; qtot 11.947025
  320         hc     12    bbb     H6    320 0.08347900   1.008000   ; qtot 12.030504
  321         hc     12    bbb     H7    321 0.08347900   1.008000   ; qtot 12.113983
  322         hc     12    bbb     H8    322 0.08347900   1.008000   ; qtot 12.197462
  323         hx     12    bbb     H9    323 0.07988000   1.008000   ; qtot 12.277342
  324         hx     12    bbb    H10    324 0.07988000   1.008000   ; qtot 12.357222
  325         h1     12    bbb    H11    325 0.10618100   1.008000   ; qtot 12.463403
  326         h1     12    bbb    H12    326 0.10618100   1.008000   ; qtot 12.569584
  327         hn     12    bbb    H13    327 0.25916100   1.008000   ; qtot 12.828745
  328         hn     12    bbb    H25    328 0.17125500   1.008000   ; qtot 13.000000
; residue   13 bbb rtp bbb q 1.0
  329         n4     13    bbb     N1    329 -0.02747900  14.010000   ; qtot 12.972521
  330         c3     13    bbb     C1    330 -0.05097600  12.010000   ; qtot 12.921545
  331         c3     13    bbb     C2    331 -0.05097600  12.010000   ; qtot 12.870569
  332         c3     13    bbb     C3    332 -0.18457900  12.010000   ; qtot 12.685990
  333          c     13    bbb     C4    333 0.67254400  12.010000   ; qtot 13.358534
  334         c3     13    bbb     C5    334 -0.18457900  12.010000   ; qtot 13.173955
  335          c     13    bbb     C6    335 0.67254400  12.010000   ; qtot 13.846499
  336         c3     13    bbb     C7    336 -0.02083000  12.010000   ; qtot 13.825669
  337         c3     13    bbb     C8    337 -0.03328100  12.010000   ; qtot 13.792388
  338          n     13    bbb     N2    338 -0.33303000  14.010000   ; qtot 13.459358
  339          o     13    bbb     O1    339 -0.52917200  16.000000   ; qtot 12.930186
  340          o     13    bbb     O2    340 -0.52917200  16.000000   ; qtot 12.401014
  341         hx     13    bbb     H1    341 0.11563300   1.008000   ; qtot 12.516647
  342         hx     13    bbb     H2    342 0.11563300   1.008000   ; qtot 12.632280
  343         hx     13    bbb     H3    343 0.11563300   1.008000   ; qtot 12.747913
  344         hx     13    bbb     H4    344 0.11563300   1.008000   ; qtot 12.863546
  345         hc     13    bbb     H5    345 0.08347900   1.008000   ; qtot 12.947025
  346         hc     13    bbb     H6    346 0.08347900   1.008000   ; qtot 13.030504
  347         hc     13    bbb     H7    347 0.08347900   1.008000   ; qtot 13.113983
  348         hc     13    bbb     H8    348 0.08347900   1.008000   ; qtot 13.197462
  349         hx     13    bbb     H9    349 0.07988000   1.008000   ; qtot 13.277342
  350         hx     13    bbb    H10    350 0.07988000   1.008000   ; qtot 13.357222
  351         h1     13    bbb    H11    351 0.10618100   1.008000   ; qtot 13.463403
  352         h1     13    bbb    H12    352 0.10618100   1.008000   ; qtot 13.569584
  353         hn     13    bbb    H13    353 0.25916100   1.008000   ; qtot 13.828745
  354         hn     13    bbb    H25    354 0.17125500   1.008000   ; qtot 14.000000
; residue   14 bbb rtp bbb q 1.0
  355         n4     14    bbb     N1    355 -0.02747900  14.010000   ; qtot 13.972521
  356         c3     14    bbb     C1    356 -0.05097600  12.010000   ; qtot 13.921545
  357         c3     14    bbb     C2    357 -0.05097600  12.010000   ; qtot 13.870569
  358         c3     14    bbb     C3    358 -0.18457900  12.010000   ; qtot 13.685990
  359          c     14    bbb     C4    359 0.67254400  12.010000   ; qtot 14.358534
  360         c3     14    bbb     C5    360 -0.18457900  12.010000   ; qtot 14.173955
  361          c     14    bbb     C6    361 0.67254400  12.010000   ; qtot 14.846499
  362         c3     14    bbb     C7    362 -0.02083000  12.010000   ; qtot 14.825669
  363         c3     14    bbb     C8    363 -0.03328100  12.010000   ; qtot 14.792388
  364          n     14    bbb     N2    364 -0.33303000  14.010000   ; qtot 14.459358
  365          o     14    bbb     O1    365 -0.52917200  16.000000   ; qtot 13.930186
  366          o     14    bbb     O2    366 -0.52917200  16.000000   ; qtot 13.401014
  367         hx     14    bbb     H1    367 0.11563300   1.008000   ; qtot 13.516647
  368         hx     14    bbb     H2    368 0.11563300   1.008000   ; qtot 13.632280
  369         hx     14    bbb     H3    369 0.11563300   1.008000   ; qtot 13.747913
  370         hx     14    bbb     H4    370 0.11563300   1.008000   ; qtot 13.863546
  371         hc     14    bbb     H5    371 0.08347900   1.008000   ; qtot 13.947025
  372         hc     14    bbb     H6    372 0.08347900   1.008000   ; qtot 14.030504
  373         hc     14    bbb     H7    373 0.08347900   1.008000   ; qtot 14.113983
  374         hc     14    bbb     H8    374 0.08347900   1.008000   ; qtot 14.197462
  375         hx     14    bbb     H9    375 0.07988000   1.008000   ; qtot 14.277342
  376         hx     14    bbb    H10    376 0.07988000   1.008000   ; qtot 14.357222
  377         h1     14    bbb    H11    377 0.10618100   1.008000   ; qtot 14.463403
  378         h1     14    bbb    H12    378 0.10618100   1.008000   ; qtot 14.569584
  379         hn     14    bbb    H13    379 0.25916100   1.008000   ; qtot 14.828745
  380         hn     14    bbb    H25    380 0.17125500   1.008000   ; qtot 15.000000
; residue   15 bbb rtp bbb q 1.0
  381         n4     15    bbb     N1    381 -0.02747900  14.010000   ; qtot 14.972521
  382         c3     15    bbb     C1    382 -0.05097600  12.010000   ; qtot 14.921545
  383         c3     15    bbb     C2    383 -0.05097600  12.010000   ; qtot 14.870569
  384         c3     15    bbb     C3    384 -0.18457900  12.010000   ; qtot 14.685990
  385          c     15    bbb     C4    385 0.67254400  12.010000   ; qtot 15.358534
  386         c3     15    bbb     C5    386 -0.18457900  12.010000   ; qtot 15.173955
  387          c     15    bbb     C6    387 0.67254400  12.010000   ; qtot 15.846499
  388         c3     15    bbb     C7    388 -0.02083000  12.010000   ; qtot 15.825669
  389         c3     15    bbb     C8    389 -0.03328100  12.010000   ; qtot 15.792388
  390          n     15    bbb     N2    390 -0.33303000  14.010000   ; qtot 15.459358
  391          o     15    bbb     O1    391 -0.52917200  16.000000   ; qtot 14.930186
  392          o     15    bbb     O2    392 -0.52917200  16.000000   ; qtot 14.401014
  393         hx     15    bbb     H1    393 0.11563300   1.008000   ; qtot 14.516647
  394         hx     15    bbb     H2    394 0.11563300   1.008000   ; qtot 14.632280
  395         hx     15    bbb     H3    395 0.11563300   1.008000   ; qtot 14.747913
  396         hx     15    bbb     H4    396 0.11563300   1.008000   ; qtot 14.863546
  397         hc     15    bbb     H5    397 0.08347900   1.008000   ; qtot 14.947025
  398         hc     15    bbb     H6    398 0.08347900   1.008000   ; qtot 15.030504
  399         hc     15    bbb     H7    399 0.08347900   1.008000   ; qtot 15.113983
  400         hc     15    bbb     H8    400 0.08347900   1.008000   ; qtot 15.197462
  401         hx     15    bbb     H9    401 0.07988000   1.008000   ; qtot 15.277342
  402         hx     15    bbb    H10    402 0.07988000   1.008000   ; qtot 15.357222
  403         h1     15    bbb    H11    403 0.10618100   1.008000   ; qtot 15.463403
  404         h1     15    bbb    H12    404 0.10618100   1.008000   ; qtot 15.569584
  405         hn     15    bbb    H13    405 0.25916100   1.008000   ; qtot 15.828745
  406         hn     15    bbb    H25    406 0.17125500   1.008000   ; qtot 16.000000
; residue   16 bbb rtp bbb q 1.0
  407         n4     16    bbb     N1    407 -0.02747900  14.010000   ; qtot 15.972521
  408         c3     16    bbb     C1    408 -0.05097600  12.010000   ; qtot 15.921545
  409         c3     16    bbb     C2    409 -0.05097600  12.010000   ; qtot 15.870569
  410         c3     16    bbb     C3    410 -0.18457900  12.010000   ; qtot 15.685990
  411          c     16    bbb     C4    411 0.67254400  12.010000   ; qtot 16.358534
  412         c3     16    bbb     C5    412 -0.18457900  12.010000   ; qtot 16.173955
  413          c     16    bbb     C6    413 0.67254400  12.010000   ; qtot 16.846499
  414         c3     16    bbb     C7    414 -0.02083000  12.010000   ; qtot 16.825669
  415         c3     16    bbb     C8    415 -0.03328100  12.010000   ; qtot 16.792388
  416          n     16    bbb     N2    416 -0.33303000  14.010000   ; qtot 16.459358
  417          o     16    bbb     O1    417 -0.52917200  16.000000   ; qtot 15.930186
  418          o     16    bbb     O2    418 -0.52917200  16.000000   ; qtot 15.401014
  419         hx     16    bbb     H1    419 0.11563300   1.008000   ; qtot 15.516647
  420         hx     16    bbb     H2    420 0.11563300   1.008000   ; qtot 15.632280
  421         hx     16    bbb     H3    421 0.11563300   1.008000   ; qtot 15.747913
  422         hx     16    bbb     H4    422 0.11563300   1.008000   ; qtot 15.863546
  423         hc     16    bbb     H5    423 0.08347900   1.008000   ; qtot 15.947025
  424         hc     16    bbb     H6    424 0.08347900   1.008000   ; qtot 16.030504
  425         hc     16    bbb     H7    425 0.08347900   1.008000   ; qtot 16.113983
  426         hc     16    bbb     H8    426 0.08347900   1.008000   ; qtot 16.197462
  427         hx     16    bbb     H9    427 0.07988000   1.008000   ; qtot 16.277342
  428         hx     16    bbb    H10    428 0.07988000   1.008000   ; qtot 16.357222
  429         h1     16    bbb    H11    429 0.10618100   1.008000   ; qtot 16.463403
  430         h1     16    bbb    H12    430 0.10618100   1.008000   ; qtot 16.569584
  431         hn     16    bbb    H13    431 0.25916100   1.008000   ; qtot 16.828745
  432         hn     16    bbb    H25    432 0.17125500   1.008000   ; qtot 17.000000
; residue   17 bbb rtp bbb q 1.0
  433         n4     17    bbb     N1    433 -0.02747900  14.010000   ; qtot 16.972521
  434         c3     17    bbb     C1    434 -0.05097600  12.010000   ; qtot 16.921545
  435         c3     17    bbb     C2    435 -0.05097600  12.010000   ; qtot 16.870569
  436         c3     17    bbb     C3    436 -0.18457900  12.010000   ; qtot 16.685990
  437          c     17    bbb     C4    437 0.67254400  12.010000   ; qtot 17.358534
  438         c3     17    bbb     C5    438 -0.18457900  12.010000   ; qtot 17.173955
  439          c     17    bbb     C6    439 0.67254400  12.010000   ; qtot 17.846499
  440         c3     17    bbb     C7    440 -0.02083000  12.010000   ; qtot 17.825669
  441         c3     17    bbb     C8    441 -0.03328100  12.010000   ; qtot 17.792388
  442          n     17    bbb     N2    442 -0.33303000  14.010000   ; qtot 17.459358
  443          o     17    bbb     O1    443 -0.52917200  16.000000   ; qtot 16.930186
  444          o     17    bbb     O2    444 -0.52917200  16.000000   ; qtot 16.401014
  445         hx     17    bbb     H1    445 0.11563300   1.008000   ; qtot 16.516647
  446         hx     17    bbb     H2    446 0.11563300   1.008000   ; qtot 16.632280
  447         hx     17    bbb     H3    447 0.11563300   1.008000   ; qtot 16.747913
  448         hx     17    bbb     H4    448 0.11563300   1.008000   ; qtot 16.863546
  449         hc     17    bbb     H5    449 0.08347900   1.008000   ; qtot 16.947025
  450         hc     17    bbb     H6    450 0.08347900   1.008000   ; qtot 17.030504
  451         hc     17    bbb     H7    451 0.08347900   1.008000   ; qtot 17.113983
  452         hc     17    bbb     H8    452 0.08347900   1.008000   ; qtot 17.197462
  453         hx     17    bbb     H9    453 0.07988000   1.008000   ; qtot 17.277342
  454         hx     17    bbb    H10    454 0.07988000   1.008000   ; qtot 17.357222
  455         h1     17    bbb    H11    455 0.10618100   1.008000   ; qtot 17.463403
  456         h1     17    bbb    H12    456 0.10618100   1.008000   ; qtot 17.569584
  457         hn     17    bbb    H13    457 0.25916100   1.008000   ; qtot 17.828745
  458         hn     17    bbb    H25    458 0.17125500   1.008000   ; qtot 18.000000
; residue   18 bbb rtp bbb q 1.0
  459         n4     18    bbb     N1    459 -0.02747900  14.010000   ; qtot 17.972521
  460         c3     18    bbb     C1    460 -0.05097600  12.010000   ; qtot 17.921545
  461         c3     18    bbb     C2    461 -0.05097600  12.010000   ; qtot 17.870569
  462         c3     18    bbb     C3    462 -0.18457900  12.010000   ; qtot 17.685990
  463          c     18    bbb     C4    463 0.67254400  12.010000   ; qtot 18.358534
  464         c3     18    bbb     C5    464 -0.18457900  12.010000   ; qtot 18.173955
  465          c     18    bbb     C6    465 0.67254400  12.010000   ; qtot 18.846499
  466         c3     18    bbb     C7    466 -0.02083000  12.010000   ; qtot 18.825669
  467         c3     18    bbb     C8    467 -0.03328100  12.010000   ; qtot 18.792388
  468          n     18    bbb     N2    468 -0.33303000  14.010000   ; qtot 18.459358
  469          o     18    bbb     O1    469 -0.52917200  16.000000   ; qtot 17.930186
  470          o     18    bbb     O2    470 -0.52917200  16.000000   ; qtot 17.401014
  471         hx     18    bbb     H1    471 0.11563300   1.008000   ; qtot 17.516647
  472         hx     18    bbb     H2    472 0.11563300   1.008000   ; qtot 17.632280
  473         hx     18    bbb     H3    473 0.11563300   1.008000   ; qtot 17.747913
  474         hx     18    bbb     H4    474 0.11563300   1.008000   ; qtot 17.863546
  475         hc     18    bbb     H5    475 0.08347900   1.008000   ; qtot 17.947025
  476         hc     18    bbb     H6    476 0.08347900   1.008000   ; qtot 18.030504
  477         hc     18    bbb     H7    477 0.08347900   1.008000   ; qtot 18.113983
  478         hc     18    bbb     H8    478 0.08347900   1.008000   ; qtot 18.197462
  479         hx     18    bbb     H9    479 0.07988000   1.008000   ; qtot 18.277342
  480         hx     18    bbb    H10    480 0.07988000   1.008000   ; qtot 18.357222
  481         h1     18    bbb    H11    481 0.10618100   1.008000   ; qtot 18.463403
  482         h1     18    bbb    H12    482 0.10618100   1.008000   ; qtot 18.569584
  483         hn     18    bbb    H13    483 0.25916100   1.008000   ; qtot 18.828745
  484         hn     18    bbb    H25    484 0.17125500   1.008000   ; qtot 19.000000
; residue   19 bbb rtp bbb q 1.0
  485         n4     19    bbb     N1    485 -0.02747900  14.010000   ; qtot 18.972521
  486         c3     19    bbb     C1    486 -0.05097600  12.010000   ; qtot 18.921545
  487         c3     19    bbb     C2    487 -0.05097600  12.010000   ; qtot 18.870569
  488         c3     19    bbb     C3    488 -0.18457900  12.010000   ; qtot 18.685990
  489          c     19    bbb     C4    489 0.67254400  12.010000   ; qtot 19.358534
  490         c3     19    bbb     C5    490 -0.18457900  12.010000   ; qtot 19.173955
  491          c     19    bbb     C6    491 0.67254400  12.010000   ; qtot 19.846499
  492         c3     19    bbb     C7    492 -0.02083000  12.010000   ; qtot 19.825669
  493         c3     19    bbb     C8    493 -0.03328100  12.010000   ; qtot 19.792388
  494          n     19    bbb     N2    494 -0.33303000  14.010000   ; qtot 19.459358
  495          o     19    bbb     O1    495 -0.52917200  16.000000   ; qtot 18.930186
  496          o     19    bbb     O2    496 -0.52917200  16.000000   ; qtot 18.401014
  497         hx     19    bbb     H1    497 0.11563300   1.008000   ; qtot 18.516647
  498         hx     19    bbb     H2    498 0.11563300   1.008000   ; qtot 18.632280
  499         hx     19    bbb     H3    499 0.11563300   1.008000   ; qtot 18.747913
  500         hx     19    bbb     H4    500 0.11563300   1.008000   ; qtot 18.863546
  501         hc     19    bbb     H5    501 0.08347900   1.008000   ; qtot 18.947025
  502         hc     19    bbb     H6    502 0.08347900   1.008000   ; qtot 19.030504
  503         hc     19    bbb     H7    503 0.08347900   1.008000   ; qtot 19.113983
  504         hc     19    bbb     H8    504 0.08347900   1.008000   ; qtot 19.197462
  505         hx     19    bbb     H9    505 0.07988000   1.008000   ; qtot 19.277342
  506         hx     19    bbb    H10    506 0.07988000   1.008000   ; qtot 19.357222
  507         h1     19    bbb    H11    507 0.10618100   1.008000   ; qtot 19.463403
  508         h1     19    bbb    H12    508 0.10618100   1.008000   ; qtot 19.569584
  509         hn     19    bbb    H13    509 0.25916100   1.008000   ; qtot 19.828745
  510         hn     19    bbb    H25    510 0.17125500   1.008000   ; qtot 20.000000
; residue   20 bbb rtp bbb q 1.0
  511         n4     20    bbb     N1    511 -0.02747900  14.010000   ; qtot 19.972521
  512         c3     20    bbb     C1    512 -0.05097600  12.010000   ; qtot 19.921545
  513         c3     20    bbb     C2    513 -0.05097600  12.010000   ; qtot 19.870569
  514         c3     20    bbb     C3    514 -0.18457900  12.010000   ; qtot 19.685990
  515          c     20    bbb     C4    515 0.67254400  12.010000   ; qtot 20.358534
  516         c3     20    bbb     C5    516 -0.18457900  12.010000   ; qtot 20.173955
  517          c     20    bbb     C6    517 0.67254400  12.010000   ; qtot 20.846499
  518         c3     20    bbb     C7    518 -0.02083000  12.010000   ; qtot 20.825669
  519         c3     20    bbb     C8    519 -0.03328100  12.010000   ; qtot 20.792388
  520          n     20    bbb     N2    520 -0.33303000  14.010000   ; qtot 20.459358
  521          o     20    bbb     O1    521 -0.52917200  16.000000   ; qtot 19.930186
  522          o     20    bbb     O2    522 -0.52917200  16.000000   ; qtot 19.401014
  523         hx     20    bbb     H1    523 0.11563300   1.008000   ; qtot 19.516647
  524         hx     20    bbb     H2    524 0.11563300   1.008000   ; qtot 19.632280
  525         hx     20    bbb     H3    525 0.11563300   1.008000   ; qtot 19.747913
  526         hx     20    bbb     H4    526 0.11563300   1.008000   ; qtot 19.863546
  527         hc     20    bbb     H5    527 0.08347900   1.008000   ; qtot 19.947025
  528         hc     20    bbb     H6    528 0.08347900   1.008000   ; qtot 20.030504
  529         hc     20    bbb     H7    529 0.08347900   1.008000   ; qtot 20.113983
  530         hc     20    bbb     H8    530 0.08347900   1.008000   ; qtot 20.197462
  531         hx     20    bbb     H9    531 0.07988000   1.008000   ; qtot 20.277342
  532         hx     20    bbb    H10    532 0.07988000   1.008000   ; qtot 20.357222
  533         h1     20    bbb    H11    533 0.10618100   1.008000   ; qtot 20.463403
  534         h1     20    bbb    H12    534 0.10618100   1.008000   ; qtot 20.569584
  535         hn     20    bbb    H13    535 0.25916100   1.008000   ; qtot 20.828745
  536         hn     20    bbb    H25    536 0.17125500   1.008000   ; qtot 21.000000
; residue   21 bbb rtp bbb q 1.0
  537         n4     21    bbb     N1    537 -0.02747900  14.010000   ; qtot 20.972521
  538         c3     21    bbb     C1    538 -0.05097600  12.010000   ; qtot 20.921545
  539         c3     21    bbb     C2    539 -0.05097600  12.010000   ; qtot 20.870569
  540         c3     21    bbb     C3    540 -0.18457900  12.010000   ; qtot 20.685990
  541          c     21    bbb     C4    541 0.67254400  12.010000   ; qtot 21.358534
  542         c3     21    bbb     C5    542 -0.18457900  12.010000   ; qtot 21.173955
  543          c     21    bbb     C6    543 0.67254400  12.010000   ; qtot 21.846499
  544         c3     21    bbb     C7    544 -0.02083000  12.010000   ; qtot 21.825669
  545         c3     21    bbb     C8    545 -0.03328100  12.010000   ; qtot 21.792388
  546          n     21    bbb     N2    546 -0.33303000  14.010000   ; qtot 21.459358
  547          o     21    bbb     O1    547 -0.52917200  16.000000   ; qtot 20.930186
  548          o     21    bbb     O2    548 -0.52917200  16.000000   ; qtot 20.401014
  549         hx     21    bbb     H1    549 0.11563300   1.008000   ; qtot 20.516647
  550         hx     21    bbb     H2    550 0.11563300   1.008000   ; qtot 20.632280
  551         hx     21    bbb     H3    551 0.11563300   1.008000   ; qtot 20.747913
  552         hx     21    bbb     H4    552 0.11563300   1.008000   ; qtot 20.863546
  553         hc     21    bbb     H5    553 0.08347900   1.008000   ; qtot 20.947025
  554         hc     21    bbb     H6    554 0.08347900   1.008000   ; qtot 21.030504
  555         hc     21    bbb     H7    555 0.08347900   1.008000   ; qtot 21.113983
  556         hc     21    bbb     H8    556 0.08347900   1.008000   ; qtot 21.197462
  557         hx     21    bbb     H9    557 0.07988000   1.008000   ; qtot 21.277342
  558         hx     21    bbb    H10    558 0.07988000   1.008000   ; qtot 21.357222
  559         h1     21    bbb    H11    559 0.10618100   1.008000   ; qtot 21.463403
  560         h1     21    bbb    H12    560 0.10618100   1.008000   ; qtot 21.569584
  561         hn     21    bbb    H13    561 0.25916100   1.008000   ; qtot 21.828745
  562         hn     21    bbb    H25    562 0.17125500   1.008000   ; qtot 22.000000
; residue   22 bbb rtp bbb q 1.0
  563         n4     22    bbb     N1    563 -0.02747900  14.010000   ; qtot 21.972521
  564         c3     22    bbb     C1    564 -0.05097600  12.010000   ; qtot 21.921545
  565         c3     22    bbb     C2    565 -0.05097600  12.010000   ; qtot 21.870569
  566         c3     22    bbb     C3    566 -0.18457900  12.010000   ; qtot 21.685990
  567          c     22    bbb     C4    567 0.67254400  12.010000   ; qtot 22.358534
  568         c3     22    bbb     C5    568 -0.18457900  12.010000   ; qtot 22.173955
  569          c     22    bbb     C6    569 0.67254400  12.010000   ; qtot 22.846499
  570         c3     22    bbb     C7    570 -0.02083000  12.010000   ; qtot 22.825669
  571         c3     22    bbb     C8    571 -0.03328100  12.010000   ; qtot 22.792388
  572          n     22    bbb     N2    572 -0.33303000  14.010000   ; qtot 22.459358
  573          o     22    bbb     O1    573 -0.52917200  16.000000   ; qtot 21.930186
  574          o     22    bbb     O2    574 -0.52917200  16.000000   ; qtot 21.401014
  575         hx     22    bbb     H1    575 0.11563300   1.008000   ; qtot 21.516647
  576         hx     22    bbb     H2    576 0.11563300   1.008000   ; qtot 21.632280
  577         hx     22    bbb     H3    577 0.11563300   1.008000   ; qtot 21.747913
  578         hx     22    bbb     H4    578 0.11563300   1.008000   ; qtot 21.863546
  579         hc     22    bbb     H5    579 0.08347900   1.008000   ; qtot 21.947025
  580         hc     22    bbb     H6    580 0.08347900   1.008000   ; qtot 22.030504
  581         hc     22    bbb     H7    581 0.08347900   1.008000   ; qtot 22.113983
  582         hc     22    bbb     H8    582 0.08347900   1.008000   ; qtot 22.197462
  583         hx     22    bbb     H9    583 0.07988000   1.008000   ; qtot 22.277342
  584         hx     22    bbb    H10    584 0.07988000   1.008000   ; qtot 22.357222
  585         h1     22    bbb    H11    585 0.10618100   1.008000   ; qtot 22.463403
  586         h1     22    bbb    H12    586 0.10618100   1.008000   ; qtot 22.569584
  587         hn     22    bbb    H13    587 0.25916100   1.008000   ; qtot 22.828745
  588         hn     22    bbb    H25    588 0.17125500   1.008000   ; qtot 23.000000
; residue   23 bbb rtp bbb q 1.0
  589         n4     23    bbb     N1    589 -0.02747900  14.010000   ; qtot 22.972521
  590         c3     23    bbb     C1    590 -0.05097600  12.010000   ; qtot 22.921545
  591         c3     23    bbb     C2    591 -0.05097600  12.010000   ; qtot 22.870569
  592         c3     23    bbb     C3    592 -0.18457900  12.010000   ; qtot 22.685990
  593          c     23    bbb     C4    593 0.67254400  12.010000   ; qtot 23.358534
  594         c3     23    bbb     C5    594 -0.18457900  12.010000   ; qtot 23.173955
  595          c     23    bbb     C6    595 0.67254400  12.010000   ; qtot 23.846499
  596         c3     23    bbb     C7    596 -0.02083000  12.010000   ; qtot 23.825669
  597         c3     23    bbb     C8    597 -0.03328100  12.010000   ; qtot 23.792388
  598          n     23    bbb     N2    598 -0.33303000  14.010000   ; qtot 23.459358
  599          o     23    bbb     O1    599 -0.52917200  16.000000   ; qtot 22.930186
  600          o     23    bbb     O2    600 -0.52917200  16.000000   ; qtot 22.401014
  601         hx     23    bbb     H1    601 0.11563300   1.008000   ; qtot 22.516647
  602         hx     23    bbb     H2    602 0.11563300   1.008000   ; qtot 22.632280
  603         hx     23    bbb     H3    603 0.11563300   1.008000   ; qtot 22.747913
  604         hx     23    bbb     H4    604 0.11563300   1.008000   ; qtot 22.863546
  605         hc     23    bbb     H5    605 0.08347900   1.008000   ; qtot 22.947025
  606         hc     23    bbb     H6    606 0.08347900   1.008000   ; qtot 23.030504
  607         hc     23    bbb     H7    607 0.08347900   1.008000   ; qtot 23.113983
  608         hc     23    bbb     H8    608 0.08347900   1.008000   ; qtot 23.197462
  609         hx     23    bbb     H9    609 0.07988000   1.008000   ; qtot 23.277342
  610         hx     23    bbb    H10    610 0.07988000   1.008000   ; qtot 23.357222
  611         h1     23    bbb    H11    611 0.10618100   1.008000   ; qtot 23.463403
  612         h1     23    bbb    H12    612 0.10618100   1.008000   ; qtot 23.569584
  613         hn     23    bbb    H13    613 0.25916100   1.008000   ; qtot 23.828745
  614         hn     23    bbb    H25    614 0.17125500   1.008000   ; qtot 24.000000
; residue   24 bbb rtp bbb q 1.0
  615         n4     24    bbb     N1    615 -0.02747900  14.010000   ; qtot 23.972521
  616         c3     24    bbb     C1    616 -0.05097600  12.010000   ; qtot 23.921545
  617         c3     24    bbb     C2    617 -0.05097600  12.010000   ; qtot 23.870569
  618         c3     24    bbb     C3    618 -0.18457900  12.010000   ; qtot 23.685990
  619          c     24    bbb     C4    619 0.67254400  12.010000   ; qtot 24.358534
  620         c3     24    bbb     C5    620 -0.18457900  12.010000   ; qtot 24.173955
  621          c     24    bbb     C6    621 0.67254400  12.010000   ; qtot 24.846499
  622         c3     24    bbb     C7    622 -0.02083000  12.010000   ; qtot 24.825669
  623         c3     24    bbb     C8    623 -0.03328100  12.010000   ; qtot 24.792388
  624          n     24    bbb     N2    624 -0.33303000  14.010000   ; qtot 24.459358
  625          o     24    bbb     O1    625 -0.52917200  16.000000   ; qtot 23.930186
  626          o     24    bbb     O2    626 -0.52917200  16.000000   ; qtot 23.401014
  627         hx     24    bbb     H1    627 0.11563300   1.008000   ; qtot 23.516647
  628         hx     24    bbb     H2    628 0.11563300   1.008000   ; qtot 23.632280
  629         hx     24    bbb     H3    629 0.11563300   1.008000   ; qtot 23.747913
  630         hx     24    bbb     H4    630 0.11563300   1.008000   ; qtot 23.863546
  631         hc     24    bbb     H5    631 0.08347900   1.008000   ; qtot 23.947025
  632         hc     24    bbb     H6    632 0.08347900   1.008000   ; qtot 24.030504
  633         hc     24    bbb     H7    633 0.08347900   1.008000   ; qtot 24.113983
  634         hc     24    bbb     H8    634 0.08347900   1.008000   ; qtot 24.197462
  635         hx     24    bbb     H9    635 0.07988000   1.008000   ; qtot 24.277342
  636         hx     24    bbb    H10    636 0.07988000   1.008000   ; qtot 24.357222
  637         h1     24    bbb    H11    637 0.10618100   1.008000   ; qtot 24.463403
  638         h1     24    bbb    H12    638 0.10618100   1.008000   ; qtot 24.569584
  639         hn     24    bbb    H13    639 0.25916100   1.008000   ; qtot 24.828745
  640         hn     24    bbb    H25    640 0.17125500   1.008000   ; qtot 25.000000
; residue   25 bbb rtp bbb q 1.0
  641         n4     25    bbb     N1    641 -0.02747900  14.010000   ; qtot 24.972521
  642         c3     25    bbb     C1    642 -0.05097600  12.010000   ; qtot 24.921545
  643         c3     25    bbb     C2    643 -0.05097600  12.010000   ; qtot 24.870569
  644         c3     25    bbb     C3    644 -0.18457900  12.010000   ; qtot 24.685990
  645          c     25    bbb     C4    645 0.67254400  12.010000   ; qtot 25.358534
  646         c3     25    bbb     C5    646 -0.18457900  12.010000   ; qtot 25.173955
  647          c     25    bbb     C6    647 0.67254400  12.010000   ; qtot 25.846499
  648         c3     25    bbb     C7    648 -0.02083000  12.010000   ; qtot 25.825669
  649         c3     25    bbb     C8    649 -0.03328100  12.010000   ; qtot 25.792388
  650          n     25    bbb     N2    650 -0.33303000  14.010000   ; qtot 25.459358
  651          o     25    bbb     O1    651 -0.52917200  16.000000   ; qtot 24.930186
  652          o     25    bbb     O2    652 -0.52917200  16.000000   ; qtot 24.401014
  653         hx     25    bbb     H1    653 0.11563300   1.008000   ; qtot 24.516647
  654         hx     25    bbb     H2    654 0.11563300   1.008000   ; qtot 24.632280
  655         hx     25    bbb     H3    655 0.11563300   1.008000   ; qtot 24.747913
  656         hx     25    bbb     H4    656 0.11563300   1.008000   ; qtot 24.863546
  657         hc     25    bbb     H5    657 0.08347900   1.008000   ; qtot 24.947025
  658         hc     25    bbb     H6    658 0.08347900   1.008000   ; qtot 25.030504
  659         hc     25    bbb     H7    659 0.08347900   1.008000   ; qtot 25.113983
  660         hc     25    bbb     H8    660 0.08347900   1.008000   ; qtot 25.197462
  661         hx     25    bbb     H9    661 0.07988000   1.008000   ; qtot 25.277342
  662         hx     25    bbb    H10    662 0.07988000   1.008000   ; qtot 25.357222
  663         h1     25    bbb    H11    663 0.10618100   1.008000   ; qtot 25.463403
  664         h1     25    bbb    H12    664 0.10618100   1.008000   ; qtot 25.569584
  665         hn     25    bbb    H13    665 0.25916100   1.008000   ; qtot 25.828745
  666         hn     25    bbb    H25    666 0.17125500   1.008000   ; qtot 26.000000
; residue   26 bbb rtp bbb q 1.0
  667         n4     26    bbb     N1    667 -0.02747900  14.010000   ; qtot 25.972521
  668         c3     26    bbb     C1    668 -0.05097600  12.010000   ; qtot 25.921545
  669         c3     26    bbb     C2    669 -0.05097600  12.010000   ; qtot 25.870569
  670         c3     26    bbb     C3    670 -0.18457900  12.010000   ; qtot 25.685990
  671          c     26    bbb     C4    671 0.67254400  12.010000   ; qtot 26.358534
  672         c3     26    bbb     C5    672 -0.18457900  12.010000   ; qtot 26.173955
  673          c     26    bbb     C6    673 0.67254400  12.010000   ; qtot 26.846499
  674         c3     26    bbb     C7    674 -0.02083000  12.010000   ; qtot 26.825669
  675         c3     26    bbb     C8    675 -0.03328100  12.010000   ; qtot 26.792388
  676          n     26    bbb     N2    676 -0.33303000  14.010000   ; qtot 26.459358
  677          o     26    bbb     O1    677 -0.52917200  16.000000   ; qtot 25.930186
  678          o     26    bbb     O2    678 -0.52917200  16.000000   ; qtot 25.401014
  679         hx     26    bbb     H1    679 0.11563300   1.008000   ; qtot 25.516647
  680         hx     26    bbb     H2    680 0.11563300   1.008000   ; qtot 25.632280
  681         hx     26    bbb     H3    681 0.11563300   1.008000   ; qtot 25.747913
  682         hx     26    bbb     H4    682 0.11563300   1.008000   ; qtot 25.863546
  683         hc     26    bbb     H5    683 0.08347900   1.008000   ; qtot 25.947025
  684         hc     26    bbb     H6    684 0.08347900   1.008000   ; qtot 26.030504
  685         hc     26    bbb     H7    685 0.08347900   1.008000   ; qtot 26.113983
  686         hc     26    bbb     H8    686 0.08347900   1.008000   ; qtot 26.197462
  687         hx     26    bbb     H9    687 0.07988000   1.008000   ; qtot 26.277342
  688         hx     26    bbb    H10    688 0.07988000   1.008000   ; qtot 26.357222
  689         h1     26    bbb    H11    689 0.10618100   1.008000   ; qtot 26.463403
  690         h1     26    bbb    H12    690 0.10618100   1.008000   ; qtot 26.569584
  691         hn     26    bbb    H13    691 0.25916100   1.008000   ; qtot 26.828745
  692         hn     26    bbb    H25    692 0.17125500   1.008000   ; qtot 27.000000
; residue   27 bbb rtp bbb q 1.0
  693         n4     27    bbb     N1    693 -0.02747900  14.010000   ; qtot 26.972521
  694         c3     27    bbb     C1    694 -0.05097600  12.010000   ; qtot 26.921545
  695         c3     27    bbb     C2    695 -0.05097600  12.010000   ; qtot 26.870569
  696         c3     27    bbb     C3    696 -0.18457900  12.010000   ; qtot 26.685990
  697          c     27    bbb     C4    697 0.67254400  12.010000   ; qtot 27.358534
  698         c3     27    bbb     C5    698 -0.18457900  12.010000   ; qtot 27.173955
  699          c     27    bbb     C6    699 0.67254400  12.010000   ; qtot 27.846499
  700         c3     27    bbb     C7    700 -0.02083000  12.010000   ; qtot 27.825669
  701         c3     27    bbb     C8    701 -0.03328100  12.010000   ; qtot 27.792388
  702          n     27    bbb     N2    702 -0.33303000  14.010000   ; qtot 27.459358
  703          o     27    bbb     O1    703 -0.52917200  16.000000   ; qtot 26.930186
  704          o     27    bbb     O2    704 -0.52917200  16.000000   ; qtot 26.401014
  705         hx     27    bbb     H1    705 0.11563300   1.008000   ; qtot 26.516647
  706         hx     27    bbb     H2    706 0.11563300   1.008000   ; qtot 26.632280
  707         hx     27    bbb     H3    707 0.11563300   1.008000   ; qtot 26.747913
  708         hx     27    bbb     H4    708 0.11563300   1.008000   ; qtot 26.863546
  709         hc     27    bbb     H5    709 0.08347900   1.008000   ; qtot 26.947025
  710         hc     27    bbb     H6    710 0.08347900   1.008000   ; qtot 27.030504
  711         hc     27    bbb     H7    711 0.08347900   1.008000   ; qtot 27.113983
  712         hc     27    bbb     H8    712 0.08347900   1.008000   ; qtot 27.197462
  713         hx     27    bbb     H9    713 0.07988000   1.008000   ; qtot 27.277342
  714         hx     27    bbb    H10    714 0.07988000   1.008000   ; qtot 27.357222
  715         h1     27    bbb    H11    715 0.10618100   1.008000   ; qtot 27.463403
  716         h1     27    bbb    H12    716 0.10618100   1.008000   ; qtot 27.569584
  717         hn     27    bbb    H13    717 0.25916100   1.008000   ; qtot 27.828745
  718         hn     27    bbb    H25    718 0.17125500   1.008000   ; qtot 28.000000
; residue   28 bbb rtp bbb q 1.0
  719         n4     28    bbb     N1    719 -0.02747900  14.010000   ; qtot 27.972521
  720         c3     28    bbb     C1    720 -0.05097600  12.010000   ; qtot 27.921545
  721         c3     28    bbb     C2    721 -0.05097600  12.010000   ; qtot 27.870569
  722         c3     28    bbb     C3    722 -0.18457900  12.010000   ; qtot 27.685990
  723          c     28    bbb     C4    723 0.67254400  12.010000   ; qtot 28.358534
  724         c3     28    bbb     C5    724 -0.18457900  12.010000   ; qtot 28.173955
  725          c     28    bbb     C6    725 0.67254400  12.010000   ; qtot 28.846499
  726         c3     28    bbb     C7    726 -0.02083000  12.010000   ; qtot 28.825669
  727         c3     28    bbb     C8    727 -0.03328100  12.010000   ; qtot 28.792388
  728          n     28    bbb     N2    728 -0.33303000  14.010000   ; qtot 28.459358
  729          o     28    bbb     O1    729 -0.52917200  16.000000   ; qtot 27.930186
  730          o     28    bbb     O2    730 -0.52917200  16.000000   ; qtot 27.401014
  731         hx     28    bbb     H1    731 0.11563300   1.008000   ; qtot 27.516647
  732         hx     28    bbb     H2    732 0.11563300   1.008000   ; qtot 27.632280
  733         hx     28    bbb     H3    733 0.11563300   1.008000   ; qtot 27.747913
  734         hx     28    bbb     H4    734 0.11563300   1.008000   ; qtot 27.863546
  735         hc     28    bbb     H5    735 0.08347900   1.008000   ; qtot 27.947025
  736         hc     28    bbb     H6    736 0.08347900   1.008000   ; qtot 28.030504
  737         hc     28    bbb     H7    737 0.08347900   1.008000   ; qtot 28.113983
  738         hc     28    bbb     H8    738 0.08347900   1.008000   ; qtot 28.197462
  739         hx     28    bbb     H9    739 0.07988000   1.008000   ; qtot 28.277342
  740         hx     28    bbb    H10    740 0.07988000   1.008000   ; qtot 28.357222
  741         h1     28    bbb    H11    741 0.10618100   1.008000   ; qtot 28.463403
  742         h1     28    bbb    H12    742 0.10618100   1.008000   ; qtot 28.569584
  743         hn     28    bbb    H13    743 0.25916100   1.008000   ; qtot 28.828745
  744         hn     28    bbb    H25    744 0.17125500   1.008000   ; qtot 29.000000
; residue   29 bbb rtp bbb q 1.0
  745         n4     29    bbb     N1    745 -0.02747900  14.010000   ; qtot 28.972521
  746         c3     29    bbb     C1    746 -0.05097600  12.010000   ; qtot 28.921545
  747         c3     29    bbb     C2    747 -0.05097600  12.010000   ; qtot 28.870569
  748         c3     29    bbb     C3    748 -0.18457900  12.010000   ; qtot 28.685990
  749          c     29    bbb     C4    749 0.67254400  12.010000   ; qtot 29.358534
  750         c3     29    bbb     C5    750 -0.18457900  12.010000   ; qtot 29.173955
  751          c     29    bbb     C6    751 0.67254400  12.010000   ; qtot 29.846499
  752         c3     29    bbb     C7    752 -0.02083000  12.010000   ; qtot 29.825669
  753         c3     29    bbb     C8    753 -0.03328100  12.010000   ; qtot 29.792388
  754          n     29    bbb     N2    754 -0.33303000  14.010000   ; qtot 29.459358
  755          o     29    bbb     O1    755 -0.52917200  16.000000   ; qtot 28.930186
  756          o     29    bbb     O2    756 -0.52917200  16.000000   ; qtot 28.401014
  757         hx     29    bbb     H1    757 0.11563300   1.008000   ; qtot 28.516647
  758         hx     29    bbb     H2    758 0.11563300   1.008000   ; qtot 28.632280
  759         hx     29    bbb     H3    759 0.11563300   1.008000   ; qtot 28.747913
  760         hx     29    bbb     H4    760 0.11563300   1.008000   ; qtot 28.863546
  761         hc     29    bbb     H5    761 0.08347900   1.008000   ; qtot 28.947025
  762         hc     29    bbb     H6    762 0.08347900   1.008000   ; qtot 29.030504
  763         hc     29    bbb     H7    763 0.08347900   1.008000   ; qtot 29.113983
  764         hc     29    bbb     H8    764 0.08347900   1.008000   ; qtot 29.197462
  765         hx     29    bbb     H9    765 0.07988000   1.008000   ; qtot 29.277342
  766         hx     29    bbb    H10    766 0.07988000   1.008000   ; qtot 29.357222
  767         h1     29    bbb    H11    767 0.10618100   1.008000   ; qtot 29.463403
  768         h1     29    bbb    H12    768 0.10618100   1.008000   ; qtot 29.569584
  769         hn     29    bbb    H13    769 0.25916100   1.008000   ; qtot 29.828745
  770         hn     29    bbb    H25    770 0.17125500   1.008000   ; qtot 30.000000
; residue   30 bbb rtp bbb q 1.0
  771         n4     30    bbb     N1    771 -0.02747900  14.010000   ; qtot 29.972521
  772         c3     30    bbb     C1    772 -0.05097600  12.010000   ; qtot 29.921545
  773         c3     30    bbb     C2    773 -0.05097600  12.010000   ; qtot 29.870569
  774         c3     30    bbb     C3    774 -0.18457900  12.010000   ; qtot 29.685990
  775          c     30    bbb     C4    775 0.67254400  12.010000   ; qtot 30.358534
  776         c3     30    bbb     C5    776 -0.18457900  12.010000   ; qtot 30.173955
  777          c     30    bbb     C6    777 0.67254400  12.010000   ; qtot 30.846499
  778         c3     30    bbb     C7    778 -0.02083000  12.010000   ; qtot 30.825669
  779         c3     30    bbb     C8    779 -0.03328100  12.010000   ; qtot 30.792388
  780          n     30    bbb     N2    780 -0.33303000  14.010000   ; qtot 30.459358
  781          o     30    bbb     O1    781 -0.52917200  16.000000   ; qtot 29.930186
  782          o     30    bbb     O2    782 -0.52917200  16.000000   ; qtot 29.401014
  783         hx     30    bbb     H1    783 0.11563300   1.008000   ; qtot 29.516647
  784         hx     30    bbb     H2    784 0.11563300   1.008000   ; qtot 29.632280
  785         hx     30    bbb     H3    785 0.11563300   1.008000   ; qtot 29.747913
  786         hx     30    bbb     H4    786 0.11563300   1.008000   ; qtot 29.863546
  787         hc     30    bbb     H5    787 0.08347900   1.008000   ; qtot 29.947025
  788         hc     30    bbb     H6    788 0.08347900   1.008000   ; qtot 30.030504
  789         hc     30    bbb     H7    789 0.08347900   1.008000   ; qtot 30.113983
  790         hc     30    bbb     H8    790 0.08347900   1.008000   ; qtot 30.197462
  791         hx     30    bbb     H9    791 0.07988000   1.008000   ; qtot 30.277342
  792         hx     30    bbb    H10    792 0.07988000   1.008000   ; qtot 30.357222
  793         h1     30    bbb    H11    793 0.10618100   1.008000   ; qtot 30.463403
  794         h1     30    bbb    H12    794 0.10618100   1.008000   ; qtot 30.569584
  795         hn     30    bbb    H13    795 0.25916100   1.008000   ; qtot 30.828745
  796         hn     30    bbb    H25    796 0.17125500   1.008000   ; qtot 31.000000
; residue   31 bbb rtp bbb q 1.0
  797         n4     31    bbb     N1    797 -0.02747900  14.010000   ; qtot 30.972521
  798         c3     31    bbb     C1    798 -0.05097600  12.010000   ; qtot 30.921545
  799         c3     31    bbb     C2    799 -0.05097600  12.010000   ; qtot 30.870569
  800         c3     31    bbb     C3    800 -0.18457900  12.010000   ; qtot 30.685990
  801          c     31    bbb     C4    801 0.67254400  12.010000   ; qtot 31.358534
  802         c3     31    bbb     C5    802 -0.18457900  12.010000   ; qtot 31.173955
  803          c     31    bbb     C6    803 0.67254400  12.010000   ; qtot 31.846499
  804         c3     31    bbb     C7    804 -0.02083000  12.010000   ; qtot 31.825669
  805         c3     31    bbb     C8    805 -0.03328100  12.010000   ; qtot 31.792388
  806          n     31    bbb     N2    806 -0.33303000  14.010000   ; qtot 31.459358
  807          o     31    bbb     O1    807 -0.52917200  16.000000   ; qtot 30.930186
  808          o     31    bbb     O2    808 -0.52917200  16.000000   ; qtot 30.401014
  809         hx     31    bbb     H1    809 0.11563300   1.008000   ; qtot 30.516647
  810         hx     31    bbb     H2    810 0.11563300   1.008000   ; qtot 30.632280
  811         hx     31    bbb     H3    811 0.11563300   1.008000   ; qtot 30.747913
  812         hx     31    bbb     H4    812 0.11563300   1.008000   ; qtot 30.863546
  813         hc     31    bbb     H5    813 0.08347900   1.008000   ; qtot 30.947025
  814         hc     31    bbb     H6    814 0.08347900   1.008000   ; qtot 31.030504
  815         hc     31    bbb     H7    815 0.08347900   1.008000   ; qtot 31.113983
  816         hc     31    bbb     H8    816 0.08347900   1.008000   ; qtot 31.197462
  817         hx     31    bbb     H9    817 0.07988000   1.008000   ; qtot 31.277342
  818         hx     31    bbb    H10    818 0.07988000   1.008000   ; qtot 31.357222
  819         h1     31    bbb    H11    819 0.10618100   1.008000   ; qtot 31.463403
  820         h1     31    bbb    H12    820 0.10618100   1.008000   ; qtot 31.569584
  821         hn     31    bbb    H13    821 0.25916100   1.008000   ; qtot 31.828745
  822         hn     31    bbb    H25    822 0.17125500   1.008000   ; qtot 32.000000
; residue   32 bbb rtp bbb q 1.0
  823         n4     32    bbb     N1    823 -0.02747900  14.010000   ; qtot 31.972521
  824         c3     32    bbb     C1    824 -0.05097600  12.010000   ; qtot 31.921545
  825         c3     32    bbb     C2    825 -0.05097600  12.010000   ; qtot 31.870569
  826         c3     32    bbb     C3    826 -0.18457900  12.010000   ; qtot 31.685990
  827          c     32    bbb     C4    827 0.67254400  12.010000   ; qtot 32.358534
  828         c3     32    bbb     C5    828 -0.18457900  12.010000   ; qtot 32.173955
  829          c     32    bbb     C6    829 0.67254400  12.010000   ; qtot 32.846499
  830         c3     32    bbb     C7    830 -0.02083000  12.010000   ; qtot 32.825669
  831         c3     32    bbb     C8    831 -0.03328100  12.010000   ; qtot 32.792388
  832          n     32    bbb     N2    832 -0.33303000  14.010000   ; qtot 32.459358
  833          o     32    bbb     O1    833 -0.52917200  16.000000   ; qtot 31.930186
  834          o     32    bbb     O2    834 -0.52917200  16.000000   ; qtot 31.401014
  835         hx     32    bbb     H1    835 0.11563300   1.008000   ; qtot 31.516647
  836         hx     32    bbb     H2    836 0.11563300   1.008000   ; qtot 31.632280
  837         hx     32    bbb     H3    837 0.11563300   1.008000   ; qtot 31.747913
  838         hx     32    bbb     H4    838 0.11563300   1.008000   ; qtot 31.863546
  839         hc     32    bbb     H5    839 0.08347900   1.008000   ; qtot 31.947025
  840         hc     32    bbb     H6    840 0.08347900   1.008000   ; qtot 32.030504
  841         hc     32    bbb     H7    841 0.08347900   1.008000   ; qtot 32.113983
  842         hc     32    bbb     H8    842 0.08347900   1.008000   ; qtot 32.197462
  843         hx     32    bbb     H9    843 0.07988000   1.008000   ; qtot 32.277342
  844         hx     32    bbb    H10    844 0.07988000   1.008000   ; qtot 32.357222
  845         h1     32    bbb    H11    845 0.10618100   1.008000   ; qtot 32.463403
  846         h1     32    bbb    H12    846 0.10618100   1.008000   ; qtot 32.569584
  847         hn     32    bbb    H13    847 0.25916100   1.008000   ; qtot 32.828745
  848         hn     32    bbb    H25    848 0.17125500   1.008000   ; qtot 33.000000
; residue   33 bbb rtp bbb q 1.0
  849         n4     33    bbb     N1    849 -0.02747900  14.010000   ; qtot 32.972521
  850         c3     33    bbb     C1    850 -0.05097600  12.010000   ; qtot 32.921545
  851         c3     33    bbb     C2    851 -0.05097600  12.010000   ; qtot 32.870569
  852         c3     33    bbb     C3    852 -0.18457900  12.010000   ; qtot 32.685990
  853          c     33    bbb     C4    853 0.67254400  12.010000   ; qtot 33.358534
  854         c3     33    bbb     C5    854 -0.18457900  12.010000   ; qtot 33.173955
  855          c     33    bbb     C6    855 0.67254400  12.010000   ; qtot 33.846499
  856         c3     33    bbb     C7    856 -0.02083000  12.010000   ; qtot 33.825669
  857         c3     33    bbb     C8    857 -0.03328100  12.010000   ; qtot 33.792388
  858          n     33    bbb     N2    858 -0.33303000  14.010000   ; qtot 33.459358
  859          o     33    bbb     O1    859 -0.52917200  16.000000   ; qtot 32.930186
  860          o     33    bbb     O2    860 -0.52917200  16.000000   ; qtot 32.401014
  861         hx     33    bbb     H1    861 0.11563300   1.008000   ; qtot 32.516647
  862         hx     33    bbb     H2    862 0.11563300   1.008000   ; qtot 32.632280
  863         hx     33    bbb     H3    863 0.11563300   1.008000   ; qtot 32.747913
  864         hx     33    bbb     H4    864 0.11563300   1.008000   ; qtot 32.863546
  865         hc     33    bbb     H5    865 0.08347900   1.008000   ; qtot 32.947025
  866         hc     33    bbb     H6    866 0.08347900   1.008000   ; qtot 33.030504
  867         hc     33    bbb     H7    867 0.08347900   1.008000   ; qtot 33.113983
  868         hc     33    bbb     H8    868 0.08347900   1.008000   ; qtot 33.197462
  869         hx     33    bbb     H9    869 0.07988000   1.008000   ; qtot 33.277342
  870         hx     33    bbb    H10    870 0.07988000   1.008000   ; qtot 33.357222
  871         h1     33    bbb    H11    871 0.10618100   1.008000   ; qtot 33.463403
  872         h1     33    bbb    H12    872 0.10618100   1.008000   ; qtot 33.569584
  873         hn     33    bbb    H13    873 0.25916100   1.008000   ; qtot 33.828745
  874         hn     33    bbb    H25    874 0.17125500   1.008000   ; qtot 34.000000
; residue   34 bbb rtp bbb q 1.0
  875         n4     34    bbb     N1    875 -0.02747900  14.010000   ; qtot 33.972521
  876         c3     34    bbb     C1    876 -0.05097600  12.010000   ; qtot 33.921545
  877         c3     34    bbb     C2    877 -0.05097600  12.010000   ; qtot 33.870569
  878         c3     34    bbb     C3    878 -0.18457900  12.010000   ; qtot 33.685990
  879          c     34    bbb     C4    879 0.67254400  12.010000   ; qtot 34.358534
  880         c3     34    bbb     C5    880 -0.18457900  12.010000   ; qtot 34.173955
  881          c     34    bbb     C6    881 0.67254400  12.010000   ; qtot 34.846499
  882         c3     34    bbb     C7    882 -0.02083000  12.010000   ; qtot 34.825669
  883         c3     34    bbb     C8    883 -0.03328100  12.010000   ; qtot 34.792388
  884          n     34    bbb     N2    884 -0.33303000  14.010000   ; qtot 34.459358
  885          o     34    bbb     O1    885 -0.52917200  16.000000   ; qtot 33.930186
  886          o     34    bbb     O2    886 -0.52917200  16.000000   ; qtot 33.401014
  887         hx     34    bbb     H1    887 0.11563300   1.008000   ; qtot 33.516647
  888         hx     34    bbb     H2    888 0.11563300   1.008000   ; qtot 33.632280
  889         hx     34    bbb     H3    889 0.11563300   1.008000   ; qtot 33.747913
  890         hx     34    bbb     H4    890 0.11563300   1.008000   ; qtot 33.863546
  891         hc     34    bbb     H5    891 0.08347900   1.008000   ; qtot 33.947025
  892         hc     34    bbb     H6    892 0.08347900   1.008000   ; qtot 34.030504
  893         hc     34    bbb     H7    893 0.08347900   1.008000   ; qtot 34.113983
  894         hc     34    bbb     H8    894 0.08347900   1.008000   ; qtot 34.197462
  895         hx     34    bbb     H9    895 0.07988000   1.008000   ; qtot 34.277342
  896         hx     34    bbb    H10    896 0.07988000   1.008000   ; qtot 34.357222
  897         h1     34    bbb    H11    897 0.10618100   1.008000   ; qtot 34.463403
  898         h1     34    bbb    H12    898 0.10618100   1.008000   ; qtot 34.569584
  899         hn     34    bbb    H13    899 0.25916100   1.008000   ; qtot 34.828745
  900         hn     34    bbb    H25    900 0.17125500   1.008000   ; qtot 35.000000
; residue   35 bbb rtp bbb q 1.0
  901         n4     35    bbb     N1    901 -0.02747900  14.010000   ; qtot 34.972521
  902         c3     35    bbb     C1    902 -0.05097600  12.010000   ; qtot 34.921545
  903         c3     35    bbb     C2    903 -0.05097600  12.010000   ; qtot 34.870569
  904         c3     35    bbb     C3    904 -0.18457900  12.010000   ; qtot 34.685990
  905          c     35    bbb     C4    905 0.67254400  12.010000   ; qtot 35.358534
  906         c3     35    bbb     C5    906 -0.18457900  12.010000   ; qtot 35.173955
  907          c     35    bbb     C6    907 0.67254400  12.010000   ; qtot 35.846499
  908         c3     35    bbb     C7    908 -0.02083000  12.010000   ; qtot 35.825669
  909         c3     35    bbb     C8    909 -0.03328100  12.010000   ; qtot 35.792388
  910          n     35    bbb     N2    910 -0.33303000  14.010000   ; qtot 35.459358
  911          o     35    bbb     O1    911 -0.52917200  16.000000   ; qtot 34.930186
  912          o     35    bbb     O2    912 -0.52917200  16.000000   ; qtot 34.401014
  913         hx     35    bbb     H1    913 0.11563300   1.008000   ; qtot 34.516647
  914         hx     35    bbb     H2    914 0.11563300   1.008000   ; qtot 34.632280
  915         hx     35    bbb     H3    915 0.11563300   1.008000   ; qtot 34.747913
  916         hx     35    bbb     H4    916 0.11563300   1.008000   ; qtot 34.863546
  917         hc     35    bbb     H5    917 0.08347900   1.008000   ; qtot 34.947025
  918         hc     35    bbb     H6    918 0.08347900   1.008000   ; qtot 35.030504
  919         hc     35    bbb     H7    919 0.08347900   1.008000   ; qtot 35.113983
  920         hc     35    bbb     H8    920 0.08347900   1.008000   ; qtot 35.197462
  921         hx     35    bbb     H9    921 0.07988000   1.008000   ; qtot 35.277342
  922         hx     35    bbb    H10    922 0.07988000   1.008000   ; qtot 35.357222
  923         h1     35    bbb    H11    923 0.10618100   1.008000   ; qtot 35.463403
  924         h1     35    bbb    H12    924 0.10618100   1.008000   ; qtot 35.569584
  925         hn     35    bbb    H13    925 0.25916100   1.008000   ; qtot 35.828745
  926         hn     35    bbb    H25    926 0.17125500   1.008000   ; qtot 36.000000
; residue   36 bbb rtp bbb q 1.0
  927         n4     36    bbb     N1    927 -0.02747900  14.010000   ; qtot 35.972521
  928         c3     36    bbb     C1    928 -0.05097600  12.010000   ; qtot 35.921545
  929         c3     36    bbb     C2    929 -0.05097600  12.010000   ; qtot 35.870569
  930         c3     36    bbb     C3    930 -0.18457900  12.010000   ; qtot 35.685990
  931          c     36    bbb     C4    931 0.67254400  12.010000   ; qtot 36.358534
  932         c3     36    bbb     C5    932 -0.18457900  12.010000   ; qtot 36.173955
  933          c     36    bbb     C6    933 0.67254400  12.010000   ; qtot 36.846499
  934         c3     36    bbb     C7    934 -0.02083000  12.010000   ; qtot 36.825669
  935         c3     36    bbb     C8    935 -0.03328100  12.010000   ; qtot 36.792388
  936          n     36    bbb     N2    936 -0.33303000  14.010000   ; qtot 36.459358
  937          o     36    bbb     O1    937 -0.52917200  16.000000   ; qtot 35.930186
  938          o     36    bbb     O2    938 -0.52917200  16.000000   ; qtot 35.401014
  939         hx     36    bbb     H1    939 0.11563300   1.008000   ; qtot 35.516647
  940         hx     36    bbb     H2    940 0.11563300   1.008000   ; qtot 35.632280
  941         hx     36    bbb     H3    941 0.11563300   1.008000   ; qtot 35.747913
  942         hx     36    bbb     H4    942 0.11563300   1.008000   ; qtot 35.863546
  943         hc     36    bbb     H5    943 0.08347900   1.008000   ; qtot 35.947025
  944         hc     36    bbb     H6    944 0.08347900   1.008000   ; qtot 36.030504
  945         hc     36    bbb     H7    945 0.08347900   1.008000   ; qtot 36.113983
  946         hc     36    bbb     H8    946 0.08347900   1.008000   ; qtot 36.197462
  947         hx     36    bbb     H9    947 0.07988000   1.008000   ; qtot 36.277342
  948         hx     36    bbb    H10    948 0.07988000   1.008000   ; qtot 36.357222
  949         h1     36    bbb    H11    949 0.10618100   1.008000   ; qtot 36.463403
  950         h1     36    bbb    H12    950 0.10618100   1.008000   ; qtot 36.569584
  951         hn     36    bbb    H13    951 0.25916100   1.008000   ; qtot 36.828745
  952         hn     36    bbb    H25    952 0.17125500   1.008000   ; qtot 37.000000
; residue   37 bbb rtp bbb q 1.0
  953         n4     37    bbb     N1    953 -0.02747900  14.010000   ; qtot 36.972521
  954         c3     37    bbb     C1    954 -0.05097600  12.010000   ; qtot 36.921545
  955         c3     37    bbb     C2    955 -0.05097600  12.010000   ; qtot 36.870569
  956         c3     37    bbb     C3    956 -0.18457900  12.010000   ; qtot 36.685990
  957          c     37    bbb     C4    957 0.67254400  12.010000   ; qtot 37.358534
  958         c3     37    bbb     C5    958 -0.18457900  12.010000   ; qtot 37.173955
  959          c     37    bbb     C6    959 0.67254400  12.010000   ; qtot 37.846499
  960         c3     37    bbb     C7    960 -0.02083000  12.010000   ; qtot 37.825669
  961         c3     37    bbb     C8    961 -0.03328100  12.010000   ; qtot 37.792388
  962          n     37    bbb     N2    962 -0.33303000  14.010000   ; qtot 37.459358
  963          o     37    bbb     O1    963 -0.52917200  16.000000   ; qtot 36.930186
  964          o     37    bbb     O2    964 -0.52917200  16.000000   ; qtot 36.401014
  965         hx     37    bbb     H1    965 0.11563300   1.008000   ; qtot 36.516647
  966         hx     37    bbb     H2    966 0.11563300   1.008000   ; qtot 36.632280
  967         hx     37    bbb     H3    967 0.11563300   1.008000   ; qtot 36.747913
  968         hx     37    bbb     H4    968 0.11563300   1.008000   ; qtot 36.863546
  969         hc     37    bbb     H5    969 0.08347900   1.008000   ; qtot 36.947025
  970         hc     37    bbb     H6    970 0.08347900   1.008000   ; qtot 37.030504
  971         hc     37    bbb     H7    971 0.08347900   1.008000   ; qtot 37.113983
  972         hc     37    bbb     H8    972 0.08347900   1.008000   ; qtot 37.197462
  973         hx     37    bbb     H9    973 0.07988000   1.008000   ; qtot 37.277342
  974         hx     37    bbb    H10    974 0.07988000   1.008000   ; qtot 37.357222
  975         h1     37    bbb    H11    975 0.10618100   1.008000   ; qtot 37.463403
  976         h1     37    bbb    H12    976 0.10618100   1.008000   ; qtot 37.569584
  977         hn     37    bbb    H13    977 0.25916100   1.008000   ; qtot 37.828745
  978         hn     37    bbb    H25    978 0.17125500   1.008000   ; qtot 38.000000
; residue   38 bbb rtp bbb q 1.0
  979         n4     38    bbb     N1    979 -0.02747900  14.010000   ; qtot 37.972521
  980         c3     38    bbb     C1    980 -0.05097600  12.010000   ; qtot 37.921545
  981         c3     38    bbb     C2    981 -0.05097600  12.010000   ; qtot 37.870569
  982         c3     38    bbb     C3    982 -0.18457900  12.010000   ; qtot 37.685990
  983          c     38    bbb     C4    983 0.67254400  12.010000   ; qtot 38.358534
  984         c3     38    bbb     C5    984 -0.18457900  12.010000   ; qtot 38.173955
  985          c     38    bbb     C6    985 0.67254400  12.010000   ; qtot 38.846499
  986         c3     38    bbb     C7    986 -0.02083000  12.010000   ; qtot 38.825669
  987         c3     38    bbb     C8    987 -0.03328100  12.010000   ; qtot 38.792388
  988          n     38    bbb     N2    988 -0.33303000  14.010000   ; qtot 38.459358
  989          o     38    bbb     O1    989 -0.52917200  16.000000   ; qtot 37.930186
  990          o     38    bbb     O2    990 -0.52917200  16.000000   ; qtot 37.401014
  991         hx     38    bbb     H1    991 0.11563300   1.008000   ; qtot 37.516647
  992         hx     38    bbb     H2    992 0.11563300   1.008000   ; qtot 37.632280
  993         hx     38    bbb     H3    993 0.11563300   1.008000   ; qtot 37.747913
  994         hx     38    bbb     H4    994 0.11563300   1.008000   ; qtot 37.863546
  995         hc     38    bbb     H5    995 0.08347900   1.008000   ; qtot 37.947025
  996         hc     38    bbb     H6    996 0.08347900   1.008000   ; qtot 38.030504
  997         hc     38    bbb     H7    997 0.08347900   1.008000   ; qtot 38.113983
  998         hc     38    bbb     H8    998 0.08347900   1.008000   ; qtot 38.197462
  999         hx     38    bbb     H9    999 0.07988000   1.008000   ; qtot 38.277342
 1000         hx     38    bbb    H10   1000 0.07988000   1.008000   ; qtot 38.357222
 1001         h1     38    bbb    H11   1001 0.10618100   1.008000   ; qtot 38.463403
 1002         h1     38    bbb    H12   1002 0.10618100   1.008000   ; qtot 38.569584
 1003         hn     38    bbb    H13   1003 0.25916100   1.008000   ; qtot 38.828745
 1004         hn     38    bbb    H25   1004 0.17125500   1.008000   ; qtot 39.000000
; residue   39 bbb rtp bbb q 1.0
 1005         n4     39    bbb     N1   1005 -0.02747900  14.010000   ; qtot 38.972521
 1006         c3     39    bbb     C1   1006 -0.05097600  12.010000   ; qtot 38.921545
 1007         c3     39    bbb     C2   1007 -0.05097600  12.010000   ; qtot 38.870569
 1008         c3     39    bbb     C3   1008 -0.18457900  12.010000   ; qtot 38.685990
 1009          c     39    bbb     C4   1009 0.67254400  12.010000   ; qtot 39.358534
 1010         c3     39    bbb     C5   1010 -0.18457900  12.010000   ; qtot 39.173955
 1011          c     39    bbb     C6   1011 0.67254400  12.010000   ; qtot 39.846499
 1012         c3     39    bbb     C7   1012 -0.02083000  12.010000   ; qtot 39.825669
 1013         c3     39    bbb     C8   1013 -0.03328100  12.010000   ; qtot 39.792388
 1014          n     39    bbb     N2   1014 -0.33303000  14.010000   ; qtot 39.459358
 1015          o     39    bbb     O1   1015 -0.52917200  16.000000   ; qtot 38.930186
 1016          o     39    bbb     O2   1016 -0.52917200  16.000000   ; qtot 38.401014
 1017         hx     39    bbb     H1   1017 0.11563300   1.008000   ; qtot 38.516647
 1018         hx     39    bbb     H2   1018 0.11563300   1.008000   ; qtot 38.632280
 1019         hx     39    bbb     H3   1019 0.11563300   1.008000   ; qtot 38.747913
 1020         hx     39    bbb     H4   1020 0.11563300   1.008000   ; qtot 38.863546
 1021         hc     39    bbb     H5   1021 0.08347900   1.008000   ; qtot 38.947025
 1022         hc     39    bbb     H6   1022 0.08347900   1.008000   ; qtot 39.030504
 1023         hc     39    bbb     H7   1023 0.08347900   1.008000   ; qtot 39.113983
 1024         hc     39    bbb     H8   1024 0.08347900   1.008000   ; qtot 39.197462
 1025         hx     39    bbb     H9   1025 0.07988000   1.008000   ; qtot 39.277342
 1026         hx     39    bbb    H10   1026 0.07988000   1.008000   ; qtot 39.357222
 1027         h1     39    bbb    H11   1027 0.10618100   1.008000   ; qtot 39.463403
 1028         h1     39    bbb    H12   1028 0.10618100   1.008000   ; qtot 39.569584
 1029         hn     39    bbb    H13   1029 0.25916100   1.008000   ; qtot 39.828745
 1030         hn     39    bbb    H25   1030 0.17125500   1.008000   ; qtot 40.000000
; residue   40 bbb rtp bbb q 1.0
 1031         n4     40    bbb     N1   1031 -0.02747900  14.010000   ; qtot 39.972521
 1032         c3     40    bbb     C1   1032 -0.05097600  12.010000   ; qtot 39.921545
 1033         c3     40    bbb     C2   1033 -0.05097600  12.010000   ; qtot 39.870569
 1034         c3     40    bbb     C3   1034 -0.18457900  12.010000   ; qtot 39.685990
 1035          c     40    bbb     C4   1035 0.67254400  12.010000   ; qtot 40.358534
 1036         c3     40    bbb     C5   1036 -0.18457900  12.010000   ; qtot 40.173955
 1037          c     40    bbb     C6   1037 0.67254400  12.010000   ; qtot 40.846499
 1038         c3     40    bbb     C7   1038 -0.02083000  12.010000   ; qtot 40.825669
 1039         c3     40    bbb     C8   1039 -0.03328100  12.010000   ; qtot 40.792388
 1040          n     40    bbb     N2   1040 -0.33303000  14.010000   ; qtot 40.459358
 1041          o     40    bbb     O1   1041 -0.52917200  16.000000   ; qtot 39.930186
 1042          o     40    bbb     O2   1042 -0.52917200  16.000000   ; qtot 39.401014
 1043         hx     40    bbb     H1   1043 0.11563300   1.008000   ; qtot 39.516647
 1044         hx     40    bbb     H2   1044 0.11563300   1.008000   ; qtot 39.632280
 1045         hx     40    bbb     H3   1045 0.11563300   1.008000   ; qtot 39.747913
 1046         hx     40    bbb     H4   1046 0.11563300   1.008000   ; qtot 39.863546
 1047         hc     40    bbb     H5   1047 0.08347900   1.008000   ; qtot 39.947025
 1048         hc     40    bbb     H6   1048 0.08347900   1.008000   ; qtot 40.030504
 1049         hc     40    bbb     H7   1049 0.08347900   1.008000   ; qtot 40.113983
 1050         hc     40    bbb     H8   1050 0.08347900   1.008000   ; qtot 40.197462
 1051         hx     40    bbb     H9   1051 0.07988000   1.008000   ; qtot 40.277342
 1052         hx     40    bbb    H10   1052 0.07988000   1.008000   ; qtot 40.357222
 1053         h1     40    bbb    H11   1053 0.10618100   1.008000   ; qtot 40.463403
 1054         h1     40    bbb    H12   1054 0.10618100   1.008000   ; qtot 40.569584
 1055         hn     40    bbb    H13   1055 0.25916100   1.008000   ; qtot 40.828745
 1056         hn     40    bbb    H25   1056 0.17125500   1.008000   ; qtot 41.000000
; residue   41 bbb rtp bbb q 1.0
 1057         n4     41    bbb     N1   1057 -0.02747900  14.010000   ; qtot 40.972521
 1058         c3     41    bbb     C1   1058 -0.05097600  12.010000   ; qtot 40.921545
 1059         c3     41    bbb     C2   1059 -0.05097600  12.010000   ; qtot 40.870569
 1060         c3     41    bbb     C3   1060 -0.18457900  12.010000   ; qtot 40.685990
 1061          c     41    bbb     C4   1061 0.67254400  12.010000   ; qtot 41.358534
 1062         c3     41    bbb     C5   1062 -0.18457900  12.010000   ; qtot 41.173955
 1063          c     41    bbb     C6   1063 0.67254400  12.010000   ; qtot 41.846499
 1064         c3     41    bbb     C7   1064 -0.02083000  12.010000   ; qtot 41.825669
 1065         c3     41    bbb     C8   1065 -0.03328100  12.010000   ; qtot 41.792388
 1066          n     41    bbb     N2   1066 -0.33303000  14.010000   ; qtot 41.459358
 1067          o     41    bbb     O1   1067 -0.52917200  16.000000   ; qtot 40.930186
 1068          o     41    bbb     O2   1068 -0.52917200  16.000000   ; qtot 40.401014
 1069         hx     41    bbb     H1   1069 0.11563300   1.008000   ; qtot 40.516647
 1070         hx     41    bbb     H2   1070 0.11563300   1.008000   ; qtot 40.632280
 1071         hx     41    bbb     H3   1071 0.11563300   1.008000   ; qtot 40.747913
 1072         hx     41    bbb     H4   1072 0.11563300   1.008000   ; qtot 40.863546
 1073         hc     41    bbb     H5   1073 0.08347900   1.008000   ; qtot 40.947025
 1074         hc     41    bbb     H6   1074 0.08347900   1.008000   ; qtot 41.030504
 1075         hc     41    bbb     H7   1075 0.08347900   1.008000   ; qtot 41.113983
 1076         hc     41    bbb     H8   1076 0.08347900   1.008000   ; qtot 41.197462
 1077         hx     41    bbb     H9   1077 0.07988000   1.008000   ; qtot 41.277342
 1078         hx     41    bbb    H10   1078 0.07988000   1.008000   ; qtot 41.357222
 1079         h1     41    bbb    H11   1079 0.10618100   1.008000   ; qtot 41.463403
 1080         h1     41    bbb    H12   1080 0.10618100   1.008000   ; qtot 41.569584
 1081         hn     41    bbb    H13   1081 0.25916100   1.008000   ; qtot 41.828745
 1082         hn     41    bbb    H25   1082 0.17125500   1.008000   ; qtot 42.000000
; residue   42 bbb rtp bbb q 1.0
 1083         n4     42    bbb     N1   1083 -0.02747900  14.010000   ; qtot 41.972521
 1084         c3     42    bbb     C1   1084 -0.05097600  12.010000   ; qtot 41.921545
 1085         c3     42    bbb     C2   1085 -0.05097600  12.010000   ; qtot 41.870569
 1086         c3     42    bbb     C3   1086 -0.18457900  12.010000   ; qtot 41.685990
 1087          c     42    bbb     C4   1087 0.67254400  12.010000   ; qtot 42.358534
 1088         c3     42    bbb     C5   1088 -0.18457900  12.010000   ; qtot 42.173955
 1089          c     42    bbb     C6   1089 0.67254400  12.010000   ; qtot 42.846499
 1090         c3     42    bbb     C7   1090 -0.02083000  12.010000   ; qtot 42.825669
 1091         c3     42    bbb     C8   1091 -0.03328100  12.010000   ; qtot 42.792388
 1092          n     42    bbb     N2   1092 -0.33303000  14.010000   ; qtot 42.459358
 1093          o     42    bbb     O1   1093 -0.52917200  16.000000   ; qtot 41.930186
 1094          o     42    bbb     O2   1094 -0.52917200  16.000000   ; qtot 41.401014
 1095         hx     42    bbb     H1   1095 0.11563300   1.008000   ; qtot 41.516647
 1096         hx     42    bbb     H2   1096 0.11563300   1.008000   ; qtot 41.632280
 1097         hx     42    bbb     H3   1097 0.11563300   1.008000   ; qtot 41.747913
 1098         hx     42    bbb     H4   1098 0.11563300   1.008000   ; qtot 41.863546
 1099         hc     42    bbb     H5   1099 0.08347900   1.008000   ; qtot 41.947025
 1100         hc     42    bbb     H6   1100 0.08347900   1.008000   ; qtot 42.030504
 1101         hc     42    bbb     H7   1101 0.08347900   1.008000   ; qtot 42.113983
 1102         hc     42    bbb     H8   1102 0.08347900   1.008000   ; qtot 42.197462
 1103         hx     42    bbb     H9   1103 0.07988000   1.008000   ; qtot 42.277342
 1104         hx     42    bbb    H10   1104 0.07988000   1.008000   ; qtot 42.357222
 1105         h1     42    bbb    H11   1105 0.10618100   1.008000   ; qtot 42.463403
 1106         h1     42    bbb    H12   1106 0.10618100   1.008000   ; qtot 42.569584
 1107         hn     42    bbb    H13   1107 0.25916100   1.008000   ; qtot 42.828745
 1108         hn     42    bbb    H25   1108 0.17125500   1.008000   ; qtot 43.000000
; residue   43 bbb rtp bbb q 1.0
 1109         n4     43    bbb     N1   1109 -0.02747900  14.010000   ; qtot 42.972521
 1110         c3     43    bbb     C1   1110 -0.05097600  12.010000   ; qtot 42.921545
 1111         c3     43    bbb     C2   1111 -0.05097600  12.010000   ; qtot 42.870569
 1112         c3     43    bbb     C3   1112 -0.18457900  12.010000   ; qtot 42.685990
 1113          c     43    bbb     C4   1113 0.67254400  12.010000   ; qtot 43.358534
 1114         c3     43    bbb     C5   1114 -0.18457900  12.010000   ; qtot 43.173955
 1115          c     43    bbb     C6   1115 0.67254400  12.010000   ; qtot 43.846499
 1116         c3     43    bbb     C7   1116 -0.02083000  12.010000   ; qtot 43.825669
 1117         c3     43    bbb     C8   1117 -0.03328100  12.010000   ; qtot 43.792388
 1118          n     43    bbb     N2   1118 -0.33303000  14.010000   ; qtot 43.459358
 1119          o     43    bbb     O1   1119 -0.52917200  16.000000   ; qtot 42.930186
 1120          o     43    bbb     O2   1120 -0.52917200  16.000000   ; qtot 42.401014
 1121         hx     43    bbb     H1   1121 0.11563300   1.008000   ; qtot 42.516647
 1122         hx     43    bbb     H2   1122 0.11563300   1.008000   ; qtot 42.632280
 1123         hx     43    bbb     H3   1123 0.11563300   1.008000   ; qtot 42.747913
 1124         hx     43    bbb     H4   1124 0.11563300   1.008000   ; qtot 42.863546
 1125         hc     43    bbb     H5   1125 0.08347900   1.008000   ; qtot 42.947025
 1126         hc     43    bbb     H6   1126 0.08347900   1.008000   ; qtot 43.030504
 1127         hc     43    bbb     H7   1127 0.08347900   1.008000   ; qtot 43.113983
 1128         hc     43    bbb     H8   1128 0.08347900   1.008000   ; qtot 43.197462
 1129         hx     43    bbb     H9   1129 0.07988000   1.008000   ; qtot 43.277342
 1130         hx     43    bbb    H10   1130 0.07988000   1.008000   ; qtot 43.357222
 1131         h1     43    bbb    H11   1131 0.10618100   1.008000   ; qtot 43.463403
 1132         h1     43    bbb    H12   1132 0.10618100   1.008000   ; qtot 43.569584
 1133         hn     43    bbb    H13   1133 0.25916100   1.008000   ; qtot 43.828745
 1134         hn     43    bbb    H25   1134 0.17125500   1.008000   ; qtot 44.000000
; residue   44 bbb rtp bbb q 1.0
 1135         n4     44    bbb     N1   1135 -0.02747900  14.010000   ; qtot 43.972521
 1136         c3     44    bbb     C1   1136 -0.05097600  12.010000   ; qtot 43.921545
 1137         c3     44    bbb     C2   1137 -0.05097600  12.010000   ; qtot 43.870569
 1138         c3     44    bbb     C3   1138 -0.18457900  12.010000   ; qtot 43.685990
 1139          c     44    bbb     C4   1139 0.67254400  12.010000   ; qtot 44.358534
 1140         c3     44    bbb     C5   1140 -0.18457900  12.010000   ; qtot 44.173955
 1141          c     44    bbb     C6   1141 0.67254400  12.010000   ; qtot 44.846499
 1142         c3     44    bbb     C7   1142 -0.02083000  12.010000   ; qtot 44.825669
 1143         c3     44    bbb     C8   1143 -0.03328100  12.010000   ; qtot 44.792388
 1144          n     44    bbb     N2   1144 -0.33303000  14.010000   ; qtot 44.459358
 1145          o     44    bbb     O1   1145 -0.52917200  16.000000   ; qtot 43.930186
 1146          o     44    bbb     O2   1146 -0.52917200  16.000000   ; qtot 43.401014
 1147         hx     44    bbb     H1   1147 0.11563300   1.008000   ; qtot 43.516647
 1148         hx     44    bbb     H2   1148 0.11563300   1.008000   ; qtot 43.632280
 1149         hx     44    bbb     H3   1149 0.11563300   1.008000   ; qtot 43.747913
 1150         hx     44    bbb     H4   1150 0.11563300   1.008000   ; qtot 43.863546
 1151         hc     44    bbb     H5   1151 0.08347900   1.008000   ; qtot 43.947025
 1152         hc     44    bbb     H6   1152 0.08347900   1.008000   ; qtot 44.030504
 1153         hc     44    bbb     H7   1153 0.08347900   1.008000   ; qtot 44.113983
 1154         hc     44    bbb     H8   1154 0.08347900   1.008000   ; qtot 44.197462
 1155         hx     44    bbb     H9   1155 0.07988000   1.008000   ; qtot 44.277342
 1156         hx     44    bbb    H10   1156 0.07988000   1.008000   ; qtot 44.357222
 1157         h1     44    bbb    H11   1157 0.10618100   1.008000   ; qtot 44.463403
 1158         h1     44    bbb    H12   1158 0.10618100   1.008000   ; qtot 44.569584
 1159         hn     44    bbb    H13   1159 0.25916100   1.008000   ; qtot 44.828745
 1160         hn     44    bbb    H25   1160 0.17125500   1.008000   ; qtot 45.000000
; residue   45 bbb rtp bbb q 1.0
 1161         n4     45    bbb     N1   1161 -0.02747900  14.010000   ; qtot 44.972521
 1162         c3     45    bbb     C1   1162 -0.05097600  12.010000   ; qtot 44.921545
 1163         c3     45    bbb     C2   1163 -0.05097600  12.010000   ; qtot 44.870569
 1164         c3     45    bbb     C3   1164 -0.18457900  12.010000   ; qtot 44.685990
 1165          c     45    bbb     C4   1165 0.67254400  12.010000   ; qtot 45.358534
 1166         c3     45    bbb     C5   1166 -0.18457900  12.010000   ; qtot 45.173955
 1167          c     45    bbb     C6   1167 0.67254400  12.010000   ; qtot 45.846499
 1168         c3     45    bbb     C7   1168 -0.02083000  12.010000   ; qtot 45.825669
 1169         c3     45    bbb     C8   1169 -0.03328100  12.010000   ; qtot 45.792388
 1170          n     45    bbb     N2   1170 -0.33303000  14.010000   ; qtot 45.459358
 1171          o     45    bbb     O1   1171 -0.52917200  16.000000   ; qtot 44.930186
 1172          o     45    bbb     O2   1172 -0.52917200  16.000000   ; qtot 44.401014
 1173         hx     45    bbb     H1   1173 0.11563300   1.008000   ; qtot 44.516647
 1174         hx     45    bbb     H2   1174 0.11563300   1.008000   ; qtot 44.632280
 1175         hx     45    bbb     H3   1175 0.11563300   1.008000   ; qtot 44.747913
 1176         hx     45    bbb     H4   1176 0.11563300   1.008000   ; qtot 44.863546
 1177         hc     45    bbb     H5   1177 0.08347900   1.008000   ; qtot 44.947025
 1178         hc     45    bbb     H6   1178 0.08347900   1.008000   ; qtot 45.030504
 1179         hc     45    bbb     H7   1179 0.08347900   1.008000   ; qtot 45.113983
 1180         hc     45    bbb     H8   1180 0.08347900   1.008000   ; qtot 45.197462
 1181         hx     45    bbb     H9   1181 0.07988000   1.008000   ; qtot 45.277342
 1182         hx     45    bbb    H10   1182 0.07988000   1.008000   ; qtot 45.357222
 1183         h1     45    bbb    H11   1183 0.10618100   1.008000   ; qtot 45.463403
 1184         h1     45    bbb    H12   1184 0.10618100   1.008000   ; qtot 45.569584
 1185         hn     45    bbb    H13   1185 0.25916100   1.008000   ; qtot 45.828745
 1186         hn     45    bbb    H25   1186 0.17125500   1.008000   ; qtot 46.000000
; residue   46 bbb rtp bbb q 1.0
 1187         n4     46    bbb     N1   1187 -0.02747900  14.010000   ; qtot 45.972521
 1188         c3     46    bbb     C1   1188 -0.05097600  12.010000   ; qtot 45.921545
 1189         c3     46    bbb     C2   1189 -0.05097600  12.010000   ; qtot 45.870569
 1190         c3     46    bbb     C3   1190 -0.18457900  12.010000   ; qtot 45.685990
 1191          c     46    bbb     C4   1191 0.67254400  12.010000   ; qtot 46.358534
 1192         c3     46    bbb     C5   1192 -0.18457900  12.010000   ; qtot 46.173955
 1193          c     46    bbb     C6   1193 0.67254400  12.010000   ; qtot 46.846499
 1194         c3     46    bbb     C7   1194 -0.02083000  12.010000   ; qtot 46.825669
 1195         c3     46    bbb     C8   1195 -0.03328100  12.010000   ; qtot 46.792388
 1196          n     46    bbb     N2   1196 -0.33303000  14.010000   ; qtot 46.459358
 1197          o     46    bbb     O1   1197 -0.52917200  16.000000   ; qtot 45.930186
 1198          o     46    bbb     O2   1198 -0.52917200  16.000000   ; qtot 45.401014
 1199         hx     46    bbb     H1   1199 0.11563300   1.008000   ; qtot 45.516647
 1200         hx     46    bbb     H2   1200 0.11563300   1.008000   ; qtot 45.632280
 1201         hx     46    bbb     H3   1201 0.11563300   1.008000   ; qtot 45.747913
 1202         hx     46    bbb     H4   1202 0.11563300   1.008000   ; qtot 45.863546
 1203         hc     46    bbb     H5   1203 0.08347900   1.008000   ; qtot 45.947025
 1204         hc     46    bbb     H6   1204 0.08347900   1.008000   ; qtot 46.030504
 1205         hc     46    bbb     H7   1205 0.08347900   1.008000   ; qtot 46.113983
 1206         hc     46    bbb     H8   1206 0.08347900   1.008000   ; qtot 46.197462
 1207         hx     46    bbb     H9   1207 0.07988000   1.008000   ; qtot 46.277342
 1208         hx     46    bbb    H10   1208 0.07988000   1.008000   ; qtot 46.357222
 1209         h1     46    bbb    H11   1209 0.10618100   1.008000   ; qtot 46.463403
 1210         h1     46    bbb    H12   1210 0.10618100   1.008000   ; qtot 46.569584
 1211         hn     46    bbb    H13   1211 0.25916100   1.008000   ; qtot 46.828745
 1212         hn     46    bbb    H25   1212 0.17125500   1.008000   ; qtot 47.000000
; residue   47 bbb rtp bbb q 1.0
 1213         n4     47    bbb     N1   1213 -0.02747900  14.010000   ; qtot 46.972521
 1214         c3     47    bbb     C1   1214 -0.05097600  12.010000   ; qtot 46.921545
 1215         c3     47    bbb     C2   1215 -0.05097600  12.010000   ; qtot 46.870569
 1216         c3     47    bbb     C3   1216 -0.18457900  12.010000   ; qtot 46.685990
 1217          c     47    bbb     C4   1217 0.67254400  12.010000   ; qtot 47.358534
 1218         c3     47    bbb     C5   1218 -0.18457900  12.010000   ; qtot 47.173955
 1219          c     47    bbb     C6   1219 0.67254400  12.010000   ; qtot 47.846499
 1220         c3     47    bbb     C7   1220 -0.02083000  12.010000   ; qtot 47.825669
 1221         c3     47    bbb     C8   1221 -0.03328100  12.010000   ; qtot 47.792388
 1222          n     47    bbb     N2   1222 -0.33303000  14.010000   ; qtot 47.459358
 1223          o     47    bbb     O1   1223 -0.52917200  16.000000   ; qtot 46.930186
 1224          o     47    bbb     O2   1224 -0.52917200  16.000000   ; qtot 46.401014
 1225         hx     47    bbb     H1   1225 0.11563300   1.008000   ; qtot 46.516647
 1226         hx     47    bbb     H2   1226 0.11563300   1.008000   ; qtot 46.632280
 1227         hx     47    bbb     H3   1227 0.11563300   1.008000   ; qtot 46.747913
 1228         hx     47    bbb     H4   1228 0.11563300   1.008000   ; qtot 46.863546
 1229         hc     47    bbb     H5   1229 0.08347900   1.008000   ; qtot 46.947025
 1230         hc     47    bbb     H6   1230 0.08347900   1.008000   ; qtot 47.030504
 1231         hc     47    bbb     H7   1231 0.08347900   1.008000   ; qtot 47.113983
 1232         hc     47    bbb     H8   1232 0.08347900   1.008000   ; qtot 47.197462
 1233         hx     47    bbb     H9   1233 0.07988000   1.008000   ; qtot 47.277342
 1234         hx     47    bbb    H10   1234 0.07988000   1.008000   ; qtot 47.357222
 1235         h1     47    bbb    H11   1235 0.10618100   1.008000   ; qtot 47.463403
 1236         h1     47    bbb    H12   1236 0.10618100   1.008000   ; qtot 47.569584
 1237         hn     47    bbb    H13   1237 0.25916100   1.008000   ; qtot 47.828745
 1238         hn     47    bbb    H25   1238 0.17125500   1.008000   ; qtot 48.000000
; residue   48 bbb rtp bbb q 1.0
 1239         n4     48    bbb     N1   1239 -0.02747900  14.010000   ; qtot 47.972521
 1240         c3     48    bbb     C1   1240 -0.05097600  12.010000   ; qtot 47.921545
 1241         c3     48    bbb     C2   1241 -0.05097600  12.010000   ; qtot 47.870569
 1242         c3     48    bbb     C3   1242 -0.18457900  12.010000   ; qtot 47.685990
 1243          c     48    bbb     C4   1243 0.67254400  12.010000   ; qtot 48.358534
 1244         c3     48    bbb     C5   1244 -0.18457900  12.010000   ; qtot 48.173955
 1245          c     48    bbb     C6   1245 0.67254400  12.010000   ; qtot 48.846499
 1246         c3     48    bbb     C7   1246 -0.02083000  12.010000   ; qtot 48.825669
 1247         c3     48    bbb     C8   1247 -0.03328100  12.010000   ; qtot 48.792388
 1248          n     48    bbb     N2   1248 -0.33303000  14.010000   ; qtot 48.459358
 1249          o     48    bbb     O1   1249 -0.52917200  16.000000   ; qtot 47.930186
 1250          o     48    bbb     O2   1250 -0.52917200  16.000000   ; qtot 47.401014
 1251         hx     48    bbb     H1   1251 0.11563300   1.008000   ; qtot 47.516647
 1252         hx     48    bbb     H2   1252 0.11563300   1.008000   ; qtot 47.632280
 1253         hx     48    bbb     H3   1253 0.11563300   1.008000   ; qtot 47.747913
 1254         hx     48    bbb     H4   1254 0.11563300   1.008000   ; qtot 47.863546
 1255         hc     48    bbb     H5   1255 0.08347900   1.008000   ; qtot 47.947025
 1256         hc     48    bbb     H6   1256 0.08347900   1.008000   ; qtot 48.030504
 1257         hc     48    bbb     H7   1257 0.08347900   1.008000   ; qtot 48.113983
 1258         hc     48    bbb     H8   1258 0.08347900   1.008000   ; qtot 48.197462
 1259         hx     48    bbb     H9   1259 0.07988000   1.008000   ; qtot 48.277342
 1260         hx     48    bbb    H10   1260 0.07988000   1.008000   ; qtot 48.357222
 1261         h1     48    bbb    H11   1261 0.10618100   1.008000   ; qtot 48.463403
 1262         h1     48    bbb    H12   1262 0.10618100   1.008000   ; qtot 48.569584
 1263         hn     48    bbb    H13   1263 0.25916100   1.008000   ; qtot 48.828745
 1264         hn     48    bbb    H25   1264 0.17125500   1.008000   ; qtot 49.000000
; residue   49 bbb rtp bbb q 1.0
 1265         n4     49    bbb     N1   1265 -0.02747900  14.010000   ; qtot 48.972521
 1266         c3     49    bbb     C1   1266 -0.05097600  12.010000   ; qtot 48.921545
 1267         c3     49    bbb     C2   1267 -0.05097600  12.010000   ; qtot 48.870569
 1268         c3     49    bbb     C3   1268 -0.18457900  12.010000   ; qtot 48.685990
 1269          c     49    bbb     C4   1269 0.67254400  12.010000   ; qtot 49.358534
 1270         c3     49    bbb     C5   1270 -0.18457900  12.010000   ; qtot 49.173955
 1271          c     49    bbb     C6   1271 0.67254400  12.010000   ; qtot 49.846499
 1272         c3     49    bbb     C7   1272 -0.02083000  12.010000   ; qtot 49.825669
 1273         c3     49    bbb     C8   1273 -0.03328100  12.010000   ; qtot 49.792388
 1274          n     49    bbb     N2   1274 -0.33303000  14.010000   ; qtot 49.459358
 1275          o     49    bbb     O1   1275 -0.52917200  16.000000   ; qtot 48.930186
 1276          o     49    bbb     O2   1276 -0.52917200  16.000000   ; qtot 48.401014
 1277         hx     49    bbb     H1   1277 0.11563300   1.008000   ; qtot 48.516647
 1278         hx     49    bbb     H2   1278 0.11563300   1.008000   ; qtot 48.632280
 1279         hx     49    bbb     H3   1279 0.11563300   1.008000   ; qtot 48.747913
 1280         hx     49    bbb     H4   1280 0.11563300   1.008000   ; qtot 48.863546
 1281         hc     49    bbb     H5   1281 0.08347900   1.008000   ; qtot 48.947025
 1282         hc     49    bbb     H6   1282 0.08347900   1.008000   ; qtot 49.030504
 1283         hc     49    bbb     H7   1283 0.08347900   1.008000   ; qtot 49.113983
 1284         hc     49    bbb     H8   1284 0.08347900   1.008000   ; qtot 49.197462
 1285         hx     49    bbb     H9   1285 0.07988000   1.008000   ; qtot 49.277342
 1286         hx     49    bbb    H10   1286 0.07988000   1.008000   ; qtot 49.357222
 1287         h1     49    bbb    H11   1287 0.10618100   1.008000   ; qtot 49.463403
 1288         h1     49    bbb    H12   1288 0.10618100   1.008000   ; qtot 49.569584
 1289         hn     49    bbb    H13   1289 0.25916100   1.008000   ; qtot 49.828745
 1290         hn     49    bbb    H25   1290 0.17125500   1.008000   ; qtot 50.000000
; residue   50 bbb rtp bbb q 1.0
 1291         n4     50    bbb     N1   1291 -0.02747900  14.010000   ; qtot 49.972521
 1292         c3     50    bbb     C1   1292 -0.05097600  12.010000   ; qtot 49.921545
 1293         c3     50    bbb     C2   1293 -0.05097600  12.010000   ; qtot 49.870569
 1294         c3     50    bbb     C3   1294 -0.18457900  12.010000   ; qtot 49.685990
 1295          c     50    bbb     C4   1295 0.67254400  12.010000   ; qtot 50.358534
 1296         c3     50    bbb     C5   1296 -0.18457900  12.010000   ; qtot 50.173955
 1297          c     50    bbb     C6   1297 0.67254400  12.010000   ; qtot 50.846499
 1298         c3     50    bbb     C7   1298 -0.02083000  12.010000   ; qtot 50.825669
 1299         c3     50    bbb     C8   1299 -0.03328100  12.010000   ; qtot 50.792388
 1300          n     50    bbb     N2   1300 -0.33303000  14.010000   ; qtot 50.459358
 1301          o     50    bbb     O1   1301 -0.52917200  16.000000   ; qtot 49.930186
 1302          o     50    bbb     O2   1302 -0.52917200  16.000000   ; qtot 49.401014
 1303         hx     50    bbb     H1   1303 0.11563300   1.008000   ; qtot 49.516647
 1304         hx     50    bbb     H2   1304 0.11563300   1.008000   ; qtot 49.632280
 1305         hx     50    bbb     H3   1305 0.11563300   1.008000   ; qtot 49.747913
 1306         hx     50    bbb     H4   1306 0.11563300   1.008000   ; qtot 49.863546
 1307         hc     50    bbb     H5   1307 0.08347900   1.008000   ; qtot 49.947025
 1308         hc     50    bbb     H6   1308 0.08347900   1.008000   ; qtot 50.030504
 1309         hc     50    bbb     H7   1309 0.08347900   1.008000   ; qtot 50.113983
 1310         hc     50    bbb     H8   1310 0.08347900   1.008000   ; qtot 50.197462
 1311         hx     50    bbb     H9   1311 0.07988000   1.008000   ; qtot 50.277342
 1312         hx     50    bbb    H10   1312 0.07988000   1.008000   ; qtot 50.357222
 1313         h1     50    bbb    H11   1313 0.10618100   1.008000   ; qtot 50.463403
 1314         h1     50    bbb    H12   1314 0.10618100   1.008000   ; qtot 50.569584
 1315         hn     50    bbb    H13   1315 0.25916100   1.008000   ; qtot 50.828745
 1316         hn     50    bbb    H25   1316 0.17125500   1.008000   ; qtot 51.000000
; residue   51 bbb rtp bbb q 1.0
 1317         n4     51    bbb     N1   1317 -0.02747900  14.010000   ; qtot 50.972521
 1318         c3     51    bbb     C1   1318 -0.05097600  12.010000   ; qtot 50.921545
 1319         c3     51    bbb     C2   1319 -0.05097600  12.010000   ; qtot 50.870569
 1320         c3     51    bbb     C3   1320 -0.18457900  12.010000   ; qtot 50.685990
 1321          c     51    bbb     C4   1321 0.67254400  12.010000   ; qtot 51.358534
 1322         c3     51    bbb     C5   1322 -0.18457900  12.010000   ; qtot 51.173955
 1323          c     51    bbb     C6   1323 0.67254400  12.010000   ; qtot 51.846499
 1324         c3     51    bbb     C7   1324 -0.02083000  12.010000   ; qtot 51.825669
 1325         c3     51    bbb     C8   1325 -0.03328100  12.010000   ; qtot 51.792388
 1326          n     51    bbb     N2   1326 -0.33303000  14.010000   ; qtot 51.459358
 1327          o     51    bbb     O1   1327 -0.52917200  16.000000   ; qtot 50.930186
 1328          o     51    bbb     O2   1328 -0.52917200  16.000000   ; qtot 50.401014
 1329         hx     51    bbb     H1   1329 0.11563300   1.008000   ; qtot 50.516647
 1330         hx     51    bbb     H2   1330 0.11563300   1.008000   ; qtot 50.632280
 1331         hx     51    bbb     H3   1331 0.11563300   1.008000   ; qtot 50.747913
 1332         hx     51    bbb     H4   1332 0.11563300   1.008000   ; qtot 50.863546
 1333         hc     51    bbb     H5   1333 0.08347900   1.008000   ; qtot 50.947025
 1334         hc     51    bbb     H6   1334 0.08347900   1.008000   ; qtot 51.030504
 1335         hc     51    bbb     H7   1335 0.08347900   1.008000   ; qtot 51.113983
 1336         hc     51    bbb     H8   1336 0.08347900   1.008000   ; qtot 51.197462
 1337         hx     51    bbb     H9   1337 0.07988000   1.008000   ; qtot 51.277342
 1338         hx     51    bbb    H10   1338 0.07988000   1.008000   ; qtot 51.357222
 1339         h1     51    bbb    H11   1339 0.10618100   1.008000   ; qtot 51.463403
 1340         h1     51    bbb    H12   1340 0.10618100   1.008000   ; qtot 51.569584
 1341         hn     51    bbb    H13   1341 0.25916100   1.008000   ; qtot 51.828745
 1342         hn     51    bbb    H25   1342 0.17125500   1.008000   ; qtot 52.000000
; residue   52 bbb rtp bbb q 1.0
 1343         n4     52    bbb     N1   1343 -0.02747900  14.010000   ; qtot 51.972521
 1344         c3     52    bbb     C1   1344 -0.05097600  12.010000   ; qtot 51.921545
 1345         c3     52    bbb     C2   1345 -0.05097600  12.010000   ; qtot 51.870569
 1346         c3     52    bbb     C3   1346 -0.18457900  12.010000   ; qtot 51.685990
 1347          c     52    bbb     C4   1347 0.67254400  12.010000   ; qtot 52.358534
 1348         c3     52    bbb     C5   1348 -0.18457900  12.010000   ; qtot 52.173955
 1349          c     52    bbb     C6   1349 0.67254400  12.010000   ; qtot 52.846499
 1350         c3     52    bbb     C7   1350 -0.02083000  12.010000   ; qtot 52.825669
 1351         c3     52    bbb     C8   1351 -0.03328100  12.010000   ; qtot 52.792388
 1352          n     52    bbb     N2   1352 -0.33303000  14.010000   ; qtot 52.459358
 1353          o     52    bbb     O1   1353 -0.52917200  16.000000   ; qtot 51.930186
 1354          o     52    bbb     O2   1354 -0.52917200  16.000000   ; qtot 51.401014
 1355         hx     52    bbb     H1   1355 0.11563300   1.008000   ; qtot 51.516647
 1356         hx     52    bbb     H2   1356 0.11563300   1.008000   ; qtot 51.632280
 1357         hx     52    bbb     H3   1357 0.11563300   1.008000   ; qtot 51.747913
 1358         hx     52    bbb     H4   1358 0.11563300   1.008000   ; qtot 51.863546
 1359         hc     52    bbb     H5   1359 0.08347900   1.008000   ; qtot 51.947025
 1360         hc     52    bbb     H6   1360 0.08347900   1.008000   ; qtot 52.030504
 1361         hc     52    bbb     H7   1361 0.08347900   1.008000   ; qtot 52.113983
 1362         hc     52    bbb     H8   1362 0.08347900   1.008000   ; qtot 52.197462
 1363         hx     52    bbb     H9   1363 0.07988000   1.008000   ; qtot 52.277342
 1364         hx     52    bbb    H10   1364 0.07988000   1.008000   ; qtot 52.357222
 1365         h1     52    bbb    H11   1365 0.10618100   1.008000   ; qtot 52.463403
 1366         h1     52    bbb    H12   1366 0.10618100   1.008000   ; qtot 52.569584
 1367         hn     52    bbb    H13   1367 0.25916100   1.008000   ; qtot 52.828745
 1368         hn     52    bbb    H25   1368 0.17125500   1.008000   ; qtot 53.000000
; residue   53 bbb rtp bbb q 1.0
 1369         n4     53    bbb     N1   1369 -0.02747900  14.010000   ; qtot 52.972521
 1370         c3     53    bbb     C1   1370 -0.05097600  12.010000   ; qtot 52.921545
 1371         c3     53    bbb     C2   1371 -0.05097600  12.010000   ; qtot 52.870569
 1372         c3     53    bbb     C3   1372 -0.18457900  12.010000   ; qtot 52.685990
 1373          c     53    bbb     C4   1373 0.67254400  12.010000   ; qtot 53.358534
 1374         c3     53    bbb     C5   1374 -0.18457900  12.010000   ; qtot 53.173955
 1375          c     53    bbb     C6   1375 0.67254400  12.010000   ; qtot 53.846499
 1376         c3     53    bbb     C7   1376 -0.02083000  12.010000   ; qtot 53.825669
 1377         c3     53    bbb     C8   1377 -0.03328100  12.010000   ; qtot 53.792388
 1378          n     53    bbb     N2   1378 -0.33303000  14.010000   ; qtot 53.459358
 1379          o     53    bbb     O1   1379 -0.52917200  16.000000   ; qtot 52.930186
 1380          o     53    bbb     O2   1380 -0.52917200  16.000000   ; qtot 52.401014
 1381         hx     53    bbb     H1   1381 0.11563300   1.008000   ; qtot 52.516647
 1382         hx     53    bbb     H2   1382 0.11563300   1.008000   ; qtot 52.632280
 1383         hx     53    bbb     H3   1383 0.11563300   1.008000   ; qtot 52.747913
 1384         hx     53    bbb     H4   1384 0.11563300   1.008000   ; qtot 52.863546
 1385         hc     53    bbb     H5   1385 0.08347900   1.008000   ; qtot 52.947025
 1386         hc     53    bbb     H6   1386 0.08347900   1.008000   ; qtot 53.030504
 1387         hc     53    bbb     H7   1387 0.08347900   1.008000   ; qtot 53.113983
 1388         hc     53    bbb     H8   1388 0.08347900   1.008000   ; qtot 53.197462
 1389         hx     53    bbb     H9   1389 0.07988000   1.008000   ; qtot 53.277342
 1390         hx     53    bbb    H10   1390 0.07988000   1.008000   ; qtot 53.357222
 1391         h1     53    bbb    H11   1391 0.10618100   1.008000   ; qtot 53.463403
 1392         h1     53    bbb    H12   1392 0.10618100   1.008000   ; qtot 53.569584
 1393         hn     53    bbb    H13   1393 0.25916100   1.008000   ; qtot 53.828745
 1394         hn     53    bbb    H25   1394 0.17125500   1.008000   ; qtot 54.000000
; residue   54 bbb rtp bbb q 1.0
 1395         n4     54    bbb     N1   1395 -0.02747900  14.010000   ; qtot 53.972521
 1396         c3     54    bbb     C1   1396 -0.05097600  12.010000   ; qtot 53.921545
 1397         c3     54    bbb     C2   1397 -0.05097600  12.010000   ; qtot 53.870569
 1398         c3     54    bbb     C3   1398 -0.18457900  12.010000   ; qtot 53.685990
 1399          c     54    bbb     C4   1399 0.67254400  12.010000   ; qtot 54.358534
 1400         c3     54    bbb     C5   1400 -0.18457900  12.010000   ; qtot 54.173955
 1401          c     54    bbb     C6   1401 0.67254400  12.010000   ; qtot 54.846499
 1402         c3     54    bbb     C7   1402 -0.02083000  12.010000   ; qtot 54.825669
 1403         c3     54    bbb     C8   1403 -0.03328100  12.010000   ; qtot 54.792388
 1404          n     54    bbb     N2   1404 -0.33303000  14.010000   ; qtot 54.459358
 1405          o     54    bbb     O1   1405 -0.52917200  16.000000   ; qtot 53.930186
 1406          o     54    bbb     O2   1406 -0.52917200  16.000000   ; qtot 53.401014
 1407         hx     54    bbb     H1   1407 0.11563300   1.008000   ; qtot 53.516647
 1408         hx     54    bbb     H2   1408 0.11563300   1.008000   ; qtot 53.632280
 1409         hx     54    bbb     H3   1409 0.11563300   1.008000   ; qtot 53.747913
 1410         hx     54    bbb     H4   1410 0.11563300   1.008000   ; qtot 53.863546
 1411         hc     54    bbb     H5   1411 0.08347900   1.008000   ; qtot 53.947025
 1412         hc     54    bbb     H6   1412 0.08347900   1.008000   ; qtot 54.030504
 1413         hc     54    bbb     H7   1413 0.08347900   1.008000   ; qtot 54.113983
 1414         hc     54    bbb     H8   1414 0.08347900   1.008000   ; qtot 54.197462
 1415         hx     54    bbb     H9   1415 0.07988000   1.008000   ; qtot 54.277342
 1416         hx     54    bbb    H10   1416 0.07988000   1.008000   ; qtot 54.357222
 1417         h1     54    bbb    H11   1417 0.10618100   1.008000   ; qtot 54.463403
 1418         h1     54    bbb    H12   1418 0.10618100   1.008000   ; qtot 54.569584
 1419         hn     54    bbb    H13   1419 0.25916100   1.008000   ; qtot 54.828745
 1420         hn     54    bbb    H25   1420 0.17125500   1.008000   ; qtot 55.000000
; residue   55 bbb rtp bbb q 1.0
 1421         n4     55    bbb     N1   1421 -0.02747900  14.010000   ; qtot 54.972521
 1422         c3     55    bbb     C1   1422 -0.05097600  12.010000   ; qtot 54.921545
 1423         c3     55    bbb     C2   1423 -0.05097600  12.010000   ; qtot 54.870569
 1424         c3     55    bbb     C3   1424 -0.18457900  12.010000   ; qtot 54.685990
 1425          c     55    bbb     C4   1425 0.67254400  12.010000   ; qtot 55.358534
 1426         c3     55    bbb     C5   1426 -0.18457900  12.010000   ; qtot 55.173955
 1427          c     55    bbb     C6   1427 0.67254400  12.010000   ; qtot 55.846499
 1428         c3     55    bbb     C7   1428 -0.02083000  12.010000   ; qtot 55.825669
 1429         c3     55    bbb     C8   1429 -0.03328100  12.010000   ; qtot 55.792388
 1430          n     55    bbb     N2   1430 -0.33303000  14.010000   ; qtot 55.459358
 1431          o     55    bbb     O1   1431 -0.52917200  16.000000   ; qtot 54.930186
 1432          o     55    bbb     O2   1432 -0.52917200  16.000000   ; qtot 54.401014
 1433         hx     55    bbb     H1   1433 0.11563300   1.008000   ; qtot 54.516647
 1434         hx     55    bbb     H2   1434 0.11563300   1.008000   ; qtot 54.632280
 1435         hx     55    bbb     H3   1435 0.11563300   1.008000   ; qtot 54.747913
 1436         hx     55    bbb     H4   1436 0.11563300   1.008000   ; qtot 54.863546
 1437         hc     55    bbb     H5   1437 0.08347900   1.008000   ; qtot 54.947025
 1438         hc     55    bbb     H6   1438 0.08347900   1.008000   ; qtot 55.030504
 1439         hc     55    bbb     H7   1439 0.08347900   1.008000   ; qtot 55.113983
 1440         hc     55    bbb     H8   1440 0.08347900   1.008000   ; qtot 55.197462
 1441         hx     55    bbb     H9   1441 0.07988000   1.008000   ; qtot 55.277342
 1442         hx     55    bbb    H10   1442 0.07988000   1.008000   ; qtot 55.357222
 1443         h1     55    bbb    H11   1443 0.10618100   1.008000   ; qtot 55.463403
 1444         h1     55    bbb    H12   1444 0.10618100   1.008000   ; qtot 55.569584
 1445         hn     55    bbb    H13   1445 0.25916100   1.008000   ; qtot 55.828745
 1446         hn     55    bbb    H25   1446 0.17125500   1.008000   ; qtot 56.000000
; residue   56 bbb rtp bbb q 1.0
 1447         n4     56    bbb     N1   1447 -0.02747900  14.010000   ; qtot 55.972521
 1448         c3     56    bbb     C1   1448 -0.05097600  12.010000   ; qtot 55.921545
 1449         c3     56    bbb     C2   1449 -0.05097600  12.010000   ; qtot 55.870569
 1450         c3     56    bbb     C3   1450 -0.18457900  12.010000   ; qtot 55.685990
 1451          c     56    bbb     C4   1451 0.67254400  12.010000   ; qtot 56.358534
 1452         c3     56    bbb     C5   1452 -0.18457900  12.010000   ; qtot 56.173955
 1453          c     56    bbb     C6   1453 0.67254400  12.010000   ; qtot 56.846499
 1454         c3     56    bbb     C7   1454 -0.02083000  12.010000   ; qtot 56.825669
 1455         c3     56    bbb     C8   1455 -0.03328100  12.010000   ; qtot 56.792388
 1456          n     56    bbb     N2   1456 -0.33303000  14.010000   ; qtot 56.459358
 1457          o     56    bbb     O1   1457 -0.52917200  16.000000   ; qtot 55.930186
 1458          o     56    bbb     O2   1458 -0.52917200  16.000000   ; qtot 55.401014
 1459         hx     56    bbb     H1   1459 0.11563300   1.008000   ; qtot 55.516647
 1460         hx     56    bbb     H2   1460 0.11563300   1.008000   ; qtot 55.632280
 1461         hx     56    bbb     H3   1461 0.11563300   1.008000   ; qtot 55.747913
 1462         hx     56    bbb     H4   1462 0.11563300   1.008000   ; qtot 55.863546
 1463         hc     56    bbb     H5   1463 0.08347900   1.008000   ; qtot 55.947025
 1464         hc     56    bbb     H6   1464 0.08347900   1.008000   ; qtot 56.030504
 1465         hc     56    bbb     H7   1465 0.08347900   1.008000   ; qtot 56.113983
 1466         hc     56    bbb     H8   1466 0.08347900   1.008000   ; qtot 56.197462
 1467         hx     56    bbb     H9   1467 0.07988000   1.008000   ; qtot 56.277342
 1468         hx     56    bbb    H10   1468 0.07988000   1.008000   ; qtot 56.357222
 1469         h1     56    bbb    H11   1469 0.10618100   1.008000   ; qtot 56.463403
 1470         h1     56    bbb    H12   1470 0.10618100   1.008000   ; qtot 56.569584
 1471         hn     56    bbb    H13   1471 0.25916100   1.008000   ; qtot 56.828745
 1472         hn     56    bbb    H25   1472 0.17125500   1.008000   ; qtot 57.000000
; residue   57 bbb rtp bbb q 1.0
 1473         n4     57    bbb     N1   1473 -0.02747900  14.010000   ; qtot 56.972521
 1474         c3     57    bbb     C1   1474 -0.05097600  12.010000   ; qtot 56.921545
 1475         c3     57    bbb     C2   1475 -0.05097600  12.010000   ; qtot 56.870569
 1476         c3     57    bbb     C3   1476 -0.18457900  12.010000   ; qtot 56.685990
 1477          c     57    bbb     C4   1477 0.67254400  12.010000   ; qtot 57.358534
 1478         c3     57    bbb     C5   1478 -0.18457900  12.010000   ; qtot 57.173955
 1479          c     57    bbb     C6   1479 0.67254400  12.010000   ; qtot 57.846499
 1480         c3     57    bbb     C7   1480 -0.02083000  12.010000   ; qtot 57.825669
 1481         c3     57    bbb     C8   1481 -0.03328100  12.010000   ; qtot 57.792388
 1482          n     57    bbb     N2   1482 -0.33303000  14.010000   ; qtot 57.459358
 1483          o     57    bbb     O1   1483 -0.52917200  16.000000   ; qtot 56.930186
 1484          o     57    bbb     O2   1484 -0.52917200  16.000000   ; qtot 56.401014
 1485         hx     57    bbb     H1   1485 0.11563300   1.008000   ; qtot 56.516647
 1486         hx     57    bbb     H2   1486 0.11563300   1.008000   ; qtot 56.632280
 1487         hx     57    bbb     H3   1487 0.11563300   1.008000   ; qtot 56.747913
 1488         hx     57    bbb     H4   1488 0.11563300   1.008000   ; qtot 56.863546
 1489         hc     57    bbb     H5   1489 0.08347900   1.008000   ; qtot 56.947025
 1490         hc     57    bbb     H6   1490 0.08347900   1.008000   ; qtot 57.030504
 1491         hc     57    bbb     H7   1491 0.08347900   1.008000   ; qtot 57.113983
 1492         hc     57    bbb     H8   1492 0.08347900   1.008000   ; qtot 57.197462
 1493         hx     57    bbb     H9   1493 0.07988000   1.008000   ; qtot 57.277342
 1494         hx     57    bbb    H10   1494 0.07988000   1.008000   ; qtot 57.357222
 1495         h1     57    bbb    H11   1495 0.10618100   1.008000   ; qtot 57.463403
 1496         h1     57    bbb    H12   1496 0.10618100   1.008000   ; qtot 57.569584
 1497         hn     57    bbb    H13   1497 0.25916100   1.008000   ; qtot 57.828745
 1498         hn     57    bbb    H25   1498 0.17125500   1.008000   ; qtot 58.000000
; residue   58 bbb rtp bbb q 1.0
 1499         n4     58    bbb     N1   1499 -0.02747900  14.010000   ; qtot 57.972521
 1500         c3     58    bbb     C1   1500 -0.05097600  12.010000   ; qtot 57.921545
 1501         c3     58    bbb     C2   1501 -0.05097600  12.010000   ; qtot 57.870569
 1502         c3     58    bbb     C3   1502 -0.18457900  12.010000   ; qtot 57.685990
 1503          c     58    bbb     C4   1503 0.67254400  12.010000   ; qtot 58.358534
 1504         c3     58    bbb     C5   1504 -0.18457900  12.010000   ; qtot 58.173955
 1505          c     58    bbb     C6   1505 0.67254400  12.010000   ; qtot 58.846499
 1506         c3     58    bbb     C7   1506 -0.02083000  12.010000   ; qtot 58.825669
 1507         c3     58    bbb     C8   1507 -0.03328100  12.010000   ; qtot 58.792388
 1508          n     58    bbb     N2   1508 -0.33303000  14.010000   ; qtot 58.459358
 1509          o     58    bbb     O1   1509 -0.52917200  16.000000   ; qtot 57.930186
 1510          o     58    bbb     O2   1510 -0.52917200  16.000000   ; qtot 57.401014
 1511         hx     58    bbb     H1   1511 0.11563300   1.008000   ; qtot 57.516647
 1512         hx     58    bbb     H2   1512 0.11563300   1.008000   ; qtot 57.632280
 1513         hx     58    bbb     H3   1513 0.11563300   1.008000   ; qtot 57.747913
 1514         hx     58    bbb     H4   1514 0.11563300   1.008000   ; qtot 57.863546
 1515         hc     58    bbb     H5   1515 0.08347900   1.008000   ; qtot 57.947025
 1516         hc     58    bbb     H6   1516 0.08347900   1.008000   ; qtot 58.030504
 1517         hc     58    bbb     H7   1517 0.08347900   1.008000   ; qtot 58.113983
 1518         hc     58    bbb     H8   1518 0.08347900   1.008000   ; qtot 58.197462
 1519         hx     58    bbb     H9   1519 0.07988000   1.008000   ; qtot 58.277342
 1520         hx     58    bbb    H10   1520 0.07988000   1.008000   ; qtot 58.357222
 1521         h1     58    bbb    H11   1521 0.10618100   1.008000   ; qtot 58.463403
 1522         h1     58    bbb    H12   1522 0.10618100   1.008000   ; qtot 58.569584
 1523         hn     58    bbb    H13   1523 0.25916100   1.008000   ; qtot 58.828745
 1524         hn     58    bbb    H25   1524 0.17125500   1.008000   ; qtot 59.000000
; residue   59 bbb rtp bbb q 1.0
 1525         n4     59    bbb     N1   1525 -0.02747900  14.010000   ; qtot 58.972521
 1526         c3     59    bbb     C1   1526 -0.05097600  12.010000   ; qtot 58.921545
 1527         c3     59    bbb     C2   1527 -0.05097600  12.010000   ; qtot 58.870569
 1528         c3     59    bbb     C3   1528 -0.18457900  12.010000   ; qtot 58.685990
 1529          c     59    bbb     C4   1529 0.67254400  12.010000   ; qtot 59.358534
 1530         c3     59    bbb     C5   1530 -0.18457900  12.010000   ; qtot 59.173955
 1531          c     59    bbb     C6   1531 0.67254400  12.010000   ; qtot 59.846499
 1532         c3     59    bbb     C7   1532 -0.02083000  12.010000   ; qtot 59.825669
 1533         c3     59    bbb     C8   1533 -0.03328100  12.010000   ; qtot 59.792388
 1534          n     59    bbb     N2   1534 -0.33303000  14.010000   ; qtot 59.459358
 1535          o     59    bbb     O1   1535 -0.52917200  16.000000   ; qtot 58.930186
 1536          o     59    bbb     O2   1536 -0.52917200  16.000000   ; qtot 58.401014
 1537         hx     59    bbb     H1   1537 0.11563300   1.008000   ; qtot 58.516647
 1538         hx     59    bbb     H2   1538 0.11563300   1.008000   ; qtot 58.632280
 1539         hx     59    bbb     H3   1539 0.11563300   1.008000   ; qtot 58.747913
 1540         hx     59    bbb     H4   1540 0.11563300   1.008000   ; qtot 58.863546
 1541         hc     59    bbb     H5   1541 0.08347900   1.008000   ; qtot 58.947025
 1542         hc     59    bbb     H6   1542 0.08347900   1.008000   ; qtot 59.030504
 1543         hc     59    bbb     H7   1543 0.08347900   1.008000   ; qtot 59.113983
 1544         hc     59    bbb     H8   1544 0.08347900   1.008000   ; qtot 59.197462
 1545         hx     59    bbb     H9   1545 0.07988000   1.008000   ; qtot 59.277342
 1546         hx     59    bbb    H10   1546 0.07988000   1.008000   ; qtot 59.357222
 1547         h1     59    bbb    H11   1547 0.10618100   1.008000   ; qtot 59.463403
 1548         h1     59    bbb    H12   1548 0.10618100   1.008000   ; qtot 59.569584
 1549         hn     59    bbb    H13   1549 0.25916100   1.008000   ; qtot 59.828745
 1550         hn     59    bbb    H25   1550 0.17125500   1.008000   ; qtot 60.000000
; residue   60 bbb rtp bbb q 1.0
 1551         n4     60    bbb     N1   1551 -0.02747900  14.010000   ; qtot 59.972521
 1552         c3     60    bbb     C1   1552 -0.05097600  12.010000   ; qtot 59.921545
 1553         c3     60    bbb     C2   1553 -0.05097600  12.010000   ; qtot 59.870569
 1554         c3     60    bbb     C3   1554 -0.18457900  12.010000   ; qtot 59.685990
 1555          c     60    bbb     C4   1555 0.67254400  12.010000   ; qtot 60.358534
 1556         c3     60    bbb     C5   1556 -0.18457900  12.010000   ; qtot 60.173955
 1557          c     60    bbb     C6   1557 0.67254400  12.010000   ; qtot 60.846499
 1558         c3     60    bbb     C7   1558 -0.02083000  12.010000   ; qtot 60.825669
 1559         c3     60    bbb     C8   1559 -0.03328100  12.010000   ; qtot 60.792388
 1560          n     60    bbb     N2   1560 -0.33303000  14.010000   ; qtot 60.459358
 1561          o     60    bbb     O1   1561 -0.52917200  16.000000   ; qtot 59.930186
 1562          o     60    bbb     O2   1562 -0.52917200  16.000000   ; qtot 59.401014
 1563         hx     60    bbb     H1   1563 0.11563300   1.008000   ; qtot 59.516647
 1564         hx     60    bbb     H2   1564 0.11563300   1.008000   ; qtot 59.632280
 1565         hx     60    bbb     H3   1565 0.11563300   1.008000   ; qtot 59.747913
 1566         hx     60    bbb     H4   1566 0.11563300   1.008000   ; qtot 59.863546
 1567         hc     60    bbb     H5   1567 0.08347900   1.008000   ; qtot 59.947025
 1568         hc     60    bbb     H6   1568 0.08347900   1.008000   ; qtot 60.030504
 1569         hc     60    bbb     H7   1569 0.08347900   1.008000   ; qtot 60.113983
 1570         hc     60    bbb     H8   1570 0.08347900   1.008000   ; qtot 60.197462
 1571         hx     60    bbb     H9   1571 0.07988000   1.008000   ; qtot 60.277342
 1572         hx     60    bbb    H10   1572 0.07988000   1.008000   ; qtot 60.357222
 1573         h1     60    bbb    H11   1573 0.10618100   1.008000   ; qtot 60.463403
 1574         h1     60    bbb    H12   1574 0.10618100   1.008000   ; qtot 60.569584
 1575         hn     60    bbb    H13   1575 0.25916100   1.008000   ; qtot 60.828745
 1576         hn     60    bbb    H25   1576 0.17125500   1.008000   ; qtot 61.000000
; residue   61 bbb rtp bbb q 1.0
 1577         n4     61    bbb     N1   1577 -0.02747900  14.010000   ; qtot 60.972521
 1578         c3     61    bbb     C1   1578 -0.05097600  12.010000   ; qtot 60.921545
 1579         c3     61    bbb     C2   1579 -0.05097600  12.010000   ; qtot 60.870569
 1580         c3     61    bbb     C3   1580 -0.18457900  12.010000   ; qtot 60.685990
 1581          c     61    bbb     C4   1581 0.67254400  12.010000   ; qtot 61.358534
 1582         c3     61    bbb     C5   1582 -0.18457900  12.010000   ; qtot 61.173955
 1583          c     61    bbb     C6   1583 0.67254400  12.010000   ; qtot 61.846499
 1584         c3     61    bbb     C7   1584 -0.02083000  12.010000   ; qtot 61.825669
 1585         c3     61    bbb     C8   1585 -0.03328100  12.010000   ; qtot 61.792388
 1586          n     61    bbb     N2   1586 -0.33303000  14.010000   ; qtot 61.459358
 1587          o     61    bbb     O1   1587 -0.52917200  16.000000   ; qtot 60.930186
 1588          o     61    bbb     O2   1588 -0.52917200  16.000000   ; qtot 60.401014
 1589         hx     61    bbb     H1   1589 0.11563300   1.008000   ; qtot 60.516647
 1590         hx     61    bbb     H2   1590 0.11563300   1.008000   ; qtot 60.632280
 1591         hx     61    bbb     H3   1591 0.11563300   1.008000   ; qtot 60.747913
 1592         hx     61    bbb     H4   1592 0.11563300   1.008000   ; qtot 60.863546
 1593         hc     61    bbb     H5   1593 0.08347900   1.008000   ; qtot 60.947025
 1594         hc     61    bbb     H6   1594 0.08347900   1.008000   ; qtot 61.030504
 1595         hc     61    bbb     H7   1595 0.08347900   1.008000   ; qtot 61.113983
 1596         hc     61    bbb     H8   1596 0.08347900   1.008000   ; qtot 61.197462
 1597         hx     61    bbb     H9   1597 0.07988000   1.008000   ; qtot 61.277342
 1598         hx     61    bbb    H10   1598 0.07988000   1.008000   ; qtot 61.357222
 1599         h1     61    bbb    H11   1599 0.10618100   1.008000   ; qtot 61.463403
 1600         h1     61    bbb    H12   1600 0.10618100   1.008000   ; qtot 61.569584
 1601         hn     61    bbb    H13   1601 0.25916100   1.008000   ; qtot 61.828745
 1602         hn     61    bbb    H25   1602 0.17125500   1.008000   ; qtot 62.000000
; residue   62 ccc rtp ccc q 1.0
 1603          n     62    ccc     N1   1603 -0.33303000  14.010000   ; qtot 61.666970
 1604         hn     62    ccc     H4   1604 0.25916100   1.008000   ; qtot 61.926131
 1605         c3     62    ccc     C3   1605 -0.03328100  12.010000   ; qtot 61.892850
 1606         h1     62    ccc     H5   1606 0.10618100   1.008000   ; qtot 61.999031
 1607         c3     62    ccc     C4   1607 -0.02083000  12.010000   ; qtot 61.978201
 1608         h1     62    ccc     H6   1608 0.10618100   1.008000   ; qtot 62.084382
 1609         h1     62    ccc     H7   1609 0.07988000   1.008000   ; qtot 62.164262
 1610         h1     62    ccc     H8   1610 0.07988000   1.008000   ; qtot 62.244142
 1611         n4     62    ccc     N2   1611 -0.02747900  14.010000   ; qtot 62.216663
 1612         c3     62    ccc     C5   1612 -0.05097600  12.010000   ; qtot 62.165687
 1613         c3     62    ccc     C6   1613 -0.05097600  12.010000   ; qtot 62.114711
 1614         h1     62    ccc     H9   1614 0.11563300   1.008000   ; qtot 62.230344
 1615         c3     62    ccc     C7   1615 -0.18457900  12.010000   ; qtot 62.045765
 1616         h1     62    ccc    H10   1616 0.11563300   1.008000   ; qtot 62.161398
 1617         hc     62    ccc    H11   1617 0.08347900   1.008000   ; qtot 62.244877
 1618         hc     62    ccc    H12   1618 0.08347900   1.008000   ; qtot 62.328356
 1619          c     62    ccc     C8   1619 0.67254400  12.010000   ; qtot 63.000900
 1620          o     62    ccc     O2   1620 -0.52917200  16.000000   ; qtot 62.471728
 1621         h1     62    ccc    H13   1621 0.11563300   1.008000   ; qtot 62.587361
 1622         h1     62    ccc    H14   1622 0.11563300   1.008000   ; qtot 62.702994
 1623         c3     62    ccc     C9   1623 -0.18457900  12.010000   ; qtot 62.518415
 1624         hc     62    ccc    H15   1624 0.08347900   1.008000   ; qtot 62.601894
 1625         hc     62    ccc    H16   1625 0.08347900   1.008000   ; qtot 62.685373
 1626          c     62    ccc    C10   1626 0.67254400  12.010000   ; qtot 63.357917
 1627          o     62    ccc     O4   1627 -0.52917200  16.000000   ; qtot 62.828745
 1628         c3     62    ccc    C11   1628 0.08518000  12.010000   ; qtot 62.913925
 1629         c3     62    ccc    C12   1629 0.07918000  12.010000   ; qtot 62.993105
 1630         h1     62    ccc    H17   1630 0.06978000   1.008000   ; qtot 63.062885
 1631         c3     62    ccc    C13   1631 0.07918000  12.010000   ; qtot 63.142065
 1632         c3     62    ccc    C14   1632 0.03578000  12.010000   ; qtot 63.177845
 1633         c3     62    ccc    C15   1633 0.33498000  12.010000   ; qtot 63.512825
 1634         h1     62    ccc    H18   1634 0.06178000   1.008000   ; qtot 63.574605
 1635         h1     62    ccc    H19   1635 0.11278000   1.008000   ; qtot 63.687385
 1636         h2     62    ccc    H20   1636 0.12178000   1.008000   ; qtot 63.809165
 1637         oh     62    ccc     O1   1637 -0.56972000  16.000000   ; qtot 63.239445
 1638         oh     62    ccc     O6   1638 -0.57772000  16.000000   ; qtot 62.661725
 1639         c3     62    ccc    C16   1639 0.14548000  12.010000   ; qtot 62.807205
 1640         ho     62    ccc    H21   1640 0.40508000   1.008000   ; qtot 63.212285
 1641         hn     62    ccc    H22   1641 0.31758000   1.008000   ; qtot 63.529865
 1642         h1     62    ccc    H23   1642 0.06278000   1.008000   ; qtot 63.592645
 1643         h1     62    ccc    H24   1643 0.06278000   1.008000   ; qtot 63.655425
 1644         oh     62    ccc     O7   1644 -0.59472000  16.000000   ; qtot 63.060705
 1645         ho     62    ccc    H25   1645 0.41908000   1.008000   ; qtot 63.479785
 1646         os     62    ccc     O8   1646 -0.44552000  16.000000   ; qtot 63.034265
 1647         ho     62    ccc    H26   1647 0.41908000   1.008000   ; qtot 63.453345
 1648         h1     62    ccc    H27   1648 0.08578000   1.008000   ; qtot 63.539125
 1649         oh     62    ccc     O9   1649 -0.58672000  16.000000   ; qtot 62.952405
 1650         ho     62    ccc    H28   1650 0.41908000   1.008000   ; qtot 63.371485
 1651         n3     62    ccc     N3   1651 -0.54282000  14.010000   ; qtot 62.828665
 1652         c3     62    ccc    C17   1652 0.08518000  12.010000   ; qtot 62.913845
 1653         c3     62    ccc    C18   1653 0.07918000  12.010000   ; qtot 62.993025
 1654         h1     62    ccc    H29   1654 0.06978000   1.008000   ; qtot 63.062805
 1655         c3     62    ccc    C19   1655 0.07918000  12.010000   ; qtot 63.141985
 1656         c3     62    ccc    C20   1656 0.03578000  12.010000   ; qtot 63.177765
 1657         c3     62    ccc    C21   1657 0.33498000  12.010000   ; qtot 63.512745
 1658         h1     62    ccc    H30   1658 0.06178000   1.008000   ; qtot 63.574525
 1659         h1     62    ccc    H31   1659 0.11278000   1.008000   ; qtot 63.687305
 1660         h2     62    ccc    H32   1660 0.12178000   1.008000   ; qtot 63.809085
 1661         oh     62    ccc    O10   1661 -0.56972000  16.000000   ; qtot 63.239365
 1662         oh     62    ccc    O11   1662 -0.57772000  16.000000   ; qtot 62.661645
 1663         c3     62    ccc    C22   1663 0.14548000  12.010000   ; qtot 62.807125
 1664         ho     62    ccc    H33   1664 0.40508000   1.008000   ; qtot 63.212205
 1665         hn     62    ccc    H34   1665 0.31758000   1.008000   ; qtot 63.529785
 1666         h1     62    ccc    H35   1666 0.06278000   1.008000   ; qtot 63.592565
 1667         h1     62    ccc    H36   1667 0.06278000   1.008000   ; qtot 63.655345
 1668         oh     62    ccc    O12   1668 -0.59472000  16.000000   ; qtot 63.060625
 1669         ho     62    ccc    H37   1669 0.41908000   1.008000   ; qtot 63.479705
 1670         os     62    ccc    O13   1670 -0.44552000  16.000000   ; qtot 63.034185
 1671         ho     62    ccc    H38   1671 0.41908000   1.008000   ; qtot 63.453265
 1672         h1     62    ccc    H39   1672 0.08578000   1.008000   ; qtot 63.539045
 1673         oh     62    ccc     O5   1673 -0.58672000  16.000000   ; qtot 62.952325
 1674         ho     62    ccc    H40   1674 0.41908000   1.008000   ; qtot 63.371405
 1675         n3     62    ccc     N4   1675 -0.54282000  14.010000   ; qtot 62.828585
 1676         hn     62    ccc    H41   1676 0.17125500   1.008000   ; qtot 62.999840
; residue   63 ccc rtp ccc q 1.0
 1677          n     63    ccc     N1   1677 -0.33303000  14.010000   ; qtot 62.666810
 1678         hn     63    ccc     H4   1678 0.25916100   1.008000   ; qtot 62.925971
 1679         c3     63    ccc     C3   1679 -0.03328100  12.010000   ; qtot 62.892690
 1680         h1     63    ccc     H5   1680 0.10618100   1.008000   ; qtot 62.998871
 1681         c3     63    ccc     C4   1681 -0.02083000  12.010000   ; qtot 62.978041
 1682         h1     63    ccc     H6   1682 0.10618100   1.008000   ; qtot 63.084222
 1683         h1     63    ccc     H7   1683 0.07988000   1.008000   ; qtot 63.164102
 1684         h1     63    ccc     H8   1684 0.07988000   1.008000   ; qtot 63.243982
 1685         n4     63    ccc     N2   1685 -0.02747900  14.010000   ; qtot 63.216503
 1686         c3     63    ccc     C5   1686 -0.05097600  12.010000   ; qtot 63.165527
 1687         c3     63    ccc     C6   1687 -0.05097600  12.010000   ; qtot 63.114551
 1688         h1     63    ccc     H9   1688 0.11563300   1.008000   ; qtot 63.230184
 1689         c3     63    ccc     C7   1689 -0.18457900  12.010000   ; qtot 63.045605
 1690         h1     63    ccc    H10   1690 0.11563300   1.008000   ; qtot 63.161238
 1691         hc     63    ccc    H11   1691 0.08347900   1.008000   ; qtot 63.244717
 1692         hc     63    ccc    H12   1692 0.08347900   1.008000   ; qtot 63.328196
 1693          c     63    ccc     C8   1693 0.67254400  12.010000   ; qtot 64.000740
 1694          o     63    ccc     O2   1694 -0.52917200  16.000000   ; qtot 63.471568
 1695         h1     63    ccc    H13   1695 0.11563300   1.008000   ; qtot 63.587201
 1696         h1     63    ccc    H14   1696 0.11563300   1.008000   ; qtot 63.702834
 1697         c3     63    ccc     C9   1697 -0.18457900  12.010000   ; qtot 63.518255
 1698         hc     63    ccc    H15   1698 0.08347900   1.008000   ; qtot 63.601734
 1699         hc     63    ccc    H16   1699 0.08347900   1.008000   ; qtot 63.685213
 1700          c     63    ccc    C10   1700 0.67254400  12.010000   ; qtot 64.357757
 1701          o     63    ccc     O4   1701 -0.52917200  16.000000   ; qtot 63.828585
 1702         c3     63    ccc    C11   1702 0.08518000  12.010000   ; qtot 63.913765
 1703         c3     63    ccc    C12   1703 0.07918000  12.010000   ; qtot 63.992945
 1704         h1     63    ccc    H17   1704 0.06978000   1.008000   ; qtot 64.062725
 1705         c3     63    ccc    C13   1705 0.07918000  12.010000   ; qtot 64.141905
 1706         c3     63    ccc    C14   1706 0.03578000  12.010000   ; qtot 64.177685
 1707         c3     63    ccc    C15   1707 0.33498000  12.010000   ; qtot 64.512665
 1708         h1     63    ccc    H18   1708 0.06178000   1.008000   ; qtot 64.574445
 1709         h1     63    ccc    H19   1709 0.11278000   1.008000   ; qtot 64.687225
 1710         h2     63    ccc    H20   1710 0.12178000   1.008000   ; qtot 64.809005
 1711         oh     63    ccc     O1   1711 -0.56972000  16.000000   ; qtot 64.239285
 1712         oh     63    ccc     O6   1712 -0.57772000  16.000000   ; qtot 63.661565
 1713         c3     63    ccc    C16   1713 0.14548000  12.010000   ; qtot 63.807045
 1714         ho     63    ccc    H21   1714 0.40508000   1.008000   ; qtot 64.212125
 1715         hn     63    ccc    H22   1715 0.31758000   1.008000   ; qtot 64.529705
 1716         h1     63    ccc    H23   1716 0.06278000   1.008000   ; qtot 64.592485
 1717         h1     63    ccc    H24   1717 0.06278000   1.008000   ; qtot 64.655265
 1718         oh     63    ccc     O7   1718 -0.59472000  16.000000   ; qtot 64.060545
 1719         ho     63    ccc    H25   1719 0.41908000   1.008000   ; qtot 64.479625
 1720         os     63    ccc     O8   1720 -0.44552000  16.000000   ; qtot 64.034105
 1721         ho     63    ccc    H26   1721 0.41908000   1.008000   ; qtot 64.453185
 1722         h1     63    ccc    H27   1722 0.08578000   1.008000   ; qtot 64.538965
 1723         oh     63    ccc     O9   1723 -0.58672000  16.000000   ; qtot 63.952245
 1724         ho     63    ccc    H28   1724 0.41908000   1.008000   ; qtot 64.371325
 1725         n3     63    ccc     N3   1725 -0.54282000  14.010000   ; qtot 63.828505
 1726         c3     63    ccc    C17   1726 0.08518000  12.010000   ; qtot 63.913685
 1727         c3     63    ccc    C18   1727 0.07918000  12.010000   ; qtot 63.992865
 1728         h1     63    ccc    H29   1728 0.06978000   1.008000   ; qtot 64.062645
 1729         c3     63    ccc    C19   1729 0.07918000  12.010000   ; qtot 64.141825
 1730         c3     63    ccc    C20   1730 0.03578000  12.010000   ; qtot 64.177605
 1731         c3     63    ccc    C21   1731 0.33498000  12.010000   ; qtot 64.512585
 1732         h1     63    ccc    H30   1732 0.06178000   1.008000   ; qtot 64.574365
 1733         h1     63    ccc    H31   1733 0.11278000   1.008000   ; qtot 64.687145
 1734         h2     63    ccc    H32   1734 0.12178000   1.008000   ; qtot 64.808925
 1735         oh     63    ccc    O10   1735 -0.56972000  16.000000   ; qtot 64.239205
 1736         oh     63    ccc    O11   1736 -0.57772000  16.000000   ; qtot 63.661485
 1737         c3     63    ccc    C22   1737 0.14548000  12.010000   ; qtot 63.806965
 1738         ho     63    ccc    H33   1738 0.40508000   1.008000   ; qtot 64.212045
 1739         hn     63    ccc    H34   1739 0.31758000   1.008000   ; qtot 64.529625
 1740         h1     63    ccc    H35   1740 0.06278000   1.008000   ; qtot 64.592405
 1741         h1     63    ccc    H36   1741 0.06278000   1.008000   ; qtot 64.655185
 1742         oh     63    ccc    O12   1742 -0.59472000  16.000000   ; qtot 64.060465
 1743         ho     63    ccc    H37   1743 0.41908000   1.008000   ; qtot 64.479545
 1744         os     63    ccc    O13   1744 -0.44552000  16.000000   ; qtot 64.034025
 1745         ho     63    ccc    H38   1745 0.41908000   1.008000   ; qtot 64.453105
 1746         h1     63    ccc    H39   1746 0.08578000   1.008000   ; qtot 64.538885
 1747         oh     63    ccc     O5   1747 -0.58672000  16.000000   ; qtot 63.952165
 1748         ho     63    ccc    H40   1748 0.41908000   1.008000   ; qtot 64.371245
 1749         n3     63    ccc     N4   1749 -0.54282000  14.010000   ; qtot 63.828425
 1750         hn     63    ccc    H41   1750 0.17125500   1.008000   ; qtot 63.999680
; residue   64 ccc rtp ccc q 1.0
 1751          n     64    ccc     N1   1751 -0.33303000  14.010000   ; qtot 63.666650
 1752         hn     64    ccc     H4   1752 0.25916100   1.008000   ; qtot 63.925811
 1753         c3     64    ccc     C3   1753 -0.03328100  12.010000   ; qtot 63.892530
 1754         h1     64    ccc     H5   1754 0.10618100   1.008000   ; qtot 63.998711
 1755         c3     64    ccc     C4   1755 -0.02083000  12.010000   ; qtot 63.977881
 1756         h1     64    ccc     H6   1756 0.10618100   1.008000   ; qtot 64.084062
 1757         h1     64    ccc     H7   1757 0.07988000   1.008000   ; qtot 64.163942
 1758         h1     64    ccc     H8   1758 0.07988000   1.008000   ; qtot 64.243822
 1759         n4     64    ccc     N2   1759 -0.02747900  14.010000   ; qtot 64.216343
 1760         c3     64    ccc     C5   1760 -0.05097600  12.010000   ; qtot 64.165367
 1761         c3     64    ccc     C6   1761 -0.05097600  12.010000   ; qtot 64.114391
 1762         h1     64    ccc     H9   1762 0.11563300   1.008000   ; qtot 64.230024
 1763         c3     64    ccc     C7   1763 -0.18457900  12.010000   ; qtot 64.045445
 1764         h1     64    ccc    H10   1764 0.11563300   1.008000   ; qtot 64.161078
 1765         hc     64    ccc    H11   1765 0.08347900   1.008000   ; qtot 64.244557
 1766         hc     64    ccc    H12   1766 0.08347900   1.008000   ; qtot 64.328036
 1767          c     64    ccc     C8   1767 0.67254400  12.010000   ; qtot 65.000580
 1768          o     64    ccc     O2   1768 -0.52917200  16.000000   ; qtot 64.471408
 1769         h1     64    ccc    H13   1769 0.11563300   1.008000   ; qtot 64.587041
 1770         h1     64    ccc    H14   1770 0.11563300   1.008000   ; qtot 64.702674
 1771         c3     64    ccc     C9   1771 -0.18457900  12.010000   ; qtot 64.518095
 1772         hc     64    ccc    H15   1772 0.08347900   1.008000   ; qtot 64.601574
 1773         hc     64    ccc    H16   1773 0.08347900   1.008000   ; qtot 64.685053
 1774          c     64    ccc    C10   1774 0.67254400  12.010000   ; qtot 65.357597
 1775          o     64    ccc     O4   1775 -0.52917200  16.000000   ; qtot 64.828425
 1776         c3     64    ccc    C11   1776 0.08518000  12.010000   ; qtot 64.913605
 1777         c3     64    ccc    C12   1777 0.07918000  12.010000   ; qtot 64.992785
 1778         h1     64    ccc    H17   1778 0.06978000   1.008000   ; qtot 65.062565
 1779         c3     64    ccc    C13   1779 0.07918000  12.010000   ; qtot 65.141745
 1780         c3     64    ccc    C14   1780 0.03578000  12.010000   ; qtot 65.177525
 1781         c3     64    ccc    C15   1781 0.33498000  12.010000   ; qtot 65.512505
 1782         h1     64    ccc    H18   1782 0.06178000   1.008000   ; qtot 65.574285
 1783         h1     64    ccc    H19   1783 0.11278000   1.008000   ; qtot 65.687065
 1784         h2     64    ccc    H20   1784 0.12178000   1.008000   ; qtot 65.808845
 1785         oh     64    ccc     O1   1785 -0.56972000  16.000000   ; qtot 65.239125
 1786         oh     64    ccc     O6   1786 -0.57772000  16.000000   ; qtot 64.661405
 1787         c3     64    ccc    C16   1787 0.14548000  12.010000   ; qtot 64.806885
 1788         ho     64    ccc    H21   1788 0.40508000   1.008000   ; qtot 65.211965
 1789         hn     64    ccc    H22   1789 0.31758000   1.008000   ; qtot 65.529545
 1790         h1     64    ccc    H23   1790 0.06278000   1.008000   ; qtot 65.592325
 1791         h1     64    ccc    H24   1791 0.06278000   1.008000   ; qtot 65.655105
 1792         oh     64    ccc     O7   1792 -0.59472000  16.000000   ; qtot 65.060385
 1793         ho     64    ccc    H25   1793 0.41908000   1.008000   ; qtot 65.479465
 1794         os     64    ccc     O8   1794 -0.44552000  16.000000   ; qtot 65.033945
 1795         ho     64    ccc    H26   1795 0.41908000   1.008000   ; qtot 65.453025
 1796         h1     64    ccc    H27   1796 0.08578000   1.008000   ; qtot 65.538805
 1797         oh     64    ccc     O9   1797 -0.58672000  16.000000   ; qtot 64.952085
 1798         ho     64    ccc    H28   1798 0.41908000   1.008000   ; qtot 65.371165
 1799         n3     64    ccc     N3   1799 -0.54282000  14.010000   ; qtot 64.828345
 1800         c3     64    ccc    C17   1800 0.08518000  12.010000   ; qtot 64.913525
 1801         c3     64    ccc    C18   1801 0.07918000  12.010000   ; qtot 64.992705
 1802         h1     64    ccc    H29   1802 0.06978000   1.008000   ; qtot 65.062485
 1803         c3     64    ccc    C19   1803 0.07918000  12.010000   ; qtot 65.141665
 1804         c3     64    ccc    C20   1804 0.03578000  12.010000   ; qtot 65.177445
 1805         c3     64    ccc    C21   1805 0.33498000  12.010000   ; qtot 65.512425
 1806         h1     64    ccc    H30   1806 0.06178000   1.008000   ; qtot 65.574205
 1807         h1     64    ccc    H31   1807 0.11278000   1.008000   ; qtot 65.686985
 1808         h2     64    ccc    H32   1808 0.12178000   1.008000   ; qtot 65.808765
 1809         oh     64    ccc    O10   1809 -0.56972000  16.000000   ; qtot 65.239045
 1810         oh     64    ccc    O11   1810 -0.57772000  16.000000   ; qtot 64.661325
 1811         c3     64    ccc    C22   1811 0.14548000  12.010000   ; qtot 64.806805
 1812         ho     64    ccc    H33   1812 0.40508000   1.008000   ; qtot 65.211885
 1813         hn     64    ccc    H34   1813 0.31758000   1.008000   ; qtot 65.529465
 1814         h1     64    ccc    H35   1814 0.06278000   1.008000   ; qtot 65.592245
 1815         h1     64    ccc    H36   1815 0.06278000   1.008000   ; qtot 65.655025
 1816         oh     64    ccc    O12   1816 -0.59472000  16.000000   ; qtot 65.060305
 1817         ho     64    ccc    H37   1817 0.41908000   1.008000   ; qtot 65.479385
 1818         os     64    ccc    O13   1818 -0.44552000  16.000000   ; qtot 65.033865
 1819         ho     64    ccc    H38   1819 0.41908000   1.008000   ; qtot 65.452945
 1820         h1     64    ccc    H39   1820 0.08578000   1.008000   ; qtot 65.538725
 1821         oh     64    ccc     O5   1821 -0.58672000  16.000000   ; qtot 64.952005
 1822         ho     64    ccc    H40   1822 0.41908000   1.008000   ; qtot 65.371085
 1823         n3     64    ccc     N4   1823 -0.54282000  14.010000   ; qtot 64.828265
 1824         hn     64    ccc    H41   1824 0.17125500   1.008000   ; qtot 64.999520
; residue   65 ccc rtp ccc q 1.0
 1825          n     65    ccc     N1   1825 -0.33303000  14.010000   ; qtot 64.666490
 1826         hn     65    ccc     H4   1826 0.25916100   1.008000   ; qtot 64.925651
 1827         c3     65    ccc     C3   1827 -0.03328100  12.010000   ; qtot 64.892370
 1828         h1     65    ccc     H5   1828 0.10618100   1.008000   ; qtot 64.998551
 1829         c3     65    ccc     C4   1829 -0.02083000  12.010000   ; qtot 64.977721
 1830         h1     65    ccc     H6   1830 0.10618100   1.008000   ; qtot 65.083902
 1831         h1     65    ccc     H7   1831 0.07988000   1.008000   ; qtot 65.163782
 1832         h1     65    ccc     H8   1832 0.07988000   1.008000   ; qtot 65.243662
 1833         n4     65    ccc     N2   1833 -0.02747900  14.010000   ; qtot 65.216183
 1834         c3     65    ccc     C5   1834 -0.05097600  12.010000   ; qtot 65.165207
 1835         c3     65    ccc     C6   1835 -0.05097600  12.010000   ; qtot 65.114231
 1836         h1     65    ccc     H9   1836 0.11563300   1.008000   ; qtot 65.229864
 1837         c3     65    ccc     C7   1837 -0.18457900  12.010000   ; qtot 65.045285
 1838         h1     65    ccc    H10   1838 0.11563300   1.008000   ; qtot 65.160918
 1839         hc     65    ccc    H11   1839 0.08347900   1.008000   ; qtot 65.244397
 1840         hc     65    ccc    H12   1840 0.08347900   1.008000   ; qtot 65.327876
 1841          c     65    ccc     C8   1841 0.67254400  12.010000   ; qtot 66.000420
 1842          o     65    ccc     O2   1842 -0.52917200  16.000000   ; qtot 65.471248
 1843         h1     65    ccc    H13   1843 0.11563300   1.008000   ; qtot 65.586881
 1844         h1     65    ccc    H14   1844 0.11563300   1.008000   ; qtot 65.702514
 1845         c3     65    ccc     C9   1845 -0.18457900  12.010000   ; qtot 65.517935
 1846         hc     65    ccc    H15   1846 0.08347900   1.008000   ; qtot 65.601414
 1847         hc     65    ccc    H16   1847 0.08347900   1.008000   ; qtot 65.684893
 1848          c     65    ccc    C10   1848 0.67254400  12.010000   ; qtot 66.357437
 1849          o     65    ccc     O4   1849 -0.52917200  16.000000   ; qtot 65.828265
 1850         c3     65    ccc    C11   1850 0.08518000  12.010000   ; qtot 65.913445
 1851         c3     65    ccc    C12   1851 0.07918000  12.010000   ; qtot 65.992625
 1852         h1     65    ccc    H17   1852 0.06978000   1.008000   ; qtot 66.062405
 1853         c3     65    ccc    C13   1853 0.07918000  12.010000   ; qtot 66.141585
 1854         c3     65    ccc    C14   1854 0.03578000  12.010000   ; qtot 66.177365
 1855         c3     65    ccc    C15   1855 0.33498000  12.010000   ; qtot 66.512345
 1856         h1     65    ccc    H18   1856 0.06178000   1.008000   ; qtot 66.574125
 1857         h1     65    ccc    H19   1857 0.11278000   1.008000   ; qtot 66.686905
 1858         h2     65    ccc    H20   1858 0.12178000   1.008000   ; qtot 66.808685
 1859         oh     65    ccc     O1   1859 -0.56972000  16.000000   ; qtot 66.238965
 1860         oh     65    ccc     O6   1860 -0.57772000  16.000000   ; qtot 65.661245
 1861         c3     65    ccc    C16   1861 0.14548000  12.010000   ; qtot 65.806725
 1862         ho     65    ccc    H21   1862 0.40508000   1.008000   ; qtot 66.211805
 1863         hn     65    ccc    H22   1863 0.31758000   1.008000   ; qtot 66.529385
 1864         h1     65    ccc    H23   1864 0.06278000   1.008000   ; qtot 66.592165
 1865         h1     65    ccc    H24   1865 0.06278000   1.008000   ; qtot 66.654945
 1866         oh     65    ccc     O7   1866 -0.59472000  16.000000   ; qtot 66.060225
 1867         ho     65    ccc    H25   1867 0.41908000   1.008000   ; qtot 66.479305
 1868         os     65    ccc     O8   1868 -0.44552000  16.000000   ; qtot 66.033785
 1869         ho     65    ccc    H26   1869 0.41908000   1.008000   ; qtot 66.452865
 1870         h1     65    ccc    H27   1870 0.08578000   1.008000   ; qtot 66.538645
 1871         oh     65    ccc     O9   1871 -0.58672000  16.000000   ; qtot 65.951925
 1872         ho     65    ccc    H28   1872 0.41908000   1.008000   ; qtot 66.371005
 1873         n3     65    ccc     N3   1873 -0.54282000  14.010000   ; qtot 65.828185
 1874         c3     65    ccc    C17   1874 0.08518000  12.010000   ; qtot 65.913365
 1875         c3     65    ccc    C18   1875 0.07918000  12.010000   ; qtot 65.992545
 1876         h1     65    ccc    H29   1876 0.06978000   1.008000   ; qtot 66.062325
 1877         c3     65    ccc    C19   1877 0.07918000  12.010000   ; qtot 66.141505
 1878         c3     65    ccc    C20   1878 0.03578000  12.010000   ; qtot 66.177285
 1879         c3     65    ccc    C21   1879 0.33498000  12.010000   ; qtot 66.512265
 1880         h1     65    ccc    H30   1880 0.06178000   1.008000   ; qtot 66.574045
 1881         h1     65    ccc    H31   1881 0.11278000   1.008000   ; qtot 66.686825
 1882         h2     65    ccc    H32   1882 0.12178000   1.008000   ; qtot 66.808605
 1883         oh     65    ccc    O10   1883 -0.56972000  16.000000   ; qtot 66.238885
 1884         oh     65    ccc    O11   1884 -0.57772000  16.000000   ; qtot 65.661165
 1885         c3     65    ccc    C22   1885 0.14548000  12.010000   ; qtot 65.806645
 1886         ho     65    ccc    H33   1886 0.40508000   1.008000   ; qtot 66.211725
 1887         hn     65    ccc    H34   1887 0.31758000   1.008000   ; qtot 66.529305
 1888         h1     65    ccc    H35   1888 0.06278000   1.008000   ; qtot 66.592085
 1889         h1     65    ccc    H36   1889 0.06278000   1.008000   ; qtot 66.654865
 1890         oh     65    ccc    O12   1890 -0.59472000  16.000000   ; qtot 66.060145
 1891         ho     65    ccc    H37   1891 0.41908000   1.008000   ; qtot 66.479225
 1892         os     65    ccc    O13   1892 -0.44552000  16.000000   ; qtot 66.033705
 1893         ho     65    ccc    H38   1893 0.41908000   1.008000   ; qtot 66.452785
 1894         h1     65    ccc    H39   1894 0.08578000   1.008000   ; qtot 66.538565
 1895         oh     65    ccc     O5   1895 -0.58672000  16.000000   ; qtot 65.951845
 1896         ho     65    ccc    H40   1896 0.41908000   1.008000   ; qtot 66.370925
 1897         n3     65    ccc     N4   1897 -0.54282000  14.010000   ; qtot 65.828105
 1898         hn     65    ccc    H41   1898 0.17125500   1.008000   ; qtot 65.999360
; residue   66 ccc rtp ccc q 1.0
 1899          n     66    ccc     N1   1899 -0.33303000  14.010000   ; qtot 65.666330
 1900         hn     66    ccc     H4   1900 0.25916100   1.008000   ; qtot 65.925491
 1901         c3     66    ccc     C3   1901 -0.03328100  12.010000   ; qtot 65.892210
 1902         h1     66    ccc     H5   1902 0.10618100   1.008000   ; qtot 65.998391
 1903         c3     66    ccc     C4   1903 -0.02083000  12.010000   ; qtot 65.977561
 1904         h1     66    ccc     H6   1904 0.10618100   1.008000   ; qtot 66.083742
 1905         h1     66    ccc     H7   1905 0.07988000   1.008000   ; qtot 66.163622
 1906         h1     66    ccc     H8   1906 0.07988000   1.008000   ; qtot 66.243502
 1907         n4     66    ccc     N2   1907 -0.02747900  14.010000   ; qtot 66.216023
 1908         c3     66    ccc     C5   1908 -0.05097600  12.010000   ; qtot 66.165047
 1909         c3     66    ccc     C6   1909 -0.05097600  12.010000   ; qtot 66.114071
 1910         h1     66    ccc     H9   1910 0.11563300   1.008000   ; qtot 66.229704
 1911         c3     66    ccc     C7   1911 -0.18457900  12.010000   ; qtot 66.045125
 1912         h1     66    ccc    H10   1912 0.11563300   1.008000   ; qtot 66.160758
 1913         hc     66    ccc    H11   1913 0.08347900   1.008000   ; qtot 66.244237
 1914         hc     66    ccc    H12   1914 0.08347900   1.008000   ; qtot 66.327716
 1915          c     66    ccc     C8   1915 0.67254400  12.010000   ; qtot 67.000260
 1916          o     66    ccc     O2   1916 -0.52917200  16.000000   ; qtot 66.471088
 1917         h1     66    ccc    H13   1917 0.11563300   1.008000   ; qtot 66.586721
 1918         h1     66    ccc    H14   1918 0.11563300   1.008000   ; qtot 66.702354
 1919         c3     66    ccc     C9   1919 -0.18457900  12.010000   ; qtot 66.517775
 1920         hc     66    ccc    H15   1920 0.08347900   1.008000   ; qtot 66.601254
 1921         hc     66    ccc    H16   1921 0.08347900   1.008000   ; qtot 66.684733
 1922          c     66    ccc    C10   1922 0.67254400  12.010000   ; qtot 67.357277
 1923          o     66    ccc     O4   1923 -0.52917200  16.000000   ; qtot 66.828105
 1924         c3     66    ccc    C11   1924 0.08518000  12.010000   ; qtot 66.913285
 1925         c3     66    ccc    C12   1925 0.07918000  12.010000   ; qtot 66.992465
 1926         h1     66    ccc    H17   1926 0.06978000   1.008000   ; qtot 67.062245
 1927         c3     66    ccc    C13   1927 0.07918000  12.010000   ; qtot 67.141425
 1928         c3     66    ccc    C14   1928 0.03578000  12.010000   ; qtot 67.177205
 1929         c3     66    ccc    C15   1929 0.33498000  12.010000   ; qtot 67.512185
 1930         h1     66    ccc    H18   1930 0.06178000   1.008000   ; qtot 67.573965
 1931         h1     66    ccc    H19   1931 0.11278000   1.008000   ; qtot 67.686745
 1932         h2     66    ccc    H20   1932 0.12178000   1.008000   ; qtot 67.808525
 1933         oh     66    ccc     O1   1933 -0.56972000  16.000000   ; qtot 67.238805
 1934         oh     66    ccc     O6   1934 -0.57772000  16.000000   ; qtot 66.661085
 1935         c3     66    ccc    C16   1935 0.14548000  12.010000   ; qtot 66.806565
 1936         ho     66    ccc    H21   1936 0.40508000   1.008000   ; qtot 67.211645
 1937         hn     66    ccc    H22   1937 0.31758000   1.008000   ; qtot 67.529225
 1938         h1     66    ccc    H23   1938 0.06278000   1.008000   ; qtot 67.592005
 1939         h1     66    ccc    H24   1939 0.06278000   1.008000   ; qtot 67.654785
 1940         oh     66    ccc     O7   1940 -0.59472000  16.000000   ; qtot 67.060065
 1941         ho     66    ccc    H25   1941 0.41908000   1.008000   ; qtot 67.479145
 1942         os     66    ccc     O8   1942 -0.44552000  16.000000   ; qtot 67.033625
 1943         ho     66    ccc    H26   1943 0.41908000   1.008000   ; qtot 67.452705
 1944         h1     66    ccc    H27   1944 0.08578000   1.008000   ; qtot 67.538485
 1945         oh     66    ccc     O9   1945 -0.58672000  16.000000   ; qtot 66.951765
 1946         ho     66    ccc    H28   1946 0.41908000   1.008000   ; qtot 67.370845
 1947         n3     66    ccc     N3   1947 -0.54282000  14.010000   ; qtot 66.828025
 1948         c3     66    ccc    C17   1948 0.08518000  12.010000   ; qtot 66.913205
 1949         c3     66    ccc    C18   1949 0.07918000  12.010000   ; qtot 66.992385
 1950         h1     66    ccc    H29   1950 0.06978000   1.008000   ; qtot 67.062165
 1951         c3     66    ccc    C19   1951 0.07918000  12.010000   ; qtot 67.141345
 1952         c3     66    ccc    C20   1952 0.03578000  12.010000   ; qtot 67.177125
 1953         c3     66    ccc    C21   1953 0.33498000  12.010000   ; qtot 67.512105
 1954         h1     66    ccc    H30   1954 0.06178000   1.008000   ; qtot 67.573885
 1955         h1     66    ccc    H31   1955 0.11278000   1.008000   ; qtot 67.686665
 1956         h2     66    ccc    H32   1956 0.12178000   1.008000   ; qtot 67.808445
 1957         oh     66    ccc    O10   1957 -0.56972000  16.000000   ; qtot 67.238725
 1958         oh     66    ccc    O11   1958 -0.57772000  16.000000   ; qtot 66.661005
 1959         c3     66    ccc    C22   1959 0.14548000  12.010000   ; qtot 66.806485
 1960         ho     66    ccc    H33   1960 0.40508000   1.008000   ; qtot 67.211565
 1961         hn     66    ccc    H34   1961 0.31758000   1.008000   ; qtot 67.529145
 1962         h1     66    ccc    H35   1962 0.06278000   1.008000   ; qtot 67.591925
 1963         h1     66    ccc    H36   1963 0.06278000   1.008000   ; qtot 67.654705
 1964         oh     66    ccc    O12   1964 -0.59472000  16.000000   ; qtot 67.059985
 1965         ho     66    ccc    H37   1965 0.41908000   1.008000   ; qtot 67.479065
 1966         os     66    ccc    O13   1966 -0.44552000  16.000000   ; qtot 67.033545
 1967         ho     66    ccc    H38   1967 0.41908000   1.008000   ; qtot 67.452625
 1968         h1     66    ccc    H39   1968 0.08578000   1.008000   ; qtot 67.538405
 1969         oh     66    ccc     O5   1969 -0.58672000  16.000000   ; qtot 66.951685
 1970         ho     66    ccc    H40   1970 0.41908000   1.008000   ; qtot 67.370765
 1971         n3     66    ccc     N4   1971 -0.54282000  14.010000   ; qtot 66.827945
 1972         hn     66    ccc    H41   1972 0.17125500   1.008000   ; qtot 66.999200
; residue   67 ccc rtp ccc q 1.0
 1973          n     67    ccc     N1   1973 -0.33303000  14.010000   ; qtot 66.666170
 1974         hn     67    ccc     H4   1974 0.25916100   1.008000   ; qtot 66.925331
 1975         c3     67    ccc     C3   1975 -0.03328100  12.010000   ; qtot 66.892050
 1976         h1     67    ccc     H5   1976 0.10618100   1.008000   ; qtot 66.998231
 1977         c3     67    ccc     C4   1977 -0.02083000  12.010000   ; qtot 66.977401
 1978         h1     67    ccc     H6   1978 0.10618100   1.008000   ; qtot 67.083582
 1979         h1     67    ccc     H7   1979 0.07988000   1.008000   ; qtot 67.163462
 1980         h1     67    ccc     H8   1980 0.07988000   1.008000   ; qtot 67.243342
 1981         n4     67    ccc     N2   1981 -0.02747900  14.010000   ; qtot 67.215863
 1982         c3     67    ccc     C5   1982 -0.05097600  12.010000   ; qtot 67.164887
 1983         c3     67    ccc     C6   1983 -0.05097600  12.010000   ; qtot 67.113911
 1984         h1     67    ccc     H9   1984 0.11563300   1.008000   ; qtot 67.229544
 1985         c3     67    ccc     C7   1985 -0.18457900  12.010000   ; qtot 67.044965
 1986         h1     67    ccc    H10   1986 0.11563300   1.008000   ; qtot 67.160598
 1987         hc     67    ccc    H11   1987 0.08347900   1.008000   ; qtot 67.244077
 1988         hc     67    ccc    H12   1988 0.08347900   1.008000   ; qtot 67.327556
 1989          c     67    ccc     C8   1989 0.67254400  12.010000   ; qtot 68.000100
 1990          o     67    ccc     O2   1990 -0.52917200  16.000000   ; qtot 67.470928
 1991         h1     67    ccc    H13   1991 0.11563300   1.008000   ; qtot 67.586561
 1992         h1     67    ccc    H14   1992 0.11563300   1.008000   ; qtot 67.702194
 1993         c3     67    ccc     C9   1993 -0.18457900  12.010000   ; qtot 67.517615
 1994         hc     67    ccc    H15   1994 0.08347900   1.008000   ; qtot 67.601094
 1995         hc     67    ccc    H16   1995 0.08347900   1.008000   ; qtot 67.684573
 1996          c     67    ccc    C10   1996 0.67254400  12.010000   ; qtot 68.357117
 1997          o     67    ccc     O4   1997 -0.52917200  16.000000   ; qtot 67.827945
 1998         c3     67    ccc    C11   1998 0.08518000  12.010000   ; qtot 67.913125
 1999         c3     67    ccc    C12   1999 0.07918000  12.010000   ; qtot 67.992305
 2000         h1     67    ccc    H17   2000 0.06978000   1.008000   ; qtot 68.062085
 2001         c3     67    ccc    C13   2001 0.07918000  12.010000   ; qtot 68.141265
 2002         c3     67    ccc    C14   2002 0.03578000  12.010000   ; qtot 68.177045
 2003         c3     67    ccc    C15   2003 0.33498000  12.010000   ; qtot 68.512025
 2004         h1     67    ccc    H18   2004 0.06178000   1.008000   ; qtot 68.573805
 2005         h1     67    ccc    H19   2005 0.11278000   1.008000   ; qtot 68.686585
 2006         h2     67    ccc    H20   2006 0.12178000   1.008000   ; qtot 68.808365
 2007         oh     67    ccc     O1   2007 -0.56972000  16.000000   ; qtot 68.238645
 2008         oh     67    ccc     O6   2008 -0.57772000  16.000000   ; qtot 67.660925
 2009         c3     67    ccc    C16   2009 0.14548000  12.010000   ; qtot 67.806405
 2010         ho     67    ccc    H21   2010 0.40508000   1.008000   ; qtot 68.211485
 2011         hn     67    ccc    H22   2011 0.31758000   1.008000   ; qtot 68.529065
 2012         h1     67    ccc    H23   2012 0.06278000   1.008000   ; qtot 68.591845
 2013         h1     67    ccc    H24   2013 0.06278000   1.008000   ; qtot 68.654625
 2014         oh     67    ccc     O7   2014 -0.59472000  16.000000   ; qtot 68.059905
 2015         ho     67    ccc    H25   2015 0.41908000   1.008000   ; qtot 68.478985
 2016         os     67    ccc     O8   2016 -0.44552000  16.000000   ; qtot 68.033465
 2017         ho     67    ccc    H26   2017 0.41908000   1.008000   ; qtot 68.452545
 2018         h1     67    ccc    H27   2018 0.08578000   1.008000   ; qtot 68.538325
 2019         oh     67    ccc     O9   2019 -0.58672000  16.000000   ; qtot 67.951605
 2020         ho     67    ccc    H28   2020 0.41908000   1.008000   ; qtot 68.370685
 2021         n3     67    ccc     N3   2021 -0.54282000  14.010000   ; qtot 67.827865
 2022         c3     67    ccc    C17   2022 0.08518000  12.010000   ; qtot 67.913045
 2023         c3     67    ccc    C18   2023 0.07918000  12.010000   ; qtot 67.992225
 2024         h1     67    ccc    H29   2024 0.06978000   1.008000   ; qtot 68.062005
 2025         c3     67    ccc    C19   2025 0.07918000  12.010000   ; qtot 68.141185
 2026         c3     67    ccc    C20   2026 0.03578000  12.010000   ; qtot 68.176965
 2027         c3     67    ccc    C21   2027 0.33498000  12.010000   ; qtot 68.511945
 2028         h1     67    ccc    H30   2028 0.06178000   1.008000   ; qtot 68.573725
 2029         h1     67    ccc    H31   2029 0.11278000   1.008000   ; qtot 68.686505
 2030         h2     67    ccc    H32   2030 0.12178000   1.008000   ; qtot 68.808285
 2031         oh     67    ccc    O10   2031 -0.56972000  16.000000   ; qtot 68.238565
 2032         oh     67    ccc    O11   2032 -0.57772000  16.000000   ; qtot 67.660845
 2033         c3     67    ccc    C22   2033 0.14548000  12.010000   ; qtot 67.806325
 2034         ho     67    ccc    H33   2034 0.40508000   1.008000   ; qtot 68.211405
 2035         hn     67    ccc    H34   2035 0.31758000   1.008000   ; qtot 68.528985
 2036         h1     67    ccc    H35   2036 0.06278000   1.008000   ; qtot 68.591765
 2037         h1     67    ccc    H36   2037 0.06278000   1.008000   ; qtot 68.654545
 2038         oh     67    ccc    O12   2038 -0.59472000  16.000000   ; qtot 68.059825
 2039         ho     67    ccc    H37   2039 0.41908000   1.008000   ; qtot 68.478905
 2040         os     67    ccc    O13   2040 -0.44552000  16.000000   ; qtot 68.033385
 2041         ho     67    ccc    H38   2041 0.41908000   1.008000   ; qtot 68.452465
 2042         h1     67    ccc    H39   2042 0.08578000   1.008000   ; qtot 68.538245
 2043         oh     67    ccc     O5   2043 -0.58672000  16.000000   ; qtot 67.951525
 2044         ho     67    ccc    H40   2044 0.41908000   1.008000   ; qtot 68.370605
 2045         n3     67    ccc     N4   2045 -0.54282000  14.010000   ; qtot 67.827785
 2046         hn     67    ccc    H41   2046 0.17125500   1.008000   ; qtot 67.999040
; residue   68 ccc rtp ccc q 1.0
 2047          n     68    ccc     N1   2047 -0.33303000  14.010000   ; qtot 67.666010
 2048         hn     68    ccc     H4   2048 0.25916100   1.008000   ; qtot 67.925171
 2049         c3     68    ccc     C3   2049 -0.03328100  12.010000   ; qtot 67.891890
 2050         h1     68    ccc     H5   2050 0.10618100   1.008000   ; qtot 67.998071
 2051         c3     68    ccc     C4   2051 -0.02083000  12.010000   ; qtot 67.977241
 2052         h1     68    ccc     H6   2052 0.10618100   1.008000   ; qtot 68.083422
 2053         h1     68    ccc     H7   2053 0.07988000   1.008000   ; qtot 68.163302
 2054         h1     68    ccc     H8   2054 0.07988000   1.008000   ; qtot 68.243182
 2055         n4     68    ccc     N2   2055 -0.02747900  14.010000   ; qtot 68.215703
 2056         c3     68    ccc     C5   2056 -0.05097600  12.010000   ; qtot 68.164727
 2057         c3     68    ccc     C6   2057 -0.05097600  12.010000   ; qtot 68.113751
 2058         h1     68    ccc     H9   2058 0.11563300   1.008000   ; qtot 68.229384
 2059         c3     68    ccc     C7   2059 -0.18457900  12.010000   ; qtot 68.044805
 2060         h1     68    ccc    H10   2060 0.11563300   1.008000   ; qtot 68.160438
 2061         hc     68    ccc    H11   2061 0.08347900   1.008000   ; qtot 68.243917
 2062         hc     68    ccc    H12   2062 0.08347900   1.008000   ; qtot 68.327396
 2063          c     68    ccc     C8   2063 0.67254400  12.010000   ; qtot 68.999940
 2064          o     68    ccc     O2   2064 -0.52917200  16.000000   ; qtot 68.470768
 2065         h1     68    ccc    H13   2065 0.11563300   1.008000   ; qtot 68.586401
 2066         h1     68    ccc    H14   2066 0.11563300   1.008000   ; qtot 68.702034
 2067         c3     68    ccc     C9   2067 -0.18457900  12.010000   ; qtot 68.517455
 2068         hc     68    ccc    H15   2068 0.08347900   1.008000   ; qtot 68.600934
 2069         hc     68    ccc    H16   2069 0.08347900   1.008000   ; qtot 68.684413
 2070          c     68    ccc    C10   2070 0.67254400  12.010000   ; qtot 69.356957
 2071          o     68    ccc     O4   2071 -0.52917200  16.000000   ; qtot 68.827785
 2072         c3     68    ccc    C11   2072 0.08518000  12.010000   ; qtot 68.912965
 2073         c3     68    ccc    C12   2073 0.07918000  12.010000   ; qtot 68.992145
 2074         h1     68    ccc    H17   2074 0.06978000   1.008000   ; qtot 69.061925
 2075         c3     68    ccc    C13   2075 0.07918000  12.010000   ; qtot 69.141105
 2076         c3     68    ccc    C14   2076 0.03578000  12.010000   ; qtot 69.176885
 2077         c3     68    ccc    C15   2077 0.33498000  12.010000   ; qtot 69.511865
 2078         h1     68    ccc    H18   2078 0.06178000   1.008000   ; qtot 69.573645
 2079         h1     68    ccc    H19   2079 0.11278000   1.008000   ; qtot 69.686425
 2080         h2     68    ccc    H20   2080 0.12178000   1.008000   ; qtot 69.808205
 2081         oh     68    ccc     O1   2081 -0.56972000  16.000000   ; qtot 69.238485
 2082         oh     68    ccc     O6   2082 -0.57772000  16.000000   ; qtot 68.660765
 2083         c3     68    ccc    C16   2083 0.14548000  12.010000   ; qtot 68.806245
 2084         ho     68    ccc    H21   2084 0.40508000   1.008000   ; qtot 69.211325
 2085         hn     68    ccc    H22   2085 0.31758000   1.008000   ; qtot 69.528905
 2086         h1     68    ccc    H23   2086 0.06278000   1.008000   ; qtot 69.591685
 2087         h1     68    ccc    H24   2087 0.06278000   1.008000   ; qtot 69.654465
 2088         oh     68    ccc     O7   2088 -0.59472000  16.000000   ; qtot 69.059745
 2089         ho     68    ccc    H25   2089 0.41908000   1.008000   ; qtot 69.478825
 2090         os     68    ccc     O8   2090 -0.44552000  16.000000   ; qtot 69.033305
 2091         ho     68    ccc    H26   2091 0.41908000   1.008000   ; qtot 69.452385
 2092         h1     68    ccc    H27   2092 0.08578000   1.008000   ; qtot 69.538165
 2093         oh     68    ccc     O9   2093 -0.58672000  16.000000   ; qtot 68.951445
 2094         ho     68    ccc    H28   2094 0.41908000   1.008000   ; qtot 69.370525
 2095         n3     68    ccc     N3   2095 -0.54282000  14.010000   ; qtot 68.827705
 2096         c3     68    ccc    C17   2096 0.08518000  12.010000   ; qtot 68.912885
 2097         c3     68    ccc    C18   2097 0.07918000  12.010000   ; qtot 68.992065
 2098         h1     68    ccc    H29   2098 0.06978000   1.008000   ; qtot 69.061845
 2099         c3     68    ccc    C19   2099 0.07918000  12.010000   ; qtot 69.141025
 2100         c3     68    ccc    C20   2100 0.03578000  12.010000   ; qtot 69.176805
 2101         c3     68    ccc    C21   2101 0.33498000  12.010000   ; qtot 69.511785
 2102         h1     68    ccc    H30   2102 0.06178000   1.008000   ; qtot 69.573565
 2103         h1     68    ccc    H31   2103 0.11278000   1.008000   ; qtot 69.686345
 2104         h2     68    ccc    H32   2104 0.12178000   1.008000   ; qtot 69.808125
 2105         oh     68    ccc    O10   2105 -0.56972000  16.000000   ; qtot 69.238405
 2106         oh     68    ccc    O11   2106 -0.57772000  16.000000   ; qtot 68.660685
 2107         c3     68    ccc    C22   2107 0.14548000  12.010000   ; qtot 68.806165
 2108         ho     68    ccc    H33   2108 0.40508000   1.008000   ; qtot 69.211245
 2109         hn     68    ccc    H34   2109 0.31758000   1.008000   ; qtot 69.528825
 2110         h1     68    ccc    H35   2110 0.06278000   1.008000   ; qtot 69.591605
 2111         h1     68    ccc    H36   2111 0.06278000   1.008000   ; qtot 69.654385
 2112         oh     68    ccc    O12   2112 -0.59472000  16.000000   ; qtot 69.059665
 2113         ho     68    ccc    H37   2113 0.41908000   1.008000   ; qtot 69.478745
 2114         os     68    ccc    O13   2114 -0.44552000  16.000000   ; qtot 69.033225
 2115         ho     68    ccc    H38   2115 0.41908000   1.008000   ; qtot 69.452305
 2116         h1     68    ccc    H39   2116 0.08578000   1.008000   ; qtot 69.538085
 2117         oh     68    ccc     O5   2117 -0.58672000  16.000000   ; qtot 68.951365
 2118         ho     68    ccc    H40   2118 0.41908000   1.008000   ; qtot 69.370445
 2119         n3     68    ccc     N4   2119 -0.54282000  14.010000   ; qtot 68.827625
 2120         hn     68    ccc    H41   2120 0.17125500   1.008000   ; qtot 68.998880
; residue   69 ccc rtp ccc q 1.0
 2121          n     69    ccc     N1   2121 -0.33303000  14.010000   ; qtot 68.665850
 2122         hn     69    ccc     H4   2122 0.25916100   1.008000   ; qtot 68.925011
 2123         c3     69    ccc     C3   2123 -0.03328100  12.010000   ; qtot 68.891730
 2124         h1     69    ccc     H5   2124 0.10618100   1.008000   ; qtot 68.997911
 2125         c3     69    ccc     C4   2125 -0.02083000  12.010000   ; qtot 68.977081
 2126         h1     69    ccc     H6   2126 0.10618100   1.008000   ; qtot 69.083262
 2127         h1     69    ccc     H7   2127 0.07988000   1.008000   ; qtot 69.163142
 2128         h1     69    ccc     H8   2128 0.07988000   1.008000   ; qtot 69.243022
 2129         n4     69    ccc     N2   2129 -0.02747900  14.010000   ; qtot 69.215543
 2130         c3     69    ccc     C5   2130 -0.05097600  12.010000   ; qtot 69.164567
 2131         c3     69    ccc     C6   2131 -0.05097600  12.010000   ; qtot 69.113591
 2132         h1     69    ccc     H9   2132 0.11563300   1.008000   ; qtot 69.229224
 2133         c3     69    ccc     C7   2133 -0.18457900  12.010000   ; qtot 69.044645
 2134         h1     69    ccc    H10   2134 0.11563300   1.008000   ; qtot 69.160278
 2135         hc     69    ccc    H11   2135 0.08347900   1.008000   ; qtot 69.243757
 2136         hc     69    ccc    H12   2136 0.08347900   1.008000   ; qtot 69.327236
 2137          c     69    ccc     C8   2137 0.67254400  12.010000   ; qtot 69.999780
 2138          o     69    ccc     O2   2138 -0.52917200  16.000000   ; qtot 69.470608
 2139         h1     69    ccc    H13   2139 0.11563300   1.008000   ; qtot 69.586241
 2140         h1     69    ccc    H14   2140 0.11563300   1.008000   ; qtot 69.701874
 2141         c3     69    ccc     C9   2141 -0.18457900  12.010000   ; qtot 69.517295
 2142         hc     69    ccc    H15   2142 0.08347900   1.008000   ; qtot 69.600774
 2143         hc     69    ccc    H16   2143 0.08347900   1.008000   ; qtot 69.684253
 2144          c     69    ccc    C10   2144 0.67254400  12.010000   ; qtot 70.356797
 2145          o     69    ccc     O4   2145 -0.52917200  16.000000   ; qtot 69.827625
 2146         c3     69    ccc    C11   2146 0.08518000  12.010000   ; qtot 69.912805
 2147         c3     69    ccc    C12   2147 0.07918000  12.010000   ; qtot 69.991985
 2148         h1     69    ccc    H17   2148 0.06978000   1.008000   ; qtot 70.061765
 2149         c3     69    ccc    C13   2149 0.07918000  12.010000   ; qtot 70.140945
 2150         c3     69    ccc    C14   2150 0.03578000  12.010000   ; qtot 70.176725
 2151         c3     69    ccc    C15   2151 0.33498000  12.010000   ; qtot 70.511705
 2152         h1     69    ccc    H18   2152 0.06178000   1.008000   ; qtot 70.573485
 2153         h1     69    ccc    H19   2153 0.11278000   1.008000   ; qtot 70.686265
 2154         h2     69    ccc    H20   2154 0.12178000   1.008000   ; qtot 70.808045
 2155         oh     69    ccc     O1   2155 -0.56972000  16.000000   ; qtot 70.238325
 2156         oh     69    ccc     O6   2156 -0.57772000  16.000000   ; qtot 69.660605
 2157         c3     69    ccc    C16   2157 0.14548000  12.010000   ; qtot 69.806085
 2158         ho     69    ccc    H21   2158 0.40508000   1.008000   ; qtot 70.211165
 2159         hn     69    ccc    H22   2159 0.31758000   1.008000   ; qtot 70.528745
 2160         h1     69    ccc    H23   2160 0.06278000   1.008000   ; qtot 70.591525
 2161         h1     69    ccc    H24   2161 0.06278000   1.008000   ; qtot 70.654305
 2162         oh     69    ccc     O7   2162 -0.59472000  16.000000   ; qtot 70.059585
 2163         ho     69    ccc    H25   2163 0.41908000   1.008000   ; qtot 70.478665
 2164         os     69    ccc     O8   2164 -0.44552000  16.000000   ; qtot 70.033145
 2165         ho     69    ccc    H26   2165 0.41908000   1.008000   ; qtot 70.452225
 2166         h1     69    ccc    H27   2166 0.08578000   1.008000   ; qtot 70.538005
 2167         oh     69    ccc     O9   2167 -0.58672000  16.000000   ; qtot 69.951285
 2168         ho     69    ccc    H28   2168 0.41908000   1.008000   ; qtot 70.370365
 2169         n3     69    ccc     N3   2169 -0.54282000  14.010000   ; qtot 69.827545
 2170         c3     69    ccc    C17   2170 0.08518000  12.010000   ; qtot 69.912725
 2171         c3     69    ccc    C18   2171 0.07918000  12.010000   ; qtot 69.991905
 2172         h1     69    ccc    H29   2172 0.06978000   1.008000   ; qtot 70.061685
 2173         c3     69    ccc    C19   2173 0.07918000  12.010000   ; qtot 70.140865
 2174         c3     69    ccc    C20   2174 0.03578000  12.010000   ; qtot 70.176645
 2175         c3     69    ccc    C21   2175 0.33498000  12.010000   ; qtot 70.511625
 2176         h1     69    ccc    H30   2176 0.06178000   1.008000   ; qtot 70.573405
 2177         h1     69    ccc    H31   2177 0.11278000   1.008000   ; qtot 70.686185
 2178         h2     69    ccc    H32   2178 0.12178000   1.008000   ; qtot 70.807965
 2179         oh     69    ccc    O10   2179 -0.56972000  16.000000   ; qtot 70.238245
 2180         oh     69    ccc    O11   2180 -0.57772000  16.000000   ; qtot 69.660525
 2181         c3     69    ccc    C22   2181 0.14548000  12.010000   ; qtot 69.806005
 2182         ho     69    ccc    H33   2182 0.40508000   1.008000   ; qtot 70.211085
 2183         hn     69    ccc    H34   2183 0.31758000   1.008000   ; qtot 70.528665
 2184         h1     69    ccc    H35   2184 0.06278000   1.008000   ; qtot 70.591445
 2185         h1     69    ccc    H36   2185 0.06278000   1.008000   ; qtot 70.654225
 2186         oh     69    ccc    O12   2186 -0.59472000  16.000000   ; qtot 70.059505
 2187         ho     69    ccc    H37   2187 0.41908000   1.008000   ; qtot 70.478585
 2188         os     69    ccc    O13   2188 -0.44552000  16.000000   ; qtot 70.033065
 2189         ho     69    ccc    H38   2189 0.41908000   1.008000   ; qtot 70.452145
 2190         h1     69    ccc    H39   2190 0.08578000   1.008000   ; qtot 70.537925
 2191         oh     69    ccc     O5   2191 -0.58672000  16.000000   ; qtot 69.951205
 2192         ho     69    ccc    H40   2192 0.41908000   1.008000   ; qtot 70.370285
 2193         n3     69    ccc     N4   2193 -0.54282000  14.010000   ; qtot 69.827465
 2194         hn     69    ccc    H41   2194 0.17125500   1.008000   ; qtot 69.998720
; residue   70 ccc rtp ccc q 1.0
 2195          n     70    ccc     N1   2195 -0.33303000  14.010000   ; qtot 69.665690
 2196         hn     70    ccc     H4   2196 0.25916100   1.008000   ; qtot 69.924851
 2197         c3     70    ccc     C3   2197 -0.03328100  12.010000   ; qtot 69.891570
 2198         h1     70    ccc     H5   2198 0.10618100   1.008000   ; qtot 69.997751
 2199         c3     70    ccc     C4   2199 -0.02083000  12.010000   ; qtot 69.976921
 2200         h1     70    ccc     H6   2200 0.10618100   1.008000   ; qtot 70.083102
 2201         h1     70    ccc     H7   2201 0.07988000   1.008000   ; qtot 70.162982
 2202         h1     70    ccc     H8   2202 0.07988000   1.008000   ; qtot 70.242862
 2203         n4     70    ccc     N2   2203 -0.02747900  14.010000   ; qtot 70.215383
 2204         c3     70    ccc     C5   2204 -0.05097600  12.010000   ; qtot 70.164407
 2205         c3     70    ccc     C6   2205 -0.05097600  12.010000   ; qtot 70.113431
 2206         h1     70    ccc     H9   2206 0.11563300   1.008000   ; qtot 70.229064
 2207         c3     70    ccc     C7   2207 -0.18457900  12.010000   ; qtot 70.044485
 2208         h1     70    ccc    H10   2208 0.11563300   1.008000   ; qtot 70.160118
 2209         hc     70    ccc    H11   2209 0.08347900   1.008000   ; qtot 70.243597
 2210         hc     70    ccc    H12   2210 0.08347900   1.008000   ; qtot 70.327076
 2211          c     70    ccc     C8   2211 0.67254400  12.010000   ; qtot 70.999620
 2212          o     70    ccc     O2   2212 -0.52917200  16.000000   ; qtot 70.470448
 2213         h1     70    ccc    H13   2213 0.11563300   1.008000   ; qtot 70.586081
 2214         h1     70    ccc    H14   2214 0.11563300   1.008000   ; qtot 70.701714
 2215         c3     70    ccc     C9   2215 -0.18457900  12.010000   ; qtot 70.517135
 2216         hc     70    ccc    H15   2216 0.08347900   1.008000   ; qtot 70.600614
 2217         hc     70    ccc    H16   2217 0.08347900   1.008000   ; qtot 70.684093
 2218          c     70    ccc    C10   2218 0.67254400  12.010000   ; qtot 71.356637
 2219          o     70    ccc     O4   2219 -0.52917200  16.000000   ; qtot 70.827465
 2220         c3     70    ccc    C11   2220 0.08518000  12.010000   ; qtot 70.912645
 2221         c3     70    ccc    C12   2221 0.07918000  12.010000   ; qtot 70.991825
 2222         h1     70    ccc    H17   2222 0.06978000   1.008000   ; qtot 71.061605
 2223         c3     70    ccc    C13   2223 0.07918000  12.010000   ; qtot 71.140785
 2224         c3     70    ccc    C14   2224 0.03578000  12.010000   ; qtot 71.176565
 2225         c3     70    ccc    C15   2225 0.33498000  12.010000   ; qtot 71.511545
 2226         h1     70    ccc    H18   2226 0.06178000   1.008000   ; qtot 71.573325
 2227         h1     70    ccc    H19   2227 0.11278000   1.008000   ; qtot 71.686105
 2228         h2     70    ccc    H20   2228 0.12178000   1.008000   ; qtot 71.807885
 2229         oh     70    ccc     O1   2229 -0.56972000  16.000000   ; qtot 71.238165
 2230         oh     70    ccc     O6   2230 -0.57772000  16.000000   ; qtot 70.660445
 2231         c3     70    ccc    C16   2231 0.14548000  12.010000   ; qtot 70.805925
 2232         ho     70    ccc    H21   2232 0.40508000   1.008000   ; qtot 71.211005
 2233         hn     70    ccc    H22   2233 0.31758000   1.008000   ; qtot 71.528585
 2234         h1     70    ccc    H23   2234 0.06278000   1.008000   ; qtot 71.591365
 2235         h1     70    ccc    H24   2235 0.06278000   1.008000   ; qtot 71.654145
 2236         oh     70    ccc     O7   2236 -0.59472000  16.000000   ; qtot 71.059425
 2237         ho     70    ccc    H25   2237 0.41908000   1.008000   ; qtot 71.478505
 2238         os     70    ccc     O8   2238 -0.44552000  16.000000   ; qtot 71.032985
 2239         ho     70    ccc    H26   2239 0.41908000   1.008000   ; qtot 71.452065
 2240         h1     70    ccc    H27   2240 0.08578000   1.008000   ; qtot 71.537845
 2241         oh     70    ccc     O9   2241 -0.58672000  16.000000   ; qtot 70.951125
 2242         ho     70    ccc    H28   2242 0.41908000   1.008000   ; qtot 71.370205
 2243         n3     70    ccc     N3   2243 -0.54282000  14.010000   ; qtot 70.827385
 2244         c3     70    ccc    C17   2244 0.08518000  12.010000   ; qtot 70.912565
 2245         c3     70    ccc    C18   2245 0.07918000  12.010000   ; qtot 70.991745
 2246         h1     70    ccc    H29   2246 0.06978000   1.008000   ; qtot 71.061525
 2247         c3     70    ccc    C19   2247 0.07918000  12.010000   ; qtot 71.140705
 2248         c3     70    ccc    C20   2248 0.03578000  12.010000   ; qtot 71.176485
 2249         c3     70    ccc    C21   2249 0.33498000  12.010000   ; qtot 71.511465
 2250         h1     70    ccc    H30   2250 0.06178000   1.008000   ; qtot 71.573245
 2251         h1     70    ccc    H31   2251 0.11278000   1.008000   ; qtot 71.686025
 2252         h2     70    ccc    H32   2252 0.12178000   1.008000   ; qtot 71.807805
 2253         oh     70    ccc    O10   2253 -0.56972000  16.000000   ; qtot 71.238085
 2254         oh     70    ccc    O11   2254 -0.57772000  16.000000   ; qtot 70.660365
 2255         c3     70    ccc    C22   2255 0.14548000  12.010000   ; qtot 70.805845
 2256         ho     70    ccc    H33   2256 0.40508000   1.008000   ; qtot 71.210925
 2257         hn     70    ccc    H34   2257 0.31758000   1.008000   ; qtot 71.528505
 2258         h1     70    ccc    H35   2258 0.06278000   1.008000   ; qtot 71.591285
 2259         h1     70    ccc    H36   2259 0.06278000   1.008000   ; qtot 71.654065
 2260         oh     70    ccc    O12   2260 -0.59472000  16.000000   ; qtot 71.059345
 2261         ho     70    ccc    H37   2261 0.41908000   1.008000   ; qtot 71.478425
 2262         os     70    ccc    O13   2262 -0.44552000  16.000000   ; qtot 71.032905
 2263         ho     70    ccc    H38   2263 0.41908000   1.008000   ; qtot 71.451985
 2264         h1     70    ccc    H39   2264 0.08578000   1.008000   ; qtot 71.537765
 2265         oh     70    ccc     O5   2265 -0.58672000  16.000000   ; qtot 70.951045
 2266         ho     70    ccc    H40   2266 0.41908000   1.008000   ; qtot 71.370125
 2267         n3     70    ccc     N4   2267 -0.54282000  14.010000   ; qtot 70.827305
 2268         hn     70    ccc    H41   2268 0.17125500   1.008000   ; qtot 70.998560
; residue   71 ccc rtp ccc q 1.0
 2269          n     71    ccc     N1   2269 -0.33303000  14.010000   ; qtot 70.665530
 2270         hn     71    ccc     H4   2270 0.25916100   1.008000   ; qtot 70.924691
 2271         c3     71    ccc     C3   2271 -0.03328100  12.010000   ; qtot 70.891410
 2272         h1     71    ccc     H5   2272 0.10618100   1.008000   ; qtot 70.997591
 2273         c3     71    ccc     C4   2273 -0.02083000  12.010000   ; qtot 70.976761
 2274         h1     71    ccc     H6   2274 0.10618100   1.008000   ; qtot 71.082942
 2275         h1     71    ccc     H7   2275 0.07988000   1.008000   ; qtot 71.162822
 2276         h1     71    ccc     H8   2276 0.07988000   1.008000   ; qtot 71.242702
 2277         n4     71    ccc     N2   2277 -0.02747900  14.010000   ; qtot 71.215223
 2278         c3     71    ccc     C5   2278 -0.05097600  12.010000   ; qtot 71.164247
 2279         c3     71    ccc     C6   2279 -0.05097600  12.010000   ; qtot 71.113271
 2280         h1     71    ccc     H9   2280 0.11563300   1.008000   ; qtot 71.228904
 2281         c3     71    ccc     C7   2281 -0.18457900  12.010000   ; qtot 71.044325
 2282         h1     71    ccc    H10   2282 0.11563300   1.008000   ; qtot 71.159958
 2283         hc     71    ccc    H11   2283 0.08347900   1.008000   ; qtot 71.243437
 2284         hc     71    ccc    H12   2284 0.08347900   1.008000   ; qtot 71.326916
 2285          c     71    ccc     C8   2285 0.67254400  12.010000   ; qtot 71.999460
 2286          o     71    ccc     O2   2286 -0.52917200  16.000000   ; qtot 71.470288
 2287         h1     71    ccc    H13   2287 0.11563300   1.008000   ; qtot 71.585921
 2288         h1     71    ccc    H14   2288 0.11563300   1.008000   ; qtot 71.701554
 2289         c3     71    ccc     C9   2289 -0.18457900  12.010000   ; qtot 71.516975
 2290         hc     71    ccc    H15   2290 0.08347900   1.008000   ; qtot 71.600454
 2291         hc     71    ccc    H16   2291 0.08347900   1.008000   ; qtot 71.683933
 2292          c     71    ccc    C10   2292 0.67254400  12.010000   ; qtot 72.356477
 2293          o     71    ccc     O4   2293 -0.52917200  16.000000   ; qtot 71.827305
 2294         c3     71    ccc    C11   2294 0.08518000  12.010000   ; qtot 71.912485
 2295         c3     71    ccc    C12   2295 0.07918000  12.010000   ; qtot 71.991665
 2296         h1     71    ccc    H17   2296 0.06978000   1.008000   ; qtot 72.061445
 2297         c3     71    ccc    C13   2297 0.07918000  12.010000   ; qtot 72.140625
 2298         c3     71    ccc    C14   2298 0.03578000  12.010000   ; qtot 72.176405
 2299         c3     71    ccc    C15   2299 0.33498000  12.010000   ; qtot 72.511385
 2300         h1     71    ccc    H18   2300 0.06178000   1.008000   ; qtot 72.573165
 2301         h1     71    ccc    H19   2301 0.11278000   1.008000   ; qtot 72.685945
 2302         h2     71    ccc    H20   2302 0.12178000   1.008000   ; qtot 72.807725
 2303         oh     71    ccc     O1   2303 -0.56972000  16.000000   ; qtot 72.238005
 2304         oh     71    ccc     O6   2304 -0.57772000  16.000000   ; qtot 71.660285
 2305         c3     71    ccc    C16   2305 0.14548000  12.010000   ; qtot 71.805765
 2306         ho     71    ccc    H21   2306 0.40508000   1.008000   ; qtot 72.210845
 2307         hn     71    ccc    H22   2307 0.31758000   1.008000   ; qtot 72.528425
 2308         h1     71    ccc    H23   2308 0.06278000   1.008000   ; qtot 72.591205
 2309         h1     71    ccc    H24   2309 0.06278000   1.008000   ; qtot 72.653985
 2310         oh     71    ccc     O7   2310 -0.59472000  16.000000   ; qtot 72.059265
 2311         ho     71    ccc    H25   2311 0.41908000   1.008000   ; qtot 72.478345
 2312         os     71    ccc     O8   2312 -0.44552000  16.000000   ; qtot 72.032825
 2313         ho     71    ccc    H26   2313 0.41908000   1.008000   ; qtot 72.451905
 2314         h1     71    ccc    H27   2314 0.08578000   1.008000   ; qtot 72.537685
 2315         oh     71    ccc     O9   2315 -0.58672000  16.000000   ; qtot 71.950965
 2316         ho     71    ccc    H28   2316 0.41908000   1.008000   ; qtot 72.370045
 2317         n3     71    ccc     N3   2317 -0.54282000  14.010000   ; qtot 71.827225
 2318         c3     71    ccc    C17   2318 0.08518000  12.010000   ; qtot 71.912405
 2319         c3     71    ccc    C18   2319 0.07918000  12.010000   ; qtot 71.991585
 2320         h1     71    ccc    H29   2320 0.06978000   1.008000   ; qtot 72.061365
 2321         c3     71    ccc    C19   2321 0.07918000  12.010000   ; qtot 72.140545
 2322         c3     71    ccc    C20   2322 0.03578000  12.010000   ; qtot 72.176325
 2323         c3     71    ccc    C21   2323 0.33498000  12.010000   ; qtot 72.511305
 2324         h1     71    ccc    H30   2324 0.06178000   1.008000   ; qtot 72.573085
 2325         h1     71    ccc    H31   2325 0.11278000   1.008000   ; qtot 72.685865
 2326         h2     71    ccc    H32   2326 0.12178000   1.008000   ; qtot 72.807645
 2327         oh     71    ccc    O10   2327 -0.56972000  16.000000   ; qtot 72.237925
 2328         oh     71    ccc    O11   2328 -0.57772000  16.000000   ; qtot 71.660204
 2329         c3     71    ccc    C22   2329 0.14548000  12.010000   ; qtot 71.805684
 2330         ho     71    ccc    H33   2330 0.40508000   1.008000   ; qtot 72.210764
 2331         hn     71    ccc    H34   2331 0.31758000   1.008000   ; qtot 72.528344
 2332         h1     71    ccc    H35   2332 0.06278000   1.008000   ; qtot 72.591124
 2333         h1     71    ccc    H36   2333 0.06278000   1.008000   ; qtot 72.653904
 2334         oh     71    ccc    O12   2334 -0.59472000  16.000000   ; qtot 72.059184
 2335         ho     71    ccc    H37   2335 0.41908000   1.008000   ; qtot 72.478264
 2336         os     71    ccc    O13   2336 -0.44552000  16.000000   ; qtot 72.032744
 2337         ho     71    ccc    H38   2337 0.41908000   1.008000   ; qtot 72.451824
 2338         h1     71    ccc    H39   2338 0.08578000   1.008000   ; qtot 72.537604
 2339         oh     71    ccc     O5   2339 -0.58672000  16.000000   ; qtot 71.950884
 2340         ho     71    ccc    H40   2340 0.41908000   1.008000   ; qtot 72.369964
 2341         n3     71    ccc     N4   2341 -0.54282000  14.010000   ; qtot 71.827144
 2342         hn     71    ccc    H41   2342 0.17125500   1.008000   ; qtot 71.998399
; residue   72 ccc rtp ccc q 1.0
 2343          n     72    ccc     N1   2343 -0.33303000  14.010000   ; qtot 71.665369
 2344         hn     72    ccc     H4   2344 0.25916100   1.008000   ; qtot 71.924530
 2345         c3     72    ccc     C3   2345 -0.03328100  12.010000   ; qtot 71.891249
 2346         h1     72    ccc     H5   2346 0.10618100   1.008000   ; qtot 71.997430
 2347         c3     72    ccc     C4   2347 -0.02083000  12.010000   ; qtot 71.976600
 2348         h1     72    ccc     H6   2348 0.10618100   1.008000   ; qtot 72.082781
 2349         h1     72    ccc     H7   2349 0.07988000   1.008000   ; qtot 72.162661
 2350         h1     72    ccc     H8   2350 0.07988000   1.008000   ; qtot 72.242541
 2351         n4     72    ccc     N2   2351 -0.02747900  14.010000   ; qtot 72.215062
 2352         c3     72    ccc     C5   2352 -0.05097600  12.010000   ; qtot 72.164086
 2353         c3     72    ccc     C6   2353 -0.05097600  12.010000   ; qtot 72.113110
 2354         h1     72    ccc     H9   2354 0.11563300   1.008000   ; qtot 72.228743
 2355         c3     72    ccc     C7   2355 -0.18457900  12.010000   ; qtot 72.044164
 2356         h1     72    ccc    H10   2356 0.11563300   1.008000   ; qtot 72.159797
 2357         hc     72    ccc    H11   2357 0.08347900   1.008000   ; qtot 72.243276
 2358         hc     72    ccc    H12   2358 0.08347900   1.008000   ; qtot 72.326755
 2359          c     72    ccc     C8   2359 0.67254400  12.010000   ; qtot 72.999299
 2360          o     72    ccc     O2   2360 -0.52917200  16.000000   ; qtot 72.470127
 2361         h1     72    ccc    H13   2361 0.11563300   1.008000   ; qtot 72.585760
 2362         h1     72    ccc    H14   2362 0.11563300   1.008000   ; qtot 72.701393
 2363         c3     72    ccc     C9   2363 -0.18457900  12.010000   ; qtot 72.516814
 2364         hc     72    ccc    H15   2364 0.08347900   1.008000   ; qtot 72.600293
 2365         hc     72    ccc    H16   2365 0.08347900   1.008000   ; qtot 72.683772
 2366          c     72    ccc    C10   2366 0.67254400  12.010000   ; qtot 73.356316
 2367          o     72    ccc     O4   2367 -0.52917200  16.000000   ; qtot 72.827144
 2368         c3     72    ccc    C11   2368 0.08518000  12.010000   ; qtot 72.912324
 2369         c3     72    ccc    C12   2369 0.07918000  12.010000   ; qtot 72.991504
 2370         h1     72    ccc    H17   2370 0.06978000   1.008000   ; qtot 73.061284
 2371         c3     72    ccc    C13   2371 0.07918000  12.010000   ; qtot 73.140464
 2372         c3     72    ccc    C14   2372 0.03578000  12.010000   ; qtot 73.176244
 2373         c3     72    ccc    C15   2373 0.33498000  12.010000   ; qtot 73.511224
 2374         h1     72    ccc    H18   2374 0.06178000   1.008000   ; qtot 73.573004
 2375         h1     72    ccc    H19   2375 0.11278000   1.008000   ; qtot 73.685784
 2376         h2     72    ccc    H20   2376 0.12178000   1.008000   ; qtot 73.807564
 2377         oh     72    ccc     O1   2377 -0.56972000  16.000000   ; qtot 73.237844
 2378         oh     72    ccc     O6   2378 -0.57772000  16.000000   ; qtot 72.660124
 2379         c3     72    ccc    C16   2379 0.14548000  12.010000   ; qtot 72.805604
 2380         ho     72    ccc    H21   2380 0.40508000   1.008000   ; qtot 73.210684
 2381         hn     72    ccc    H22   2381 0.31758000   1.008000   ; qtot 73.528264
 2382         h1     72    ccc    H23   2382 0.06278000   1.008000   ; qtot 73.591044
 2383         h1     72    ccc    H24   2383 0.06278000   1.008000   ; qtot 73.653824
 2384         oh     72    ccc     O7   2384 -0.59472000  16.000000   ; qtot 73.059104
 2385         ho     72    ccc    H25   2385 0.41908000   1.008000   ; qtot 73.478184
 2386         os     72    ccc     O8   2386 -0.44552000  16.000000   ; qtot 73.032664
 2387         ho     72    ccc    H26   2387 0.41908000   1.008000   ; qtot 73.451744
 2388         h1     72    ccc    H27   2388 0.08578000   1.008000   ; qtot 73.537524
 2389         oh     72    ccc     O9   2389 -0.58672000  16.000000   ; qtot 72.950804
 2390         ho     72    ccc    H28   2390 0.41908000   1.008000   ; qtot 73.369884
 2391         n3     72    ccc     N3   2391 -0.54282000  14.010000   ; qtot 72.827064
 2392         c3     72    ccc    C17   2392 0.08518000  12.010000   ; qtot 72.912244
 2393         c3     72    ccc    C18   2393 0.07918000  12.010000   ; qtot 72.991424
 2394         h1     72    ccc    H29   2394 0.06978000   1.008000   ; qtot 73.061204
 2395         c3     72    ccc    C19   2395 0.07918000  12.010000   ; qtot 73.140384
 2396         c3     72    ccc    C20   2396 0.03578000  12.010000   ; qtot 73.176164
 2397         c3     72    ccc    C21   2397 0.33498000  12.010000   ; qtot 73.511144
 2398         h1     72    ccc    H30   2398 0.06178000   1.008000   ; qtot 73.572924
 2399         h1     72    ccc    H31   2399 0.11278000   1.008000   ; qtot 73.685704
 2400         h2     72    ccc    H32   2400 0.12178000   1.008000   ; qtot 73.807484
 2401         oh     72    ccc    O10   2401 -0.56972000  16.000000   ; qtot 73.237764
 2402         oh     72    ccc    O11   2402 -0.57772000  16.000000   ; qtot 72.660044
 2403         c3     72    ccc    C22   2403 0.14548000  12.010000   ; qtot 72.805524
 2404         ho     72    ccc    H33   2404 0.40508000   1.008000   ; qtot 73.210604
 2405         hn     72    ccc    H34   2405 0.31758000   1.008000   ; qtot 73.528184
 2406         h1     72    ccc    H35   2406 0.06278000   1.008000   ; qtot 73.590964
 2407         h1     72    ccc    H36   2407 0.06278000   1.008000   ; qtot 73.653744
 2408         oh     72    ccc    O12   2408 -0.59472000  16.000000   ; qtot 73.059024
 2409         ho     72    ccc    H37   2409 0.41908000   1.008000   ; qtot 73.478104
 2410         os     72    ccc    O13   2410 -0.44552000  16.000000   ; qtot 73.032584
 2411         ho     72    ccc    H38   2411 0.41908000   1.008000   ; qtot 73.451664
 2412         h1     72    ccc    H39   2412 0.08578000   1.008000   ; qtot 73.537444
 2413         oh     72    ccc     O5   2413 -0.58672000  16.000000   ; qtot 72.950724
 2414         ho     72    ccc    H40   2414 0.41908000   1.008000   ; qtot 73.369804
 2415         n3     72    ccc     N4   2415 -0.54282000  14.010000   ; qtot 72.826984
 2416         hn     72    ccc    H41   2416 0.17125500   1.008000   ; qtot 72.998239
; residue   73 ccc rtp ccc q 1.0
 2417          n     73    ccc     N1   2417 -0.33303000  14.010000   ; qtot 72.665209
 2418         hn     73    ccc     H4   2418 0.25916100   1.008000   ; qtot 72.924370
 2419         c3     73    ccc     C3   2419 -0.03328100  12.010000   ; qtot 72.891089
 2420         h1     73    ccc     H5   2420 0.10618100   1.008000   ; qtot 72.997270
 2421         c3     73    ccc     C4   2421 -0.02083000  12.010000   ; qtot 72.976440
 2422         h1     73    ccc     H6   2422 0.10618100   1.008000   ; qtot 73.082621
 2423         h1     73    ccc     H7   2423 0.07988000   1.008000   ; qtot 73.162501
 2424         h1     73    ccc     H8   2424 0.07988000   1.008000   ; qtot 73.242381
 2425         n4     73    ccc     N2   2425 -0.02747900  14.010000   ; qtot 73.214902
 2426         c3     73    ccc     C5   2426 -0.05097600  12.010000   ; qtot 73.163926
 2427         c3     73    ccc     C6   2427 -0.05097600  12.010000   ; qtot 73.112950
 2428         h1     73    ccc     H9   2428 0.11563300   1.008000   ; qtot 73.228583
 2429         c3     73    ccc     C7   2429 -0.18457900  12.010000   ; qtot 73.044004
 2430         h1     73    ccc    H10   2430 0.11563300   1.008000   ; qtot 73.159637
 2431         hc     73    ccc    H11   2431 0.08347900   1.008000   ; qtot 73.243116
 2432         hc     73    ccc    H12   2432 0.08347900   1.008000   ; qtot 73.326595
 2433          c     73    ccc     C8   2433 0.67254400  12.010000   ; qtot 73.999139
 2434          o     73    ccc     O2   2434 -0.52917200  16.000000   ; qtot 73.469967
 2435         h1     73    ccc    H13   2435 0.11563300   1.008000   ; qtot 73.585600
 2436         h1     73    ccc    H14   2436 0.11563300   1.008000   ; qtot 73.701233
 2437         c3     73    ccc     C9   2437 -0.18457900  12.010000   ; qtot 73.516654
 2438         hc     73    ccc    H15   2438 0.08347900   1.008000   ; qtot 73.600133
 2439         hc     73    ccc    H16   2439 0.08347900   1.008000   ; qtot 73.683612
 2440          c     73    ccc    C10   2440 0.67254400  12.010000   ; qtot 74.356156
 2441          o     73    ccc     O4   2441 -0.52917200  16.000000   ; qtot 73.826984
 2442         c3     73    ccc    C11   2442 0.08518000  12.010000   ; qtot 73.912164
 2443         c3     73    ccc    C12   2443 0.07918000  12.010000   ; qtot 73.991344
 2444         h1     73    ccc    H17   2444 0.06978000   1.008000   ; qtot 74.061124
 2445         c3     73    ccc    C13   2445 0.07918000  12.010000   ; qtot 74.140304
 2446         c3     73    ccc    C14   2446 0.03578000  12.010000   ; qtot 74.176084
 2447         c3     73    ccc    C15   2447 0.33498000  12.010000   ; qtot 74.511064
 2448         h1     73    ccc    H18   2448 0.06178000   1.008000   ; qtot 74.572844
 2449         h1     73    ccc    H19   2449 0.11278000   1.008000   ; qtot 74.685624
 2450         h2     73    ccc    H20   2450 0.12178000   1.008000   ; qtot 74.807404
 2451         oh     73    ccc     O1   2451 -0.56972000  16.000000   ; qtot 74.237684
 2452         oh     73    ccc     O6   2452 -0.57772000  16.000000   ; qtot 73.659964
 2453         c3     73    ccc    C16   2453 0.14548000  12.010000   ; qtot 73.805444
 2454         ho     73    ccc    H21   2454 0.40508000   1.008000   ; qtot 74.210524
 2455         hn     73    ccc    H22   2455 0.31758000   1.008000   ; qtot 74.528104
 2456         h1     73    ccc    H23   2456 0.06278000   1.008000   ; qtot 74.590884
 2457         h1     73    ccc    H24   2457 0.06278000   1.008000   ; qtot 74.653664
 2458         oh     73    ccc     O7   2458 -0.59472000  16.000000   ; qtot 74.058944
 2459         ho     73    ccc    H25   2459 0.41908000   1.008000   ; qtot 74.478024
 2460         os     73    ccc     O8   2460 -0.44552000  16.000000   ; qtot 74.032504
 2461         ho     73    ccc    H26   2461 0.41908000   1.008000   ; qtot 74.451584
 2462         h1     73    ccc    H27   2462 0.08578000   1.008000   ; qtot 74.537364
 2463         oh     73    ccc     O9   2463 -0.58672000  16.000000   ; qtot 73.950644
 2464         ho     73    ccc    H28   2464 0.41908000   1.008000   ; qtot 74.369724
 2465         n3     73    ccc     N3   2465 -0.54282000  14.010000   ; qtot 73.826904
 2466         c3     73    ccc    C17   2466 0.08518000  12.010000   ; qtot 73.912084
 2467         c3     73    ccc    C18   2467 0.07918000  12.010000   ; qtot 73.991264
 2468         h1     73    ccc    H29   2468 0.06978000   1.008000   ; qtot 74.061044
 2469         c3     73    ccc    C19   2469 0.07918000  12.010000   ; qtot 74.140224
 2470         c3     73    ccc    C20   2470 0.03578000  12.010000   ; qtot 74.176004
 2471         c3     73    ccc    C21   2471 0.33498000  12.010000   ; qtot 74.510984
 2472         h1     73    ccc    H30   2472 0.06178000   1.008000   ; qtot 74.572764
 2473         h1     73    ccc    H31   2473 0.11278000   1.008000   ; qtot 74.685544
 2474         h2     73    ccc    H32   2474 0.12178000   1.008000   ; qtot 74.807324
 2475         oh     73    ccc    O10   2475 -0.56972000  16.000000   ; qtot 74.237604
 2476         oh     73    ccc    O11   2476 -0.57772000  16.000000   ; qtot 73.659884
 2477         c3     73    ccc    C22   2477 0.14548000  12.010000   ; qtot 73.805364
 2478         ho     73    ccc    H33   2478 0.40508000   1.008000   ; qtot 74.210444
 2479         hn     73    ccc    H34   2479 0.31758000   1.008000   ; qtot 74.528024
 2480         h1     73    ccc    H35   2480 0.06278000   1.008000   ; qtot 74.590804
 2481         h1     73    ccc    H36   2481 0.06278000   1.008000   ; qtot 74.653584
 2482         oh     73    ccc    O12   2482 -0.59472000  16.000000   ; qtot 74.058864
 2483         ho     73    ccc    H37   2483 0.41908000   1.008000   ; qtot 74.477944
 2484         os     73    ccc    O13   2484 -0.44552000  16.000000   ; qtot 74.032424
 2485         ho     73    ccc    H38   2485 0.41908000   1.008000   ; qtot 74.451504
 2486         h1     73    ccc    H39   2486 0.08578000   1.008000   ; qtot 74.537284
 2487         oh     73    ccc     O5   2487 -0.58672000  16.000000   ; qtot 73.950564
 2488         ho     73    ccc    H40   2488 0.41908000   1.008000   ; qtot 74.369644
 2489         n3     73    ccc     N4   2489 -0.54282000  14.010000   ; qtot 73.826824
 2490         hn     73    ccc    H41   2490 0.17125500   1.008000   ; qtot 73.998079
; residue   74 ccc rtp ccc q 1.0
 2491          n     74    ccc     N1   2491 -0.33303000  14.010000   ; qtot 73.665049
 2492         hn     74    ccc     H4   2492 0.25916100   1.008000   ; qtot 73.924210
 2493         c3     74    ccc     C3   2493 -0.03328100  12.010000   ; qtot 73.890929
 2494         h1     74    ccc     H5   2494 0.10618100   1.008000   ; qtot 73.997110
 2495         c3     74    ccc     C4   2495 -0.02083000  12.010000   ; qtot 73.976280
 2496         h1     74    ccc     H6   2496 0.10618100   1.008000   ; qtot 74.082461
 2497         h1     74    ccc     H7   2497 0.07988000   1.008000   ; qtot 74.162341
 2498         h1     74    ccc     H8   2498 0.07988000   1.008000   ; qtot 74.242221
 2499         n4     74    ccc     N2   2499 -0.02747900  14.010000   ; qtot 74.214742
 2500         c3     74    ccc     C5   2500 -0.05097600  12.010000   ; qtot 74.163766
 2501         c3     74    ccc     C6   2501 -0.05097600  12.010000   ; qtot 74.112790
 2502         h1     74    ccc     H9   2502 0.11563300   1.008000   ; qtot 74.228423
 2503         c3     74    ccc     C7   2503 -0.18457900  12.010000   ; qtot 74.043844
 2504         h1     74    ccc    H10   2504 0.11563300   1.008000   ; qtot 74.159477
 2505         hc     74    ccc    H11   2505 0.08347900   1.008000   ; qtot 74.242956
 2506         hc     74    ccc    H12   2506 0.08347900   1.008000   ; qtot 74.326435
 2507          c     74    ccc     C8   2507 0.67254400  12.010000   ; qtot 74.998979
 2508          o     74    ccc     O2   2508 -0.52917200  16.000000   ; qtot 74.469807
 2509         h1     74    ccc    H13   2509 0.11563300   1.008000   ; qtot 74.585440
 2510         h1     74    ccc    H14   2510 0.11563300   1.008000   ; qtot 74.701073
 2511         c3     74    ccc     C9   2511 -0.18457900  12.010000   ; qtot 74.516494
 2512         hc     74    ccc    H15   2512 0.08347900   1.008000   ; qtot 74.599973
 2513         hc     74    ccc    H16   2513 0.08347900   1.008000   ; qtot 74.683452
 2514          c     74    ccc    C10   2514 0.67254400  12.010000   ; qtot 75.355996
 2515          o     74    ccc     O4   2515 -0.52917200  16.000000   ; qtot 74.826824
 2516         c3     74    ccc    C11   2516 0.08518000  12.010000   ; qtot 74.912004
 2517         c3     74    ccc    C12   2517 0.07918000  12.010000   ; qtot 74.991184
 2518         h1     74    ccc    H17   2518 0.06978000   1.008000   ; qtot 75.060964
 2519         c3     74    ccc    C13   2519 0.07918000  12.010000   ; qtot 75.140144
 2520         c3     74    ccc    C14   2520 0.03578000  12.010000   ; qtot 75.175924
 2521         c3     74    ccc    C15   2521 0.33498000  12.010000   ; qtot 75.510904
 2522         h1     74    ccc    H18   2522 0.06178000   1.008000   ; qtot 75.572684
 2523         h1     74    ccc    H19   2523 0.11278000   1.008000   ; qtot 75.685464
 2524         h2     74    ccc    H20   2524 0.12178000   1.008000   ; qtot 75.807244
 2525         oh     74    ccc     O1   2525 -0.56972000  16.000000   ; qtot 75.237524
 2526         oh     74    ccc     O6   2526 -0.57772000  16.000000   ; qtot 74.659804
 2527         c3     74    ccc    C16   2527 0.14548000  12.010000   ; qtot 74.805284
 2528         ho     74    ccc    H21   2528 0.40508000   1.008000   ; qtot 75.210364
 2529         hn     74    ccc    H22   2529 0.31758000   1.008000   ; qtot 75.527944
 2530         h1     74    ccc    H23   2530 0.06278000   1.008000   ; qtot 75.590724
 2531         h1     74    ccc    H24   2531 0.06278000   1.008000   ; qtot 75.653504
 2532         oh     74    ccc     O7   2532 -0.59472000  16.000000   ; qtot 75.058784
 2533         ho     74    ccc    H25   2533 0.41908000   1.008000   ; qtot 75.477864
 2534         os     74    ccc     O8   2534 -0.44552000  16.000000   ; qtot 75.032344
 2535         ho     74    ccc    H26   2535 0.41908000   1.008000   ; qtot 75.451424
 2536         h1     74    ccc    H27   2536 0.08578000   1.008000   ; qtot 75.537204
 2537         oh     74    ccc     O9   2537 -0.58672000  16.000000   ; qtot 74.950484
 2538         ho     74    ccc    H28   2538 0.41908000   1.008000   ; qtot 75.369564
 2539         n3     74    ccc     N3   2539 -0.54282000  14.010000   ; qtot 74.826744
 2540         c3     74    ccc    C17   2540 0.08518000  12.010000   ; qtot 74.911924
 2541         c3     74    ccc    C18   2541 0.07918000  12.010000   ; qtot 74.991104
 2542         h1     74    ccc    H29   2542 0.06978000   1.008000   ; qtot 75.060884
 2543         c3     74    ccc    C19   2543 0.07918000  12.010000   ; qtot 75.140064
 2544         c3     74    ccc    C20   2544 0.03578000  12.010000   ; qtot 75.175844
 2545         c3     74    ccc    C21   2545 0.33498000  12.010000   ; qtot 75.510824
 2546         h1     74    ccc    H30   2546 0.06178000   1.008000   ; qtot 75.572604
 2547         h1     74    ccc    H31   2547 0.11278000   1.008000   ; qtot 75.685384
 2548         h2     74    ccc    H32   2548 0.12178000   1.008000   ; qtot 75.807164
 2549         oh     74    ccc    O10   2549 -0.56972000  16.000000   ; qtot 75.237444
 2550         oh     74    ccc    O11   2550 -0.57772000  16.000000   ; qtot 74.659724
 2551         c3     74    ccc    C22   2551 0.14548000  12.010000   ; qtot 74.805204
 2552         ho     74    ccc    H33   2552 0.40508000   1.008000   ; qtot 75.210284
 2553         hn     74    ccc    H34   2553 0.31758000   1.008000   ; qtot 75.527864
 2554         h1     74    ccc    H35   2554 0.06278000   1.008000   ; qtot 75.590644
 2555         h1     74    ccc    H36   2555 0.06278000   1.008000   ; qtot 75.653424
 2556         oh     74    ccc    O12   2556 -0.59472000  16.000000   ; qtot 75.058704
 2557         ho     74    ccc    H37   2557 0.41908000   1.008000   ; qtot 75.477784
 2558         os     74    ccc    O13   2558 -0.44552000  16.000000   ; qtot 75.032264
 2559         ho     74    ccc    H38   2559 0.41908000   1.008000   ; qtot 75.451344
 2560         h1     74    ccc    H39   2560 0.08578000   1.008000   ; qtot 75.537124
 2561         oh     74    ccc     O5   2561 -0.58672000  16.000000   ; qtot 74.950404
 2562         ho     74    ccc    H40   2562 0.41908000   1.008000   ; qtot 75.369484
 2563         n3     74    ccc     N4   2563 -0.54282000  14.010000   ; qtot 74.826664
 2564         hn     74    ccc    H41   2564 0.17125500   1.008000   ; qtot 74.997919
; residue   75 ccc rtp ccc q 1.0
 2565          n     75    ccc     N1   2565 -0.33303000  14.010000   ; qtot 74.664889
 2566         hn     75    ccc     H4   2566 0.25916100   1.008000   ; qtot 74.924050
 2567         c3     75    ccc     C3   2567 -0.03328100  12.010000   ; qtot 74.890769
 2568         h1     75    ccc     H5   2568 0.10618100   1.008000   ; qtot 74.996950
 2569         c3     75    ccc     C4   2569 -0.02083000  12.010000   ; qtot 74.976120
 2570         h1     75    ccc     H6   2570 0.10618100   1.008000   ; qtot 75.082301
 2571         h1     75    ccc     H7   2571 0.07988000   1.008000   ; qtot 75.162181
 2572         h1     75    ccc     H8   2572 0.07988000   1.008000   ; qtot 75.242061
 2573         n4     75    ccc     N2   2573 -0.02747900  14.010000   ; qtot 75.214582
 2574         c3     75    ccc     C5   2574 -0.05097600  12.010000   ; qtot 75.163606
 2575         c3     75    ccc     C6   2575 -0.05097600  12.010000   ; qtot 75.112630
 2576         h1     75    ccc     H9   2576 0.11563300   1.008000   ; qtot 75.228263
 2577         c3     75    ccc     C7   2577 -0.18457900  12.010000   ; qtot 75.043684
 2578         h1     75    ccc    H10   2578 0.11563300   1.008000   ; qtot 75.159317
 2579         hc     75    ccc    H11   2579 0.08347900   1.008000   ; qtot 75.242796
 2580         hc     75    ccc    H12   2580 0.08347900   1.008000   ; qtot 75.326275
 2581          c     75    ccc     C8   2581 0.67254400  12.010000   ; qtot 75.998819
 2582          o     75    ccc     O2   2582 -0.52917200  16.000000   ; qtot 75.469647
 2583         h1     75    ccc    H13   2583 0.11563300   1.008000   ; qtot 75.585280
 2584         h1     75    ccc    H14   2584 0.11563300   1.008000   ; qtot 75.700913
 2585         c3     75    ccc     C9   2585 -0.18457900  12.010000   ; qtot 75.516334
 2586         hc     75    ccc    H15   2586 0.08347900   1.008000   ; qtot 75.599813
 2587         hc     75    ccc    H16   2587 0.08347900   1.008000   ; qtot 75.683292
 2588          c     75    ccc    C10   2588 0.67254400  12.010000   ; qtot 76.355836
 2589          o     75    ccc     O4   2589 -0.52917200  16.000000   ; qtot 75.826664
 2590         c3     75    ccc    C11   2590 0.08518000  12.010000   ; qtot 75.911844
 2591         c3     75    ccc    C12   2591 0.07918000  12.010000   ; qtot 75.991024
 2592         h1     75    ccc    H17   2592 0.06978000   1.008000   ; qtot 76.060804
 2593         c3     75    ccc    C13   2593 0.07918000  12.010000   ; qtot 76.139984
 2594         c3     75    ccc    C14   2594 0.03578000  12.010000   ; qtot 76.175764
 2595         c3     75    ccc    C15   2595 0.33498000  12.010000   ; qtot 76.510744
 2596         h1     75    ccc    H18   2596 0.06178000   1.008000   ; qtot 76.572524
 2597         h1     75    ccc    H19   2597 0.11278000   1.008000   ; qtot 76.685304
 2598         h2     75    ccc    H20   2598 0.12178000   1.008000   ; qtot 76.807084
 2599         oh     75    ccc     O1   2599 -0.56972000  16.000000   ; qtot 76.237364
 2600         oh     75    ccc     O6   2600 -0.57772000  16.000000   ; qtot 75.659644
 2601         c3     75    ccc    C16   2601 0.14548000  12.010000   ; qtot 75.805124
 2602         ho     75    ccc    H21   2602 0.40508000   1.008000   ; qtot 76.210204
 2603         hn     75    ccc    H22   2603 0.31758000   1.008000   ; qtot 76.527784
 2604         h1     75    ccc    H23   2604 0.06278000   1.008000   ; qtot 76.590564
 2605         h1     75    ccc    H24   2605 0.06278000   1.008000   ; qtot 76.653344
 2606         oh     75    ccc     O7   2606 -0.59472000  16.000000   ; qtot 76.058624
 2607         ho     75    ccc    H25   2607 0.41908000   1.008000   ; qtot 76.477704
 2608         os     75    ccc     O8   2608 -0.44552000  16.000000   ; qtot 76.032184
 2609         ho     75    ccc    H26   2609 0.41908000   1.008000   ; qtot 76.451264
 2610         h1     75    ccc    H27   2610 0.08578000   1.008000   ; qtot 76.537044
 2611         oh     75    ccc     O9   2611 -0.58672000  16.000000   ; qtot 75.950324
 2612         ho     75    ccc    H28   2612 0.41908000   1.008000   ; qtot 76.369404
 2613         n3     75    ccc     N3   2613 -0.54282000  14.010000   ; qtot 75.826584
 2614         c3     75    ccc    C17   2614 0.08518000  12.010000   ; qtot 75.911764
 2615         c3     75    ccc    C18   2615 0.07918000  12.010000   ; qtot 75.990944
 2616         h1     75    ccc    H29   2616 0.06978000   1.008000   ; qtot 76.060724
 2617         c3     75    ccc    C19   2617 0.07918000  12.010000   ; qtot 76.139904
 2618         c3     75    ccc    C20   2618 0.03578000  12.010000   ; qtot 76.175684
 2619         c3     75    ccc    C21   2619 0.33498000  12.010000   ; qtot 76.510664
 2620         h1     75    ccc    H30   2620 0.06178000   1.008000   ; qtot 76.572444
 2621         h1     75    ccc    H31   2621 0.11278000   1.008000   ; qtot 76.685224
 2622         h2     75    ccc    H32   2622 0.12178000   1.008000   ; qtot 76.807004
 2623         oh     75    ccc    O10   2623 -0.56972000  16.000000   ; qtot 76.237284
 2624         oh     75    ccc    O11   2624 -0.57772000  16.000000   ; qtot 75.659564
 2625         c3     75    ccc    C22   2625 0.14548000  12.010000   ; qtot 75.805044
 2626         ho     75    ccc    H33   2626 0.40508000   1.008000   ; qtot 76.210124
 2627         hn     75    ccc    H34   2627 0.31758000   1.008000   ; qtot 76.527704
 2628         h1     75    ccc    H35   2628 0.06278000   1.008000   ; qtot 76.590484
 2629         h1     75    ccc    H36   2629 0.06278000   1.008000   ; qtot 76.653264
 2630         oh     75    ccc    O12   2630 -0.59472000  16.000000   ; qtot 76.058544
 2631         ho     75    ccc    H37   2631 0.41908000   1.008000   ; qtot 76.477624
 2632         os     75    ccc    O13   2632 -0.44552000  16.000000   ; qtot 76.032104
 2633         ho     75    ccc    H38   2633 0.41908000   1.008000   ; qtot 76.451184
 2634         h1     75    ccc    H39   2634 0.08578000   1.008000   ; qtot 76.536964
 2635         oh     75    ccc     O5   2635 -0.58672000  16.000000   ; qtot 75.950244
 2636         ho     75    ccc    H40   2636 0.41908000   1.008000   ; qtot 76.369324
 2637         n3     75    ccc     N4   2637 -0.54282000  14.010000   ; qtot 75.826504
 2638         hn     75    ccc    H41   2638 0.17125500   1.008000   ; qtot 75.997759
; residue   76 ccc rtp ccc q 1.0
 2639          n     76    ccc     N1   2639 -0.33303000  14.010000   ; qtot 75.664729
 2640         hn     76    ccc     H4   2640 0.25916100   1.008000   ; qtot 75.923890
 2641         c3     76    ccc     C3   2641 -0.03328100  12.010000   ; qtot 75.890609
 2642         h1     76    ccc     H5   2642 0.10618100   1.008000   ; qtot 75.996790
 2643         c3     76    ccc     C4   2643 -0.02083000  12.010000   ; qtot 75.975960
 2644         h1     76    ccc     H6   2644 0.10618100   1.008000   ; qtot 76.082141
 2645         h1     76    ccc     H7   2645 0.07988000   1.008000   ; qtot 76.162021
 2646         h1     76    ccc     H8   2646 0.07988000   1.008000   ; qtot 76.241901
 2647         n4     76    ccc     N2   2647 -0.02747900  14.010000   ; qtot 76.214422
 2648         c3     76    ccc     C5   2648 -0.05097600  12.010000   ; qtot 76.163446
 2649         c3     76    ccc     C6   2649 -0.05097600  12.010000   ; qtot 76.112470
 2650         h1     76    ccc     H9   2650 0.11563300   1.008000   ; qtot 76.228103
 2651         c3     76    ccc     C7   2651 -0.18457900  12.010000   ; qtot 76.043524
 2652         h1     76    ccc    H10   2652 0.11563300   1.008000   ; qtot 76.159157
 2653         hc     76    ccc    H11   2653 0.08347900   1.008000   ; qtot 76.242636
 2654         hc     76    ccc    H12   2654 0.08347900   1.008000   ; qtot 76.326115
 2655          c     76    ccc     C8   2655 0.67254400  12.010000   ; qtot 76.998659
 2656          o     76    ccc     O2   2656 -0.52917200  16.000000   ; qtot 76.469487
 2657         h1     76    ccc    H13   2657 0.11563300   1.008000   ; qtot 76.585120
 2658         h1     76    ccc    H14   2658 0.11563300   1.008000   ; qtot 76.700753
 2659         c3     76    ccc     C9   2659 -0.18457900  12.010000   ; qtot 76.516174
 2660         hc     76    ccc    H15   2660 0.08347900   1.008000   ; qtot 76.599653
 2661         hc     76    ccc    H16   2661 0.08347900   1.008000   ; qtot 76.683132
 2662          c     76    ccc    C10   2662 0.67254400  12.010000   ; qtot 77.355676
 2663          o     76    ccc     O4   2663 -0.52917200  16.000000   ; qtot 76.826504
 2664         c3     76    ccc    C11   2664 0.08518000  12.010000   ; qtot 76.911684
 2665         c3     76    ccc    C12   2665 0.07918000  12.010000   ; qtot 76.990864
 2666         h1     76    ccc    H17   2666 0.06978000   1.008000   ; qtot 77.060644
 2667         c3     76    ccc    C13   2667 0.07918000  12.010000   ; qtot 77.139824
 2668         c3     76    ccc    C14   2668 0.03578000  12.010000   ; qtot 77.175604
 2669         c3     76    ccc    C15   2669 0.33498000  12.010000   ; qtot 77.510584
 2670         h1     76    ccc    H18   2670 0.06178000   1.008000   ; qtot 77.572364
 2671         h1     76    ccc    H19   2671 0.11278000   1.008000   ; qtot 77.685144
 2672         h2     76    ccc    H20   2672 0.12178000   1.008000   ; qtot 77.806924
 2673         oh     76    ccc     O1   2673 -0.56972000  16.000000   ; qtot 77.237204
 2674         oh     76    ccc     O6   2674 -0.57772000  16.000000   ; qtot 76.659484
 2675         c3     76    ccc    C16   2675 0.14548000  12.010000   ; qtot 76.804964
 2676         ho     76    ccc    H21   2676 0.40508000   1.008000   ; qtot 77.210044
 2677         hn     76    ccc    H22   2677 0.31758000   1.008000   ; qtot 77.527624
 2678         h1     76    ccc    H23   2678 0.06278000   1.008000   ; qtot 77.590404
 2679         h1     76    ccc    H24   2679 0.06278000   1.008000   ; qtot 77.653184
 2680         oh     76    ccc     O7   2680 -0.59472000  16.000000   ; qtot 77.058464
 2681         ho     76    ccc    H25   2681 0.41908000   1.008000   ; qtot 77.477544
 2682         os     76    ccc     O8   2682 -0.44552000  16.000000   ; qtot 77.032024
 2683         ho     76    ccc    H26   2683 0.41908000   1.008000   ; qtot 77.451104
 2684         h1     76    ccc    H27   2684 0.08578000   1.008000   ; qtot 77.536884
 2685         oh     76    ccc     O9   2685 -0.58672000  16.000000   ; qtot 76.950164
 2686         ho     76    ccc    H28   2686 0.41908000   1.008000   ; qtot 77.369244
 2687         n3     76    ccc     N3   2687 -0.54282000  14.010000   ; qtot 76.826424
 2688         c3     76    ccc    C17   2688 0.08518000  12.010000   ; qtot 76.911604
 2689         c3     76    ccc    C18   2689 0.07918000  12.010000   ; qtot 76.990784
 2690         h1     76    ccc    H29   2690 0.06978000   1.008000   ; qtot 77.060564
 2691         c3     76    ccc    C19   2691 0.07918000  12.010000   ; qtot 77.139744
 2692         c3     76    ccc    C20   2692 0.03578000  12.010000   ; qtot 77.175524
 2693         c3     76    ccc    C21   2693 0.33498000  12.010000   ; qtot 77.510504
 2694         h1     76    ccc    H30   2694 0.06178000   1.008000   ; qtot 77.572284
 2695         h1     76    ccc    H31   2695 0.11278000   1.008000   ; qtot 77.685064
 2696         h2     76    ccc    H32   2696 0.12178000   1.008000   ; qtot 77.806844
 2697         oh     76    ccc    O10   2697 -0.56972000  16.000000   ; qtot 77.237124
 2698         oh     76    ccc    O11   2698 -0.57772000  16.000000   ; qtot 76.659404
 2699         c3     76    ccc    C22   2699 0.14548000  12.010000   ; qtot 76.804884
 2700         ho     76    ccc    H33   2700 0.40508000   1.008000   ; qtot 77.209964
 2701         hn     76    ccc    H34   2701 0.31758000   1.008000   ; qtot 77.527544
 2702         h1     76    ccc    H35   2702 0.06278000   1.008000   ; qtot 77.590324
 2703         h1     76    ccc    H36   2703 0.06278000   1.008000   ; qtot 77.653104
 2704         oh     76    ccc    O12   2704 -0.59472000  16.000000   ; qtot 77.058384
 2705         ho     76    ccc    H37   2705 0.41908000   1.008000   ; qtot 77.477464
 2706         os     76    ccc    O13   2706 -0.44552000  16.000000   ; qtot 77.031944
 2707         ho     76    ccc    H38   2707 0.41908000   1.008000   ; qtot 77.451024
 2708         h1     76    ccc    H39   2708 0.08578000   1.008000   ; qtot 77.536804
 2709         oh     76    ccc     O5   2709 -0.58672000  16.000000   ; qtot 76.950084
 2710         ho     76    ccc    H40   2710 0.41908000   1.008000   ; qtot 77.369164
 2711         n3     76    ccc     N4   2711 -0.54282000  14.010000   ; qtot 76.826344
 2712         hn     76    ccc    H41   2712 0.17125500   1.008000   ; qtot 76.997599
; residue   77 ccc rtp ccc q 1.0
 2713          n     77    ccc     N1   2713 -0.33303000  14.010000   ; qtot 76.664569
 2714         hn     77    ccc     H4   2714 0.25916100   1.008000   ; qtot 76.923730
 2715         c3     77    ccc     C3   2715 -0.03328100  12.010000   ; qtot 76.890449
 2716         h1     77    ccc     H5   2716 0.10618100   1.008000   ; qtot 76.996630
 2717         c3     77    ccc     C4   2717 -0.02083000  12.010000   ; qtot 76.975800
 2718         h1     77    ccc     H6   2718 0.10618100   1.008000   ; qtot 77.081981
 2719         h1     77    ccc     H7   2719 0.07988000   1.008000   ; qtot 77.161861
 2720         h1     77    ccc     H8   2720 0.07988000   1.008000   ; qtot 77.241741
 2721         n4     77    ccc     N2   2721 -0.02747900  14.010000   ; qtot 77.214262
 2722         c3     77    ccc     C5   2722 -0.05097600  12.010000   ; qtot 77.163286
 2723         c3     77    ccc     C6   2723 -0.05097600  12.010000   ; qtot 77.112310
 2724         h1     77    ccc     H9   2724 0.11563300   1.008000   ; qtot 77.227943
 2725         c3     77    ccc     C7   2725 -0.18457900  12.010000   ; qtot 77.043364
 2726         h1     77    ccc    H10   2726 0.11563300   1.008000   ; qtot 77.158997
 2727         hc     77    ccc    H11   2727 0.08347900   1.008000   ; qtot 77.242476
 2728         hc     77    ccc    H12   2728 0.08347900   1.008000   ; qtot 77.325955
 2729          c     77    ccc     C8   2729 0.67254400  12.010000   ; qtot 77.998499
 2730          o     77    ccc     O2   2730 -0.52917200  16.000000   ; qtot 77.469327
 2731         h1     77    ccc    H13   2731 0.11563300   1.008000   ; qtot 77.584960
 2732         h1     77    ccc    H14   2732 0.11563300   1.008000   ; qtot 77.700593
 2733         c3     77    ccc     C9   2733 -0.18457900  12.010000   ; qtot 77.516014
 2734         hc     77    ccc    H15   2734 0.08347900   1.008000   ; qtot 77.599493
 2735         hc     77    ccc    H16   2735 0.08347900   1.008000   ; qtot 77.682972
 2736          c     77    ccc    C10   2736 0.67254400  12.010000   ; qtot 78.355516
 2737          o     77    ccc     O4   2737 -0.52917200  16.000000   ; qtot 77.826344
 2738         c3     77    ccc    C11   2738 0.08518000  12.010000   ; qtot 77.911524
 2739         c3     77    ccc    C12   2739 0.07918000  12.010000   ; qtot 77.990704
 2740         h1     77    ccc    H17   2740 0.06978000   1.008000   ; qtot 78.060484
 2741         c3     77    ccc    C13   2741 0.07918000  12.010000   ; qtot 78.139664
 2742         c3     77    ccc    C14   2742 0.03578000  12.010000   ; qtot 78.175444
 2743         c3     77    ccc    C15   2743 0.33498000  12.010000   ; qtot 78.510424
 2744         h1     77    ccc    H18   2744 0.06178000   1.008000   ; qtot 78.572204
 2745         h1     77    ccc    H19   2745 0.11278000   1.008000   ; qtot 78.684984
 2746         h2     77    ccc    H20   2746 0.12178000   1.008000   ; qtot 78.806764
 2747         oh     77    ccc     O1   2747 -0.56972000  16.000000   ; qtot 78.237044
 2748         oh     77    ccc     O6   2748 -0.57772000  16.000000   ; qtot 77.659324
 2749         c3     77    ccc    C16   2749 0.14548000  12.010000   ; qtot 77.804804
 2750         ho     77    ccc    H21   2750 0.40508000   1.008000   ; qtot 78.209884
 2751         hn     77    ccc    H22   2751 0.31758000   1.008000   ; qtot 78.527464
 2752         h1     77    ccc    H23   2752 0.06278000   1.008000   ; qtot 78.590244
 2753         h1     77    ccc    H24   2753 0.06278000   1.008000   ; qtot 78.653024
 2754         oh     77    ccc     O7   2754 -0.59472000  16.000000   ; qtot 78.058304
 2755         ho     77    ccc    H25   2755 0.41908000   1.008000   ; qtot 78.477384
 2756         os     77    ccc     O8   2756 -0.44552000  16.000000   ; qtot 78.031864
 2757         ho     77    ccc    H26   2757 0.41908000   1.008000   ; qtot 78.450944
 2758         h1     77    ccc    H27   2758 0.08578000   1.008000   ; qtot 78.536724
 2759         oh     77    ccc     O9   2759 -0.58672000  16.000000   ; qtot 77.950004
 2760         ho     77    ccc    H28   2760 0.41908000   1.008000   ; qtot 78.369084
 2761         n3     77    ccc     N3   2761 -0.54282000  14.010000   ; qtot 77.826264
 2762         c3     77    ccc    C17   2762 0.08518000  12.010000   ; qtot 77.911444
 2763         c3     77    ccc    C18   2763 0.07918000  12.010000   ; qtot 77.990624
 2764         h1     77    ccc    H29   2764 0.06978000   1.008000   ; qtot 78.060404
 2765         c3     77    ccc    C19   2765 0.07918000  12.010000   ; qtot 78.139584
 2766         c3     77    ccc    C20   2766 0.03578000  12.010000   ; qtot 78.175364
 2767         c3     77    ccc    C21   2767 0.33498000  12.010000   ; qtot 78.510344
 2768         h1     77    ccc    H30   2768 0.06178000   1.008000   ; qtot 78.572124
 2769         h1     77    ccc    H31   2769 0.11278000   1.008000   ; qtot 78.684904
 2770         h2     77    ccc    H32   2770 0.12178000   1.008000   ; qtot 78.806684
 2771         oh     77    ccc    O10   2771 -0.56972000  16.000000   ; qtot 78.236964
 2772         oh     77    ccc    O11   2772 -0.57772000  16.000000   ; qtot 77.659244
 2773         c3     77    ccc    C22   2773 0.14548000  12.010000   ; qtot 77.804724
 2774         ho     77    ccc    H33   2774 0.40508000   1.008000   ; qtot 78.209804
 2775         hn     77    ccc    H34   2775 0.31758000   1.008000   ; qtot 78.527384
 2776         h1     77    ccc    H35   2776 0.06278000   1.008000   ; qtot 78.590164
 2777         h1     77    ccc    H36   2777 0.06278000   1.008000   ; qtot 78.652944
 2778         oh     77    ccc    O12   2778 -0.59472000  16.000000   ; qtot 78.058224
 2779         ho     77    ccc    H37   2779 0.41908000   1.008000   ; qtot 78.477304
 2780         os     77    ccc    O13   2780 -0.44552000  16.000000   ; qtot 78.031784
 2781         ho     77    ccc    H38   2781 0.41908000   1.008000   ; qtot 78.450864
 2782         h1     77    ccc    H39   2782 0.08578000   1.008000   ; qtot 78.536644
 2783         oh     77    ccc     O5   2783 -0.58672000  16.000000   ; qtot 77.949924
 2784         ho     77    ccc    H40   2784 0.41908000   1.008000   ; qtot 78.369004
 2785         n3     77    ccc     N4   2785 -0.54282000  14.010000   ; qtot 77.826184
 2786         hn     77    ccc    H41   2786 0.17125500   1.008000   ; qtot 77.997439
; residue   78 ccc rtp ccc q 1.0
 2787          n     78    ccc     N1   2787 -0.33303000  14.010000   ; qtot 77.664409
 2788         hn     78    ccc     H4   2788 0.25916100   1.008000   ; qtot 77.923570
 2789         c3     78    ccc     C3   2789 -0.03328100  12.010000   ; qtot 77.890289
 2790         h1     78    ccc     H5   2790 0.10618100   1.008000   ; qtot 77.996470
 2791         c3     78    ccc     C4   2791 -0.02083000  12.010000   ; qtot 77.975640
 2792         h1     78    ccc     H6   2792 0.10618100   1.008000   ; qtot 78.081821
 2793         h1     78    ccc     H7   2793 0.07988000   1.008000   ; qtot 78.161701
 2794         h1     78    ccc     H8   2794 0.07988000   1.008000   ; qtot 78.241581
 2795         n4     78    ccc     N2   2795 -0.02747900  14.010000   ; qtot 78.214102
 2796         c3     78    ccc     C5   2796 -0.05097600  12.010000   ; qtot 78.163126
 2797         c3     78    ccc     C6   2797 -0.05097600  12.010000   ; qtot 78.112150
 2798         h1     78    ccc     H9   2798 0.11563300   1.008000   ; qtot 78.227783
 2799         c3     78    ccc     C7   2799 -0.18457900  12.010000   ; qtot 78.043204
 2800         h1     78    ccc    H10   2800 0.11563300   1.008000   ; qtot 78.158837
 2801         hc     78    ccc    H11   2801 0.08347900   1.008000   ; qtot 78.242316
 2802         hc     78    ccc    H12   2802 0.08347900   1.008000   ; qtot 78.325795
 2803          c     78    ccc     C8   2803 0.67254400  12.010000   ; qtot 78.998339
 2804          o     78    ccc     O2   2804 -0.52917200  16.000000   ; qtot 78.469167
 2805         h1     78    ccc    H13   2805 0.11563300   1.008000   ; qtot 78.584800
 2806         h1     78    ccc    H14   2806 0.11563300   1.008000   ; qtot 78.700433
 2807         c3     78    ccc     C9   2807 -0.18457900  12.010000   ; qtot 78.515854
 2808         hc     78    ccc    H15   2808 0.08347900   1.008000   ; qtot 78.599333
 2809         hc     78    ccc    H16   2809 0.08347900   1.008000   ; qtot 78.682812
 2810          c     78    ccc    C10   2810 0.67254400  12.010000   ; qtot 79.355356
 2811          o     78    ccc     O4   2811 -0.52917200  16.000000   ; qtot 78.826184
 2812         c3     78    ccc    C11   2812 0.08518000  12.010000   ; qtot 78.911364
 2813         c3     78    ccc    C12   2813 0.07918000  12.010000   ; qtot 78.990544
 2814         h1     78    ccc    H17   2814 0.06978000   1.008000   ; qtot 79.060324
 2815         c3     78    ccc    C13   2815 0.07918000  12.010000   ; qtot 79.139504
 2816         c3     78    ccc    C14   2816 0.03578000  12.010000   ; qtot 79.175284
 2817         c3     78    ccc    C15   2817 0.33498000  12.010000   ; qtot 79.510264
 2818         h1     78    ccc    H18   2818 0.06178000   1.008000   ; qtot 79.572044
 2819         h1     78    ccc    H19   2819 0.11278000   1.008000   ; qtot 79.684824
 2820         h2     78    ccc    H20   2820 0.12178000   1.008000   ; qtot 79.806604
 2821         oh     78    ccc     O1   2821 -0.56972000  16.000000   ; qtot 79.236884
 2822         oh     78    ccc     O6   2822 -0.57772000  16.000000   ; qtot 78.659164
 2823         c3     78    ccc    C16   2823 0.14548000  12.010000   ; qtot 78.804644
 2824         ho     78    ccc    H21   2824 0.40508000   1.008000   ; qtot 79.209724
 2825         hn     78    ccc    H22   2825 0.31758000   1.008000   ; qtot 79.527304
 2826         h1     78    ccc    H23   2826 0.06278000   1.008000   ; qtot 79.590084
 2827         h1     78    ccc    H24   2827 0.06278000   1.008000   ; qtot 79.652864
 2828         oh     78    ccc     O7   2828 -0.59472000  16.000000   ; qtot 79.058144
 2829         ho     78    ccc    H25   2829 0.41908000   1.008000   ; qtot 79.477224
 2830         os     78    ccc     O8   2830 -0.44552000  16.000000   ; qtot 79.031704
 2831         ho     78    ccc    H26   2831 0.41908000   1.008000   ; qtot 79.450784
 2832         h1     78    ccc    H27   2832 0.08578000   1.008000   ; qtot 79.536564
 2833         oh     78    ccc     O9   2833 -0.58672000  16.000000   ; qtot 78.949844
 2834         ho     78    ccc    H28   2834 0.41908000   1.008000   ; qtot 79.368924
 2835         n3     78    ccc     N3   2835 -0.54282000  14.010000   ; qtot 78.826104
 2836         c3     78    ccc    C17   2836 0.08518000  12.010000   ; qtot 78.911284
 2837         c3     78    ccc    C18   2837 0.07918000  12.010000   ; qtot 78.990464
 2838         h1     78    ccc    H29   2838 0.06978000   1.008000   ; qtot 79.060244
 2839         c3     78    ccc    C19   2839 0.07918000  12.010000   ; qtot 79.139424
 2840         c3     78    ccc    C20   2840 0.03578000  12.010000   ; qtot 79.175204
 2841         c3     78    ccc    C21   2841 0.33498000  12.010000   ; qtot 79.510184
 2842         h1     78    ccc    H30   2842 0.06178000   1.008000   ; qtot 79.571964
 2843         h1     78    ccc    H31   2843 0.11278000   1.008000   ; qtot 79.684744
 2844         h2     78    ccc    H32   2844 0.12178000   1.008000   ; qtot 79.806524
 2845         oh     78    ccc    O10   2845 -0.56972000  16.000000   ; qtot 79.236804
 2846         oh     78    ccc    O11   2846 -0.57772000  16.000000   ; qtot 78.659084
 2847         c3     78    ccc    C22   2847 0.14548000  12.010000   ; qtot 78.804564
 2848         ho     78    ccc    H33   2848 0.40508000   1.008000   ; qtot 79.209644
 2849         hn     78    ccc    H34   2849 0.31758000   1.008000   ; qtot 79.527224
 2850         h1     78    ccc    H35   2850 0.06278000   1.008000   ; qtot 79.590004
 2851         h1     78    ccc    H36   2851 0.06278000   1.008000   ; qtot 79.652784
 2852         oh     78    ccc    O12   2852 -0.59472000  16.000000   ; qtot 79.058064
 2853         ho     78    ccc    H37   2853 0.41908000   1.008000   ; qtot 79.477144
 2854         os     78    ccc    O13   2854 -0.44552000  16.000000   ; qtot 79.031624
 2855         ho     78    ccc    H38   2855 0.41908000   1.008000   ; qtot 79.450704
 2856         h1     78    ccc    H39   2856 0.08578000   1.008000   ; qtot 79.536484
 2857         oh     78    ccc     O5   2857 -0.58672000  16.000000   ; qtot 78.949764
 2858         ho     78    ccc    H40   2858 0.41908000   1.008000   ; qtot 79.368844
 2859         n3     78    ccc     N4   2859 -0.54282000  14.010000   ; qtot 78.826024
 2860         hn     78    ccc    H41   2860 0.17125500   1.008000   ; qtot 78.997279
; residue   79 ccc rtp ccc q 1.0
 2861          n     79    ccc     N1   2861 -0.33303000  14.010000   ; qtot 78.664249
 2862         hn     79    ccc     H4   2862 0.25916100   1.008000   ; qtot 78.923410
 2863         c3     79    ccc     C3   2863 -0.03328100  12.010000   ; qtot 78.890129
 2864         h1     79    ccc     H5   2864 0.10618100   1.008000   ; qtot 78.996310
 2865         c3     79    ccc     C4   2865 -0.02083000  12.010000   ; qtot 78.975480
 2866         h1     79    ccc     H6   2866 0.10618100   1.008000   ; qtot 79.081661
 2867         h1     79    ccc     H7   2867 0.07988000   1.008000   ; qtot 79.161541
 2868         h1     79    ccc     H8   2868 0.07988000   1.008000   ; qtot 79.241421
 2869         n4     79    ccc     N2   2869 -0.02747900  14.010000   ; qtot 79.213942
 2870         c3     79    ccc     C5   2870 -0.05097600  12.010000   ; qtot 79.162966
 2871         c3     79    ccc     C6   2871 -0.05097600  12.010000   ; qtot 79.111990
 2872         h1     79    ccc     H9   2872 0.11563300   1.008000   ; qtot 79.227623
 2873         c3     79    ccc     C7   2873 -0.18457900  12.010000   ; qtot 79.043044
 2874         h1     79    ccc    H10   2874 0.11563300   1.008000   ; qtot 79.158677
 2875         hc     79    ccc    H11   2875 0.08347900   1.008000   ; qtot 79.242156
 2876         hc     79    ccc    H12   2876 0.08347900   1.008000   ; qtot 79.325635
 2877          c     79    ccc     C8   2877 0.67254400  12.010000   ; qtot 79.998179
 2878          o     79    ccc     O2   2878 -0.52917200  16.000000   ; qtot 79.469007
 2879         h1     79    ccc    H13   2879 0.11563300   1.008000   ; qtot 79.584640
 2880         h1     79    ccc    H14   2880 0.11563300   1.008000   ; qtot 79.700273
 2881         c3     79    ccc     C9   2881 -0.18457900  12.010000   ; qtot 79.515694
 2882         hc     79    ccc    H15   2882 0.08347900   1.008000   ; qtot 79.599173
 2883         hc     79    ccc    H16   2883 0.08347900   1.008000   ; qtot 79.682652
 2884          c     79    ccc    C10   2884 0.67254400  12.010000   ; qtot 80.355196
 2885          o     79    ccc     O4   2885 -0.52917200  16.000000   ; qtot 79.826024
 2886         c3     79    ccc    C11   2886 0.08518000  12.010000   ; qtot 79.911204
 2887         c3     79    ccc    C12   2887 0.07918000  12.010000   ; qtot 79.990384
 2888         h1     79    ccc    H17   2888 0.06978000   1.008000   ; qtot 80.060164
 2889         c3     79    ccc    C13   2889 0.07918000  12.010000   ; qtot 80.139344
 2890         c3     79    ccc    C14   2890 0.03578000  12.010000   ; qtot 80.175124
 2891         c3     79    ccc    C15   2891 0.33498000  12.010000   ; qtot 80.510104
 2892         h1     79    ccc    H18   2892 0.06178000   1.008000   ; qtot 80.571884
 2893         h1     79    ccc    H19   2893 0.11278000   1.008000   ; qtot 80.684664
 2894         h2     79    ccc    H20   2894 0.12178000   1.008000   ; qtot 80.806444
 2895         oh     79    ccc     O1   2895 -0.56972000  16.000000   ; qtot 80.236724
 2896         oh     79    ccc     O6   2896 -0.57772000  16.000000   ; qtot 79.659004
 2897         c3     79    ccc    C16   2897 0.14548000  12.010000   ; qtot 79.804484
 2898         ho     79    ccc    H21   2898 0.40508000   1.008000   ; qtot 80.209564
 2899         hn     79    ccc    H22   2899 0.31758000   1.008000   ; qtot 80.527144
 2900         h1     79    ccc    H23   2900 0.06278000   1.008000   ; qtot 80.589924
 2901         h1     79    ccc    H24   2901 0.06278000   1.008000   ; qtot 80.652704
 2902         oh     79    ccc     O7   2902 -0.59472000  16.000000   ; qtot 80.057984
 2903         ho     79    ccc    H25   2903 0.41908000   1.008000   ; qtot 80.477064
 2904         os     79    ccc     O8   2904 -0.44552000  16.000000   ; qtot 80.031544
 2905         ho     79    ccc    H26   2905 0.41908000   1.008000   ; qtot 80.450624
 2906         h1     79    ccc    H27   2906 0.08578000   1.008000   ; qtot 80.536404
 2907         oh     79    ccc     O9   2907 -0.58672000  16.000000   ; qtot 79.949684
 2908         ho     79    ccc    H28   2908 0.41908000   1.008000   ; qtot 80.368764
 2909         n3     79    ccc     N3   2909 -0.54282000  14.010000   ; qtot 79.825944
 2910         c3     79    ccc    C17   2910 0.08518000  12.010000   ; qtot 79.911124
 2911         c3     79    ccc    C18   2911 0.07918000  12.010000   ; qtot 79.990304
 2912         h1     79    ccc    H29   2912 0.06978000   1.008000   ; qtot 80.060084
 2913         c3     79    ccc    C19   2913 0.07918000  12.010000   ; qtot 80.139264
 2914         c3     79    ccc    C20   2914 0.03578000  12.010000   ; qtot 80.175044
 2915         c3     79    ccc    C21   2915 0.33498000  12.010000   ; qtot 80.510024
 2916         h1     79    ccc    H30   2916 0.06178000   1.008000   ; qtot 80.571804
 2917         h1     79    ccc    H31   2917 0.11278000   1.008000   ; qtot 80.684584
 2918         h2     79    ccc    H32   2918 0.12178000   1.008000   ; qtot 80.806364
 2919         oh     79    ccc    O10   2919 -0.56972000  16.000000   ; qtot 80.236644
 2920         oh     79    ccc    O11   2920 -0.57772000  16.000000   ; qtot 79.658924
 2921         c3     79    ccc    C22   2921 0.14548000  12.010000   ; qtot 79.804404
 2922         ho     79    ccc    H33   2922 0.40508000   1.008000   ; qtot 80.209484
 2923         hn     79    ccc    H34   2923 0.31758000   1.008000   ; qtot 80.527064
 2924         h1     79    ccc    H35   2924 0.06278000   1.008000   ; qtot 80.589844
 2925         h1     79    ccc    H36   2925 0.06278000   1.008000   ; qtot 80.652624
 2926         oh     79    ccc    O12   2926 -0.59472000  16.000000   ; qtot 80.057904
 2927         ho     79    ccc    H37   2927 0.41908000   1.008000   ; qtot 80.476984
 2928         os     79    ccc    O13   2928 -0.44552000  16.000000   ; qtot 80.031464
 2929         ho     79    ccc    H38   2929 0.41908000   1.008000   ; qtot 80.450544
 2930         h1     79    ccc    H39   2930 0.08578000   1.008000   ; qtot 80.536324
 2931         oh     79    ccc     O5   2931 -0.58672000  16.000000   ; qtot 79.949604
 2932         ho     79    ccc    H40   2932 0.41908000   1.008000   ; qtot 80.368684
 2933         n3     79    ccc     N4   2933 -0.54282000  14.010000   ; qtot 79.825864
 2934         hn     79    ccc    H41   2934 0.17125500   1.008000   ; qtot 79.997119
; residue   80 ccc rtp ccc q 1.0
 2935          n     80    ccc     N1   2935 -0.33303000  14.010000   ; qtot 79.664089
 2936         hn     80    ccc     H4   2936 0.25916100   1.008000   ; qtot 79.923250
 2937         c3     80    ccc     C3   2937 -0.03328100  12.010000   ; qtot 79.889969
 2938         h1     80    ccc     H5   2938 0.10618100   1.008000   ; qtot 79.996150
 2939         c3     80    ccc     C4   2939 -0.02083000  12.010000   ; qtot 79.975320
 2940         h1     80    ccc     H6   2940 0.10618100   1.008000   ; qtot 80.081501
 2941         h1     80    ccc     H7   2941 0.07988000   1.008000   ; qtot 80.161381
 2942         h1     80    ccc     H8   2942 0.07988000   1.008000   ; qtot 80.241261
 2943         n4     80    ccc     N2   2943 -0.02747900  14.010000   ; qtot 80.213782
 2944         c3     80    ccc     C5   2944 -0.05097600  12.010000   ; qtot 80.162806
 2945         c3     80    ccc     C6   2945 -0.05097600  12.010000   ; qtot 80.111830
 2946         h1     80    ccc     H9   2946 0.11563300   1.008000   ; qtot 80.227463
 2947         c3     80    ccc     C7   2947 -0.18457900  12.010000   ; qtot 80.042884
 2948         h1     80    ccc    H10   2948 0.11563300   1.008000   ; qtot 80.158517
 2949         hc     80    ccc    H11   2949 0.08347900   1.008000   ; qtot 80.241996
 2950         hc     80    ccc    H12   2950 0.08347900   1.008000   ; qtot 80.325475
 2951          c     80    ccc     C8   2951 0.67254400  12.010000   ; qtot 80.998019
 2952          o     80    ccc     O2   2952 -0.52917200  16.000000   ; qtot 80.468847
 2953         h1     80    ccc    H13   2953 0.11563300   1.008000   ; qtot 80.584480
 2954         h1     80    ccc    H14   2954 0.11563300   1.008000   ; qtot 80.700113
 2955         c3     80    ccc     C9   2955 -0.18457900  12.010000   ; qtot 80.515534
 2956         hc     80    ccc    H15   2956 0.08347900   1.008000   ; qtot 80.599013
 2957         hc     80    ccc    H16   2957 0.08347900   1.008000   ; qtot 80.682492
 2958          c     80    ccc    C10   2958 0.67254400  12.010000   ; qtot 81.355036
 2959          o     80    ccc     O4   2959 -0.52917200  16.000000   ; qtot 80.825864
 2960         c3     80    ccc    C11   2960 0.08518000  12.010000   ; qtot 80.911044
 2961         c3     80    ccc    C12   2961 0.07918000  12.010000   ; qtot 80.990224
 2962         h1     80    ccc    H17   2962 0.06978000   1.008000   ; qtot 81.060004
 2963         c3     80    ccc    C13   2963 0.07918000  12.010000   ; qtot 81.139184
 2964         c3     80    ccc    C14   2964 0.03578000  12.010000   ; qtot 81.174964
 2965         c3     80    ccc    C15   2965 0.33498000  12.010000   ; qtot 81.509944
 2966         h1     80    ccc    H18   2966 0.06178000   1.008000   ; qtot 81.571724
 2967         h1     80    ccc    H19   2967 0.11278000   1.008000   ; qtot 81.684504
 2968         h2     80    ccc    H20   2968 0.12178000   1.008000   ; qtot 81.806284
 2969         oh     80    ccc     O1   2969 -0.56972000  16.000000   ; qtot 81.236564
 2970         oh     80    ccc     O6   2970 -0.57772000  16.000000   ; qtot 80.658844
 2971         c3     80    ccc    C16   2971 0.14548000  12.010000   ; qtot 80.804324
 2972         ho     80    ccc    H21   2972 0.40508000   1.008000   ; qtot 81.209404
 2973         hn     80    ccc    H22   2973 0.31758000   1.008000   ; qtot 81.526984
 2974         h1     80    ccc    H23   2974 0.06278000   1.008000   ; qtot 81.589764
 2975         h1     80    ccc    H24   2975 0.06278000   1.008000   ; qtot 81.652544
 2976         oh     80    ccc     O7   2976 -0.59472000  16.000000   ; qtot 81.057824
 2977         ho     80    ccc    H25   2977 0.41908000   1.008000   ; qtot 81.476904
 2978         os     80    ccc     O8   2978 -0.44552000  16.000000   ; qtot 81.031384
 2979         ho     80    ccc    H26   2979 0.41908000   1.008000   ; qtot 81.450464
 2980         h1     80    ccc    H27   2980 0.08578000   1.008000   ; qtot 81.536244
 2981         oh     80    ccc     O9   2981 -0.58672000  16.000000   ; qtot 80.949524
 2982         ho     80    ccc    H28   2982 0.41908000   1.008000   ; qtot 81.368604
 2983         n3     80    ccc     N3   2983 -0.54282000  14.010000   ; qtot 80.825784
 2984         c3     80    ccc    C17   2984 0.08518000  12.010000   ; qtot 80.910964
 2985         c3     80    ccc    C18   2985 0.07918000  12.010000   ; qtot 80.990144
 2986         h1     80    ccc    H29   2986 0.06978000   1.008000   ; qtot 81.059924
 2987         c3     80    ccc    C19   2987 0.07918000  12.010000   ; qtot 81.139104
 2988         c3     80    ccc    C20   2988 0.03578000  12.010000   ; qtot 81.174884
 2989         c3     80    ccc    C21   2989 0.33498000  12.010000   ; qtot 81.509864
 2990         h1     80    ccc    H30   2990 0.06178000   1.008000   ; qtot 81.571644
 2991         h1     80    ccc    H31   2991 0.11278000   1.008000   ; qtot 81.684424
 2992         h2     80    ccc    H32   2992 0.12178000   1.008000   ; qtot 81.806204
 2993         oh     80    ccc    O10   2993 -0.56972000  16.000000   ; qtot 81.236484
 2994         oh     80    ccc    O11   2994 -0.57772000  16.000000   ; qtot 80.658764
 2995         c3     80    ccc    C22   2995 0.14548000  12.010000   ; qtot 80.804244
 2996         ho     80    ccc    H33   2996 0.40508000   1.008000   ; qtot 81.209324
 2997         hn     80    ccc    H34   2997 0.31758000   1.008000   ; qtot 81.526904
 2998         h1     80    ccc    H35   2998 0.06278000   1.008000   ; qtot 81.589684
 2999         h1     80    ccc    H36   2999 0.06278000   1.008000   ; qtot 81.652464
 3000         oh     80    ccc    O12   3000 -0.59472000  16.000000   ; qtot 81.057744
 3001         ho     80    ccc    H37   3001 0.41908000   1.008000   ; qtot 81.476824
 3002         os     80    ccc    O13   3002 -0.44552000  16.000000   ; qtot 81.031304
 3003         ho     80    ccc    H38   3003 0.41908000   1.008000   ; qtot 81.450384
 3004         h1     80    ccc    H39   3004 0.08578000   1.008000   ; qtot 81.536164
 3005         oh     80    ccc     O5   3005 -0.58672000  16.000000   ; qtot 80.949444
 3006         ho     80    ccc    H40   3006 0.41908000   1.008000   ; qtot 81.368524
 3007         n3     80    ccc     N4   3007 -0.54282000  14.010000   ; qtot 80.825704
 3008         hn     80    ccc    H41   3008 0.17125500   1.008000   ; qtot 80.996959
; residue   81 ccc rtp ccc q 1.0
 3009          n     81    ccc     N1   3009 -0.33303000  14.010000   ; qtot 80.663929
 3010         hn     81    ccc     H4   3010 0.25916100   1.008000   ; qtot 80.923090
 3011         c3     81    ccc     C3   3011 -0.03328100  12.010000   ; qtot 80.889809
 3012         h1     81    ccc     H5   3012 0.10618100   1.008000   ; qtot 80.995990
 3013         c3     81    ccc     C4   3013 -0.02083000  12.010000   ; qtot 80.975160
 3014         h1     81    ccc     H6   3014 0.10618100   1.008000   ; qtot 81.081341
 3015         h1     81    ccc     H7   3015 0.07988000   1.008000   ; qtot 81.161221
 3016         h1     81    ccc     H8   3016 0.07988000   1.008000   ; qtot 81.241101
 3017         n4     81    ccc     N2   3017 -0.02747900  14.010000   ; qtot 81.213622
 3018         c3     81    ccc     C5   3018 -0.05097600  12.010000   ; qtot 81.162646
 3019         c3     81    ccc     C6   3019 -0.05097600  12.010000   ; qtot 81.111670
 3020         h1     81    ccc     H9   3020 0.11563300   1.008000   ; qtot 81.227303
 3021         c3     81    ccc     C7   3021 -0.18457900  12.010000   ; qtot 81.042724
 3022         h1     81    ccc    H10   3022 0.11563300   1.008000   ; qtot 81.158357
 3023         hc     81    ccc    H11   3023 0.08347900   1.008000   ; qtot 81.241836
 3024         hc     81    ccc    H12   3024 0.08347900   1.008000   ; qtot 81.325315
 3025          c     81    ccc     C8   3025 0.67254400  12.010000   ; qtot 81.997859
 3026          o     81    ccc     O2   3026 -0.52917200  16.000000   ; qtot 81.468687
 3027         h1     81    ccc    H13   3027 0.11563300   1.008000   ; qtot 81.584320
 3028         h1     81    ccc    H14   3028 0.11563300   1.008000   ; qtot 81.699953
 3029         c3     81    ccc     C9   3029 -0.18457900  12.010000   ; qtot 81.515374
 3030         hc     81    ccc    H15   3030 0.08347900   1.008000   ; qtot 81.598853
 3031         hc     81    ccc    H16   3031 0.08347900   1.008000   ; qtot 81.682332
 3032          c     81    ccc    C10   3032 0.67254400  12.010000   ; qtot 82.354876
 3033          o     81    ccc     O4   3033 -0.52917200  16.000000   ; qtot 81.825704
 3034         c3     81    ccc    C11   3034 0.08518000  12.010000   ; qtot 81.910884
 3035         c3     81    ccc    C12   3035 0.07918000  12.010000   ; qtot 81.990064
 3036         h1     81    ccc    H17   3036 0.06978000   1.008000   ; qtot 82.059844
 3037         c3     81    ccc    C13   3037 0.07918000  12.010000   ; qtot 82.139024
 3038         c3     81    ccc    C14   3038 0.03578000  12.010000   ; qtot 82.174804
 3039         c3     81    ccc    C15   3039 0.33498000  12.010000   ; qtot 82.509784
 3040         h1     81    ccc    H18   3040 0.06178000   1.008000   ; qtot 82.571564
 3041         h1     81    ccc    H19   3041 0.11278000   1.008000   ; qtot 82.684344
 3042         h2     81    ccc    H20   3042 0.12178000   1.008000   ; qtot 82.806124
 3043         oh     81    ccc     O1   3043 -0.56972000  16.000000   ; qtot 82.236404
 3044         oh     81    ccc     O6   3044 -0.57772000  16.000000   ; qtot 81.658684
 3045         c3     81    ccc    C16   3045 0.14548000  12.010000   ; qtot 81.804164
 3046         ho     81    ccc    H21   3046 0.40508000   1.008000   ; qtot 82.209244
 3047         hn     81    ccc    H22   3047 0.31758000   1.008000   ; qtot 82.526824
 3048         h1     81    ccc    H23   3048 0.06278000   1.008000   ; qtot 82.589604
 3049         h1     81    ccc    H24   3049 0.06278000   1.008000   ; qtot 82.652384
 3050         oh     81    ccc     O7   3050 -0.59472000  16.000000   ; qtot 82.057664
 3051         ho     81    ccc    H25   3051 0.41908000   1.008000   ; qtot 82.476744
 3052         os     81    ccc     O8   3052 -0.44552000  16.000000   ; qtot 82.031224
 3053         ho     81    ccc    H26   3053 0.41908000   1.008000   ; qtot 82.450304
 3054         h1     81    ccc    H27   3054 0.08578000   1.008000   ; qtot 82.536084
 3055         oh     81    ccc     O9   3055 -0.58672000  16.000000   ; qtot 81.949364
 3056         ho     81    ccc    H28   3056 0.41908000   1.008000   ; qtot 82.368444
 3057         n3     81    ccc     N3   3057 -0.54282000  14.010000   ; qtot 81.825624
 3058         c3     81    ccc    C17   3058 0.08518000  12.010000   ; qtot 81.910804
 3059         c3     81    ccc    C18   3059 0.07918000  12.010000   ; qtot 81.989984
 3060         h1     81    ccc    H29   3060 0.06978000   1.008000   ; qtot 82.059764
 3061         c3     81    ccc    C19   3061 0.07918000  12.010000   ; qtot 82.138944
 3062         c3     81    ccc    C20   3062 0.03578000  12.010000   ; qtot 82.174724
 3063         c3     81    ccc    C21   3063 0.33498000  12.010000   ; qtot 82.509704
 3064         h1     81    ccc    H30   3064 0.06178000   1.008000   ; qtot 82.571484
 3065         h1     81    ccc    H31   3065 0.11278000   1.008000   ; qtot 82.684264
 3066         h2     81    ccc    H32   3066 0.12178000   1.008000   ; qtot 82.806044
 3067         oh     81    ccc    O10   3067 -0.56972000  16.000000   ; qtot 82.236324
 3068         oh     81    ccc    O11   3068 -0.57772000  16.000000   ; qtot 81.658604
 3069         c3     81    ccc    C22   3069 0.14548000  12.010000   ; qtot 81.804084
 3070         ho     81    ccc    H33   3070 0.40508000   1.008000   ; qtot 82.209164
 3071         hn     81    ccc    H34   3071 0.31758000   1.008000   ; qtot 82.526744
 3072         h1     81    ccc    H35   3072 0.06278000   1.008000   ; qtot 82.589524
 3073         h1     81    ccc    H36   3073 0.06278000   1.008000   ; qtot 82.652304
 3074         oh     81    ccc    O12   3074 -0.59472000  16.000000   ; qtot 82.057584
 3075         ho     81    ccc    H37   3075 0.41908000   1.008000   ; qtot 82.476664
 3076         os     81    ccc    O13   3076 -0.44552000  16.000000   ; qtot 82.031144
 3077         ho     81    ccc    H38   3077 0.41908000   1.008000   ; qtot 82.450224
 3078         h1     81    ccc    H39   3078 0.08578000   1.008000   ; qtot 82.536004
 3079         oh     81    ccc     O5   3079 -0.58672000  16.000000   ; qtot 81.949284
 3080         ho     81    ccc    H40   3080 0.41908000   1.008000   ; qtot 82.368364
 3081         n3     81    ccc     N4   3081 -0.54282000  14.010000   ; qtot 81.825544
 3082         hn     81    ccc    H41   3082 0.17125500   1.008000   ; qtot 81.996799
; residue   82 ccc rtp ccc q 1.0
 3083          n     82    ccc     N1   3083 -0.33303000  14.010000   ; qtot 81.663769
 3084         hn     82    ccc     H4   3084 0.25916100   1.008000   ; qtot 81.922930
 3085         c3     82    ccc     C3   3085 -0.03328100  12.010000   ; qtot 81.889649
 3086         h1     82    ccc     H5   3086 0.10618100   1.008000   ; qtot 81.995830
 3087         c3     82    ccc     C4   3087 -0.02083000  12.010000   ; qtot 81.975000
 3088         h1     82    ccc     H6   3088 0.10618100   1.008000   ; qtot 82.081181
 3089         h1     82    ccc     H7   3089 0.07988000   1.008000   ; qtot 82.161061
 3090         h1     82    ccc     H8   3090 0.07988000   1.008000   ; qtot 82.240941
 3091         n4     82    ccc     N2   3091 -0.02747900  14.010000   ; qtot 82.213462
 3092         c3     82    ccc     C5   3092 -0.05097600  12.010000   ; qtot 82.162486
 3093         c3     82    ccc     C6   3093 -0.05097600  12.010000   ; qtot 82.111510
 3094         h1     82    ccc     H9   3094 0.11563300   1.008000   ; qtot 82.227143
 3095         c3     82    ccc     C7   3095 -0.18457900  12.010000   ; qtot 82.042564
 3096         h1     82    ccc    H10   3096 0.11563300   1.008000   ; qtot 82.158197
 3097         hc     82    ccc    H11   3097 0.08347900   1.008000   ; qtot 82.241676
 3098         hc     82    ccc    H12   3098 0.08347900   1.008000   ; qtot 82.325155
 3099          c     82    ccc     C8   3099 0.67254400  12.010000   ; qtot 82.997699
 3100          o     82    ccc     O2   3100 -0.52917200  16.000000   ; qtot 82.468527
 3101         h1     82    ccc    H13   3101 0.11563300   1.008000   ; qtot 82.584160
 3102         h1     82    ccc    H14   3102 0.11563300   1.008000   ; qtot 82.699793
 3103         c3     82    ccc     C9   3103 -0.18457900  12.010000   ; qtot 82.515214
 3104         hc     82    ccc    H15   3104 0.08347900   1.008000   ; qtot 82.598693
 3105         hc     82    ccc    H16   3105 0.08347900   1.008000   ; qtot 82.682172
 3106          c     82    ccc    C10   3106 0.67254400  12.010000   ; qtot 83.354716
 3107          o     82    ccc     O4   3107 -0.52917200  16.000000   ; qtot 82.825544
 3108         c3     82    ccc    C11   3108 0.08518000  12.010000   ; qtot 82.910724
 3109         c3     82    ccc    C12   3109 0.07918000  12.010000   ; qtot 82.989904
 3110         h1     82    ccc    H17   3110 0.06978000   1.008000   ; qtot 83.059684
 3111         c3     82    ccc    C13   3111 0.07918000  12.010000   ; qtot 83.138864
 3112         c3     82    ccc    C14   3112 0.03578000  12.010000   ; qtot 83.174644
 3113         c3     82    ccc    C15   3113 0.33498000  12.010000   ; qtot 83.509624
 3114         h1     82    ccc    H18   3114 0.06178000   1.008000   ; qtot 83.571404
 3115         h1     82    ccc    H19   3115 0.11278000   1.008000   ; qtot 83.684184
 3116         h2     82    ccc    H20   3116 0.12178000   1.008000   ; qtot 83.805964
 3117         oh     82    ccc     O1   3117 -0.56972000  16.000000   ; qtot 83.236244
 3118         oh     82    ccc     O6   3118 -0.57772000  16.000000   ; qtot 82.658524
 3119         c3     82    ccc    C16   3119 0.14548000  12.010000   ; qtot 82.804004
 3120         ho     82    ccc    H21   3120 0.40508000   1.008000   ; qtot 83.209084
 3121         hn     82    ccc    H22   3121 0.31758000   1.008000   ; qtot 83.526664
 3122         h1     82    ccc    H23   3122 0.06278000   1.008000   ; qtot 83.589444
 3123         h1     82    ccc    H24   3123 0.06278000   1.008000   ; qtot 83.652224
 3124         oh     82    ccc     O7   3124 -0.59472000  16.000000   ; qtot 83.057504
 3125         ho     82    ccc    H25   3125 0.41908000   1.008000   ; qtot 83.476584
 3126         os     82    ccc     O8   3126 -0.44552000  16.000000   ; qtot 83.031064
 3127         ho     82    ccc    H26   3127 0.41908000   1.008000   ; qtot 83.450144
 3128         h1     82    ccc    H27   3128 0.08578000   1.008000   ; qtot 83.535924
 3129         oh     82    ccc     O9   3129 -0.58672000  16.000000   ; qtot 82.949204
 3130         ho     82    ccc    H28   3130 0.41908000   1.008000   ; qtot 83.368284
 3131         n3     82    ccc     N3   3131 -0.54282000  14.010000   ; qtot 82.825464
 3132         c3     82    ccc    C17   3132 0.08518000  12.010000   ; qtot 82.910644
 3133         c3     82    ccc    C18   3133 0.07918000  12.010000   ; qtot 82.989824
 3134         h1     82    ccc    H29   3134 0.06978000   1.008000   ; qtot 83.059604
 3135         c3     82    ccc    C19   3135 0.07918000  12.010000   ; qtot 83.138784
 3136         c3     82    ccc    C20   3136 0.03578000  12.010000   ; qtot 83.174564
 3137         c3     82    ccc    C21   3137 0.33498000  12.010000   ; qtot 83.509544
 3138         h1     82    ccc    H30   3138 0.06178000   1.008000   ; qtot 83.571324
 3139         h1     82    ccc    H31   3139 0.11278000   1.008000   ; qtot 83.684104
 3140         h2     82    ccc    H32   3140 0.12178000   1.008000   ; qtot 83.805884
 3141         oh     82    ccc    O10   3141 -0.56972000  16.000000   ; qtot 83.236164
 3142         oh     82    ccc    O11   3142 -0.57772000  16.000000   ; qtot 82.658444
 3143         c3     82    ccc    C22   3143 0.14548000  12.010000   ; qtot 82.803924
 3144         ho     82    ccc    H33   3144 0.40508000   1.008000   ; qtot 83.209004
 3145         hn     82    ccc    H34   3145 0.31758000   1.008000   ; qtot 83.526584
 3146         h1     82    ccc    H35   3146 0.06278000   1.008000   ; qtot 83.589364
 3147         h1     82    ccc    H36   3147 0.06278000   1.008000   ; qtot 83.652144
 3148         oh     82    ccc    O12   3148 -0.59472000  16.000000   ; qtot 83.057424
 3149         ho     82    ccc    H37   3149 0.41908000   1.008000   ; qtot 83.476504
 3150         os     82    ccc    O13   3150 -0.44552000  16.000000   ; qtot 83.030984
 3151         ho     82    ccc    H38   3151 0.41908000   1.008000   ; qtot 83.450064
 3152         h1     82    ccc    H39   3152 0.08578000   1.008000   ; qtot 83.535844
 3153         oh     82    ccc     O5   3153 -0.58672000  16.000000   ; qtot 82.949124
 3154         ho     82    ccc    H40   3154 0.41908000   1.008000   ; qtot 83.368204
 3155         n3     82    ccc     N4   3155 -0.54282000  14.010000   ; qtot 82.825384
 3156         hn     82    ccc    H41   3156 0.17125500   1.008000   ; qtot 82.996639
; residue   83 ccc rtp ccc q 1.0
 3157          n     83    ccc     N1   3157 -0.33303000  14.010000   ; qtot 82.663609
 3158         hn     83    ccc     H4   3158 0.25916100   1.008000   ; qtot 82.922770
 3159         c3     83    ccc     C3   3159 -0.03328100  12.010000   ; qtot 82.889489
 3160         h1     83    ccc     H5   3160 0.10618100   1.008000   ; qtot 82.995670
 3161         c3     83    ccc     C4   3161 -0.02083000  12.010000   ; qtot 82.974840
 3162         h1     83    ccc     H6   3162 0.10618100   1.008000   ; qtot 83.081021
 3163         h1     83    ccc     H7   3163 0.07988000   1.008000   ; qtot 83.160901
 3164         h1     83    ccc     H8   3164 0.07988000   1.008000   ; qtot 83.240781
 3165         n4     83    ccc     N2   3165 -0.02747900  14.010000   ; qtot 83.213302
 3166         c3     83    ccc     C5   3166 -0.05097600  12.010000   ; qtot 83.162326
 3167         c3     83    ccc     C6   3167 -0.05097600  12.010000   ; qtot 83.111350
 3168         h1     83    ccc     H9   3168 0.11563300   1.008000   ; qtot 83.226983
 3169         c3     83    ccc     C7   3169 -0.18457900  12.010000   ; qtot 83.042404
 3170         h1     83    ccc    H10   3170 0.11563300   1.008000   ; qtot 83.158037
 3171         hc     83    ccc    H11   3171 0.08347900   1.008000   ; qtot 83.241516
 3172         hc     83    ccc    H12   3172 0.08347900   1.008000   ; qtot 83.324995
 3173          c     83    ccc     C8   3173 0.67254400  12.010000   ; qtot 83.997539
 3174          o     83    ccc     O2   3174 -0.52917200  16.000000   ; qtot 83.468367
 3175         h1     83    ccc    H13   3175 0.11563300   1.008000   ; qtot 83.584000
 3176         h1     83    ccc    H14   3176 0.11563300   1.008000   ; qtot 83.699633
 3177         c3     83    ccc     C9   3177 -0.18457900  12.010000   ; qtot 83.515054
 3178         hc     83    ccc    H15   3178 0.08347900   1.008000   ; qtot 83.598533
 3179         hc     83    ccc    H16   3179 0.08347900   1.008000   ; qtot 83.682012
 3180          c     83    ccc    C10   3180 0.67254400  12.010000   ; qtot 84.354556
 3181          o     83    ccc     O4   3181 -0.52917200  16.000000   ; qtot 83.825384
 3182         c3     83    ccc    C11   3182 0.08518000  12.010000   ; qtot 83.910564
 3183         c3     83    ccc    C12   3183 0.07918000  12.010000   ; qtot 83.989744
 3184         h1     83    ccc    H17   3184 0.06978000   1.008000   ; qtot 84.059524
 3185         c3     83    ccc    C13   3185 0.07918000  12.010000   ; qtot 84.138704
 3186         c3     83    ccc    C14   3186 0.03578000  12.010000   ; qtot 84.174484
 3187         c3     83    ccc    C15   3187 0.33498000  12.010000   ; qtot 84.509464
 3188         h1     83    ccc    H18   3188 0.06178000   1.008000   ; qtot 84.571244
 3189         h1     83    ccc    H19   3189 0.11278000   1.008000   ; qtot 84.684024
 3190         h2     83    ccc    H20   3190 0.12178000   1.008000   ; qtot 84.805804
 3191         oh     83    ccc     O1   3191 -0.56972000  16.000000   ; qtot 84.236084
 3192         oh     83    ccc     O6   3192 -0.57772000  16.000000   ; qtot 83.658364
 3193         c3     83    ccc    C16   3193 0.14548000  12.010000   ; qtot 83.803844
 3194         ho     83    ccc    H21   3194 0.40508000   1.008000   ; qtot 84.208924
 3195         hn     83    ccc    H22   3195 0.31758000   1.008000   ; qtot 84.526504
 3196         h1     83    ccc    H23   3196 0.06278000   1.008000   ; qtot 84.589284
 3197         h1     83    ccc    H24   3197 0.06278000   1.008000   ; qtot 84.652064
 3198         oh     83    ccc     O7   3198 -0.59472000  16.000000   ; qtot 84.057344
 3199         ho     83    ccc    H25   3199 0.41908000   1.008000   ; qtot 84.476424
 3200         os     83    ccc     O8   3200 -0.44552000  16.000000   ; qtot 84.030904
 3201         ho     83    ccc    H26   3201 0.41908000   1.008000   ; qtot 84.449984
 3202         h1     83    ccc    H27   3202 0.08578000   1.008000   ; qtot 84.535764
 3203         oh     83    ccc     O9   3203 -0.58672000  16.000000   ; qtot 83.949044
 3204         ho     83    ccc    H28   3204 0.41908000   1.008000   ; qtot 84.368124
 3205         n3     83    ccc     N3   3205 -0.54282000  14.010000   ; qtot 83.825304
 3206         c3     83    ccc    C17   3206 0.08518000  12.010000   ; qtot 83.910484
 3207         c3     83    ccc    C18   3207 0.07918000  12.010000   ; qtot 83.989664
 3208         h1     83    ccc    H29   3208 0.06978000   1.008000   ; qtot 84.059444
 3209         c3     83    ccc    C19   3209 0.07918000  12.010000   ; qtot 84.138624
 3210         c3     83    ccc    C20   3210 0.03578000  12.010000   ; qtot 84.174404
 3211         c3     83    ccc    C21   3211 0.33498000  12.010000   ; qtot 84.509384
 3212         h1     83    ccc    H30   3212 0.06178000   1.008000   ; qtot 84.571164
 3213         h1     83    ccc    H31   3213 0.11278000   1.008000   ; qtot 84.683944
 3214         h2     83    ccc    H32   3214 0.12178000   1.008000   ; qtot 84.805724
 3215         oh     83    ccc    O10   3215 -0.56972000  16.000000   ; qtot 84.236004
 3216         oh     83    ccc    O11   3216 -0.57772000  16.000000   ; qtot 83.658284
 3217         c3     83    ccc    C22   3217 0.14548000  12.010000   ; qtot 83.803764
 3218         ho     83    ccc    H33   3218 0.40508000   1.008000   ; qtot 84.208844
 3219         hn     83    ccc    H34   3219 0.31758000   1.008000   ; qtot 84.526424
 3220         h1     83    ccc    H35   3220 0.06278000   1.008000   ; qtot 84.589204
 3221         h1     83    ccc    H36   3221 0.06278000   1.008000   ; qtot 84.651984
 3222         oh     83    ccc    O12   3222 -0.59472000  16.000000   ; qtot 84.057264
 3223         ho     83    ccc    H37   3223 0.41908000   1.008000   ; qtot 84.476344
 3224         os     83    ccc    O13   3224 -0.44552000  16.000000   ; qtot 84.030824
 3225         ho     83    ccc    H38   3225 0.41908000   1.008000   ; qtot 84.449904
 3226         h1     83    ccc    H39   3226 0.08578000   1.008000   ; qtot 84.535684
 3227         oh     83    ccc     O5   3227 -0.58672000  16.000000   ; qtot 83.948964
 3228         ho     83    ccc    H40   3228 0.41908000   1.008000   ; qtot 84.368044
 3229         n3     83    ccc     N4   3229 -0.54282000  14.010000   ; qtot 83.825224
 3230         hn     83    ccc    H41   3230 0.17125500   1.008000   ; qtot 83.996479
; residue   84 ccc rtp ccc q 1.0
 3231          n     84    ccc     N1   3231 -0.33303000  14.010000   ; qtot 83.663449
 3232         hn     84    ccc     H4   3232 0.25916100   1.008000   ; qtot 83.922610
 3233         c3     84    ccc     C3   3233 -0.03328100  12.010000   ; qtot 83.889329
 3234         h1     84    ccc     H5   3234 0.10618100   1.008000   ; qtot 83.995510
 3235         c3     84    ccc     C4   3235 -0.02083000  12.010000   ; qtot 83.974680
 3236         h1     84    ccc     H6   3236 0.10618100   1.008000   ; qtot 84.080861
 3237         h1     84    ccc     H7   3237 0.07988000   1.008000   ; qtot 84.160741
 3238         h1     84    ccc     H8   3238 0.07988000   1.008000   ; qtot 84.240621
 3239         n4     84    ccc     N2   3239 -0.02747900  14.010000   ; qtot 84.213142
 3240         c3     84    ccc     C5   3240 -0.05097600  12.010000   ; qtot 84.162166
 3241         c3     84    ccc     C6   3241 -0.05097600  12.010000   ; qtot 84.111190
 3242         h1     84    ccc     H9   3242 0.11563300   1.008000   ; qtot 84.226823
 3243         c3     84    ccc     C7   3243 -0.18457900  12.010000   ; qtot 84.042244
 3244         h1     84    ccc    H10   3244 0.11563300   1.008000   ; qtot 84.157877
 3245         hc     84    ccc    H11   3245 0.08347900   1.008000   ; qtot 84.241356
 3246         hc     84    ccc    H12   3246 0.08347900   1.008000   ; qtot 84.324835
 3247          c     84    ccc     C8   3247 0.67254400  12.010000   ; qtot 84.997379
 3248          o     84    ccc     O2   3248 -0.52917200  16.000000   ; qtot 84.468207
 3249         h1     84    ccc    H13   3249 0.11563300   1.008000   ; qtot 84.583840
 3250         h1     84    ccc    H14   3250 0.11563300   1.008000   ; qtot 84.699473
 3251         c3     84    ccc     C9   3251 -0.18457900  12.010000   ; qtot 84.514894
 3252         hc     84    ccc    H15   3252 0.08347900   1.008000   ; qtot 84.598373
 3253         hc     84    ccc    H16   3253 0.08347900   1.008000   ; qtot 84.681852
 3254          c     84    ccc    C10   3254 0.67254400  12.010000   ; qtot 85.354396
 3255          o     84    ccc     O4   3255 -0.52917200  16.000000   ; qtot 84.825224
 3256         c3     84    ccc    C11   3256 0.08518000  12.010000   ; qtot 84.910404
 3257         c3     84    ccc    C12   3257 0.07918000  12.010000   ; qtot 84.989584
 3258         h1     84    ccc    H17   3258 0.06978000   1.008000   ; qtot 85.059364
 3259         c3     84    ccc    C13   3259 0.07918000  12.010000   ; qtot 85.138544
 3260         c3     84    ccc    C14   3260 0.03578000  12.010000   ; qtot 85.174324
 3261         c3     84    ccc    C15   3261 0.33498000  12.010000   ; qtot 85.509304
 3262         h1     84    ccc    H18   3262 0.06178000   1.008000   ; qtot 85.571084
 3263         h1     84    ccc    H19   3263 0.11278000   1.008000   ; qtot 85.683864
 3264         h2     84    ccc    H20   3264 0.12178000   1.008000   ; qtot 85.805644
 3265         oh     84    ccc     O1   3265 -0.56972000  16.000000   ; qtot 85.235924
 3266         oh     84    ccc     O6   3266 -0.57772000  16.000000   ; qtot 84.658204
 3267         c3     84    ccc    C16   3267 0.14548000  12.010000   ; qtot 84.803684
 3268         ho     84    ccc    H21   3268 0.40508000   1.008000   ; qtot 85.208764
 3269         hn     84    ccc    H22   3269 0.31758000   1.008000   ; qtot 85.526344
 3270         h1     84    ccc    H23   3270 0.06278000   1.008000   ; qtot 85.589124
 3271         h1     84    ccc    H24   3271 0.06278000   1.008000   ; qtot 85.651904
 3272         oh     84    ccc     O7   3272 -0.59472000  16.000000   ; qtot 85.057184
 3273         ho     84    ccc    H25   3273 0.41908000   1.008000   ; qtot 85.476264
 3274         os     84    ccc     O8   3274 -0.44552000  16.000000   ; qtot 85.030744
 3275         ho     84    ccc    H26   3275 0.41908000   1.008000   ; qtot 85.449824
 3276         h1     84    ccc    H27   3276 0.08578000   1.008000   ; qtot 85.535604
 3277         oh     84    ccc     O9   3277 -0.58672000  16.000000   ; qtot 84.948884
 3278         ho     84    ccc    H28   3278 0.41908000   1.008000   ; qtot 85.367964
 3279         n3     84    ccc     N3   3279 -0.54282000  14.010000   ; qtot 84.825144
 3280         c3     84    ccc    C17   3280 0.08518000  12.010000   ; qtot 84.910324
 3281         c3     84    ccc    C18   3281 0.07918000  12.010000   ; qtot 84.989504
 3282         h1     84    ccc    H29   3282 0.06978000   1.008000   ; qtot 85.059284
 3283         c3     84    ccc    C19   3283 0.07918000  12.010000   ; qtot 85.138464
 3284         c3     84    ccc    C20   3284 0.03578000  12.010000   ; qtot 85.174244
 3285         c3     84    ccc    C21   3285 0.33498000  12.010000   ; qtot 85.509224
 3286         h1     84    ccc    H30   3286 0.06178000   1.008000   ; qtot 85.571004
 3287         h1     84    ccc    H31   3287 0.11278000   1.008000   ; qtot 85.683784
 3288         h2     84    ccc    H32   3288 0.12178000   1.008000   ; qtot 85.805564
 3289         oh     84    ccc    O10   3289 -0.56972000  16.000000   ; qtot 85.235844
 3290         oh     84    ccc    O11   3290 -0.57772000  16.000000   ; qtot 84.658124
 3291         c3     84    ccc    C22   3291 0.14548000  12.010000   ; qtot 84.803604
 3292         ho     84    ccc    H33   3292 0.40508000   1.008000   ; qtot 85.208684
 3293         hn     84    ccc    H34   3293 0.31758000   1.008000   ; qtot 85.526264
 3294         h1     84    ccc    H35   3294 0.06278000   1.008000   ; qtot 85.589044
 3295         h1     84    ccc    H36   3295 0.06278000   1.008000   ; qtot 85.651824
 3296         oh     84    ccc    O12   3296 -0.59472000  16.000000   ; qtot 85.057104
 3297         ho     84    ccc    H37   3297 0.41908000   1.008000   ; qtot 85.476184
 3298         os     84    ccc    O13   3298 -0.44552000  16.000000   ; qtot 85.030664
 3299         ho     84    ccc    H38   3299 0.41908000   1.008000   ; qtot 85.449744
 3300         h1     84    ccc    H39   3300 0.08578000   1.008000   ; qtot 85.535524
 3301         oh     84    ccc     O5   3301 -0.58672000  16.000000   ; qtot 84.948804
 3302         ho     84    ccc    H40   3302 0.41908000   1.008000   ; qtot 85.367884
 3303         n3     84    ccc     N4   3303 -0.54282000  14.010000   ; qtot 84.825064
 3304         hn     84    ccc    H41   3304 0.17125500   1.008000   ; qtot 84.996319
; residue   85 ccc rtp ccc q 1.0
 3305          n     85    ccc     N1   3305 -0.33303000  14.010000   ; qtot 84.663289
 3306         hn     85    ccc     H4   3306 0.25916100   1.008000   ; qtot 84.922450
 3307         c3     85    ccc     C3   3307 -0.03328100  12.010000   ; qtot 84.889169
 3308         h1     85    ccc     H5   3308 0.10618100   1.008000   ; qtot 84.995350
 3309         c3     85    ccc     C4   3309 -0.02083000  12.010000   ; qtot 84.974520
 3310         h1     85    ccc     H6   3310 0.10618100   1.008000   ; qtot 85.080701
 3311         h1     85    ccc     H7   3311 0.07988000   1.008000   ; qtot 85.160581
 3312         h1     85    ccc     H8   3312 0.07988000   1.008000   ; qtot 85.240461
 3313         n4     85    ccc     N2   3313 -0.02747900  14.010000   ; qtot 85.212982
 3314         c3     85    ccc     C5   3314 -0.05097600  12.010000   ; qtot 85.162006
 3315         c3     85    ccc     C6   3315 -0.05097600  12.010000   ; qtot 85.111030
 3316         h1     85    ccc     H9   3316 0.11563300   1.008000   ; qtot 85.226663
 3317         c3     85    ccc     C7   3317 -0.18457900  12.010000   ; qtot 85.042084
 3318         h1     85    ccc    H10   3318 0.11563300   1.008000   ; qtot 85.157717
 3319         hc     85    ccc    H11   3319 0.08347900   1.008000   ; qtot 85.241196
 3320         hc     85    ccc    H12   3320 0.08347900   1.008000   ; qtot 85.324675
 3321          c     85    ccc     C8   3321 0.67254400  12.010000   ; qtot 85.997219
 3322          o     85    ccc     O2   3322 -0.52917200  16.000000   ; qtot 85.468047
 3323         h1     85    ccc    H13   3323 0.11563300   1.008000   ; qtot 85.583680
 3324         h1     85    ccc    H14   3324 0.11563300   1.008000   ; qtot 85.699313
 3325         c3     85    ccc     C9   3325 -0.18457900  12.010000   ; qtot 85.514734
 3326         hc     85    ccc    H15   3326 0.08347900   1.008000   ; qtot 85.598213
 3327         hc     85    ccc    H16   3327 0.08347900   1.008000   ; qtot 85.681692
 3328          c     85    ccc    C10   3328 0.67254400  12.010000   ; qtot 86.354236
 3329          o     85    ccc     O4   3329 -0.52917200  16.000000   ; qtot 85.825064
 3330         c3     85    ccc    C11   3330 0.08518000  12.010000   ; qtot 85.910244
 3331         c3     85    ccc    C12   3331 0.07918000  12.010000   ; qtot 85.989424
 3332         h1     85    ccc    H17   3332 0.06978000   1.008000   ; qtot 86.059204
 3333         c3     85    ccc    C13   3333 0.07918000  12.010000   ; qtot 86.138384
 3334         c3     85    ccc    C14   3334 0.03578000  12.010000   ; qtot 86.174164
 3335         c3     85    ccc    C15   3335 0.33498000  12.010000   ; qtot 86.509144
 3336         h1     85    ccc    H18   3336 0.06178000   1.008000   ; qtot 86.570924
 3337         h1     85    ccc    H19   3337 0.11278000   1.008000   ; qtot 86.683704
 3338         h2     85    ccc    H20   3338 0.12178000   1.008000   ; qtot 86.805484
 3339         oh     85    ccc     O1   3339 -0.56972000  16.000000   ; qtot 86.235764
 3340         oh     85    ccc     O6   3340 -0.57772000  16.000000   ; qtot 85.658044
 3341         c3     85    ccc    C16   3341 0.14548000  12.010000   ; qtot 85.803524
 3342         ho     85    ccc    H21   3342 0.40508000   1.008000   ; qtot 86.208604
 3343         hn     85    ccc    H22   3343 0.31758000   1.008000   ; qtot 86.526184
 3344         h1     85    ccc    H23   3344 0.06278000   1.008000   ; qtot 86.588964
 3345         h1     85    ccc    H24   3345 0.06278000   1.008000   ; qtot 86.651744
 3346         oh     85    ccc     O7   3346 -0.59472000  16.000000   ; qtot 86.057024
 3347         ho     85    ccc    H25   3347 0.41908000   1.008000   ; qtot 86.476104
 3348         os     85    ccc     O8   3348 -0.44552000  16.000000   ; qtot 86.030584
 3349         ho     85    ccc    H26   3349 0.41908000   1.008000   ; qtot 86.449664
 3350         h1     85    ccc    H27   3350 0.08578000   1.008000   ; qtot 86.535444
 3351         oh     85    ccc     O9   3351 -0.58672000  16.000000   ; qtot 85.948724
 3352         ho     85    ccc    H28   3352 0.41908000   1.008000   ; qtot 86.367804
 3353         n3     85    ccc     N3   3353 -0.54282000  14.010000   ; qtot 85.824984
 3354         c3     85    ccc    C17   3354 0.08518000  12.010000   ; qtot 85.910164
 3355         c3     85    ccc    C18   3355 0.07918000  12.010000   ; qtot 85.989344
 3356         h1     85    ccc    H29   3356 0.06978000   1.008000   ; qtot 86.059124
 3357         c3     85    ccc    C19   3357 0.07918000  12.010000   ; qtot 86.138304
 3358         c3     85    ccc    C20   3358 0.03578000  12.010000   ; qtot 86.174084
 3359         c3     85    ccc    C21   3359 0.33498000  12.010000   ; qtot 86.509064
 3360         h1     85    ccc    H30   3360 0.06178000   1.008000   ; qtot 86.570844
 3361         h1     85    ccc    H31   3361 0.11278000   1.008000   ; qtot 86.683624
 3362         h2     85    ccc    H32   3362 0.12178000   1.008000   ; qtot 86.805404
 3363         oh     85    ccc    O10   3363 -0.56972000  16.000000   ; qtot 86.235684
 3364         oh     85    ccc    O11   3364 -0.57772000  16.000000   ; qtot 85.657964
 3365         c3     85    ccc    C22   3365 0.14548000  12.010000   ; qtot 85.803444
 3366         ho     85    ccc    H33   3366 0.40508000   1.008000   ; qtot 86.208524
 3367         hn     85    ccc    H34   3367 0.31758000   1.008000   ; qtot 86.526104
 3368         h1     85    ccc    H35   3368 0.06278000   1.008000   ; qtot 86.588884
 3369         h1     85    ccc    H36   3369 0.06278000   1.008000   ; qtot 86.651664
 3370         oh     85    ccc    O12   3370 -0.59472000  16.000000   ; qtot 86.056944
 3371         ho     85    ccc    H37   3371 0.41908000   1.008000   ; qtot 86.476024
 3372         os     85    ccc    O13   3372 -0.44552000  16.000000   ; qtot 86.030504
 3373         ho     85    ccc    H38   3373 0.41908000   1.008000   ; qtot 86.449584
 3374         h1     85    ccc    H39   3374 0.08578000   1.008000   ; qtot 86.535364
 3375         oh     85    ccc     O5   3375 -0.58672000  16.000000   ; qtot 85.948644
 3376         ho     85    ccc    H40   3376 0.41908000   1.008000   ; qtot 86.367724
 3377         n3     85    ccc     N4   3377 -0.54282000  14.010000   ; qtot 85.824904
 3378         hn     85    ccc    H41   3378 0.17125500   1.008000   ; qtot 85.996159
; residue   86 ccc rtp ccc q 1.0
 3379          n     86    ccc     N1   3379 -0.33303000  14.010000   ; qtot 85.663129
 3380         hn     86    ccc     H4   3380 0.25916100   1.008000   ; qtot 85.922290
 3381         c3     86    ccc     C3   3381 -0.03328100  12.010000   ; qtot 85.889009
 3382         h1     86    ccc     H5   3382 0.10618100   1.008000   ; qtot 85.995190
 3383         c3     86    ccc     C4   3383 -0.02083000  12.010000   ; qtot 85.974360
 3384         h1     86    ccc     H6   3384 0.10618100   1.008000   ; qtot 86.080541
 3385         h1     86    ccc     H7   3385 0.07988000   1.008000   ; qtot 86.160421
 3386         h1     86    ccc     H8   3386 0.07988000   1.008000   ; qtot 86.240301
 3387         n4     86    ccc     N2   3387 -0.02747900  14.010000   ; qtot 86.212822
 3388         c3     86    ccc     C5   3388 -0.05097600  12.010000   ; qtot 86.161846
 3389         c3     86    ccc     C6   3389 -0.05097600  12.010000   ; qtot 86.110870
 3390         h1     86    ccc     H9   3390 0.11563300   1.008000   ; qtot 86.226503
 3391         c3     86    ccc     C7   3391 -0.18457900  12.010000   ; qtot 86.041924
 3392         h1     86    ccc    H10   3392 0.11563300   1.008000   ; qtot 86.157557
 3393         hc     86    ccc    H11   3393 0.08347900   1.008000   ; qtot 86.241036
 3394         hc     86    ccc    H12   3394 0.08347900   1.008000   ; qtot 86.324515
 3395          c     86    ccc     C8   3395 0.67254400  12.010000   ; qtot 86.997059
 3396          o     86    ccc     O2   3396 -0.52917200  16.000000   ; qtot 86.467887
 3397         h1     86    ccc    H13   3397 0.11563300   1.008000   ; qtot 86.583520
 3398         h1     86    ccc    H14   3398 0.11563300   1.008000   ; qtot 86.699153
 3399         c3     86    ccc     C9   3399 -0.18457900  12.010000   ; qtot 86.514574
 3400         hc     86    ccc    H15   3400 0.08347900   1.008000   ; qtot 86.598053
 3401         hc     86    ccc    H16   3401 0.08347900   1.008000   ; qtot 86.681532
 3402          c     86    ccc    C10   3402 0.67254400  12.010000   ; qtot 87.354076
 3403          o     86    ccc     O4   3403 -0.52917200  16.000000   ; qtot 86.824904
 3404         c3     86    ccc    C11   3404 0.08518000  12.010000   ; qtot 86.910084
 3405         c3     86    ccc    C12   3405 0.07918000  12.010000   ; qtot 86.989264
 3406         h1     86    ccc    H17   3406 0.06978000   1.008000   ; qtot 87.059044
 3407         c3     86    ccc    C13   3407 0.07918000  12.010000   ; qtot 87.138224
 3408         c3     86    ccc    C14   3408 0.03578000  12.010000   ; qtot 87.174004
 3409         c3     86    ccc    C15   3409 0.33498000  12.010000   ; qtot 87.508984
 3410         h1     86    ccc    H18   3410 0.06178000   1.008000   ; qtot 87.570764
 3411         h1     86    ccc    H19   3411 0.11278000   1.008000   ; qtot 87.683544
 3412         h2     86    ccc    H20   3412 0.12178000   1.008000   ; qtot 87.805324
 3413         oh     86    ccc     O1   3413 -0.56972000  16.000000   ; qtot 87.235604
 3414         oh     86    ccc     O6   3414 -0.57772000  16.000000   ; qtot 86.657884
 3415         c3     86    ccc    C16   3415 0.14548000  12.010000   ; qtot 86.803364
 3416         ho     86    ccc    H21   3416 0.40508000   1.008000   ; qtot 87.208444
 3417         hn     86    ccc    H22   3417 0.31758000   1.008000   ; qtot 87.526024
 3418         h1     86    ccc    H23   3418 0.06278000   1.008000   ; qtot 87.588804
 3419         h1     86    ccc    H24   3419 0.06278000   1.008000   ; qtot 87.651584
 3420         oh     86    ccc     O7   3420 -0.59472000  16.000000   ; qtot 87.056864
 3421         ho     86    ccc    H25   3421 0.41908000   1.008000   ; qtot 87.475944
 3422         os     86    ccc     O8   3422 -0.44552000  16.000000   ; qtot 87.030424
 3423         ho     86    ccc    H26   3423 0.41908000   1.008000   ; qtot 87.449504
 3424         h1     86    ccc    H27   3424 0.08578000   1.008000   ; qtot 87.535284
 3425         oh     86    ccc     O9   3425 -0.58672000  16.000000   ; qtot 86.948564
 3426         ho     86    ccc    H28   3426 0.41908000   1.008000   ; qtot 87.367644
 3427         n3     86    ccc     N3   3427 -0.54282000  14.010000   ; qtot 86.824824
 3428         c3     86    ccc    C17   3428 0.08518000  12.010000   ; qtot 86.910004
 3429         c3     86    ccc    C18   3429 0.07918000  12.010000   ; qtot 86.989184
 3430         h1     86    ccc    H29   3430 0.06978000   1.008000   ; qtot 87.058964
 3431         c3     86    ccc    C19   3431 0.07918000  12.010000   ; qtot 87.138144
 3432         c3     86    ccc    C20   3432 0.03578000  12.010000   ; qtot 87.173924
 3433         c3     86    ccc    C21   3433 0.33498000  12.010000   ; qtot 87.508904
 3434         h1     86    ccc    H30   3434 0.06178000   1.008000   ; qtot 87.570684
 3435         h1     86    ccc    H31   3435 0.11278000   1.008000   ; qtot 87.683464
 3436         h2     86    ccc    H32   3436 0.12178000   1.008000   ; qtot 87.805244
 3437         oh     86    ccc    O10   3437 -0.56972000  16.000000   ; qtot 87.235524
 3438         oh     86    ccc    O11   3438 -0.57772000  16.000000   ; qtot 86.657804
 3439         c3     86    ccc    C22   3439 0.14548000  12.010000   ; qtot 86.803284
 3440         ho     86    ccc    H33   3440 0.40508000   1.008000   ; qtot 87.208364
 3441         hn     86    ccc    H34   3441 0.31758000   1.008000   ; qtot 87.525944
 3442         h1     86    ccc    H35   3442 0.06278000   1.008000   ; qtot 87.588724
 3443         h1     86    ccc    H36   3443 0.06278000   1.008000   ; qtot 87.651504
 3444         oh     86    ccc    O12   3444 -0.59472000  16.000000   ; qtot 87.056784
 3445         ho     86    ccc    H37   3445 0.41908000   1.008000   ; qtot 87.475864
 3446         os     86    ccc    O13   3446 -0.44552000  16.000000   ; qtot 87.030344
 3447         ho     86    ccc    H38   3447 0.41908000   1.008000   ; qtot 87.449424
 3448         h1     86    ccc    H39   3448 0.08578000   1.008000   ; qtot 87.535204
 3449         oh     86    ccc     O5   3449 -0.58672000  16.000000   ; qtot 86.948484
 3450         ho     86    ccc    H40   3450 0.41908000   1.008000   ; qtot 87.367564
 3451         n3     86    ccc     N4   3451 -0.54282000  14.010000   ; qtot 86.824744
 3452         hn     86    ccc    H41   3452 0.17125500   1.008000   ; qtot 86.995999
; residue   87 ccc rtp ccc q 1.0
 3453          n     87    ccc     N1   3453 -0.33303000  14.010000   ; qtot 86.662969
 3454         hn     87    ccc     H4   3454 0.25916100   1.008000   ; qtot 86.922130
 3455         c3     87    ccc     C3   3455 -0.03328100  12.010000   ; qtot 86.888849
 3456         h1     87    ccc     H5   3456 0.10618100   1.008000   ; qtot 86.995030
 3457         c3     87    ccc     C4   3457 -0.02083000  12.010000   ; qtot 86.974200
 3458         h1     87    ccc     H6   3458 0.10618100   1.008000   ; qtot 87.080381
 3459         h1     87    ccc     H7   3459 0.07988000   1.008000   ; qtot 87.160261
 3460         h1     87    ccc     H8   3460 0.07988000   1.008000   ; qtot 87.240141
 3461         n4     87    ccc     N2   3461 -0.02747900  14.010000   ; qtot 87.212662
 3462         c3     87    ccc     C5   3462 -0.05097600  12.010000   ; qtot 87.161686
 3463         c3     87    ccc     C6   3463 -0.05097600  12.010000   ; qtot 87.110710
 3464         h1     87    ccc     H9   3464 0.11563300   1.008000   ; qtot 87.226343
 3465         c3     87    ccc     C7   3465 -0.18457900  12.010000   ; qtot 87.041764
 3466         h1     87    ccc    H10   3466 0.11563300   1.008000   ; qtot 87.157397
 3467         hc     87    ccc    H11   3467 0.08347900   1.008000   ; qtot 87.240876
 3468         hc     87    ccc    H12   3468 0.08347900   1.008000   ; qtot 87.324355
 3469          c     87    ccc     C8   3469 0.67254400  12.010000   ; qtot 87.996899
 3470          o     87    ccc     O2   3470 -0.52917200  16.000000   ; qtot 87.467727
 3471         h1     87    ccc    H13   3471 0.11563300   1.008000   ; qtot 87.583360
 3472         h1     87    ccc    H14   3472 0.11563300   1.008000   ; qtot 87.698993
 3473         c3     87    ccc     C9   3473 -0.18457900  12.010000   ; qtot 87.514414
 3474         hc     87    ccc    H15   3474 0.08347900   1.008000   ; qtot 87.597893
 3475         hc     87    ccc    H16   3475 0.08347900   1.008000   ; qtot 87.681372
 3476          c     87    ccc    C10   3476 0.67254400  12.010000   ; qtot 88.353916
 3477          o     87    ccc     O4   3477 -0.52917200  16.000000   ; qtot 87.824744
 3478         c3     87    ccc    C11   3478 0.08518000  12.010000   ; qtot 87.909924
 3479         c3     87    ccc    C12   3479 0.07918000  12.010000   ; qtot 87.989104
 3480         h1     87    ccc    H17   3480 0.06978000   1.008000   ; qtot 88.058884
 3481         c3     87    ccc    C13   3481 0.07918000  12.010000   ; qtot 88.138064
 3482         c3     87    ccc    C14   3482 0.03578000  12.010000   ; qtot 88.173844
 3483         c3     87    ccc    C15   3483 0.33498000  12.010000   ; qtot 88.508824
 3484         h1     87    ccc    H18   3484 0.06178000   1.008000   ; qtot 88.570604
 3485         h1     87    ccc    H19   3485 0.11278000   1.008000   ; qtot 88.683384
 3486         h2     87    ccc    H20   3486 0.12178000   1.008000   ; qtot 88.805164
 3487         oh     87    ccc     O1   3487 -0.56972000  16.000000   ; qtot 88.235444
 3488         oh     87    ccc     O6   3488 -0.57772000  16.000000   ; qtot 87.657724
 3489         c3     87    ccc    C16   3489 0.14548000  12.010000   ; qtot 87.803204
 3490         ho     87    ccc    H21   3490 0.40508000   1.008000   ; qtot 88.208284
 3491         hn     87    ccc    H22   3491 0.31758000   1.008000   ; qtot 88.525864
 3492         h1     87    ccc    H23   3492 0.06278000   1.008000   ; qtot 88.588644
 3493         h1     87    ccc    H24   3493 0.06278000   1.008000   ; qtot 88.651424
 3494         oh     87    ccc     O7   3494 -0.59472000  16.000000   ; qtot 88.056704
 3495         ho     87    ccc    H25   3495 0.41908000   1.008000   ; qtot 88.475784
 3496         os     87    ccc     O8   3496 -0.44552000  16.000000   ; qtot 88.030264
 3497         ho     87    ccc    H26   3497 0.41908000   1.008000   ; qtot 88.449344
 3498         h1     87    ccc    H27   3498 0.08578000   1.008000   ; qtot 88.535124
 3499         oh     87    ccc     O9   3499 -0.58672000  16.000000   ; qtot 87.948404
 3500         ho     87    ccc    H28   3500 0.41908000   1.008000   ; qtot 88.367484
 3501         n3     87    ccc     N3   3501 -0.54282000  14.010000   ; qtot 87.824664
 3502         c3     87    ccc    C17   3502 0.08518000  12.010000   ; qtot 87.909844
 3503         c3     87    ccc    C18   3503 0.07918000  12.010000   ; qtot 87.989024
 3504         h1     87    ccc    H29   3504 0.06978000   1.008000   ; qtot 88.058804
 3505         c3     87    ccc    C19   3505 0.07918000  12.010000   ; qtot 88.137984
 3506         c3     87    ccc    C20   3506 0.03578000  12.010000   ; qtot 88.173764
 3507         c3     87    ccc    C21   3507 0.33498000  12.010000   ; qtot 88.508744
 3508         h1     87    ccc    H30   3508 0.06178000   1.008000   ; qtot 88.570524
 3509         h1     87    ccc    H31   3509 0.11278000   1.008000   ; qtot 88.683304
 3510         h2     87    ccc    H32   3510 0.12178000   1.008000   ; qtot 88.805084
 3511         oh     87    ccc    O10   3511 -0.56972000  16.000000   ; qtot 88.235364
 3512         oh     87    ccc    O11   3512 -0.57772000  16.000000   ; qtot 87.657644
 3513         c3     87    ccc    C22   3513 0.14548000  12.010000   ; qtot 87.803124
 3514         ho     87    ccc    H33   3514 0.40508000   1.008000   ; qtot 88.208204
 3515         hn     87    ccc    H34   3515 0.31758000   1.008000   ; qtot 88.525784
 3516         h1     87    ccc    H35   3516 0.06278000   1.008000   ; qtot 88.588564
 3517         h1     87    ccc    H36   3517 0.06278000   1.008000   ; qtot 88.651344
 3518         oh     87    ccc    O12   3518 -0.59472000  16.000000   ; qtot 88.056624
 3519         ho     87    ccc    H37   3519 0.41908000   1.008000   ; qtot 88.475704
 3520         os     87    ccc    O13   3520 -0.44552000  16.000000   ; qtot 88.030184
 3521         ho     87    ccc    H38   3521 0.41908000   1.008000   ; qtot 88.449264
 3522         h1     87    ccc    H39   3522 0.08578000   1.008000   ; qtot 88.535044
 3523         oh     87    ccc     O5   3523 -0.58672000  16.000000   ; qtot 87.948324
 3524         ho     87    ccc    H40   3524 0.41908000   1.008000   ; qtot 88.367404
 3525         n3     87    ccc     N4   3525 -0.54282000  14.010000   ; qtot 87.824584
 3526         hn     87    ccc    H41   3526 0.17125500   1.008000   ; qtot 87.995839
; residue   88 ccc rtp ccc q 1.0
 3527          n     88    ccc     N1   3527 -0.33303000  14.010000   ; qtot 87.662809
 3528         hn     88    ccc     H4   3528 0.25916100   1.008000   ; qtot 87.921970
 3529         c3     88    ccc     C3   3529 -0.03328100  12.010000   ; qtot 87.888689
 3530         h1     88    ccc     H5   3530 0.10618100   1.008000   ; qtot 87.994870
 3531         c3     88    ccc     C4   3531 -0.02083000  12.010000   ; qtot 87.974040
 3532         h1     88    ccc     H6   3532 0.10618100   1.008000   ; qtot 88.080221
 3533         h1     88    ccc     H7   3533 0.07988000   1.008000   ; qtot 88.160101
 3534         h1     88    ccc     H8   3534 0.07988000   1.008000   ; qtot 88.239981
 3535         n4     88    ccc     N2   3535 -0.02747900  14.010000   ; qtot 88.212502
 3536         c3     88    ccc     C5   3536 -0.05097600  12.010000   ; qtot 88.161526
 3537         c3     88    ccc     C6   3537 -0.05097600  12.010000   ; qtot 88.110550
 3538         h1     88    ccc     H9   3538 0.11563300   1.008000   ; qtot 88.226183
 3539         c3     88    ccc     C7   3539 -0.18457900  12.010000   ; qtot 88.041604
 3540         h1     88    ccc    H10   3540 0.11563300   1.008000   ; qtot 88.157237
 3541         hc     88    ccc    H11   3541 0.08347900   1.008000   ; qtot 88.240716
 3542         hc     88    ccc    H12   3542 0.08347900   1.008000   ; qtot 88.324195
 3543          c     88    ccc     C8   3543 0.67254400  12.010000   ; qtot 88.996739
 3544          o     88    ccc     O2   3544 -0.52917200  16.000000   ; qtot 88.467567
 3545         h1     88    ccc    H13   3545 0.11563300   1.008000   ; qtot 88.583200
 3546         h1     88    ccc    H14   3546 0.11563300   1.008000   ; qtot 88.698833
 3547         c3     88    ccc     C9   3547 -0.18457900  12.010000   ; qtot 88.514254
 3548         hc     88    ccc    H15   3548 0.08347900   1.008000   ; qtot 88.597733
 3549         hc     88    ccc    H16   3549 0.08347900   1.008000   ; qtot 88.681212
 3550          c     88    ccc    C10   3550 0.67254400  12.010000   ; qtot 89.353756
 3551          o     88    ccc     O4   3551 -0.52917200  16.000000   ; qtot 88.824584
 3552         c3     88    ccc    C11   3552 0.08518000  12.010000   ; qtot 88.909764
 3553         c3     88    ccc    C12   3553 0.07918000  12.010000   ; qtot 88.988944
 3554         h1     88    ccc    H17   3554 0.06978000   1.008000   ; qtot 89.058724
 3555         c3     88    ccc    C13   3555 0.07918000  12.010000   ; qtot 89.137904
 3556         c3     88    ccc    C14   3556 0.03578000  12.010000   ; qtot 89.173684
 3557         c3     88    ccc    C15   3557 0.33498000  12.010000   ; qtot 89.508664
 3558         h1     88    ccc    H18   3558 0.06178000   1.008000   ; qtot 89.570444
 3559         h1     88    ccc    H19   3559 0.11278000   1.008000   ; qtot 89.683224
 3560         h2     88    ccc    H20   3560 0.12178000   1.008000   ; qtot 89.805004
 3561         oh     88    ccc     O1   3561 -0.56972000  16.000000   ; qtot 89.235284
 3562         oh     88    ccc     O6   3562 -0.57772000  16.000000   ; qtot 88.657564
 3563         c3     88    ccc    C16   3563 0.14548000  12.010000   ; qtot 88.803044
 3564         ho     88    ccc    H21   3564 0.40508000   1.008000   ; qtot 89.208124
 3565         hn     88    ccc    H22   3565 0.31758000   1.008000   ; qtot 89.525704
 3566         h1     88    ccc    H23   3566 0.06278000   1.008000   ; qtot 89.588484
 3567         h1     88    ccc    H24   3567 0.06278000   1.008000   ; qtot 89.651264
 3568         oh     88    ccc     O7   3568 -0.59472000  16.000000   ; qtot 89.056544
 3569         ho     88    ccc    H25   3569 0.41908000   1.008000   ; qtot 89.475624
 3570         os     88    ccc     O8   3570 -0.44552000  16.000000   ; qtot 89.030104
 3571         ho     88    ccc    H26   3571 0.41908000   1.008000   ; qtot 89.449184
 3572         h1     88    ccc    H27   3572 0.08578000   1.008000   ; qtot 89.534964
 3573         oh     88    ccc     O9   3573 -0.58672000  16.000000   ; qtot 88.948244
 3574         ho     88    ccc    H28   3574 0.41908000   1.008000   ; qtot 89.367324
 3575         n3     88    ccc     N3   3575 -0.54282000  14.010000   ; qtot 88.824504
 3576         c3     88    ccc    C17   3576 0.08518000  12.010000   ; qtot 88.909684
 3577         c3     88    ccc    C18   3577 0.07918000  12.010000   ; qtot 88.988864
 3578         h1     88    ccc    H29   3578 0.06978000   1.008000   ; qtot 89.058644
 3579         c3     88    ccc    C19   3579 0.07918000  12.010000   ; qtot 89.137824
 3580         c3     88    ccc    C20   3580 0.03578000  12.010000   ; qtot 89.173604
 3581         c3     88    ccc    C21   3581 0.33498000  12.010000   ; qtot 89.508584
 3582         h1     88    ccc    H30   3582 0.06178000   1.008000   ; qtot 89.570364
 3583         h1     88    ccc    H31   3583 0.11278000   1.008000   ; qtot 89.683144
 3584         h2     88    ccc    H32   3584 0.12178000   1.008000   ; qtot 89.804924
 3585         oh     88    ccc    O10   3585 -0.56972000  16.000000   ; qtot 89.235204
 3586         oh     88    ccc    O11   3586 -0.57772000  16.000000   ; qtot 88.657484
 3587         c3     88    ccc    C22   3587 0.14548000  12.010000   ; qtot 88.802964
 3588         ho     88    ccc    H33   3588 0.40508000   1.008000   ; qtot 89.208044
 3589         hn     88    ccc    H34   3589 0.31758000   1.008000   ; qtot 89.525624
 3590         h1     88    ccc    H35   3590 0.06278000   1.008000   ; qtot 89.588404
 3591         h1     88    ccc    H36   3591 0.06278000   1.008000   ; qtot 89.651184
 3592         oh     88    ccc    O12   3592 -0.59472000  16.000000   ; qtot 89.056464
 3593         ho     88    ccc    H37   3593 0.41908000   1.008000   ; qtot 89.475544
 3594         os     88    ccc    O13   3594 -0.44552000  16.000000   ; qtot 89.030024
 3595         ho     88    ccc    H38   3595 0.41908000   1.008000   ; qtot 89.449104
 3596         h1     88    ccc    H39   3596 0.08578000   1.008000   ; qtot 89.534884
 3597         oh     88    ccc     O5   3597 -0.58672000  16.000000   ; qtot 88.948164
 3598         ho     88    ccc    H40   3598 0.41908000   1.008000   ; qtot 89.367244
 3599         n3     88    ccc     N4   3599 -0.54282000  14.010000   ; qtot 88.824424
 3600         hn     88    ccc    H41   3600 0.17125500   1.008000   ; qtot 88.995679
; residue   89 ccc rtp ccc q 1.0
 3601          n     89    ccc     N1   3601 -0.33303000  14.010000   ; qtot 88.662649
 3602         hn     89    ccc     H4   3602 0.25916100   1.008000   ; qtot 88.921810
 3603         c3     89    ccc     C3   3603 -0.03328100  12.010000   ; qtot 88.888529
 3604         h1     89    ccc     H5   3604 0.10618100   1.008000   ; qtot 88.994710
 3605         c3     89    ccc     C4   3605 -0.02083000  12.010000   ; qtot 88.973880
 3606         h1     89    ccc     H6   3606 0.10618100   1.008000   ; qtot 89.080061
 3607         h1     89    ccc     H7   3607 0.07988000   1.008000   ; qtot 89.159941
 3608         h1     89    ccc     H8   3608 0.07988000   1.008000   ; qtot 89.239821
 3609         n4     89    ccc     N2   3609 -0.02747900  14.010000   ; qtot 89.212342
 3610         c3     89    ccc     C5   3610 -0.05097600  12.010000   ; qtot 89.161366
 3611         c3     89    ccc     C6   3611 -0.05097600  12.010000   ; qtot 89.110390
 3612         h1     89    ccc     H9   3612 0.11563300   1.008000   ; qtot 89.226023
 3613         c3     89    ccc     C7   3613 -0.18457900  12.010000   ; qtot 89.041444
 3614         h1     89    ccc    H10   3614 0.11563300   1.008000   ; qtot 89.157077
 3615         hc     89    ccc    H11   3615 0.08347900   1.008000   ; qtot 89.240556
 3616         hc     89    ccc    H12   3616 0.08347900   1.008000   ; qtot 89.324035
 3617          c     89    ccc     C8   3617 0.67254400  12.010000   ; qtot 89.996579
 3618          o     89    ccc     O2   3618 -0.52917200  16.000000   ; qtot 89.467407
 3619         h1     89    ccc    H13   3619 0.11563300   1.008000   ; qtot 89.583040
 3620         h1     89    ccc    H14   3620 0.11563300   1.008000   ; qtot 89.698673
 3621         c3     89    ccc     C9   3621 -0.18457900  12.010000   ; qtot 89.514094
 3622         hc     89    ccc    H15   3622 0.08347900   1.008000   ; qtot 89.597573
 3623         hc     89    ccc    H16   3623 0.08347900   1.008000   ; qtot 89.681052
 3624          c     89    ccc    C10   3624 0.67254400  12.010000   ; qtot 90.353596
 3625          o     89    ccc     O4   3625 -0.52917200  16.000000   ; qtot 89.824424
 3626         c3     89    ccc    C11   3626 0.08518000  12.010000   ; qtot 89.909604
 3627         c3     89    ccc    C12   3627 0.07918000  12.010000   ; qtot 89.988784
 3628         h1     89    ccc    H17   3628 0.06978000   1.008000   ; qtot 90.058564
 3629         c3     89    ccc    C13   3629 0.07918000  12.010000   ; qtot 90.137744
 3630         c3     89    ccc    C14   3630 0.03578000  12.010000   ; qtot 90.173524
 3631         c3     89    ccc    C15   3631 0.33498000  12.010000   ; qtot 90.508504
 3632         h1     89    ccc    H18   3632 0.06178000   1.008000   ; qtot 90.570284
 3633         h1     89    ccc    H19   3633 0.11278000   1.008000   ; qtot 90.683064
 3634         h2     89    ccc    H20   3634 0.12178000   1.008000   ; qtot 90.804844
 3635         oh     89    ccc     O1   3635 -0.56972000  16.000000   ; qtot 90.235124
 3636         oh     89    ccc     O6   3636 -0.57772000  16.000000   ; qtot 89.657404
 3637         c3     89    ccc    C16   3637 0.14548000  12.010000   ; qtot 89.802884
 3638         ho     89    ccc    H21   3638 0.40508000   1.008000   ; qtot 90.207964
 3639         hn     89    ccc    H22   3639 0.31758000   1.008000   ; qtot 90.525544
 3640         h1     89    ccc    H23   3640 0.06278000   1.008000   ; qtot 90.588324
 3641         h1     89    ccc    H24   3641 0.06278000   1.008000   ; qtot 90.651104
 3642         oh     89    ccc     O7   3642 -0.59472000  16.000000   ; qtot 90.056384
 3643         ho     89    ccc    H25   3643 0.41908000   1.008000   ; qtot 90.475464
 3644         os     89    ccc     O8   3644 -0.44552000  16.000000   ; qtot 90.029944
 3645         ho     89    ccc    H26   3645 0.41908000   1.008000   ; qtot 90.449024
 3646         h1     89    ccc    H27   3646 0.08578000   1.008000   ; qtot 90.534804
 3647         oh     89    ccc     O9   3647 -0.58672000  16.000000   ; qtot 89.948084
 3648         ho     89    ccc    H28   3648 0.41908000   1.008000   ; qtot 90.367164
 3649         n3     89    ccc     N3   3649 -0.54282000  14.010000   ; qtot 89.824344
 3650         c3     89    ccc    C17   3650 0.08518000  12.010000   ; qtot 89.909524
 3651         c3     89    ccc    C18   3651 0.07918000  12.010000   ; qtot 89.988704
 3652         h1     89    ccc    H29   3652 0.06978000   1.008000   ; qtot 90.058484
 3653         c3     89    ccc    C19   3653 0.07918000  12.010000   ; qtot 90.137664
 3654         c3     89    ccc    C20   3654 0.03578000  12.010000   ; qtot 90.173444
 3655         c3     89    ccc    C21   3655 0.33498000  12.010000   ; qtot 90.508424
 3656         h1     89    ccc    H30   3656 0.06178000   1.008000   ; qtot 90.570204
 3657         h1     89    ccc    H31   3657 0.11278000   1.008000   ; qtot 90.682984
 3658         h2     89    ccc    H32   3658 0.12178000   1.008000   ; qtot 90.804764
 3659         oh     89    ccc    O10   3659 -0.56972000  16.000000   ; qtot 90.235044
 3660         oh     89    ccc    O11   3660 -0.57772000  16.000000   ; qtot 89.657324
 3661         c3     89    ccc    C22   3661 0.14548000  12.010000   ; qtot 89.802804
 3662         ho     89    ccc    H33   3662 0.40508000   1.008000   ; qtot 90.207884
 3663         hn     89    ccc    H34   3663 0.31758000   1.008000   ; qtot 90.525464
 3664         h1     89    ccc    H35   3664 0.06278000   1.008000   ; qtot 90.588244
 3665         h1     89    ccc    H36   3665 0.06278000   1.008000   ; qtot 90.651024
 3666         oh     89    ccc    O12   3666 -0.59472000  16.000000   ; qtot 90.056304
 3667         ho     89    ccc    H37   3667 0.41908000   1.008000   ; qtot 90.475384
 3668         os     89    ccc    O13   3668 -0.44552000  16.000000   ; qtot 90.029864
 3669         ho     89    ccc    H38   3669 0.41908000   1.008000   ; qtot 90.448944
 3670         h1     89    ccc    H39   3670 0.08578000   1.008000   ; qtot 90.534724
 3671         oh     89    ccc     O5   3671 -0.58672000  16.000000   ; qtot 89.948004
 3672         ho     89    ccc    H40   3672 0.41908000   1.008000   ; qtot 90.367084
 3673         n3     89    ccc     N4   3673 -0.54282000  14.010000   ; qtot 89.824264
 3674         hn     89    ccc    H41   3674 0.17125500   1.008000   ; qtot 89.995519
; residue   90 ccc rtp ccc q 1.0
 3675          n     90    ccc     N1   3675 -0.33303000  14.010000   ; qtot 89.662489
 3676         hn     90    ccc     H4   3676 0.25916100   1.008000   ; qtot 89.921650
 3677         c3     90    ccc     C3   3677 -0.03328100  12.010000   ; qtot 89.888369
 3678         h1     90    ccc     H5   3678 0.10618100   1.008000   ; qtot 89.994550
 3679         c3     90    ccc     C4   3679 -0.02083000  12.010000   ; qtot 89.973720
 3680         h1     90    ccc     H6   3680 0.10618100   1.008000   ; qtot 90.079901
 3681         h1     90    ccc     H7   3681 0.07988000   1.008000   ; qtot 90.159781
 3682         h1     90    ccc     H8   3682 0.07988000   1.008000   ; qtot 90.239661
 3683         n4     90    ccc     N2   3683 -0.02747900  14.010000   ; qtot 90.212182
 3684         c3     90    ccc     C5   3684 -0.05097600  12.010000   ; qtot 90.161206
 3685         c3     90    ccc     C6   3685 -0.05097600  12.010000   ; qtot 90.110230
 3686         h1     90    ccc     H9   3686 0.11563300   1.008000   ; qtot 90.225863
 3687         c3     90    ccc     C7   3687 -0.18457900  12.010000   ; qtot 90.041284
 3688         h1     90    ccc    H10   3688 0.11563300   1.008000   ; qtot 90.156917
 3689         hc     90    ccc    H11   3689 0.08347900   1.008000   ; qtot 90.240396
 3690         hc     90    ccc    H12   3690 0.08347900   1.008000   ; qtot 90.323875
 3691          c     90    ccc     C8   3691 0.67254400  12.010000   ; qtot 90.996419
 3692          o     90    ccc     O2   3692 -0.52917200  16.000000   ; qtot 90.467247
 3693         h1     90    ccc    H13   3693 0.11563300   1.008000   ; qtot 90.582880
 3694         h1     90    ccc    H14   3694 0.11563300   1.008000   ; qtot 90.698513
 3695         c3     90    ccc     C9   3695 -0.18457900  12.010000   ; qtot 90.513934
 3696         hc     90    ccc    H15   3696 0.08347900   1.008000   ; qtot 90.597413
 3697         hc     90    ccc    H16   3697 0.08347900   1.008000   ; qtot 90.680892
 3698          c     90    ccc    C10   3698 0.67254400  12.010000   ; qtot 91.353436
 3699          o     90    ccc     O4   3699 -0.52917200  16.000000   ; qtot 90.824264
 3700         c3     90    ccc    C11   3700 0.08518000  12.010000   ; qtot 90.909444
 3701         c3     90    ccc    C12   3701 0.07918000  12.010000   ; qtot 90.988624
 3702         h1     90    ccc    H17   3702 0.06978000   1.008000   ; qtot 91.058404
 3703         c3     90    ccc    C13   3703 0.07918000  12.010000   ; qtot 91.137584
 3704         c3     90    ccc    C14   3704 0.03578000  12.010000   ; qtot 91.173364
 3705         c3     90    ccc    C15   3705 0.33498000  12.010000   ; qtot 91.508344
 3706         h1     90    ccc    H18   3706 0.06178000   1.008000   ; qtot 91.570124
 3707         h1     90    ccc    H19   3707 0.11278000   1.008000   ; qtot 91.682904
 3708         h2     90    ccc    H20   3708 0.12178000   1.008000   ; qtot 91.804684
 3709         oh     90    ccc     O1   3709 -0.56972000  16.000000   ; qtot 91.234964
 3710         oh     90    ccc     O6   3710 -0.57772000  16.000000   ; qtot 90.657244
 3711         c3     90    ccc    C16   3711 0.14548000  12.010000   ; qtot 90.802724
 3712         ho     90    ccc    H21   3712 0.40508000   1.008000   ; qtot 91.207804
 3713         hn     90    ccc    H22   3713 0.31758000   1.008000   ; qtot 91.525384
 3714         h1     90    ccc    H23   3714 0.06278000   1.008000   ; qtot 91.588164
 3715         h1     90    ccc    H24   3715 0.06278000   1.008000   ; qtot 91.650944
 3716         oh     90    ccc     O7   3716 -0.59472000  16.000000   ; qtot 91.056224
 3717         ho     90    ccc    H25   3717 0.41908000   1.008000   ; qtot 91.475304
 3718         os     90    ccc     O8   3718 -0.44552000  16.000000   ; qtot 91.029784
 3719         ho     90    ccc    H26   3719 0.41908000   1.008000   ; qtot 91.448864
 3720         h1     90    ccc    H27   3720 0.08578000   1.008000   ; qtot 91.534644
 3721         oh     90    ccc     O9   3721 -0.58672000  16.000000   ; qtot 90.947924
 3722         ho     90    ccc    H28   3722 0.41908000   1.008000   ; qtot 91.367004
 3723         n3     90    ccc     N3   3723 -0.54282000  14.010000   ; qtot 90.824184
 3724         c3     90    ccc    C17   3724 0.08518000  12.010000   ; qtot 90.909364
 3725         c3     90    ccc    C18   3725 0.07918000  12.010000   ; qtot 90.988544
 3726         h1     90    ccc    H29   3726 0.06978000   1.008000   ; qtot 91.058324
 3727         c3     90    ccc    C19   3727 0.07918000  12.010000   ; qtot 91.137504
 3728         c3     90    ccc    C20   3728 0.03578000  12.010000   ; qtot 91.173284
 3729         c3     90    ccc    C21   3729 0.33498000  12.010000   ; qtot 91.508264
 3730         h1     90    ccc    H30   3730 0.06178000   1.008000   ; qtot 91.570044
 3731         h1     90    ccc    H31   3731 0.11278000   1.008000   ; qtot 91.682824
 3732         h2     90    ccc    H32   3732 0.12178000   1.008000   ; qtot 91.804604
 3733         oh     90    ccc    O10   3733 -0.56972000  16.000000   ; qtot 91.234884
 3734         oh     90    ccc    O11   3734 -0.57772000  16.000000   ; qtot 90.657164
 3735         c3     90    ccc    C22   3735 0.14548000  12.010000   ; qtot 90.802644
 3736         ho     90    ccc    H33   3736 0.40508000   1.008000   ; qtot 91.207724
 3737         hn     90    ccc    H34   3737 0.31758000   1.008000   ; qtot 91.525304
 3738         h1     90    ccc    H35   3738 0.06278000   1.008000   ; qtot 91.588084
 3739         h1     90    ccc    H36   3739 0.06278000   1.008000   ; qtot 91.650864
 3740         oh     90    ccc    O12   3740 -0.59472000  16.000000   ; qtot 91.056144
 3741         ho     90    ccc    H37   3741 0.41908000   1.008000   ; qtot 91.475224
 3742         os     90    ccc    O13   3742 -0.44552000  16.000000   ; qtot 91.029704
 3743         ho     90    ccc    H38   3743 0.41908000   1.008000   ; qtot 91.448784
 3744         h1     90    ccc    H39   3744 0.08578000   1.008000   ; qtot 91.534564
 3745         oh     90    ccc     O5   3745 -0.58672000  16.000000   ; qtot 90.947844
 3746         ho     90    ccc    H40   3746 0.41908000   1.008000   ; qtot 91.366924
 3747         n3     90    ccc     N4   3747 -0.54282000  14.010000   ; qtot 90.824104
 3748         hn     90    ccc    H41   3748 0.17125500   1.008000   ; qtot 90.995359
; residue   91 ccc rtp ccc q 1.0
 3749          n     91    ccc     N1   3749 -0.33303000  14.010000   ; qtot 90.662329
 3750         hn     91    ccc     H4   3750 0.25916100   1.008000   ; qtot 90.921490
 3751         c3     91    ccc     C3   3751 -0.03328100  12.010000   ; qtot 90.888209
 3752         h1     91    ccc     H5   3752 0.10618100   1.008000   ; qtot 90.994390
 3753         c3     91    ccc     C4   3753 -0.02083000  12.010000   ; qtot 90.973560
 3754         h1     91    ccc     H6   3754 0.10618100   1.008000   ; qtot 91.079741
 3755         h1     91    ccc     H7   3755 0.07988000   1.008000   ; qtot 91.159621
 3756         h1     91    ccc     H8   3756 0.07988000   1.008000   ; qtot 91.239501
 3757         n4     91    ccc     N2   3757 -0.02747900  14.010000   ; qtot 91.212022
 3758         c3     91    ccc     C5   3758 -0.05097600  12.010000   ; qtot 91.161046
 3759         c3     91    ccc     C6   3759 -0.05097600  12.010000   ; qtot 91.110070
 3760         h1     91    ccc     H9   3760 0.11563300   1.008000   ; qtot 91.225703
 3761         c3     91    ccc     C7   3761 -0.18457900  12.010000   ; qtot 91.041124
 3762         h1     91    ccc    H10   3762 0.11563300   1.008000   ; qtot 91.156757
 3763         hc     91    ccc    H11   3763 0.08347900   1.008000   ; qtot 91.240236
 3764         hc     91    ccc    H12   3764 0.08347900   1.008000   ; qtot 91.323715
 3765          c     91    ccc     C8   3765 0.67254400  12.010000   ; qtot 91.996259
 3766          o     91    ccc     O2   3766 -0.52917200  16.000000   ; qtot 91.467087
 3767         h1     91    ccc    H13   3767 0.11563300   1.008000   ; qtot 91.582720
 3768         h1     91    ccc    H14   3768 0.11563300   1.008000   ; qtot 91.698353
 3769         c3     91    ccc     C9   3769 -0.18457900  12.010000   ; qtot 91.513774
 3770         hc     91    ccc    H15   3770 0.08347900   1.008000   ; qtot 91.597253
 3771         hc     91    ccc    H16   3771 0.08347900   1.008000   ; qtot 91.680732
 3772          c     91    ccc    C10   3772 0.67254400  12.010000   ; qtot 92.353276
 3773          o     91    ccc     O4   3773 -0.52917200  16.000000   ; qtot 91.824104
 3774         c3     91    ccc    C11   3774 0.08518000  12.010000   ; qtot 91.909284
 3775         c3     91    ccc    C12   3775 0.07918000  12.010000   ; qtot 91.988464
 3776         h1     91    ccc    H17   3776 0.06978000   1.008000   ; qtot 92.058244
 3777         c3     91    ccc    C13   3777 0.07918000  12.010000   ; qtot 92.137424
 3778         c3     91    ccc    C14   3778 0.03578000  12.010000   ; qtot 92.173204
 3779         c3     91    ccc    C15   3779 0.33498000  12.010000   ; qtot 92.508184
 3780         h1     91    ccc    H18   3780 0.06178000   1.008000   ; qtot 92.569964
 3781         h1     91    ccc    H19   3781 0.11278000   1.008000   ; qtot 92.682744
 3782         h2     91    ccc    H20   3782 0.12178000   1.008000   ; qtot 92.804524
 3783         oh     91    ccc     O1   3783 -0.56972000  16.000000   ; qtot 92.234804
 3784         oh     91    ccc     O6   3784 -0.57772000  16.000000   ; qtot 91.657084
 3785         c3     91    ccc    C16   3785 0.14548000  12.010000   ; qtot 91.802564
 3786         ho     91    ccc    H21   3786 0.40508000   1.008000   ; qtot 92.207644
 3787         hn     91    ccc    H22   3787 0.31758000   1.008000   ; qtot 92.525224
 3788         h1     91    ccc    H23   3788 0.06278000   1.008000   ; qtot 92.588004
 3789         h1     91    ccc    H24   3789 0.06278000   1.008000   ; qtot 92.650784
 3790         oh     91    ccc     O7   3790 -0.59472000  16.000000   ; qtot 92.056064
 3791         ho     91    ccc    H25   3791 0.41908000   1.008000   ; qtot 92.475144
 3792         os     91    ccc     O8   3792 -0.44552000  16.000000   ; qtot 92.029624
 3793         ho     91    ccc    H26   3793 0.41908000   1.008000   ; qtot 92.448704
 3794         h1     91    ccc    H27   3794 0.08578000   1.008000   ; qtot 92.534484
 3795         oh     91    ccc     O9   3795 -0.58672000  16.000000   ; qtot 91.947764
 3796         ho     91    ccc    H28   3796 0.41908000   1.008000   ; qtot 92.366844
 3797         n3     91    ccc     N3   3797 -0.54282000  14.010000   ; qtot 91.824024
 3798         c3     91    ccc    C17   3798 0.08518000  12.010000   ; qtot 91.909204
 3799         c3     91    ccc    C18   3799 0.07918000  12.010000   ; qtot 91.988384
 3800         h1     91    ccc    H29   3800 0.06978000   1.008000   ; qtot 92.058164
 3801         c3     91    ccc    C19   3801 0.07918000  12.010000   ; qtot 92.137344
 3802         c3     91    ccc    C20   3802 0.03578000  12.010000   ; qtot 92.173124
 3803         c3     91    ccc    C21   3803 0.33498000  12.010000   ; qtot 92.508104
 3804         h1     91    ccc    H30   3804 0.06178000   1.008000   ; qtot 92.569884
 3805         h1     91    ccc    H31   3805 0.11278000   1.008000   ; qtot 92.682664
 3806         h2     91    ccc    H32   3806 0.12178000   1.008000   ; qtot 92.804444
 3807         oh     91    ccc    O10   3807 -0.56972000  16.000000   ; qtot 92.234724
 3808         oh     91    ccc    O11   3808 -0.57772000  16.000000   ; qtot 91.657004
 3809         c3     91    ccc    C22   3809 0.14548000  12.010000   ; qtot 91.802484
 3810         ho     91    ccc    H33   3810 0.40508000   1.008000   ; qtot 92.207564
 3811         hn     91    ccc    H34   3811 0.31758000   1.008000   ; qtot 92.525144
 3812         h1     91    ccc    H35   3812 0.06278000   1.008000   ; qtot 92.587924
 3813         h1     91    ccc    H36   3813 0.06278000   1.008000   ; qtot 92.650704
 3814         oh     91    ccc    O12   3814 -0.59472000  16.000000   ; qtot 92.055984
 3815         ho     91    ccc    H37   3815 0.41908000   1.008000   ; qtot 92.475064
 3816         os     91    ccc    O13   3816 -0.44552000  16.000000   ; qtot 92.029544
 3817         ho     91    ccc    H38   3817 0.41908000   1.008000   ; qtot 92.448624
 3818         h1     91    ccc    H39   3818 0.08578000   1.008000   ; qtot 92.534404
 3819         oh     91    ccc     O5   3819 -0.58672000  16.000000   ; qtot 91.947684
 3820         ho     91    ccc    H40   3820 0.41908000   1.008000   ; qtot 92.366764
 3821         n3     91    ccc     N4   3821 -0.54282000  14.010000   ; qtot 91.823944
 3822         hn     91    ccc    H41   3822 0.17125500   1.008000   ; qtot 91.995199
; residue   92 ccc rtp ccc q 1.0
 3823          n     92    ccc     N1   3823 -0.33303000  14.010000   ; qtot 91.662169
 3824         hn     92    ccc     H4   3824 0.25916100   1.008000   ; qtot 91.921330
 3825         c3     92    ccc     C3   3825 -0.03328100  12.010000   ; qtot 91.888049
 3826         h1     92    ccc     H5   3826 0.10618100   1.008000   ; qtot 91.994230
 3827         c3     92    ccc     C4   3827 -0.02083000  12.010000   ; qtot 91.973400
 3828         h1     92    ccc     H6   3828 0.10618100   1.008000   ; qtot 92.079581
 3829         h1     92    ccc     H7   3829 0.07988000   1.008000   ; qtot 92.159461
 3830         h1     92    ccc     H8   3830 0.07988000   1.008000   ; qtot 92.239341
 3831         n4     92    ccc     N2   3831 -0.02747900  14.010000   ; qtot 92.211862
 3832         c3     92    ccc     C5   3832 -0.05097600  12.010000   ; qtot 92.160886
 3833         c3     92    ccc     C6   3833 -0.05097600  12.010000   ; qtot 92.109910
 3834         h1     92    ccc     H9   3834 0.11563300   1.008000   ; qtot 92.225543
 3835         c3     92    ccc     C7   3835 -0.18457900  12.010000   ; qtot 92.040964
 3836         h1     92    ccc    H10   3836 0.11563300   1.008000   ; qtot 92.156597
 3837         hc     92    ccc    H11   3837 0.08347900   1.008000   ; qtot 92.240076
 3838         hc     92    ccc    H12   3838 0.08347900   1.008000   ; qtot 92.323555
 3839          c     92    ccc     C8   3839 0.67254400  12.010000   ; qtot 92.996099
 3840          o     92    ccc     O2   3840 -0.52917200  16.000000   ; qtot 92.466927
 3841         h1     92    ccc    H13   3841 0.11563300   1.008000   ; qtot 92.582560
 3842         h1     92    ccc    H14   3842 0.11563300   1.008000   ; qtot 92.698193
 3843         c3     92    ccc     C9   3843 -0.18457900  12.010000   ; qtot 92.513614
 3844         hc     92    ccc    H15   3844 0.08347900   1.008000   ; qtot 92.597093
 3845         hc     92    ccc    H16   3845 0.08347900   1.008000   ; qtot 92.680572
 3846          c     92    ccc    C10   3846 0.67254400  12.010000   ; qtot 93.353116
 3847          o     92    ccc     O4   3847 -0.52917200  16.000000   ; qtot 92.823944
 3848         c3     92    ccc    C11   3848 0.08518000  12.010000   ; qtot 92.909124
 3849         c3     92    ccc    C12   3849 0.07918000  12.010000   ; qtot 92.988304
 3850         h1     92    ccc    H17   3850 0.06978000   1.008000   ; qtot 93.058084
 3851         c3     92    ccc    C13   3851 0.07918000  12.010000   ; qtot 93.137264
 3852         c3     92    ccc    C14   3852 0.03578000  12.010000   ; qtot 93.173044
 3853         c3     92    ccc    C15   3853 0.33498000  12.010000   ; qtot 93.508024
 3854         h1     92    ccc    H18   3854 0.06178000   1.008000   ; qtot 93.569804
 3855         h1     92    ccc    H19   3855 0.11278000   1.008000   ; qtot 93.682584
 3856         h2     92    ccc    H20   3856 0.12178000   1.008000   ; qtot 93.804364
 3857         oh     92    ccc     O1   3857 -0.56972000  16.000000   ; qtot 93.234644
 3858         oh     92    ccc     O6   3858 -0.57772000  16.000000   ; qtot 92.656924
 3859         c3     92    ccc    C16   3859 0.14548000  12.010000   ; qtot 92.802404
 3860         ho     92    ccc    H21   3860 0.40508000   1.008000   ; qtot 93.207484
 3861         hn     92    ccc    H22   3861 0.31758000   1.008000   ; qtot 93.525064
 3862         h1     92    ccc    H23   3862 0.06278000   1.008000   ; qtot 93.587844
 3863         h1     92    ccc    H24   3863 0.06278000   1.008000   ; qtot 93.650624
 3864         oh     92    ccc     O7   3864 -0.59472000  16.000000   ; qtot 93.055904
 3865         ho     92    ccc    H25   3865 0.41908000   1.008000   ; qtot 93.474984
 3866         os     92    ccc     O8   3866 -0.44552000  16.000000   ; qtot 93.029464
 3867         ho     92    ccc    H26   3867 0.41908000   1.008000   ; qtot 93.448544
 3868         h1     92    ccc    H27   3868 0.08578000   1.008000   ; qtot 93.534324
 3869         oh     92    ccc     O9   3869 -0.58672000  16.000000   ; qtot 92.947604
 3870         ho     92    ccc    H28   3870 0.41908000   1.008000   ; qtot 93.366684
 3871         n3     92    ccc     N3   3871 -0.54282000  14.010000   ; qtot 92.823864
 3872         c3     92    ccc    C17   3872 0.08518000  12.010000   ; qtot 92.909044
 3873         c3     92    ccc    C18   3873 0.07918000  12.010000   ; qtot 92.988224
 3874         h1     92    ccc    H29   3874 0.06978000   1.008000   ; qtot 93.058004
 3875         c3     92    ccc    C19   3875 0.07918000  12.010000   ; qtot 93.137184
 3876         c3     92    ccc    C20   3876 0.03578000  12.010000   ; qtot 93.172964
 3877         c3     92    ccc    C21   3877 0.33498000  12.010000   ; qtot 93.507944
 3878         h1     92    ccc    H30   3878 0.06178000   1.008000   ; qtot 93.569724
 3879         h1     92    ccc    H31   3879 0.11278000   1.008000   ; qtot 93.682504
 3880         h2     92    ccc    H32   3880 0.12178000   1.008000   ; qtot 93.804284
 3881         oh     92    ccc    O10   3881 -0.56972000  16.000000   ; qtot 93.234564
 3882         oh     92    ccc    O11   3882 -0.57772000  16.000000   ; qtot 92.656844
 3883         c3     92    ccc    C22   3883 0.14548000  12.010000   ; qtot 92.802324
 3884         ho     92    ccc    H33   3884 0.40508000   1.008000   ; qtot 93.207404
 3885         hn     92    ccc    H34   3885 0.31758000   1.008000   ; qtot 93.524984
 3886         h1     92    ccc    H35   3886 0.06278000   1.008000   ; qtot 93.587764
 3887         h1     92    ccc    H36   3887 0.06278000   1.008000   ; qtot 93.650544
 3888         oh     92    ccc    O12   3888 -0.59472000  16.000000   ; qtot 93.055824
 3889         ho     92    ccc    H37   3889 0.41908000   1.008000   ; qtot 93.474904
 3890         os     92    ccc    O13   3890 -0.44552000  16.000000   ; qtot 93.029384
 3891         ho     92    ccc    H38   3891 0.41908000   1.008000   ; qtot 93.448464
 3892         h1     92    ccc    H39   3892 0.08578000   1.008000   ; qtot 93.534244
 3893         oh     92    ccc     O5   3893 -0.58672000  16.000000   ; qtot 92.947524
 3894         ho     92    ccc    H40   3894 0.41908000   1.008000   ; qtot 93.366604
 3895         n3     92    ccc     N4   3895 -0.54282000  14.010000   ; qtot 92.823784
 3896         hn     92    ccc    H41   3896 0.17125500   1.008000   ; qtot 92.995039
; residue   93 ccc rtp ccc q 1.0
 3897          n     93    ccc     N1   3897 -0.33303000  14.010000   ; qtot 92.662009
 3898         hn     93    ccc     H4   3898 0.25916100   1.008000   ; qtot 92.921170
 3899         c3     93    ccc     C3   3899 -0.03328100  12.010000   ; qtot 92.887889
 3900         h1     93    ccc     H5   3900 0.10618100   1.008000   ; qtot 92.994070
 3901         c3     93    ccc     C4   3901 -0.02083000  12.010000   ; qtot 92.973240
 3902         h1     93    ccc     H6   3902 0.10618100   1.008000   ; qtot 93.079421
 3903         h1     93    ccc     H7   3903 0.07988000   1.008000   ; qtot 93.159301
 3904         h1     93    ccc     H8   3904 0.07988000   1.008000   ; qtot 93.239181
 3905         n4     93    ccc     N2   3905 -0.02747900  14.010000   ; qtot 93.211702
 3906         c3     93    ccc     C5   3906 -0.05097600  12.010000   ; qtot 93.160726
 3907         c3     93    ccc     C6   3907 -0.05097600  12.010000   ; qtot 93.109750
 3908         h1     93    ccc     H9   3908 0.11563300   1.008000   ; qtot 93.225383
 3909         c3     93    ccc     C7   3909 -0.18457900  12.010000   ; qtot 93.040804
 3910         h1     93    ccc    H10   3910 0.11563300   1.008000   ; qtot 93.156437
 3911         hc     93    ccc    H11   3911 0.08347900   1.008000   ; qtot 93.239916
 3912         hc     93    ccc    H12   3912 0.08347900   1.008000   ; qtot 93.323395
 3913          c     93    ccc     C8   3913 0.67254400  12.010000   ; qtot 93.995939
 3914          o     93    ccc     O2   3914 -0.52917200  16.000000   ; qtot 93.466767
 3915         h1     93    ccc    H13   3915 0.11563300   1.008000   ; qtot 93.582400
 3916         h1     93    ccc    H14   3916 0.11563300   1.008000   ; qtot 93.698033
 3917         c3     93    ccc     C9   3917 -0.18457900  12.010000   ; qtot 93.513454
 3918         hc     93    ccc    H15   3918 0.08347900   1.008000   ; qtot 93.596933
 3919         hc     93    ccc    H16   3919 0.08347900   1.008000   ; qtot 93.680412
 3920          c     93    ccc    C10   3920 0.67254400  12.010000   ; qtot 94.352956
 3921          o     93    ccc     O4   3921 -0.52917200  16.000000   ; qtot 93.823784
 3922         c3     93    ccc    C11   3922 0.08518000  12.010000   ; qtot 93.908964
 3923         c3     93    ccc    C12   3923 0.07918000  12.010000   ; qtot 93.988144
 3924         h1     93    ccc    H17   3924 0.06978000   1.008000   ; qtot 94.057924
 3925         c3     93    ccc    C13   3925 0.07918000  12.010000   ; qtot 94.137104
 3926         c3     93    ccc    C14   3926 0.03578000  12.010000   ; qtot 94.172884
 3927         c3     93    ccc    C15   3927 0.33498000  12.010000   ; qtot 94.507864
 3928         h1     93    ccc    H18   3928 0.06178000   1.008000   ; qtot 94.569644
 3929         h1     93    ccc    H19   3929 0.11278000   1.008000   ; qtot 94.682424
 3930         h2     93    ccc    H20   3930 0.12178000   1.008000   ; qtot 94.804204
 3931         oh     93    ccc     O1   3931 -0.56972000  16.000000   ; qtot 94.234484
 3932         oh     93    ccc     O6   3932 -0.57772000  16.000000   ; qtot 93.656764
 3933         c3     93    ccc    C16   3933 0.14548000  12.010000   ; qtot 93.802244
 3934         ho     93    ccc    H21   3934 0.40508000   1.008000   ; qtot 94.207324
 3935         hn     93    ccc    H22   3935 0.31758000   1.008000   ; qtot 94.524904
 3936         h1     93    ccc    H23   3936 0.06278000   1.008000   ; qtot 94.587684
 3937         h1     93    ccc    H24   3937 0.06278000   1.008000   ; qtot 94.650464
 3938         oh     93    ccc     O7   3938 -0.59472000  16.000000   ; qtot 94.055744
 3939         ho     93    ccc    H25   3939 0.41908000   1.008000   ; qtot 94.474824
 3940         os     93    ccc     O8   3940 -0.44552000  16.000000   ; qtot 94.029304
 3941         ho     93    ccc    H26   3941 0.41908000   1.008000   ; qtot 94.448384
 3942         h1     93    ccc    H27   3942 0.08578000   1.008000   ; qtot 94.534164
 3943         oh     93    ccc     O9   3943 -0.58672000  16.000000   ; qtot 93.947444
 3944         ho     93    ccc    H28   3944 0.41908000   1.008000   ; qtot 94.366524
 3945         n3     93    ccc     N3   3945 -0.54282000  14.010000   ; qtot 93.823704
 3946         c3     93    ccc    C17   3946 0.08518000  12.010000   ; qtot 93.908884
 3947         c3     93    ccc    C18   3947 0.07918000  12.010000   ; qtot 93.988064
 3948         h1     93    ccc    H29   3948 0.06978000   1.008000   ; qtot 94.057844
 3949         c3     93    ccc    C19   3949 0.07918000  12.010000   ; qtot 94.137024
 3950         c3     93    ccc    C20   3950 0.03578000  12.010000   ; qtot 94.172804
 3951         c3     93    ccc    C21   3951 0.33498000  12.010000   ; qtot 94.507784
 3952         h1     93    ccc    H30   3952 0.06178000   1.008000   ; qtot 94.569564
 3953         h1     93    ccc    H31   3953 0.11278000   1.008000   ; qtot 94.682344
 3954         h2     93    ccc    H32   3954 0.12178000   1.008000   ; qtot 94.804124
 3955         oh     93    ccc    O10   3955 -0.56972000  16.000000   ; qtot 94.234404
 3956         oh     93    ccc    O11   3956 -0.57772000  16.000000   ; qtot 93.656684
 3957         c3     93    ccc    C22   3957 0.14548000  12.010000   ; qtot 93.802164
 3958         ho     93    ccc    H33   3958 0.40508000   1.008000   ; qtot 94.207244
 3959         hn     93    ccc    H34   3959 0.31758000   1.008000   ; qtot 94.524824
 3960         h1     93    ccc    H35   3960 0.06278000   1.008000   ; qtot 94.587604
 3961         h1     93    ccc    H36   3961 0.06278000   1.008000   ; qtot 94.650384
 3962         oh     93    ccc    O12   3962 -0.59472000  16.000000   ; qtot 94.055664
 3963         ho     93    ccc    H37   3963 0.41908000   1.008000   ; qtot 94.474744
 3964         os     93    ccc    O13   3964 -0.44552000  16.000000   ; qtot 94.029224
 3965         ho     93    ccc    H38   3965 0.41908000   1.008000   ; qtot 94.448304
 3966         h1     93    ccc    H39   3966 0.08578000   1.008000   ; qtot 94.534084
 3967         oh     93    ccc     O5   3967 -0.58672000  16.000000   ; qtot 93.947364
 3968         ho     93    ccc    H40   3968 0.41908000   1.008000   ; qtot 94.366444
 3969         n3     93    ccc     N4   3969 -0.54282000  14.010000   ; qtot 93.823624
 3970         hn     93    ccc    H41   3970 0.17125500   1.008000   ; qtot 93.994879
; residue   94 ccc rtp ccc q 1.0
 3971          n     94    ccc     N1   3971 -0.33303000  14.010000   ; qtot 93.661849
 3972         hn     94    ccc     H4   3972 0.25916100   1.008000   ; qtot 93.921010
 3973         c3     94    ccc     C3   3973 -0.03328100  12.010000   ; qtot 93.887729
 3974         h1     94    ccc     H5   3974 0.10618100   1.008000   ; qtot 93.993910
 3975         c3     94    ccc     C4   3975 -0.02083000  12.010000   ; qtot 93.973080
 3976         h1     94    ccc     H6   3976 0.10618100   1.008000   ; qtot 94.079261
 3977         h1     94    ccc     H7   3977 0.07988000   1.008000   ; qtot 94.159141
 3978         h1     94    ccc     H8   3978 0.07988000   1.008000   ; qtot 94.239021
 3979         n4     94    ccc     N2   3979 -0.02747900  14.010000   ; qtot 94.211542
 3980         c3     94    ccc     C5   3980 -0.05097600  12.010000   ; qtot 94.160566
 3981         c3     94    ccc     C6   3981 -0.05097600  12.010000   ; qtot 94.109590
 3982         h1     94    ccc     H9   3982 0.11563300   1.008000   ; qtot 94.225223
 3983         c3     94    ccc     C7   3983 -0.18457900  12.010000   ; qtot 94.040644
 3984         h1     94    ccc    H10   3984 0.11563300   1.008000   ; qtot 94.156277
 3985         hc     94    ccc    H11   3985 0.08347900   1.008000   ; qtot 94.239756
 3986         hc     94    ccc    H12   3986 0.08347900   1.008000   ; qtot 94.323235
 3987          c     94    ccc     C8   3987 0.67254400  12.010000   ; qtot 94.995779
 3988          o     94    ccc     O2   3988 -0.52917200  16.000000   ; qtot 94.466607
 3989         h1     94    ccc    H13   3989 0.11563300   1.008000   ; qtot 94.582240
 3990         h1     94    ccc    H14   3990 0.11563300   1.008000   ; qtot 94.697873
 3991         c3     94    ccc     C9   3991 -0.18457900  12.010000   ; qtot 94.513294
 3992         hc     94    ccc    H15   3992 0.08347900   1.008000   ; qtot 94.596773
 3993         hc     94    ccc    H16   3993 0.08347900   1.008000   ; qtot 94.680252
 3994          c     94    ccc    C10   3994 0.67254400  12.010000   ; qtot 95.352796
 3995          o     94    ccc     O4   3995 -0.52917200  16.000000   ; qtot 94.823624
 3996         c3     94    ccc    C11   3996 0.08518000  12.010000   ; qtot 94.908804
 3997         c3     94    ccc    C12   3997 0.07918000  12.010000   ; qtot 94.987984
 3998         h1     94    ccc    H17   3998 0.06978000   1.008000   ; qtot 95.057764
 3999         c3     94    ccc    C13   3999 0.07918000  12.010000   ; qtot 95.136944
 4000         c3     94    ccc    C14   4000 0.03578000  12.010000   ; qtot 95.172724
 4001         c3     94    ccc    C15   4001 0.33498000  12.010000   ; qtot 95.507704
 4002         h1     94    ccc    H18   4002 0.06178000   1.008000   ; qtot 95.569484
 4003         h1     94    ccc    H19   4003 0.11278000   1.008000   ; qtot 95.682264
 4004         h2     94    ccc    H20   4004 0.12178000   1.008000   ; qtot 95.804044
 4005         oh     94    ccc     O1   4005 -0.56972000  16.000000   ; qtot 95.234324
 4006         oh     94    ccc     O6   4006 -0.57772000  16.000000   ; qtot 94.656604
 4007         c3     94    ccc    C16   4007 0.14548000  12.010000   ; qtot 94.802084
 4008         ho     94    ccc    H21   4008 0.40508000   1.008000   ; qtot 95.207164
 4009         hn     94    ccc    H22   4009 0.31758000   1.008000   ; qtot 95.524744
 4010         h1     94    ccc    H23   4010 0.06278000   1.008000   ; qtot 95.587524
 4011         h1     94    ccc    H24   4011 0.06278000   1.008000   ; qtot 95.650304
 4012         oh     94    ccc     O7   4012 -0.59472000  16.000000   ; qtot 95.055584
 4013         ho     94    ccc    H25   4013 0.41908000   1.008000   ; qtot 95.474664
 4014         os     94    ccc     O8   4014 -0.44552000  16.000000   ; qtot 95.029144
 4015         ho     94    ccc    H26   4015 0.41908000   1.008000   ; qtot 95.448224
 4016         h1     94    ccc    H27   4016 0.08578000   1.008000   ; qtot 95.534004
 4017         oh     94    ccc     O9   4017 -0.58672000  16.000000   ; qtot 94.947284
 4018         ho     94    ccc    H28   4018 0.41908000   1.008000   ; qtot 95.366364
 4019         n3     94    ccc     N3   4019 -0.54282000  14.010000   ; qtot 94.823544
 4020         c3     94    ccc    C17   4020 0.08518000  12.010000   ; qtot 94.908724
 4021         c3     94    ccc    C18   4021 0.07918000  12.010000   ; qtot 94.987904
 4022         h1     94    ccc    H29   4022 0.06978000   1.008000   ; qtot 95.057684
 4023         c3     94    ccc    C19   4023 0.07918000  12.010000   ; qtot 95.136864
 4024         c3     94    ccc    C20   4024 0.03578000  12.010000   ; qtot 95.172644
 4025         c3     94    ccc    C21   4025 0.33498000  12.010000   ; qtot 95.507624
 4026         h1     94    ccc    H30   4026 0.06178000   1.008000   ; qtot 95.569404
 4027         h1     94    ccc    H31   4027 0.11278000   1.008000   ; qtot 95.682184
 4028         h2     94    ccc    H32   4028 0.12178000   1.008000   ; qtot 95.803964
 4029         oh     94    ccc    O10   4029 -0.56972000  16.000000   ; qtot 95.234244
 4030         oh     94    ccc    O11   4030 -0.57772000  16.000000   ; qtot 94.656524
 4031         c3     94    ccc    C22   4031 0.14548000  12.010000   ; qtot 94.802004
 4032         ho     94    ccc    H33   4032 0.40508000   1.008000   ; qtot 95.207084
 4033         hn     94    ccc    H34   4033 0.31758000   1.008000   ; qtot 95.524664
 4034         h1     94    ccc    H35   4034 0.06278000   1.008000   ; qtot 95.587444
 4035         h1     94    ccc    H36   4035 0.06278000   1.008000   ; qtot 95.650224
 4036         oh     94    ccc    O12   4036 -0.59472000  16.000000   ; qtot 95.055504
 4037         ho     94    ccc    H37   4037 0.41908000   1.008000   ; qtot 95.474584
 4038         os     94    ccc    O13   4038 -0.44552000  16.000000   ; qtot 95.029064
 4039         ho     94    ccc    H38   4039 0.41908000   1.008000   ; qtot 95.448144
 4040         h1     94    ccc    H39   4040 0.08578000   1.008000   ; qtot 95.533924
 4041         oh     94    ccc     O5   4041 -0.58672000  16.000000   ; qtot 94.947204
 4042         ho     94    ccc    H40   4042 0.41908000   1.008000   ; qtot 95.366284
 4043         n3     94    ccc     N4   4043 -0.54282000  14.010000   ; qtot 94.823464
 4044         hn     94    ccc    H41   4044 0.17125500   1.008000   ; qtot 94.994719
; residue   95 ccc rtp ccc q 1.0
 4045          n     95    ccc     N1   4045 -0.33303000  14.010000   ; qtot 94.661689
 4046         hn     95    ccc     H4   4046 0.25916100   1.008000   ; qtot 94.920850
 4047         c3     95    ccc     C3   4047 -0.03328100  12.010000   ; qtot 94.887569
 4048         h1     95    ccc     H5   4048 0.10618100   1.008000   ; qtot 94.993750
 4049         c3     95    ccc     C4   4049 -0.02083000  12.010000   ; qtot 94.972920
 4050         h1     95    ccc     H6   4050 0.10618100   1.008000   ; qtot 95.079101
 4051         h1     95    ccc     H7   4051 0.07988000   1.008000   ; qtot 95.158981
 4052         h1     95    ccc     H8   4052 0.07988000   1.008000   ; qtot 95.238861
 4053         n4     95    ccc     N2   4053 -0.02747900  14.010000   ; qtot 95.211382
 4054         c3     95    ccc     C5   4054 -0.05097600  12.010000   ; qtot 95.160406
 4055         c3     95    ccc     C6   4055 -0.05097600  12.010000   ; qtot 95.109430
 4056         h1     95    ccc     H9   4056 0.11563300   1.008000   ; qtot 95.225063
 4057         c3     95    ccc     C7   4057 -0.18457900  12.010000   ; qtot 95.040484
 4058         h1     95    ccc    H10   4058 0.11563300   1.008000   ; qtot 95.156117
 4059         hc     95    ccc    H11   4059 0.08347900   1.008000   ; qtot 95.239596
 4060         hc     95    ccc    H12   4060 0.08347900   1.008000   ; qtot 95.323075
 4061          c     95    ccc     C8   4061 0.67254400  12.010000   ; qtot 95.995619
 4062          o     95    ccc     O2   4062 -0.52917200  16.000000   ; qtot 95.466447
 4063         h1     95    ccc    H13   4063 0.11563300   1.008000   ; qtot 95.582080
 4064         h1     95    ccc    H14   4064 0.11563300   1.008000   ; qtot 95.697713
 4065         c3     95    ccc     C9   4065 -0.18457900  12.010000   ; qtot 95.513134
 4066         hc     95    ccc    H15   4066 0.08347900   1.008000   ; qtot 95.596613
 4067         hc     95    ccc    H16   4067 0.08347900   1.008000   ; qtot 95.680092
 4068          c     95    ccc    C10   4068 0.67254400  12.010000   ; qtot 96.352636
 4069          o     95    ccc     O4   4069 -0.52917200  16.000000   ; qtot 95.823464
 4070         c3     95    ccc    C11   4070 0.08518000  12.010000   ; qtot 95.908644
 4071         c3     95    ccc    C12   4071 0.07918000  12.010000   ; qtot 95.987824
 4072         h1     95    ccc    H17   4072 0.06978000   1.008000   ; qtot 96.057604
 4073         c3     95    ccc    C13   4073 0.07918000  12.010000   ; qtot 96.136784
 4074         c3     95    ccc    C14   4074 0.03578000  12.010000   ; qtot 96.172564
 4075         c3     95    ccc    C15   4075 0.33498000  12.010000   ; qtot 96.507544
 4076         h1     95    ccc    H18   4076 0.06178000   1.008000   ; qtot 96.569324
 4077         h1     95    ccc    H19   4077 0.11278000   1.008000   ; qtot 96.682104
 4078         h2     95    ccc    H20   4078 0.12178000   1.008000   ; qtot 96.803884
 4079         oh     95    ccc     O1   4079 -0.56972000  16.000000   ; qtot 96.234164
 4080         oh     95    ccc     O6   4080 -0.57772000  16.000000   ; qtot 95.656444
 4081         c3     95    ccc    C16   4081 0.14548000  12.010000   ; qtot 95.801924
 4082         ho     95    ccc    H21   4082 0.40508000   1.008000   ; qtot 96.207004
 4083         hn     95    ccc    H22   4083 0.31758000   1.008000   ; qtot 96.524584
 4084         h1     95    ccc    H23   4084 0.06278000   1.008000   ; qtot 96.587364
 4085         h1     95    ccc    H24   4085 0.06278000   1.008000   ; qtot 96.650144
 4086         oh     95    ccc     O7   4086 -0.59472000  16.000000   ; qtot 96.055424
 4087         ho     95    ccc    H25   4087 0.41908000   1.008000   ; qtot 96.474504
 4088         os     95    ccc     O8   4088 -0.44552000  16.000000   ; qtot 96.028984
 4089         ho     95    ccc    H26   4089 0.41908000   1.008000   ; qtot 96.448064
 4090         h1     95    ccc    H27   4090 0.08578000   1.008000   ; qtot 96.533844
 4091         oh     95    ccc     O9   4091 -0.58672000  16.000000   ; qtot 95.947124
 4092         ho     95    ccc    H28   4092 0.41908000   1.008000   ; qtot 96.366204
 4093         n3     95    ccc     N3   4093 -0.54282000  14.010000   ; qtot 95.823384
 4094         c3     95    ccc    C17   4094 0.08518000  12.010000   ; qtot 95.908564
 4095         c3     95    ccc    C18   4095 0.07918000  12.010000   ; qtot 95.987744
 4096         h1     95    ccc    H29   4096 0.06978000   1.008000   ; qtot 96.057524
 4097         c3     95    ccc    C19   4097 0.07918000  12.010000   ; qtot 96.136704
 4098         c3     95    ccc    C20   4098 0.03578000  12.010000   ; qtot 96.172484
 4099         c3     95    ccc    C21   4099 0.33498000  12.010000   ; qtot 96.507464
 4100         h1     95    ccc    H30   4100 0.06178000   1.008000   ; qtot 96.569244
 4101         h1     95    ccc    H31   4101 0.11278000   1.008000   ; qtot 96.682024
 4102         h2     95    ccc    H32   4102 0.12178000   1.008000   ; qtot 96.803804
 4103         oh     95    ccc    O10   4103 -0.56972000  16.000000   ; qtot 96.234084
 4104         oh     95    ccc    O11   4104 -0.57772000  16.000000   ; qtot 95.656364
 4105         c3     95    ccc    C22   4105 0.14548000  12.010000   ; qtot 95.801844
 4106         ho     95    ccc    H33   4106 0.40508000   1.008000   ; qtot 96.206924
 4107         hn     95    ccc    H34   4107 0.31758000   1.008000   ; qtot 96.524504
 4108         h1     95    ccc    H35   4108 0.06278000   1.008000   ; qtot 96.587284
 4109         h1     95    ccc    H36   4109 0.06278000   1.008000   ; qtot 96.650064
 4110         oh     95    ccc    O12   4110 -0.59472000  16.000000   ; qtot 96.055344
 4111         ho     95    ccc    H37   4111 0.41908000   1.008000   ; qtot 96.474424
 4112         os     95    ccc    O13   4112 -0.44552000  16.000000   ; qtot 96.028904
 4113         ho     95    ccc    H38   4113 0.41908000   1.008000   ; qtot 96.447984
 4114         h1     95    ccc    H39   4114 0.08578000   1.008000   ; qtot 96.533764
 4115         oh     95    ccc     O5   4115 -0.58672000  16.000000   ; qtot 95.947044
 4116         ho     95    ccc    H40   4116 0.41908000   1.008000   ; qtot 96.366124
 4117         n3     95    ccc     N4   4117 -0.54282000  14.010000   ; qtot 95.823304
 4118         hn     95    ccc    H41   4118 0.17125500   1.008000   ; qtot 95.994559
; residue   96 ccc rtp ccc q 1.0
 4119          n     96    ccc     N1   4119 -0.33303000  14.010000   ; qtot 95.661529
 4120         hn     96    ccc     H4   4120 0.25916100   1.008000   ; qtot 95.920690
 4121         c3     96    ccc     C3   4121 -0.03328100  12.010000   ; qtot 95.887409
 4122         h1     96    ccc     H5   4122 0.10618100   1.008000   ; qtot 95.993590
 4123         c3     96    ccc     C4   4123 -0.02083000  12.010000   ; qtot 95.972760
 4124         h1     96    ccc     H6   4124 0.10618100   1.008000   ; qtot 96.078941
 4125         h1     96    ccc     H7   4125 0.07988000   1.008000   ; qtot 96.158821
 4126         h1     96    ccc     H8   4126 0.07988000   1.008000   ; qtot 96.238701
 4127         n4     96    ccc     N2   4127 -0.02747900  14.010000   ; qtot 96.211222
 4128         c3     96    ccc     C5   4128 -0.05097600  12.010000   ; qtot 96.160246
 4129         c3     96    ccc     C6   4129 -0.05097600  12.010000   ; qtot 96.109270
 4130         h1     96    ccc     H9   4130 0.11563300   1.008000   ; qtot 96.224903
 4131         c3     96    ccc     C7   4131 -0.18457900  12.010000   ; qtot 96.040324
 4132         h1     96    ccc    H10   4132 0.11563300   1.008000   ; qtot 96.155957
 4133         hc     96    ccc    H11   4133 0.08347900   1.008000   ; qtot 96.239436
 4134         hc     96    ccc    H12   4134 0.08347900   1.008000   ; qtot 96.322915
 4135          c     96    ccc     C8   4135 0.67254400  12.010000   ; qtot 96.995459
 4136          o     96    ccc     O2   4136 -0.52917200  16.000000   ; qtot 96.466287
 4137         h1     96    ccc    H13   4137 0.11563300   1.008000   ; qtot 96.581920
 4138         h1     96    ccc    H14   4138 0.11563300   1.008000   ; qtot 96.697553
 4139         c3     96    ccc     C9   4139 -0.18457900  12.010000   ; qtot 96.512974
 4140         hc     96    ccc    H15   4140 0.08347900   1.008000   ; qtot 96.596453
 4141         hc     96    ccc    H16   4141 0.08347900   1.008000   ; qtot 96.679932
 4142          c     96    ccc    C10   4142 0.67254400  12.010000   ; qtot 97.352476
 4143          o     96    ccc     O4   4143 -0.52917200  16.000000   ; qtot 96.823304
 4144         c3     96    ccc    C11   4144 0.08518000  12.010000   ; qtot 96.908484
 4145         c3     96    ccc    C12   4145 0.07918000  12.010000   ; qtot 96.987664
 4146         h1     96    ccc    H17   4146 0.06978000   1.008000   ; qtot 97.057444
 4147         c3     96    ccc    C13   4147 0.07918000  12.010000   ; qtot 97.136624
 4148         c3     96    ccc    C14   4148 0.03578000  12.010000   ; qtot 97.172404
 4149         c3     96    ccc    C15   4149 0.33498000  12.010000   ; qtot 97.507384
 4150         h1     96    ccc    H18   4150 0.06178000   1.008000   ; qtot 97.569164
 4151         h1     96    ccc    H19   4151 0.11278000   1.008000   ; qtot 97.681944
 4152         h2     96    ccc    H20   4152 0.12178000   1.008000   ; qtot 97.803724
 4153         oh     96    ccc     O1   4153 -0.56972000  16.000000   ; qtot 97.234004
 4154         oh     96    ccc     O6   4154 -0.57772000  16.000000   ; qtot 96.656284
 4155         c3     96    ccc    C16   4155 0.14548000  12.010000   ; qtot 96.801764
 4156         ho     96    ccc    H21   4156 0.40508000   1.008000   ; qtot 97.206844
 4157         hn     96    ccc    H22   4157 0.31758000   1.008000   ; qtot 97.524424
 4158         h1     96    ccc    H23   4158 0.06278000   1.008000   ; qtot 97.587204
 4159         h1     96    ccc    H24   4159 0.06278000   1.008000   ; qtot 97.649984
 4160         oh     96    ccc     O7   4160 -0.59472000  16.000000   ; qtot 97.055264
 4161         ho     96    ccc    H25   4161 0.41908000   1.008000   ; qtot 97.474344
 4162         os     96    ccc     O8   4162 -0.44552000  16.000000   ; qtot 97.028824
 4163         ho     96    ccc    H26   4163 0.41908000   1.008000   ; qtot 97.447904
 4164         h1     96    ccc    H27   4164 0.08578000   1.008000   ; qtot 97.533684
 4165         oh     96    ccc     O9   4165 -0.58672000  16.000000   ; qtot 96.946964
 4166         ho     96    ccc    H28   4166 0.41908000   1.008000   ; qtot 97.366044
 4167         n3     96    ccc     N3   4167 -0.54282000  14.010000   ; qtot 96.823224
 4168         c3     96    ccc    C17   4168 0.08518000  12.010000   ; qtot 96.908404
 4169         c3     96    ccc    C18   4169 0.07918000  12.010000   ; qtot 96.987584
 4170         h1     96    ccc    H29   4170 0.06978000   1.008000   ; qtot 97.057364
 4171         c3     96    ccc    C19   4171 0.07918000  12.010000   ; qtot 97.136544
 4172         c3     96    ccc    C20   4172 0.03578000  12.010000   ; qtot 97.172324
 4173         c3     96    ccc    C21   4173 0.33498000  12.010000   ; qtot 97.507304
 4174         h1     96    ccc    H30   4174 0.06178000   1.008000   ; qtot 97.569084
 4175         h1     96    ccc    H31   4175 0.11278000   1.008000   ; qtot 97.681864
 4176         h2     96    ccc    H32   4176 0.12178000   1.008000   ; qtot 97.803644
 4177         oh     96    ccc    O10   4177 -0.56972000  16.000000   ; qtot 97.233924
 4178         oh     96    ccc    O11   4178 -0.57772000  16.000000   ; qtot 96.656204
 4179         c3     96    ccc    C22   4179 0.14548000  12.010000   ; qtot 96.801684
 4180         ho     96    ccc    H33   4180 0.40508000   1.008000   ; qtot 97.206764
 4181         hn     96    ccc    H34   4181 0.31758000   1.008000   ; qtot 97.524344
 4182         h1     96    ccc    H35   4182 0.06278000   1.008000   ; qtot 97.587124
 4183         h1     96    ccc    H36   4183 0.06278000   1.008000   ; qtot 97.649904
 4184         oh     96    ccc    O12   4184 -0.59472000  16.000000   ; qtot 97.055184
 4185         ho     96    ccc    H37   4185 0.41908000   1.008000   ; qtot 97.474264
 4186         os     96    ccc    O13   4186 -0.44552000  16.000000   ; qtot 97.028744
 4187         ho     96    ccc    H38   4187 0.41908000   1.008000   ; qtot 97.447824
 4188         h1     96    ccc    H39   4188 0.08578000   1.008000   ; qtot 97.533604
 4189         oh     96    ccc     O5   4189 -0.58672000  16.000000   ; qtot 96.946884
 4190         ho     96    ccc    H40   4190 0.41908000   1.008000   ; qtot 97.365964
 4191         n3     96    ccc     N4   4191 -0.54282000  14.010000   ; qtot 96.823144
 4192         hn     96    ccc    H41   4192 0.17125500   1.008000   ; qtot 96.994399
; residue   97 ccc rtp ccc q 1.0
 4193          n     97    ccc     N1   4193 -0.33303000  14.010000   ; qtot 96.661369
 4194         hn     97    ccc     H4   4194 0.25916100   1.008000   ; qtot 96.920530
 4195         c3     97    ccc     C3   4195 -0.03328100  12.010000   ; qtot 96.887249
 4196         h1     97    ccc     H5   4196 0.10618100   1.008000   ; qtot 96.993430
 4197         c3     97    ccc     C4   4197 -0.02083000  12.010000   ; qtot 96.972600
 4198         h1     97    ccc     H6   4198 0.10618100   1.008000   ; qtot 97.078781
 4199         h1     97    ccc     H7   4199 0.07988000   1.008000   ; qtot 97.158661
 4200         h1     97    ccc     H8   4200 0.07988000   1.008000   ; qtot 97.238541
 4201         n4     97    ccc     N2   4201 -0.02747900  14.010000   ; qtot 97.211062
 4202         c3     97    ccc     C5   4202 -0.05097600  12.010000   ; qtot 97.160086
 4203         c3     97    ccc     C6   4203 -0.05097600  12.010000   ; qtot 97.109110
 4204         h1     97    ccc     H9   4204 0.11563300   1.008000   ; qtot 97.224743
 4205         c3     97    ccc     C7   4205 -0.18457900  12.010000   ; qtot 97.040164
 4206         h1     97    ccc    H10   4206 0.11563300   1.008000   ; qtot 97.155797
 4207         hc     97    ccc    H11   4207 0.08347900   1.008000   ; qtot 97.239276
 4208         hc     97    ccc    H12   4208 0.08347900   1.008000   ; qtot 97.322755
 4209          c     97    ccc     C8   4209 0.67254400  12.010000   ; qtot 97.995299
 4210          o     97    ccc     O2   4210 -0.52917200  16.000000   ; qtot 97.466127
 4211         h1     97    ccc    H13   4211 0.11563300   1.008000   ; qtot 97.581760
 4212         h1     97    ccc    H14   4212 0.11563300   1.008000   ; qtot 97.697393
 4213         c3     97    ccc     C9   4213 -0.18457900  12.010000   ; qtot 97.512814
 4214         hc     97    ccc    H15   4214 0.08347900   1.008000   ; qtot 97.596293
 4215         hc     97    ccc    H16   4215 0.08347900   1.008000   ; qtot 97.679772
 4216          c     97    ccc    C10   4216 0.67254400  12.010000   ; qtot 98.352316
 4217          o     97    ccc     O4   4217 -0.52917200  16.000000   ; qtot 97.823144
 4218         c3     97    ccc    C11   4218 0.08518000  12.010000   ; qtot 97.908324
 4219         c3     97    ccc    C12   4219 0.07918000  12.010000   ; qtot 97.987504
 4220         h1     97    ccc    H17   4220 0.06978000   1.008000   ; qtot 98.057284
 4221         c3     97    ccc    C13   4221 0.07918000  12.010000   ; qtot 98.136464
 4222         c3     97    ccc    C14   4222 0.03578000  12.010000   ; qtot 98.172244
 4223         c3     97    ccc    C15   4223 0.33498000  12.010000   ; qtot 98.507224
 4224         h1     97    ccc    H18   4224 0.06178000   1.008000   ; qtot 98.569004
 4225         h1     97    ccc    H19   4225 0.11278000   1.008000   ; qtot 98.681784
 4226         h2     97    ccc    H20   4226 0.12178000   1.008000   ; qtot 98.803564
 4227         oh     97    ccc     O1   4227 -0.56972000  16.000000   ; qtot 98.233844
 4228         oh     97    ccc     O6   4228 -0.57772000  16.000000   ; qtot 97.656124
 4229         c3     97    ccc    C16   4229 0.14548000  12.010000   ; qtot 97.801604
 4230         ho     97    ccc    H21   4230 0.40508000   1.008000   ; qtot 98.206684
 4231         hn     97    ccc    H22   4231 0.31758000   1.008000   ; qtot 98.524264
 4232         h1     97    ccc    H23   4232 0.06278000   1.008000   ; qtot 98.587044
 4233         h1     97    ccc    H24   4233 0.06278000   1.008000   ; qtot 98.649824
 4234         oh     97    ccc     O7   4234 -0.59472000  16.000000   ; qtot 98.055104
 4235         ho     97    ccc    H25   4235 0.41908000   1.008000   ; qtot 98.474184
 4236         os     97    ccc     O8   4236 -0.44552000  16.000000   ; qtot 98.028664
 4237         ho     97    ccc    H26   4237 0.41908000   1.008000   ; qtot 98.447744
 4238         h1     97    ccc    H27   4238 0.08578000   1.008000   ; qtot 98.533524
 4239         oh     97    ccc     O9   4239 -0.58672000  16.000000   ; qtot 97.946804
 4240         ho     97    ccc    H28   4240 0.41908000   1.008000   ; qtot 98.365884
 4241         n3     97    ccc     N3   4241 -0.54282000  14.010000   ; qtot 97.823064
 4242         c3     97    ccc    C17   4242 0.08518000  12.010000   ; qtot 97.908244
 4243         c3     97    ccc    C18   4243 0.07918000  12.010000   ; qtot 97.987424
 4244         h1     97    ccc    H29   4244 0.06978000   1.008000   ; qtot 98.057204
 4245         c3     97    ccc    C19   4245 0.07918000  12.010000   ; qtot 98.136384
 4246         c3     97    ccc    C20   4246 0.03578000  12.010000   ; qtot 98.172164
 4247         c3     97    ccc    C21   4247 0.33498000  12.010000   ; qtot 98.507144
 4248         h1     97    ccc    H30   4248 0.06178000   1.008000   ; qtot 98.568924
 4249         h1     97    ccc    H31   4249 0.11278000   1.008000   ; qtot 98.681704
 4250         h2     97    ccc    H32   4250 0.12178000   1.008000   ; qtot 98.803484
 4251         oh     97    ccc    O10   4251 -0.56972000  16.000000   ; qtot 98.233764
 4252         oh     97    ccc    O11   4252 -0.57772000  16.000000   ; qtot 97.656044
 4253         c3     97    ccc    C22   4253 0.14548000  12.010000   ; qtot 97.801524
 4254         ho     97    ccc    H33   4254 0.40508000   1.008000   ; qtot 98.206604
 4255         hn     97    ccc    H34   4255 0.31758000   1.008000   ; qtot 98.524184
 4256         h1     97    ccc    H35   4256 0.06278000   1.008000   ; qtot 98.586964
 4257         h1     97    ccc    H36   4257 0.06278000   1.008000   ; qtot 98.649744
 4258         oh     97    ccc    O12   4258 -0.59472000  16.000000   ; qtot 98.055024
 4259         ho     97    ccc    H37   4259 0.41908000   1.008000   ; qtot 98.474104
 4260         os     97    ccc    O13   4260 -0.44552000  16.000000   ; qtot 98.028584
 4261         ho     97    ccc    H38   4261 0.41908000   1.008000   ; qtot 98.447664
 4262         h1     97    ccc    H39   4262 0.08578000   1.008000   ; qtot 98.533444
 4263         oh     97    ccc     O5   4263 -0.58672000  16.000000   ; qtot 97.946724
 4264         ho     97    ccc    H40   4264 0.41908000   1.008000   ; qtot 98.365804
 4265         n3     97    ccc     N4   4265 -0.54282000  14.010000   ; qtot 97.822984
 4266         hn     97    ccc    H41   4266 0.17125500   1.008000   ; qtot 97.994239
; residue   98 ccc rtp ccc q 1.0
 4267          n     98    ccc     N1   4267 -0.33303000  14.010000   ; qtot 97.661209
 4268         hn     98    ccc     H4   4268 0.25916100   1.008000   ; qtot 97.920370
 4269         c3     98    ccc     C3   4269 -0.03328100  12.010000   ; qtot 97.887089
 4270         h1     98    ccc     H5   4270 0.10618100   1.008000   ; qtot 97.993270
 4271         c3     98    ccc     C4   4271 -0.02083000  12.010000   ; qtot 97.972440
 4272         h1     98    ccc     H6   4272 0.10618100   1.008000   ; qtot 98.078621
 4273         h1     98    ccc     H7   4273 0.07988000   1.008000   ; qtot 98.158501
 4274         h1     98    ccc     H8   4274 0.07988000   1.008000   ; qtot 98.238381
 4275         n4     98    ccc     N2   4275 -0.02747900  14.010000   ; qtot 98.210902
 4276         c3     98    ccc     C5   4276 -0.05097600  12.010000   ; qtot 98.159926
 4277         c3     98    ccc     C6   4277 -0.05097600  12.010000   ; qtot 98.108950
 4278         h1     98    ccc     H9   4278 0.11563300   1.008000   ; qtot 98.224583
 4279         c3     98    ccc     C7   4279 -0.18457900  12.010000   ; qtot 98.040004
 4280         h1     98    ccc    H10   4280 0.11563300   1.008000   ; qtot 98.155637
 4281         hc     98    ccc    H11   4281 0.08347900   1.008000   ; qtot 98.239116
 4282         hc     98    ccc    H12   4282 0.08347900   1.008000   ; qtot 98.322595
 4283          c     98    ccc     C8   4283 0.67254400  12.010000   ; qtot 98.995139
 4284          o     98    ccc     O2   4284 -0.52917200  16.000000   ; qtot 98.465967
 4285         h1     98    ccc    H13   4285 0.11563300   1.008000   ; qtot 98.581600
 4286         h1     98    ccc    H14   4286 0.11563300   1.008000   ; qtot 98.697233
 4287         c3     98    ccc     C9   4287 -0.18457900  12.010000   ; qtot 98.512654
 4288         hc     98    ccc    H15   4288 0.08347900   1.008000   ; qtot 98.596133
 4289         hc     98    ccc    H16   4289 0.08347900   1.008000   ; qtot 98.679612
 4290          c     98    ccc    C10   4290 0.67254400  12.010000   ; qtot 99.352156
 4291          o     98    ccc     O4   4291 -0.52917200  16.000000   ; qtot 98.822984
 4292         c3     98    ccc    C11   4292 0.08518000  12.010000   ; qtot 98.908164
 4293         c3     98    ccc    C12   4293 0.07918000  12.010000   ; qtot 98.987344
 4294         h1     98    ccc    H17   4294 0.06978000   1.008000   ; qtot 99.057124
 4295         c3     98    ccc    C13   4295 0.07918000  12.010000   ; qtot 99.136304
 4296         c3     98    ccc    C14   4296 0.03578000  12.010000   ; qtot 99.172084
 4297         c3     98    ccc    C15   4297 0.33498000  12.010000   ; qtot 99.507064
 4298         h1     98    ccc    H18   4298 0.06178000   1.008000   ; qtot 99.568844
 4299         h1     98    ccc    H19   4299 0.11278000   1.008000   ; qtot 99.681624
 4300         h2     98    ccc    H20   4300 0.12178000   1.008000   ; qtot 99.803404
 4301         oh     98    ccc     O1   4301 -0.56972000  16.000000   ; qtot 99.233684
 4302         oh     98    ccc     O6   4302 -0.57772000  16.000000   ; qtot 98.655964
 4303         c3     98    ccc    C16   4303 0.14548000  12.010000   ; qtot 98.801444
 4304         ho     98    ccc    H21   4304 0.40508000   1.008000   ; qtot 99.206524
 4305         hn     98    ccc    H22   4305 0.31758000   1.008000   ; qtot 99.524104
 4306         h1     98    ccc    H23   4306 0.06278000   1.008000   ; qtot 99.586884
 4307         h1     98    ccc    H24   4307 0.06278000   1.008000   ; qtot 99.649664
 4308         oh     98    ccc     O7   4308 -0.59472000  16.000000   ; qtot 99.054944
 4309         ho     98    ccc    H25   4309 0.41908000   1.008000   ; qtot 99.474024
 4310         os     98    ccc     O8   4310 -0.44552000  16.000000   ; qtot 99.028504
 4311         ho     98    ccc    H26   4311 0.41908000   1.008000   ; qtot 99.447584
 4312         h1     98    ccc    H27   4312 0.08578000   1.008000   ; qtot 99.533364
 4313         oh     98    ccc     O9   4313 -0.58672000  16.000000   ; qtot 98.946644
 4314         ho     98    ccc    H28   4314 0.41908000   1.008000   ; qtot 99.365724
 4315         n3     98    ccc     N3   4315 -0.54282000  14.010000   ; qtot 98.822904
 4316         c3     98    ccc    C17   4316 0.08518000  12.010000   ; qtot 98.908084
 4317         c3     98    ccc    C18   4317 0.07918000  12.010000   ; qtot 98.987264
 4318         h1     98    ccc    H29   4318 0.06978000   1.008000   ; qtot 99.057044
 4319         c3     98    ccc    C19   4319 0.07918000  12.010000   ; qtot 99.136224
 4320         c3     98    ccc    C20   4320 0.03578000  12.010000   ; qtot 99.172004
 4321         c3     98    ccc    C21   4321 0.33498000  12.010000   ; qtot 99.506984
 4322         h1     98    ccc    H30   4322 0.06178000   1.008000   ; qtot 99.568764
 4323         h1     98    ccc    H31   4323 0.11278000   1.008000   ; qtot 99.681544
 4324         h2     98    ccc    H32   4324 0.12178000   1.008000   ; qtot 99.803324
 4325         oh     98    ccc    O10   4325 -0.56972000  16.000000   ; qtot 99.233604
 4326         oh     98    ccc    O11   4326 -0.57772000  16.000000   ; qtot 98.655884
 4327         c3     98    ccc    C22   4327 0.14548000  12.010000   ; qtot 98.801364
 4328         ho     98    ccc    H33   4328 0.40508000   1.008000   ; qtot 99.206444
 4329         hn     98    ccc    H34   4329 0.31758000   1.008000   ; qtot 99.524024
 4330         h1     98    ccc    H35   4330 0.06278000   1.008000   ; qtot 99.586804
 4331         h1     98    ccc    H36   4331 0.06278000   1.008000   ; qtot 99.649584
 4332         oh     98    ccc    O12   4332 -0.59472000  16.000000   ; qtot 99.054864
 4333         ho     98    ccc    H37   4333 0.41908000   1.008000   ; qtot 99.473944
 4334         os     98    ccc    O13   4334 -0.44552000  16.000000   ; qtot 99.028424
 4335         ho     98    ccc    H38   4335 0.41908000   1.008000   ; qtot 99.447504
 4336         h1     98    ccc    H39   4336 0.08578000   1.008000   ; qtot 99.533284
 4337         oh     98    ccc     O5   4337 -0.58672000  16.000000   ; qtot 98.946564
 4338         ho     98    ccc    H40   4338 0.41908000   1.008000   ; qtot 99.365644
 4339         n3     98    ccc     N4   4339 -0.54282000  14.010000   ; qtot 98.822824
 4340         hn     98    ccc    H41   4340 0.17125500   1.008000   ; qtot 98.994079
; residue   99 ccc rtp ccc q 1.0
 4341          n     99    ccc     N1   4341 -0.33303000  14.010000   ; qtot 98.661049
 4342         hn     99    ccc     H4   4342 0.25916100   1.008000   ; qtot 98.920210
 4343         c3     99    ccc     C3   4343 -0.03328100  12.010000   ; qtot 98.886929
 4344         h1     99    ccc     H5   4344 0.10618100   1.008000   ; qtot 98.993110
 4345         c3     99    ccc     C4   4345 -0.02083000  12.010000   ; qtot 98.972280
 4346         h1     99    ccc     H6   4346 0.10618100   1.008000   ; qtot 99.078461
 4347         h1     99    ccc     H7   4347 0.07988000   1.008000   ; qtot 99.158341
 4348         h1     99    ccc     H8   4348 0.07988000   1.008000   ; qtot 99.238221
 4349         n4     99    ccc     N2   4349 -0.02747900  14.010000   ; qtot 99.210742
 4350         c3     99    ccc     C5   4350 -0.05097600  12.010000   ; qtot 99.159766
 4351         c3     99    ccc     C6   4351 -0.05097600  12.010000   ; qtot 99.108790
 4352         h1     99    ccc     H9   4352 0.11563300   1.008000   ; qtot 99.224423
 4353         c3     99    ccc     C7   4353 -0.18457900  12.010000   ; qtot 99.039844
 4354         h1     99    ccc    H10   4354 0.11563300   1.008000   ; qtot 99.155477
 4355         hc     99    ccc    H11   4355 0.08347900   1.008000   ; qtot 99.238956
 4356         hc     99    ccc    H12   4356 0.08347900   1.008000   ; qtot 99.322435
 4357          c     99    ccc     C8   4357 0.67254400  12.010000   ; qtot 99.994979
 4358          o     99    ccc     O2   4358 -0.52917200  16.000000   ; qtot 99.465807
 4359         h1     99    ccc    H13   4359 0.11563300   1.008000   ; qtot 99.581440
 4360         h1     99    ccc    H14   4360 0.11563300   1.008000   ; qtot 99.697073
 4361         c3     99    ccc     C9   4361 -0.18457900  12.010000   ; qtot 99.512494
 4362         hc     99    ccc    H15   4362 0.08347900   1.008000   ; qtot 99.595973
 4363         hc     99    ccc    H16   4363 0.08347900   1.008000   ; qtot 99.679452
 4364          c     99    ccc    C10   4364 0.67254400  12.010000   ; qtot 100.351996
 4365          o     99    ccc     O4   4365 -0.52917200  16.000000   ; qtot 99.822824
 4366         c3     99    ccc    C11   4366 0.08518000  12.010000   ; qtot 99.908004
 4367         c3     99    ccc    C12   4367 0.07918000  12.010000   ; qtot 99.987184
 4368         h1     99    ccc    H17   4368 0.06978000   1.008000   ; qtot 100.056964
 4369         c3     99    ccc    C13   4369 0.07918000  12.010000   ; qtot 100.136144
 4370         c3     99    ccc    C14   4370 0.03578000  12.010000   ; qtot 100.171924
 4371         c3     99    ccc    C15   4371 0.33498000  12.010000   ; qtot 100.506904
 4372         h1     99    ccc    H18   4372 0.06178000   1.008000   ; qtot 100.568684
 4373         h1     99    ccc    H19   4373 0.11278000   1.008000   ; qtot 100.681464
 4374         h2     99    ccc    H20   4374 0.12178000   1.008000   ; qtot 100.803244
 4375         oh     99    ccc     O1   4375 -0.56972000  16.000000   ; qtot 100.233524
 4376         oh     99    ccc     O6   4376 -0.57772000  16.000000   ; qtot 99.655804
 4377         c3     99    ccc    C16   4377 0.14548000  12.010000   ; qtot 99.801284
 4378         ho     99    ccc    H21   4378 0.40508000   1.008000   ; qtot 100.206364
 4379         hn     99    ccc    H22   4379 0.31758000   1.008000   ; qtot 100.523944
 4380         h1     99    ccc    H23   4380 0.06278000   1.008000   ; qtot 100.586724
 4381         h1     99    ccc    H24   4381 0.06278000   1.008000   ; qtot 100.649504
 4382         oh     99    ccc     O7   4382 -0.59472000  16.000000   ; qtot 100.054784
 4383         ho     99    ccc    H25   4383 0.41908000   1.008000   ; qtot 100.473864
 4384         os     99    ccc     O8   4384 -0.44552000  16.000000   ; qtot 100.028344
 4385         ho     99    ccc    H26   4385 0.41908000   1.008000   ; qtot 100.447424
 4386         h1     99    ccc    H27   4386 0.08578000   1.008000   ; qtot 100.533204
 4387         oh     99    ccc     O9   4387 -0.58672000  16.000000   ; qtot 99.946484
 4388         ho     99    ccc    H28   4388 0.41908000   1.008000   ; qtot 100.365564
 4389         n3     99    ccc     N3   4389 -0.54282000  14.010000   ; qtot 99.822744
 4390         c3     99    ccc    C17   4390 0.08518000  12.010000   ; qtot 99.907924
 4391         c3     99    ccc    C18   4391 0.07918000  12.010000   ; qtot 99.987104
 4392         h1     99    ccc    H29   4392 0.06978000   1.008000   ; qtot 100.056884
 4393         c3     99    ccc    C19   4393 0.07918000  12.010000   ; qtot 100.136064
 4394         c3     99    ccc    C20   4394 0.03578000  12.010000   ; qtot 100.171844
 4395         c3     99    ccc    C21   4395 0.33498000  12.010000   ; qtot 100.506824
 4396         h1     99    ccc    H30   4396 0.06178000   1.008000   ; qtot 100.568604
 4397         h1     99    ccc    H31   4397 0.11278000   1.008000   ; qtot 100.681384
 4398         h2     99    ccc    H32   4398 0.12178000   1.008000   ; qtot 100.803164
 4399         oh     99    ccc    O10   4399 -0.56972000  16.000000   ; qtot 100.233444
 4400         oh     99    ccc    O11   4400 -0.57772000  16.000000   ; qtot 99.655724
 4401         c3     99    ccc    C22   4401 0.14548000  12.010000   ; qtot 99.801204
 4402         ho     99    ccc    H33   4402 0.40508000   1.008000   ; qtot 100.206284
 4403         hn     99    ccc    H34   4403 0.31758000   1.008000   ; qtot 100.523864
 4404         h1     99    ccc    H35   4404 0.06278000   1.008000   ; qtot 100.586644
 4405         h1     99    ccc    H36   4405 0.06278000   1.008000   ; qtot 100.649424
 4406         oh     99    ccc    O12   4406 -0.59472000  16.000000   ; qtot 100.054704
 4407         ho     99    ccc    H37   4407 0.41908000   1.008000   ; qtot 100.473784
 4408         os     99    ccc    O13   4408 -0.44552000  16.000000   ; qtot 100.028264
 4409         ho     99    ccc    H38   4409 0.41908000   1.008000   ; qtot 100.447344
 4410         h1     99    ccc    H39   4410 0.08578000   1.008000   ; qtot 100.533124
 4411         oh     99    ccc     O5   4411 -0.58672000  16.000000   ; qtot 99.946404
 4412         ho     99    ccc    H40   4412 0.41908000   1.008000   ; qtot 100.365484
 4413         n3     99    ccc     N4   4413 -0.54282000  14.010000   ; qtot 99.822664
 4414         hn     99    ccc    H41   4414 0.17125500   1.008000   ; qtot 99.993919
; residue  100 ccc rtp ccc q 1.0
 4415          n    100    ccc     N1   4415 -0.33303000  14.010000   ; qtot 99.660889
 4416         hn    100    ccc     H4   4416 0.25916100   1.008000   ; qtot 99.920050
 4417         c3    100    ccc     C3   4417 -0.03328100  12.010000   ; qtot 99.886769
 4418         h1    100    ccc     H5   4418 0.10618100   1.008000   ; qtot 99.992950
 4419         c3    100    ccc     C4   4419 -0.02083000  12.010000   ; qtot 99.972120
 4420         h1    100    ccc     H6   4420 0.10618100   1.008000   ; qtot 100.078301
 4421         h1    100    ccc     H7   4421 0.07988000   1.008000   ; qtot 100.158181
 4422         h1    100    ccc     H8   4422 0.07988000   1.008000   ; qtot 100.238061
 4423         n4    100    ccc     N2   4423 -0.02747900  14.010000   ; qtot 100.210582
 4424         c3    100    ccc     C5   4424 -0.05097600  12.010000   ; qtot 100.159606
 4425         c3    100    ccc     C6   4425 -0.05097600  12.010000   ; qtot 100.108630
 4426         h1    100    ccc     H9   4426 0.11563300   1.008000   ; qtot 100.224263
 4427         c3    100    ccc     C7   4427 -0.18457900  12.010000   ; qtot 100.039684
 4428         h1    100    ccc    H10   4428 0.11563300   1.008000   ; qtot 100.155317
 4429         hc    100    ccc    H11   4429 0.08347900   1.008000   ; qtot 100.238796
 4430         hc    100    ccc    H12   4430 0.08347900   1.008000   ; qtot 100.322275
 4431          c    100    ccc     C8   4431 0.67254400  12.010000   ; qtot 100.994819
 4432          o    100    ccc     O2   4432 -0.52917200  16.000000   ; qtot 100.465647
 4433         h1    100    ccc    H13   4433 0.11563300   1.008000   ; qtot 100.581280
 4434         h1    100    ccc    H14   4434 0.11563300   1.008000   ; qtot 100.696913
 4435         c3    100    ccc     C9   4435 -0.18457900  12.010000   ; qtot 100.512334
 4436         hc    100    ccc    H15   4436 0.08347900   1.008000   ; qtot 100.595813
 4437         hc    100    ccc    H16   4437 0.08347900   1.008000   ; qtot 100.679292
 4438          c    100    ccc    C10   4438 0.67254400  12.010000   ; qtot 101.351836
 4439          o    100    ccc     O4   4439 -0.52917200  16.000000   ; qtot 100.822664
 4440         c3    100    ccc    C11   4440 0.08518000  12.010000   ; qtot 100.907844
 4441         c3    100    ccc    C12   4441 0.07918000  12.010000   ; qtot 100.987024
 4442         h1    100    ccc    H17   4442 0.06978000   1.008000   ; qtot 101.056804
 4443         c3    100    ccc    C13   4443 0.07918000  12.010000   ; qtot 101.135984
 4444         c3    100    ccc    C14   4444 0.03578000  12.010000   ; qtot 101.171764
 4445         c3    100    ccc    C15   4445 0.33498000  12.010000   ; qtot 101.506744
 4446         h1    100    ccc    H18   4446 0.06178000   1.008000   ; qtot 101.568524
 4447         h1    100    ccc    H19   4447 0.11278000   1.008000   ; qtot 101.681304
 4448         h2    100    ccc    H20   4448 0.12178000   1.008000   ; qtot 101.803084
 4449         oh    100    ccc     O1   4449 -0.56972000  16.000000   ; qtot 101.233364
 4450         oh    100    ccc     O6   4450 -0.57772000  16.000000   ; qtot 100.655644
 4451         c3    100    ccc    C16   4451 0.14548000  12.010000   ; qtot 100.801124
 4452         ho    100    ccc    H21   4452 0.40508000   1.008000   ; qtot 101.206204
 4453         hn    100    ccc    H22   4453 0.31758000   1.008000   ; qtot 101.523784
 4454         h1    100    ccc    H23   4454 0.06278000   1.008000   ; qtot 101.586564
 4455         h1    100    ccc    H24   4455 0.06278000   1.008000   ; qtot 101.649344
 4456         oh    100    ccc     O7   4456 -0.59472000  16.000000   ; qtot 101.054624
 4457         ho    100    ccc    H25   4457 0.41908000   1.008000   ; qtot 101.473704
 4458         os    100    ccc     O8   4458 -0.44552000  16.000000   ; qtot 101.028184
 4459         ho    100    ccc    H26   4459 0.41908000   1.008000   ; qtot 101.447264
 4460         h1    100    ccc    H27   4460 0.08578000   1.008000   ; qtot 101.533044
 4461         oh    100    ccc     O9   4461 -0.58672000  16.000000   ; qtot 100.946324
 4462         ho    100    ccc    H28   4462 0.41908000   1.008000   ; qtot 101.365404
 4463         n3    100    ccc     N3   4463 -0.54282000  14.010000   ; qtot 100.822584
 4464         c3    100    ccc    C17   4464 0.08518000  12.010000   ; qtot 100.907764
 4465         c3    100    ccc    C18   4465 0.07918000  12.010000   ; qtot 100.986944
 4466         h1    100    ccc    H29   4466 0.06978000   1.008000   ; qtot 101.056724
 4467         c3    100    ccc    C19   4467 0.07918000  12.010000   ; qtot 101.135904
 4468         c3    100    ccc    C20   4468 0.03578000  12.010000   ; qtot 101.171684
 4469         c3    100    ccc    C21   4469 0.33498000  12.010000   ; qtot 101.506664
 4470         h1    100    ccc    H30   4470 0.06178000   1.008000   ; qtot 101.568444
 4471         h1    100    ccc    H31   4471 0.11278000   1.008000   ; qtot 101.681224
 4472         h2    100    ccc    H32   4472 0.12178000   1.008000   ; qtot 101.803004
 4473         oh    100    ccc    O10   4473 -0.56972000  16.000000   ; qtot 101.233284
 4474         oh    100    ccc    O11   4474 -0.57772000  16.000000   ; qtot 100.655564
 4475         c3    100    ccc    C22   4475 0.14548000  12.010000   ; qtot 100.801044
 4476         ho    100    ccc    H33   4476 0.40508000   1.008000   ; qtot 101.206124
 4477         hn    100    ccc    H34   4477 0.31758000   1.008000   ; qtot 101.523704
 4478         h1    100    ccc    H35   4478 0.06278000   1.008000   ; qtot 101.586484
 4479         h1    100    ccc    H36   4479 0.06278000   1.008000   ; qtot 101.649264
 4480         oh    100    ccc    O12   4480 -0.59472000  16.000000   ; qtot 101.054544
 4481         ho    100    ccc    H37   4481 0.41908000   1.008000   ; qtot 101.473624
 4482         os    100    ccc    O13   4482 -0.44552000  16.000000   ; qtot 101.028104
 4483         ho    100    ccc    H38   4483 0.41908000   1.008000   ; qtot 101.447184
 4484         h1    100    ccc    H39   4484 0.08578000   1.008000   ; qtot 101.532964
 4485         oh    100    ccc     O5   4485 -0.58672000  16.000000   ; qtot 100.946244
 4486         ho    100    ccc    H40   4486 0.41908000   1.008000   ; qtot 101.365324
 4487         n3    100    ccc     N4   4487 -0.54282000  14.010000   ; qtot 100.822504
 4488         hn    100    ccc    H41   4488 0.17125500   1.008000   ; qtot 100.993759
; residue  101 ccc rtp ccc q 1.0
 4489          n    101    ccc     N1   4489 -0.33303000  14.010000   ; qtot 100.660729
 4490         hn    101    ccc     H4   4490 0.25916100   1.008000   ; qtot 100.919890
 4491         c3    101    ccc     C3   4491 -0.03328100  12.010000   ; qtot 100.886609
 4492         h1    101    ccc     H5   4492 0.10618100   1.008000   ; qtot 100.992790
 4493         c3    101    ccc     C4   4493 -0.02083000  12.010000   ; qtot 100.971960
 4494         h1    101    ccc     H6   4494 0.10618100   1.008000   ; qtot 101.078141
 4495         h1    101    ccc     H7   4495 0.07988000   1.008000   ; qtot 101.158021
 4496         h1    101    ccc     H8   4496 0.07988000   1.008000   ; qtot 101.237901
 4497         n4    101    ccc     N2   4497 -0.02747900  14.010000   ; qtot 101.210422
 4498         c3    101    ccc     C5   4498 -0.05097600  12.010000   ; qtot 101.159446
 4499         c3    101    ccc     C6   4499 -0.05097600  12.010000   ; qtot 101.108470
 4500         h1    101    ccc     H9   4500 0.11563300   1.008000   ; qtot 101.224103
 4501         c3    101    ccc     C7   4501 -0.18457900  12.010000   ; qtot 101.039524
 4502         h1    101    ccc    H10   4502 0.11563300   1.008000   ; qtot 101.155157
 4503         hc    101    ccc    H11   4503 0.08347900   1.008000   ; qtot 101.238636
 4504         hc    101    ccc    H12   4504 0.08347900   1.008000   ; qtot 101.322115
 4505          c    101    ccc     C8   4505 0.67254400  12.010000   ; qtot 101.994659
 4506          o    101    ccc     O2   4506 -0.52917200  16.000000   ; qtot 101.465487
 4507         h1    101    ccc    H13   4507 0.11563300   1.008000   ; qtot 101.581120
 4508         h1    101    ccc    H14   4508 0.11563300   1.008000   ; qtot 101.696753
 4509         c3    101    ccc     C9   4509 -0.18457900  12.010000   ; qtot 101.512174
 4510         hc    101    ccc    H15   4510 0.08347900   1.008000   ; qtot 101.595653
 4511         hc    101    ccc    H16   4511 0.08347900   1.008000   ; qtot 101.679132
 4512          c    101    ccc    C10   4512 0.67254400  12.010000   ; qtot 102.351676
 4513          o    101    ccc     O4   4513 -0.52917200  16.000000   ; qtot 101.822504
 4514         c3    101    ccc    C11   4514 0.08518000  12.010000   ; qtot 101.907684
 4515         c3    101    ccc    C12   4515 0.07918000  12.010000   ; qtot 101.986864
 4516         h1    101    ccc    H17   4516 0.06978000   1.008000   ; qtot 102.056644
 4517         c3    101    ccc    C13   4517 0.07918000  12.010000   ; qtot 102.135824
 4518         c3    101    ccc    C14   4518 0.03578000  12.010000   ; qtot 102.171604
 4519         c3    101    ccc    C15   4519 0.33498000  12.010000   ; qtot 102.506584
 4520         h1    101    ccc    H18   4520 0.06178000   1.008000   ; qtot 102.568364
 4521         h1    101    ccc    H19   4521 0.11278000   1.008000   ; qtot 102.681144
 4522         h2    101    ccc    H20   4522 0.12178000   1.008000   ; qtot 102.802924
 4523         oh    101    ccc     O1   4523 -0.56972000  16.000000   ; qtot 102.233204
 4524         oh    101    ccc     O6   4524 -0.57772000  16.000000   ; qtot 101.655484
 4525         c3    101    ccc    C16   4525 0.14548000  12.010000   ; qtot 101.800964
 4526         ho    101    ccc    H21   4526 0.40508000   1.008000   ; qtot 102.206044
 4527         hn    101    ccc    H22   4527 0.31758000   1.008000   ; qtot 102.523624
 4528         h1    101    ccc    H23   4528 0.06278000   1.008000   ; qtot 102.586404
 4529         h1    101    ccc    H24   4529 0.06278000   1.008000   ; qtot 102.649184
 4530         oh    101    ccc     O7   4530 -0.59472000  16.000000   ; qtot 102.054464
 4531         ho    101    ccc    H25   4531 0.41908000   1.008000   ; qtot 102.473544
 4532         os    101    ccc     O8   4532 -0.44552000  16.000000   ; qtot 102.028024
 4533         ho    101    ccc    H26   4533 0.41908000   1.008000   ; qtot 102.447104
 4534         h1    101    ccc    H27   4534 0.08578000   1.008000   ; qtot 102.532884
 4535         oh    101    ccc     O9   4535 -0.58672000  16.000000   ; qtot 101.946164
 4536         ho    101    ccc    H28   4536 0.41908000   1.008000   ; qtot 102.365244
 4537         n3    101    ccc     N3   4537 -0.54282000  14.010000   ; qtot 101.822424
 4538         c3    101    ccc    C17   4538 0.08518000  12.010000   ; qtot 101.907604
 4539         c3    101    ccc    C18   4539 0.07918000  12.010000   ; qtot 101.986784
 4540         h1    101    ccc    H29   4540 0.06978000   1.008000   ; qtot 102.056564
 4541         c3    101    ccc    C19   4541 0.07918000  12.010000   ; qtot 102.135744
 4542         c3    101    ccc    C20   4542 0.03578000  12.010000   ; qtot 102.171524
 4543         c3    101    ccc    C21   4543 0.33498000  12.010000   ; qtot 102.506504
 4544         h1    101    ccc    H30   4544 0.06178000   1.008000   ; qtot 102.568284
 4545         h1    101    ccc    H31   4545 0.11278000   1.008000   ; qtot 102.681064
 4546         h2    101    ccc    H32   4546 0.12178000   1.008000   ; qtot 102.802844
 4547         oh    101    ccc    O10   4547 -0.56972000  16.000000   ; qtot 102.233124
 4548         oh    101    ccc    O11   4548 -0.57772000  16.000000   ; qtot 101.655404
 4549         c3    101    ccc    C22   4549 0.14548000  12.010000   ; qtot 101.800884
 4550         ho    101    ccc    H33   4550 0.40508000   1.008000   ; qtot 102.205964
 4551         hn    101    ccc    H34   4551 0.31758000   1.008000   ; qtot 102.523544
 4552         h1    101    ccc    H35   4552 0.06278000   1.008000   ; qtot 102.586324
 4553         h1    101    ccc    H36   4553 0.06278000   1.008000   ; qtot 102.649104
 4554         oh    101    ccc    O12   4554 -0.59472000  16.000000   ; qtot 102.054384
 4555         ho    101    ccc    H37   4555 0.41908000   1.008000   ; qtot 102.473464
 4556         os    101    ccc    O13   4556 -0.44552000  16.000000   ; qtot 102.027944
 4557         ho    101    ccc    H38   4557 0.41908000   1.008000   ; qtot 102.447024
 4558         h1    101    ccc    H39   4558 0.08578000   1.008000   ; qtot 102.532804
 4559         oh    101    ccc     O5   4559 -0.58672000  16.000000   ; qtot 101.946084
 4560         ho    101    ccc    H40   4560 0.41908000   1.008000   ; qtot 102.365164
 4561         n3    101    ccc     N4   4561 -0.54282000  14.010000   ; qtot 101.822344
 4562         hn    101    ccc    H41   4562 0.17125500   1.008000   ; qtot 101.993599
; residue  102 ccc rtp ccc q 1.0
 4563          n    102    ccc     N1   4563 -0.33303000  14.010000   ; qtot 101.660569
 4564         hn    102    ccc     H4   4564 0.25916100   1.008000   ; qtot 101.919730
 4565         c3    102    ccc     C3   4565 -0.03328100  12.010000   ; qtot 101.886449
 4566         h1    102    ccc     H5   4566 0.10618100   1.008000   ; qtot 101.992630
 4567         c3    102    ccc     C4   4567 -0.02083000  12.010000   ; qtot 101.971800
 4568         h1    102    ccc     H6   4568 0.10618100   1.008000   ; qtot 102.077981
 4569         h1    102    ccc     H7   4569 0.07988000   1.008000   ; qtot 102.157861
 4570         h1    102    ccc     H8   4570 0.07988000   1.008000   ; qtot 102.237741
 4571         n4    102    ccc     N2   4571 -0.02747900  14.010000   ; qtot 102.210262
 4572         c3    102    ccc     C5   4572 -0.05097600  12.010000   ; qtot 102.159286
 4573         c3    102    ccc     C6   4573 -0.05097600  12.010000   ; qtot 102.108310
 4574         h1    102    ccc     H9   4574 0.11563300   1.008000   ; qtot 102.223943
 4575         c3    102    ccc     C7   4575 -0.18457900  12.010000   ; qtot 102.039364
 4576         h1    102    ccc    H10   4576 0.11563300   1.008000   ; qtot 102.154997
 4577         hc    102    ccc    H11   4577 0.08347900   1.008000   ; qtot 102.238476
 4578         hc    102    ccc    H12   4578 0.08347900   1.008000   ; qtot 102.321955
 4579          c    102    ccc     C8   4579 0.67254400  12.010000   ; qtot 102.994499
 4580          o    102    ccc     O2   4580 -0.52917200  16.000000   ; qtot 102.465327
 4581         h1    102    ccc    H13   4581 0.11563300   1.008000   ; qtot 102.580960
 4582         h1    102    ccc    H14   4582 0.11563300   1.008000   ; qtot 102.696593
 4583         c3    102    ccc     C9   4583 -0.18457900  12.010000   ; qtot 102.512014
 4584         hc    102    ccc    H15   4584 0.08347900   1.008000   ; qtot 102.595493
 4585         hc    102    ccc    H16   4585 0.08347900   1.008000   ; qtot 102.678972
 4586          c    102    ccc    C10   4586 0.67254400  12.010000   ; qtot 103.351516
 4587          o    102    ccc     O4   4587 -0.52917200  16.000000   ; qtot 102.822344
 4588         c3    102    ccc    C11   4588 0.08518000  12.010000   ; qtot 102.907524
 4589         c3    102    ccc    C12   4589 0.07918000  12.010000   ; qtot 102.986704
 4590         h1    102    ccc    H17   4590 0.06978000   1.008000   ; qtot 103.056484
 4591         c3    102    ccc    C13   4591 0.07918000  12.010000   ; qtot 103.135664
 4592         c3    102    ccc    C14   4592 0.03578000  12.010000   ; qtot 103.171444
 4593         c3    102    ccc    C15   4593 0.33498000  12.010000   ; qtot 103.506424
 4594         h1    102    ccc    H18   4594 0.06178000   1.008000   ; qtot 103.568204
 4595         h1    102    ccc    H19   4595 0.11278000   1.008000   ; qtot 103.680984
 4596         h2    102    ccc    H20   4596 0.12178000   1.008000   ; qtot 103.802764
 4597         oh    102    ccc     O1   4597 -0.56972000  16.000000   ; qtot 103.233044
 4598         oh    102    ccc     O6   4598 -0.57772000  16.000000   ; qtot 102.655324
 4599         c3    102    ccc    C16   4599 0.14548000  12.010000   ; qtot 102.800804
 4600         ho    102    ccc    H21   4600 0.40508000   1.008000   ; qtot 103.205884
 4601         hn    102    ccc    H22   4601 0.31758000   1.008000   ; qtot 103.523464
 4602         h1    102    ccc    H23   4602 0.06278000   1.008000   ; qtot 103.586244
 4603         h1    102    ccc    H24   4603 0.06278000   1.008000   ; qtot 103.649024
 4604         oh    102    ccc     O7   4604 -0.59472000  16.000000   ; qtot 103.054304
 4605         ho    102    ccc    H25   4605 0.41908000   1.008000   ; qtot 103.473384
 4606         os    102    ccc     O8   4606 -0.44552000  16.000000   ; qtot 103.027864
 4607         ho    102    ccc    H26   4607 0.41908000   1.008000   ; qtot 103.446944
 4608         h1    102    ccc    H27   4608 0.08578000   1.008000   ; qtot 103.532724
 4609         oh    102    ccc     O9   4609 -0.58672000  16.000000   ; qtot 102.946004
 4610         ho    102    ccc    H28   4610 0.41908000   1.008000   ; qtot 103.365084
 4611         n3    102    ccc     N3   4611 -0.54282000  14.010000   ; qtot 102.822264
 4612         c3    102    ccc    C17   4612 0.08518000  12.010000   ; qtot 102.907444
 4613         c3    102    ccc    C18   4613 0.07918000  12.010000   ; qtot 102.986624
 4614         h1    102    ccc    H29   4614 0.06978000   1.008000   ; qtot 103.056404
 4615         c3    102    ccc    C19   4615 0.07918000  12.010000   ; qtot 103.135584
 4616         c3    102    ccc    C20   4616 0.03578000  12.010000   ; qtot 103.171364
 4617         c3    102    ccc    C21   4617 0.33498000  12.010000   ; qtot 103.506344
 4618         h1    102    ccc    H30   4618 0.06178000   1.008000   ; qtot 103.568124
 4619         h1    102    ccc    H31   4619 0.11278000   1.008000   ; qtot 103.680904
 4620         h2    102    ccc    H32   4620 0.12178000   1.008000   ; qtot 103.802684
 4621         oh    102    ccc    O10   4621 -0.56972000  16.000000   ; qtot 103.232964
 4622         oh    102    ccc    O11   4622 -0.57772000  16.000000   ; qtot 102.655244
 4623         c3    102    ccc    C22   4623 0.14548000  12.010000   ; qtot 102.800724
 4624         ho    102    ccc    H33   4624 0.40508000   1.008000   ; qtot 103.205804
 4625         hn    102    ccc    H34   4625 0.31758000   1.008000   ; qtot 103.523384
 4626         h1    102    ccc    H35   4626 0.06278000   1.008000   ; qtot 103.586164
 4627         h1    102    ccc    H36   4627 0.06278000   1.008000   ; qtot 103.648944
 4628         oh    102    ccc    O12   4628 -0.59472000  16.000000   ; qtot 103.054224
 4629         ho    102    ccc    H37   4629 0.41908000   1.008000   ; qtot 103.473304
 4630         os    102    ccc    O13   4630 -0.44552000  16.000000   ; qtot 103.027784
 4631         ho    102    ccc    H38   4631 0.41908000   1.008000   ; qtot 103.446864
 4632         h1    102    ccc    H39   4632 0.08578000   1.008000   ; qtot 103.532644
 4633         oh    102    ccc     O5   4633 -0.58672000  16.000000   ; qtot 102.945924
 4634         ho    102    ccc    H40   4634 0.41908000   1.008000   ; qtot 103.365004
 4635         n3    102    ccc     N4   4635 -0.54282000  14.010000   ; qtot 102.822184
 4636         hn    102    ccc    H41   4636 0.17125500   1.008000   ; qtot 102.993439
; residue  103 ccc rtp ccc q 1.0
 4637          n    103    ccc     N1   4637 -0.33303000  14.010000   ; qtot 102.660409
 4638         hn    103    ccc     H4   4638 0.25916100   1.008000   ; qtot 102.919570
 4639         c3    103    ccc     C3   4639 -0.03328100  12.010000   ; qtot 102.886289
 4640         h1    103    ccc     H5   4640 0.10618100   1.008000   ; qtot 102.992470
 4641         c3    103    ccc     C4   4641 -0.02083000  12.010000   ; qtot 102.971640
 4642         h1    103    ccc     H6   4642 0.10618100   1.008000   ; qtot 103.077821
 4643         h1    103    ccc     H7   4643 0.07988000   1.008000   ; qtot 103.157701
 4644         h1    103    ccc     H8   4644 0.07988000   1.008000   ; qtot 103.237581
 4645         n4    103    ccc     N2   4645 -0.02747900  14.010000   ; qtot 103.210102
 4646         c3    103    ccc     C5   4646 -0.05097600  12.010000   ; qtot 103.159126
 4647         c3    103    ccc     C6   4647 -0.05097600  12.010000   ; qtot 103.108150
 4648         h1    103    ccc     H9   4648 0.11563300   1.008000   ; qtot 103.223783
 4649         c3    103    ccc     C7   4649 -0.18457900  12.010000   ; qtot 103.039204
 4650         h1    103    ccc    H10   4650 0.11563300   1.008000   ; qtot 103.154837
 4651         hc    103    ccc    H11   4651 0.08347900   1.008000   ; qtot 103.238316
 4652         hc    103    ccc    H12   4652 0.08347900   1.008000   ; qtot 103.321795
 4653          c    103    ccc     C8   4653 0.67254400  12.010000   ; qtot 103.994339
 4654          o    103    ccc     O2   4654 -0.52917200  16.000000   ; qtot 103.465167
 4655         h1    103    ccc    H13   4655 0.11563300   1.008000   ; qtot 103.580800
 4656         h1    103    ccc    H14   4656 0.11563300   1.008000   ; qtot 103.696433
 4657         c3    103    ccc     C9   4657 -0.18457900  12.010000   ; qtot 103.511854
 4658         hc    103    ccc    H15   4658 0.08347900   1.008000   ; qtot 103.595333
 4659         hc    103    ccc    H16   4659 0.08347900   1.008000   ; qtot 103.678812
 4660          c    103    ccc    C10   4660 0.67254400  12.010000   ; qtot 104.351356
 4661          o    103    ccc     O4   4661 -0.52917200  16.000000   ; qtot 103.822184
 4662         c3    103    ccc    C11   4662 0.08518000  12.010000   ; qtot 103.907364
 4663         c3    103    ccc    C12   4663 0.07918000  12.010000   ; qtot 103.986544
 4664         h1    103    ccc    H17   4664 0.06978000   1.008000   ; qtot 104.056324
 4665         c3    103    ccc    C13   4665 0.07918000  12.010000   ; qtot 104.135504
 4666         c3    103    ccc    C14   4666 0.03578000  12.010000   ; qtot 104.171284
 4667         c3    103    ccc    C15   4667 0.33498000  12.010000   ; qtot 104.506264
 4668         h1    103    ccc    H18   4668 0.06178000   1.008000   ; qtot 104.568044
 4669         h1    103    ccc    H19   4669 0.11278000   1.008000   ; qtot 104.680824
 4670         h2    103    ccc    H20   4670 0.12178000   1.008000   ; qtot 104.802604
 4671         oh    103    ccc     O1   4671 -0.56972000  16.000000   ; qtot 104.232884
 4672         oh    103    ccc     O6   4672 -0.57772000  16.000000   ; qtot 103.655164
 4673         c3    103    ccc    C16   4673 0.14548000  12.010000   ; qtot 103.800644
 4674         ho    103    ccc    H21   4674 0.40508000   1.008000   ; qtot 104.205724
 4675         hn    103    ccc    H22   4675 0.31758000   1.008000   ; qtot 104.523304
 4676         h1    103    ccc    H23   4676 0.06278000   1.008000   ; qtot 104.586084
 4677         h1    103    ccc    H24   4677 0.06278000   1.008000   ; qtot 104.648864
 4678         oh    103    ccc     O7   4678 -0.59472000  16.000000   ; qtot 104.054144
 4679         ho    103    ccc    H25   4679 0.41908000   1.008000   ; qtot 104.473224
 4680         os    103    ccc     O8   4680 -0.44552000  16.000000   ; qtot 104.027704
 4681         ho    103    ccc    H26   4681 0.41908000   1.008000   ; qtot 104.446784
 4682         h1    103    ccc    H27   4682 0.08578000   1.008000   ; qtot 104.532564
 4683         oh    103    ccc     O9   4683 -0.58672000  16.000000   ; qtot 103.945844
 4684         ho    103    ccc    H28   4684 0.41908000   1.008000   ; qtot 104.364924
 4685         n3    103    ccc     N3   4685 -0.54282000  14.010000   ; qtot 103.822104
 4686         c3    103    ccc    C17   4686 0.08518000  12.010000   ; qtot 103.907284
 4687         c3    103    ccc    C18   4687 0.07918000  12.010000   ; qtot 103.986464
 4688         h1    103    ccc    H29   4688 0.06978000   1.008000   ; qtot 104.056244
 4689         c3    103    ccc    C19   4689 0.07918000  12.010000   ; qtot 104.135424
 4690         c3    103    ccc    C20   4690 0.03578000  12.010000   ; qtot 104.171204
 4691         c3    103    ccc    C21   4691 0.33498000  12.010000   ; qtot 104.506184
 4692         h1    103    ccc    H30   4692 0.06178000   1.008000   ; qtot 104.567964
 4693         h1    103    ccc    H31   4693 0.11278000   1.008000   ; qtot 104.680744
 4694         h2    103    ccc    H32   4694 0.12178000   1.008000   ; qtot 104.802524
 4695         oh    103    ccc    O10   4695 -0.56972000  16.000000   ; qtot 104.232804
 4696         oh    103    ccc    O11   4696 -0.57772000  16.000000   ; qtot 103.655084
 4697         c3    103    ccc    C22   4697 0.14548000  12.010000   ; qtot 103.800564
 4698         ho    103    ccc    H33   4698 0.40508000   1.008000   ; qtot 104.205644
 4699         hn    103    ccc    H34   4699 0.31758000   1.008000   ; qtot 104.523224
 4700         h1    103    ccc    H35   4700 0.06278000   1.008000   ; qtot 104.586004
 4701         h1    103    ccc    H36   4701 0.06278000   1.008000   ; qtot 104.648784
 4702         oh    103    ccc    O12   4702 -0.59472000  16.000000   ; qtot 104.054064
 4703         ho    103    ccc    H37   4703 0.41908000   1.008000   ; qtot 104.473144
 4704         os    103    ccc    O13   4704 -0.44552000  16.000000   ; qtot 104.027624
 4705         ho    103    ccc    H38   4705 0.41908000   1.008000   ; qtot 104.446704
 4706         h1    103    ccc    H39   4706 0.08578000   1.008000   ; qtot 104.532484
 4707         oh    103    ccc     O5   4707 -0.58672000  16.000000   ; qtot 103.945764
 4708         ho    103    ccc    H40   4708 0.41908000   1.008000   ; qtot 104.364844
 4709         n3    103    ccc     N4   4709 -0.54282000  14.010000   ; qtot 103.822024
 4710         hn    103    ccc    H41   4710 0.17125500   1.008000   ; qtot 103.993279
; residue  104 ccc rtp ccc q 1.0
 4711          n    104    ccc     N1   4711 -0.33303000  14.010000   ; qtot 103.660249
 4712         hn    104    ccc     H4   4712 0.25916100   1.008000   ; qtot 103.919410
 4713         c3    104    ccc     C3   4713 -0.03328100  12.010000   ; qtot 103.886129
 4714         h1    104    ccc     H5   4714 0.10618100   1.008000   ; qtot 103.992310
 4715         c3    104    ccc     C4   4715 -0.02083000  12.010000   ; qtot 103.971480
 4716         h1    104    ccc     H6   4716 0.10618100   1.008000   ; qtot 104.077661
 4717         h1    104    ccc     H7   4717 0.07988000   1.008000   ; qtot 104.157541
 4718         h1    104    ccc     H8   4718 0.07988000   1.008000   ; qtot 104.237421
 4719         n4    104    ccc     N2   4719 -0.02747900  14.010000   ; qtot 104.209942
 4720         c3    104    ccc     C5   4720 -0.05097600  12.010000   ; qtot 104.158966
 4721         c3    104    ccc     C6   4721 -0.05097600  12.010000   ; qtot 104.107990
 4722         h1    104    ccc     H9   4722 0.11563300   1.008000   ; qtot 104.223623
 4723         c3    104    ccc     C7   4723 -0.18457900  12.010000   ; qtot 104.039044
 4724         h1    104    ccc    H10   4724 0.11563300   1.008000   ; qtot 104.154677
 4725         hc    104    ccc    H11   4725 0.08347900   1.008000   ; qtot 104.238156
 4726         hc    104    ccc    H12   4726 0.08347900   1.008000   ; qtot 104.321635
 4727          c    104    ccc     C8   4727 0.67254400  12.010000   ; qtot 104.994179
 4728          o    104    ccc     O2   4728 -0.52917200  16.000000   ; qtot 104.465007
 4729         h1    104    ccc    H13   4729 0.11563300   1.008000   ; qtot 104.580640
 4730         h1    104    ccc    H14   4730 0.11563300   1.008000   ; qtot 104.696273
 4731         c3    104    ccc     C9   4731 -0.18457900  12.010000   ; qtot 104.511694
 4732         hc    104    ccc    H15   4732 0.08347900   1.008000   ; qtot 104.595173
 4733         hc    104    ccc    H16   4733 0.08347900   1.008000   ; qtot 104.678652
 4734          c    104    ccc    C10   4734 0.67254400  12.010000   ; qtot 105.351196
 4735          o    104    ccc     O4   4735 -0.52917200  16.000000   ; qtot 104.822024
 4736         c3    104    ccc    C11   4736 0.08518000  12.010000   ; qtot 104.907204
 4737         c3    104    ccc    C12   4737 0.07918000  12.010000   ; qtot 104.986384
 4738         h1    104    ccc    H17   4738 0.06978000   1.008000   ; qtot 105.056164
 4739         c3    104    ccc    C13   4739 0.07918000  12.010000   ; qtot 105.135344
 4740         c3    104    ccc    C14   4740 0.03578000  12.010000   ; qtot 105.171124
 4741         c3    104    ccc    C15   4741 0.33498000  12.010000   ; qtot 105.506104
 4742         h1    104    ccc    H18   4742 0.06178000   1.008000   ; qtot 105.567884
 4743         h1    104    ccc    H19   4743 0.11278000   1.008000   ; qtot 105.680664
 4744         h2    104    ccc    H20   4744 0.12178000   1.008000   ; qtot 105.802444
 4745         oh    104    ccc     O1   4745 -0.56972000  16.000000   ; qtot 105.232723
 4746         oh    104    ccc     O6   4746 -0.57772000  16.000000   ; qtot 104.655003
 4747         c3    104    ccc    C16   4747 0.14548000  12.010000   ; qtot 104.800483
 4748         ho    104    ccc    H21   4748 0.40508000   1.008000   ; qtot 105.205563
 4749         hn    104    ccc    H22   4749 0.31758000   1.008000   ; qtot 105.523143
 4750         h1    104    ccc    H23   4750 0.06278000   1.008000   ; qtot 105.585923
 4751         h1    104    ccc    H24   4751 0.06278000   1.008000   ; qtot 105.648703
 4752         oh    104    ccc     O7   4752 -0.59472000  16.000000   ; qtot 105.053983
 4753         ho    104    ccc    H25   4753 0.41908000   1.008000   ; qtot 105.473063
 4754         os    104    ccc     O8   4754 -0.44552000  16.000000   ; qtot 105.027543
 4755         ho    104    ccc    H26   4755 0.41908000   1.008000   ; qtot 105.446623
 4756         h1    104    ccc    H27   4756 0.08578000   1.008000   ; qtot 105.532403
 4757         oh    104    ccc     O9   4757 -0.58672000  16.000000   ; qtot 104.945683
 4758         ho    104    ccc    H28   4758 0.41908000   1.008000   ; qtot 105.364763
 4759         n3    104    ccc     N3   4759 -0.54282000  14.010000   ; qtot 104.821943
 4760         c3    104    ccc    C17   4760 0.08518000  12.010000   ; qtot 104.907123
 4761         c3    104    ccc    C18   4761 0.07918000  12.010000   ; qtot 104.986303
 4762         h1    104    ccc    H29   4762 0.06978000   1.008000   ; qtot 105.056083
 4763         c3    104    ccc    C19   4763 0.07918000  12.010000   ; qtot 105.135263
 4764         c3    104    ccc    C20   4764 0.03578000  12.010000   ; qtot 105.171043
 4765         c3    104    ccc    C21   4765 0.33498000  12.010000   ; qtot 105.506023
 4766         h1    104    ccc    H30   4766 0.06178000   1.008000   ; qtot 105.567803
 4767         h1    104    ccc    H31   4767 0.11278000   1.008000   ; qtot 105.680583
 4768         h2    104    ccc    H32   4768 0.12178000   1.008000   ; qtot 105.802363
 4769         oh    104    ccc    O10   4769 -0.56972000  16.000000   ; qtot 105.232643
 4770         oh    104    ccc    O11   4770 -0.57772000  16.000000   ; qtot 104.654923
 4771         c3    104    ccc    C22   4771 0.14548000  12.010000   ; qtot 104.800403
 4772         ho    104    ccc    H33   4772 0.40508000   1.008000   ; qtot 105.205483
 4773         hn    104    ccc    H34   4773 0.31758000   1.008000   ; qtot 105.523063
 4774         h1    104    ccc    H35   4774 0.06278000   1.008000   ; qtot 105.585843
 4775         h1    104    ccc    H36   4775 0.06278000   1.008000   ; qtot 105.648623
 4776         oh    104    ccc    O12   4776 -0.59472000  16.000000   ; qtot 105.053903
 4777         ho    104    ccc    H37   4777 0.41908000   1.008000   ; qtot 105.472983
 4778         os    104    ccc    O13   4778 -0.44552000  16.000000   ; qtot 105.027463
 4779         ho    104    ccc    H38   4779 0.41908000   1.008000   ; qtot 105.446543
 4780         h1    104    ccc    H39   4780 0.08578000   1.008000   ; qtot 105.532323
 4781         oh    104    ccc     O5   4781 -0.58672000  16.000000   ; qtot 104.945603
 4782         ho    104    ccc    H40   4782 0.41908000   1.008000   ; qtot 105.364683
 4783         n3    104    ccc     N4   4783 -0.54282000  14.010000   ; qtot 104.821863
 4784         hn    104    ccc    H41   4784 0.17125500   1.008000   ; qtot 104.993118
; residue  105 ccc rtp ccc q 1.0
 4785          n    105    ccc     N1   4785 -0.33303000  14.010000   ; qtot 104.660088
 4786         hn    105    ccc     H4   4786 0.25916100   1.008000   ; qtot 104.919249
 4787         c3    105    ccc     C3   4787 -0.03328100  12.010000   ; qtot 104.885968
 4788         h1    105    ccc     H5   4788 0.10618100   1.008000   ; qtot 104.992149
 4789         c3    105    ccc     C4   4789 -0.02083000  12.010000   ; qtot 104.971319
 4790         h1    105    ccc     H6   4790 0.10618100   1.008000   ; qtot 105.077500
 4791         h1    105    ccc     H7   4791 0.07988000   1.008000   ; qtot 105.157380
 4792         h1    105    ccc     H8   4792 0.07988000   1.008000   ; qtot 105.237260
 4793         n4    105    ccc     N2   4793 -0.02747900  14.010000   ; qtot 105.209781
 4794         c3    105    ccc     C5   4794 -0.05097600  12.010000   ; qtot 105.158805
 4795         c3    105    ccc     C6   4795 -0.05097600  12.010000   ; qtot 105.107829
 4796         h1    105    ccc     H9   4796 0.11563300   1.008000   ; qtot 105.223462
 4797         c3    105    ccc     C7   4797 -0.18457900  12.010000   ; qtot 105.038883
 4798         h1    105    ccc    H10   4798 0.11563300   1.008000   ; qtot 105.154516
 4799         hc    105    ccc    H11   4799 0.08347900   1.008000   ; qtot 105.237995
 4800         hc    105    ccc    H12   4800 0.08347900   1.008000   ; qtot 105.321474
 4801          c    105    ccc     C8   4801 0.67254400  12.010000   ; qtot 105.994018
 4802          o    105    ccc     O2   4802 -0.52917200  16.000000   ; qtot 105.464846
 4803         h1    105    ccc    H13   4803 0.11563300   1.008000   ; qtot 105.580479
 4804         h1    105    ccc    H14   4804 0.11563300   1.008000   ; qtot 105.696112
 4805         c3    105    ccc     C9   4805 -0.18457900  12.010000   ; qtot 105.511533
 4806         hc    105    ccc    H15   4806 0.08347900   1.008000   ; qtot 105.595012
 4807         hc    105    ccc    H16   4807 0.08347900   1.008000   ; qtot 105.678491
 4808          c    105    ccc    C10   4808 0.67254400  12.010000   ; qtot 106.351035
 4809          o    105    ccc     O4   4809 -0.52917200  16.000000   ; qtot 105.821863
 4810         c3    105    ccc    C11   4810 0.08518000  12.010000   ; qtot 105.907043
 4811         c3    105    ccc    C12   4811 0.07918000  12.010000   ; qtot 105.986223
 4812         h1    105    ccc    H17   4812 0.06978000   1.008000   ; qtot 106.056003
 4813         c3    105    ccc    C13   4813 0.07918000  12.010000   ; qtot 106.135183
 4814         c3    105    ccc    C14   4814 0.03578000  12.010000   ; qtot 106.170963
 4815         c3    105    ccc    C15   4815 0.33498000  12.010000   ; qtot 106.505943
 4816         h1    105    ccc    H18   4816 0.06178000   1.008000   ; qtot 106.567723
 4817         h1    105    ccc    H19   4817 0.11278000   1.008000   ; qtot 106.680503
 4818         h2    105    ccc    H20   4818 0.12178000   1.008000   ; qtot 106.802283
 4819         oh    105    ccc     O1   4819 -0.56972000  16.000000   ; qtot 106.232563
 4820         oh    105    ccc     O6   4820 -0.57772000  16.000000   ; qtot 105.654843
 4821         c3    105    ccc    C16   4821 0.14548000  12.010000   ; qtot 105.800323
 4822         ho    105    ccc    H21   4822 0.40508000   1.008000   ; qtot 106.205403
 4823         hn    105    ccc    H22   4823 0.31758000   1.008000   ; qtot 106.522983
 4824         h1    105    ccc    H23   4824 0.06278000   1.008000   ; qtot 106.585763
 4825         h1    105    ccc    H24   4825 0.06278000   1.008000   ; qtot 106.648543
 4826         oh    105    ccc     O7   4826 -0.59472000  16.000000   ; qtot 106.053823
 4827         ho    105    ccc    H25   4827 0.41908000   1.008000   ; qtot 106.472903
 4828         os    105    ccc     O8   4828 -0.44552000  16.000000   ; qtot 106.027383
 4829         ho    105    ccc    H26   4829 0.41908000   1.008000   ; qtot 106.446463
 4830         h1    105    ccc    H27   4830 0.08578000   1.008000   ; qtot 106.532243
 4831         oh    105    ccc     O9   4831 -0.58672000  16.000000   ; qtot 105.945523
 4832         ho    105    ccc    H28   4832 0.41908000   1.008000   ; qtot 106.364603
 4833         n3    105    ccc     N3   4833 -0.54282000  14.010000   ; qtot 105.821783
 4834         c3    105    ccc    C17   4834 0.08518000  12.010000   ; qtot 105.906963
 4835         c3    105    ccc    C18   4835 0.07918000  12.010000   ; qtot 105.986143
 4836         h1    105    ccc    H29   4836 0.06978000   1.008000   ; qtot 106.055923
 4837         c3    105    ccc    C19   4837 0.07918000  12.010000   ; qtot 106.135103
 4838         c3    105    ccc    C20   4838 0.03578000  12.010000   ; qtot 106.170883
 4839         c3    105    ccc    C21   4839 0.33498000  12.010000   ; qtot 106.505863
 4840         h1    105    ccc    H30   4840 0.06178000   1.008000   ; qtot 106.567643
 4841         h1    105    ccc    H31   4841 0.11278000   1.008000   ; qtot 106.680423
 4842         h2    105    ccc    H32   4842 0.12178000   1.008000   ; qtot 106.802203
 4843         oh    105    ccc    O10   4843 -0.56972000  16.000000   ; qtot 106.232483
 4844         oh    105    ccc    O11   4844 -0.57772000  16.000000   ; qtot 105.654763
 4845         c3    105    ccc    C22   4845 0.14548000  12.010000   ; qtot 105.800243
 4846         ho    105    ccc    H33   4846 0.40508000   1.008000   ; qtot 106.205323
 4847         hn    105    ccc    H34   4847 0.31758000   1.008000   ; qtot 106.522903
 4848         h1    105    ccc    H35   4848 0.06278000   1.008000   ; qtot 106.585683
 4849         h1    105    ccc    H36   4849 0.06278000   1.008000   ; qtot 106.648463
 4850         oh    105    ccc    O12   4850 -0.59472000  16.000000   ; qtot 106.053743
 4851         ho    105    ccc    H37   4851 0.41908000   1.008000   ; qtot 106.472823
 4852         os    105    ccc    O13   4852 -0.44552000  16.000000   ; qtot 106.027303
 4853         ho    105    ccc    H38   4853 0.41908000   1.008000   ; qtot 106.446383
 4854         h1    105    ccc    H39   4854 0.08578000   1.008000   ; qtot 106.532163
 4855         oh    105    ccc     O5   4855 -0.58672000  16.000000   ; qtot 105.945443
 4856         ho    105    ccc    H40   4856 0.41908000   1.008000   ; qtot 106.364523
 4857         n3    105    ccc     N4   4857 -0.54282000  14.010000   ; qtot 105.821703
 4858         hn    105    ccc    H41   4858 0.17125500   1.008000   ; qtot 105.992958
; residue  106 ccc rtp ccc q 1.0
 4859          n    106    ccc     N1   4859 -0.33303000  14.010000   ; qtot 105.659928
 4860         hn    106    ccc     H4   4860 0.25916100   1.008000   ; qtot 105.919089
 4861         c3    106    ccc     C3   4861 -0.03328100  12.010000   ; qtot 105.885808
 4862         h1    106    ccc     H5   4862 0.10618100   1.008000   ; qtot 105.991989
 4863         c3    106    ccc     C4   4863 -0.02083000  12.010000   ; qtot 105.971159
 4864         h1    106    ccc     H6   4864 0.10618100   1.008000   ; qtot 106.077340
 4865         h1    106    ccc     H7   4865 0.07988000   1.008000   ; qtot 106.157220
 4866         h1    106    ccc     H8   4866 0.07988000   1.008000   ; qtot 106.237100
 4867         n4    106    ccc     N2   4867 -0.02747900  14.010000   ; qtot 106.209621
 4868         c3    106    ccc     C5   4868 -0.05097600  12.010000   ; qtot 106.158645
 4869         c3    106    ccc     C6   4869 -0.05097600  12.010000   ; qtot 106.107669
 4870         h1    106    ccc     H9   4870 0.11563300   1.008000   ; qtot 106.223302
 4871         c3    106    ccc     C7   4871 -0.18457900  12.010000   ; qtot 106.038723
 4872         h1    106    ccc    H10   4872 0.11563300   1.008000   ; qtot 106.154356
 4873         hc    106    ccc    H11   4873 0.08347900   1.008000   ; qtot 106.237835
 4874         hc    106    ccc    H12   4874 0.08347900   1.008000   ; qtot 106.321314
 4875          c    106    ccc     C8   4875 0.67254400  12.010000   ; qtot 106.993858
 4876          o    106    ccc     O2   4876 -0.52917200  16.000000   ; qtot 106.464686
 4877         h1    106    ccc    H13   4877 0.11563300   1.008000   ; qtot 106.580319
 4878         h1    106    ccc    H14   4878 0.11563300   1.008000   ; qtot 106.695952
 4879         c3    106    ccc     C9   4879 -0.18457900  12.010000   ; qtot 106.511373
 4880         hc    106    ccc    H15   4880 0.08347900   1.008000   ; qtot 106.594852
 4881         hc    106    ccc    H16   4881 0.08347900   1.008000   ; qtot 106.678331
 4882          c    106    ccc    C10   4882 0.67254400  12.010000   ; qtot 107.350875
 4883          o    106    ccc     O4   4883 -0.52917200  16.000000   ; qtot 106.821703
 4884         c3    106    ccc    C11   4884 0.08518000  12.010000   ; qtot 106.906883
 4885         c3    106    ccc    C12   4885 0.07918000  12.010000   ; qtot 106.986063
 4886         h1    106    ccc    H17   4886 0.06978000   1.008000   ; qtot 107.055843
 4887         c3    106    ccc    C13   4887 0.07918000  12.010000   ; qtot 107.135023
 4888         c3    106    ccc    C14   4888 0.03578000  12.010000   ; qtot 107.170803
 4889         c3    106    ccc    C15   4889 0.33498000  12.010000   ; qtot 107.505783
 4890         h1    106    ccc    H18   4890 0.06178000   1.008000   ; qtot 107.567563
 4891         h1    106    ccc    H19   4891 0.11278000   1.008000   ; qtot 107.680343
 4892         h2    106    ccc    H20   4892 0.12178000   1.008000   ; qtot 107.802123
 4893         oh    106    ccc     O1   4893 -0.56972000  16.000000   ; qtot 107.232403
 4894         oh    106    ccc     O6   4894 -0.57772000  16.000000   ; qtot 106.654683
 4895         c3    106    ccc    C16   4895 0.14548000  12.010000   ; qtot 106.800163
 4896         ho    106    ccc    H21   4896 0.40508000   1.008000   ; qtot 107.205243
 4897         hn    106    ccc    H22   4897 0.31758000   1.008000   ; qtot 107.522823
 4898         h1    106    ccc    H23   4898 0.06278000   1.008000   ; qtot 107.585603
 4899         h1    106    ccc    H24   4899 0.06278000   1.008000   ; qtot 107.648383
 4900         oh    106    ccc     O7   4900 -0.59472000  16.000000   ; qtot 107.053663
 4901         ho    106    ccc    H25   4901 0.41908000   1.008000   ; qtot 107.472743
 4902         os    106    ccc     O8   4902 -0.44552000  16.000000   ; qtot 107.027223
 4903         ho    106    ccc    H26   4903 0.41908000   1.008000   ; qtot 107.446303
 4904         h1    106    ccc    H27   4904 0.08578000   1.008000   ; qtot 107.532083
 4905         oh    106    ccc     O9   4905 -0.58672000  16.000000   ; qtot 106.945363
 4906         ho    106    ccc    H28   4906 0.41908000   1.008000   ; qtot 107.364443
 4907         n3    106    ccc     N3   4907 -0.54282000  14.010000   ; qtot 106.821623
 4908         c3    106    ccc    C17   4908 0.08518000  12.010000   ; qtot 106.906803
 4909         c3    106    ccc    C18   4909 0.07918000  12.010000   ; qtot 106.985983
 4910         h1    106    ccc    H29   4910 0.06978000   1.008000   ; qtot 107.055763
 4911         c3    106    ccc    C19   4911 0.07918000  12.010000   ; qtot 107.134943
 4912         c3    106    ccc    C20   4912 0.03578000  12.010000   ; qtot 107.170723
 4913         c3    106    ccc    C21   4913 0.33498000  12.010000   ; qtot 107.505703
 4914         h1    106    ccc    H30   4914 0.06178000   1.008000   ; qtot 107.567483
 4915         h1    106    ccc    H31   4915 0.11278000   1.008000   ; qtot 107.680263
 4916         h2    106    ccc    H32   4916 0.12178000   1.008000   ; qtot 107.802043
 4917         oh    106    ccc    O10   4917 -0.56972000  16.000000   ; qtot 107.232323
 4918         oh    106    ccc    O11   4918 -0.57772000  16.000000   ; qtot 106.654603
 4919         c3    106    ccc    C22   4919 0.14548000  12.010000   ; qtot 106.800083
 4920         ho    106    ccc    H33   4920 0.40508000   1.008000   ; qtot 107.205163
 4921         hn    106    ccc    H34   4921 0.31758000   1.008000   ; qtot 107.522743
 4922         h1    106    ccc    H35   4922 0.06278000   1.008000   ; qtot 107.585523
 4923         h1    106    ccc    H36   4923 0.06278000   1.008000   ; qtot 107.648303
 4924         oh    106    ccc    O12   4924 -0.59472000  16.000000   ; qtot 107.053583
 4925         ho    106    ccc    H37   4925 0.41908000   1.008000   ; qtot 107.472663
 4926         os    106    ccc    O13   4926 -0.44552000  16.000000   ; qtot 107.027143
 4927         ho    106    ccc    H38   4927 0.41908000   1.008000   ; qtot 107.446223
 4928         h1    106    ccc    H39   4928 0.08578000   1.008000   ; qtot 107.532003
 4929         oh    106    ccc     O5   4929 -0.58672000  16.000000   ; qtot 106.945283
 4930         ho    106    ccc    H40   4930 0.41908000   1.008000   ; qtot 107.364363
 4931         n3    106    ccc     N4   4931 -0.54282000  14.010000   ; qtot 106.821543
 4932         hn    106    ccc    H41   4932 0.17125500   1.008000   ; qtot 106.992798
; residue  107 ccc rtp ccc q 1.0
 4933          n    107    ccc     N1   4933 -0.33303000  14.010000   ; qtot 106.659768
 4934         hn    107    ccc     H4   4934 0.25916100   1.008000   ; qtot 106.918929
 4935         c3    107    ccc     C3   4935 -0.03328100  12.010000   ; qtot 106.885648
 4936         h1    107    ccc     H5   4936 0.10618100   1.008000   ; qtot 106.991829
 4937         c3    107    ccc     C4   4937 -0.02083000  12.010000   ; qtot 106.970999
 4938         h1    107    ccc     H6   4938 0.10618100   1.008000   ; qtot 107.077180
 4939         h1    107    ccc     H7   4939 0.07988000   1.008000   ; qtot 107.157060
 4940         h1    107    ccc     H8   4940 0.07988000   1.008000   ; qtot 107.236940
 4941         n4    107    ccc     N2   4941 -0.02747900  14.010000   ; qtot 107.209461
 4942         c3    107    ccc     C5   4942 -0.05097600  12.010000   ; qtot 107.158485
 4943         c3    107    ccc     C6   4943 -0.05097600  12.010000   ; qtot 107.107509
 4944         h1    107    ccc     H9   4944 0.11563300   1.008000   ; qtot 107.223142
 4945         c3    107    ccc     C7   4945 -0.18457900  12.010000   ; qtot 107.038563
 4946         h1    107    ccc    H10   4946 0.11563300   1.008000   ; qtot 107.154196
 4947         hc    107    ccc    H11   4947 0.08347900   1.008000   ; qtot 107.237675
 4948         hc    107    ccc    H12   4948 0.08347900   1.008000   ; qtot 107.321154
 4949          c    107    ccc     C8   4949 0.67254400  12.010000   ; qtot 107.993698
 4950          o    107    ccc     O2   4950 -0.52917200  16.000000   ; qtot 107.464526
 4951         h1    107    ccc    H13   4951 0.11563300   1.008000   ; qtot 107.580159
 4952         h1    107    ccc    H14   4952 0.11563300   1.008000   ; qtot 107.695792
 4953         c3    107    ccc     C9   4953 -0.18457900  12.010000   ; qtot 107.511213
 4954         hc    107    ccc    H15   4954 0.08347900   1.008000   ; qtot 107.594692
 4955         hc    107    ccc    H16   4955 0.08347900   1.008000   ; qtot 107.678171
 4956          c    107    ccc    C10   4956 0.67254400  12.010000   ; qtot 108.350715
 4957          o    107    ccc     O4   4957 -0.52917200  16.000000   ; qtot 107.821543
 4958         c3    107    ccc    C11   4958 0.08518000  12.010000   ; qtot 107.906723
 4959         c3    107    ccc    C12   4959 0.07918000  12.010000   ; qtot 107.985903
 4960         h1    107    ccc    H17   4960 0.06978000   1.008000   ; qtot 108.055683
 4961         c3    107    ccc    C13   4961 0.07918000  12.010000   ; qtot 108.134863
 4962         c3    107    ccc    C14   4962 0.03578000  12.010000   ; qtot 108.170643
 4963         c3    107    ccc    C15   4963 0.33498000  12.010000   ; qtot 108.505623
 4964         h1    107    ccc    H18   4964 0.06178000   1.008000   ; qtot 108.567403
 4965         h1    107    ccc    H19   4965 0.11278000   1.008000   ; qtot 108.680183
 4966         h2    107    ccc    H20   4966 0.12178000   1.008000   ; qtot 108.801963
 4967         oh    107    ccc     O1   4967 -0.56972000  16.000000   ; qtot 108.232243
 4968         oh    107    ccc     O6   4968 -0.57772000  16.000000   ; qtot 107.654523
 4969         c3    107    ccc    C16   4969 0.14548000  12.010000   ; qtot 107.800003
 4970         ho    107    ccc    H21   4970 0.40508000   1.008000   ; qtot 108.205083
 4971         hn    107    ccc    H22   4971 0.31758000   1.008000   ; qtot 108.522663
 4972         h1    107    ccc    H23   4972 0.06278000   1.008000   ; qtot 108.585443
 4973         h1    107    ccc    H24   4973 0.06278000   1.008000   ; qtot 108.648223
 4974         oh    107    ccc     O7   4974 -0.59472000  16.000000   ; qtot 108.053503
 4975         ho    107    ccc    H25   4975 0.41908000   1.008000   ; qtot 108.472583
 4976         os    107    ccc     O8   4976 -0.44552000  16.000000   ; qtot 108.027063
 4977         ho    107    ccc    H26   4977 0.41908000   1.008000   ; qtot 108.446143
 4978         h1    107    ccc    H27   4978 0.08578000   1.008000   ; qtot 108.531923
 4979         oh    107    ccc     O9   4979 -0.58672000  16.000000   ; qtot 107.945203
 4980         ho    107    ccc    H28   4980 0.41908000   1.008000   ; qtot 108.364283
 4981         n3    107    ccc     N3   4981 -0.54282000  14.010000   ; qtot 107.821463
 4982         c3    107    ccc    C17   4982 0.08518000  12.010000   ; qtot 107.906643
 4983         c3    107    ccc    C18   4983 0.07918000  12.010000   ; qtot 107.985823
 4984         h1    107    ccc    H29   4984 0.06978000   1.008000   ; qtot 108.055603
 4985         c3    107    ccc    C19   4985 0.07918000  12.010000   ; qtot 108.134783
 4986         c3    107    ccc    C20   4986 0.03578000  12.010000   ; qtot 108.170563
 4987         c3    107    ccc    C21   4987 0.33498000  12.010000   ; qtot 108.505543
 4988         h1    107    ccc    H30   4988 0.06178000   1.008000   ; qtot 108.567323
 4989         h1    107    ccc    H31   4989 0.11278000   1.008000   ; qtot 108.680103
 4990         h2    107    ccc    H32   4990 0.12178000   1.008000   ; qtot 108.801883
 4991         oh    107    ccc    O10   4991 -0.56972000  16.000000   ; qtot 108.232163
 4992         oh    107    ccc    O11   4992 -0.57772000  16.000000   ; qtot 107.654443
 4993         c3    107    ccc    C22   4993 0.14548000  12.010000   ; qtot 107.799923
 4994         ho    107    ccc    H33   4994 0.40508000   1.008000   ; qtot 108.205003
 4995         hn    107    ccc    H34   4995 0.31758000   1.008000   ; qtot 108.522583
 4996         h1    107    ccc    H35   4996 0.06278000   1.008000   ; qtot 108.585363
 4997         h1    107    ccc    H36   4997 0.06278000   1.008000   ; qtot 108.648143
 4998         oh    107    ccc    O12   4998 -0.59472000  16.000000   ; qtot 108.053423
 4999         ho    107    ccc    H37   4999 0.41908000   1.008000   ; qtot 108.472503
 5000         os    107    ccc    O13   5000 -0.44552000  16.000000   ; qtot 108.026983
 5001         ho    107    ccc    H38   5001 0.41908000   1.008000   ; qtot 108.446063
 5002         h1    107    ccc    H39   5002 0.08578000   1.008000   ; qtot 108.531843
 5003         oh    107    ccc     O5   5003 -0.58672000  16.000000   ; qtot 107.945123
 5004         ho    107    ccc    H40   5004 0.41908000   1.008000   ; qtot 108.364203
 5005         n3    107    ccc     N4   5005 -0.54282000  14.010000   ; qtot 107.821383
 5006         hn    107    ccc    H41   5006 0.17125500   1.008000   ; qtot 107.992638
; residue  108 ccc rtp ccc q 1.0
 5007          n    108    ccc     N1   5007 -0.33303000  14.010000   ; qtot 107.659608
 5008         hn    108    ccc     H4   5008 0.25916100   1.008000   ; qtot 107.918769
 5009         c3    108    ccc     C3   5009 -0.03328100  12.010000   ; qtot 107.885488
 5010         h1    108    ccc     H5   5010 0.10618100   1.008000   ; qtot 107.991669
 5011         c3    108    ccc     C4   5011 -0.02083000  12.010000   ; qtot 107.970839
 5012         h1    108    ccc     H6   5012 0.10618100   1.008000   ; qtot 108.077020
 5013         h1    108    ccc     H7   5013 0.07988000   1.008000   ; qtot 108.156900
 5014         h1    108    ccc     H8   5014 0.07988000   1.008000   ; qtot 108.236780
 5015         n4    108    ccc     N2   5015 -0.02747900  14.010000   ; qtot 108.209301
 5016         c3    108    ccc     C5   5016 -0.05097600  12.010000   ; qtot 108.158325
 5017         c3    108    ccc     C6   5017 -0.05097600  12.010000   ; qtot 108.107349
 5018         h1    108    ccc     H9   5018 0.11563300   1.008000   ; qtot 108.222982
 5019         c3    108    ccc     C7   5019 -0.18457900  12.010000   ; qtot 108.038403
 5020         h1    108    ccc    H10   5020 0.11563300   1.008000   ; qtot 108.154036
 5021         hc    108    ccc    H11   5021 0.08347900   1.008000   ; qtot 108.237515
 5022         hc    108    ccc    H12   5022 0.08347900   1.008000   ; qtot 108.320994
 5023          c    108    ccc     C8   5023 0.67254400  12.010000   ; qtot 108.993538
 5024          o    108    ccc     O2   5024 -0.52917200  16.000000   ; qtot 108.464366
 5025         h1    108    ccc    H13   5025 0.11563300   1.008000   ; qtot 108.579999
 5026         h1    108    ccc    H14   5026 0.11563300   1.008000   ; qtot 108.695632
 5027         c3    108    ccc     C9   5027 -0.18457900  12.010000   ; qtot 108.511053
 5028         hc    108    ccc    H15   5028 0.08347900   1.008000   ; qtot 108.594532
 5029         hc    108    ccc    H16   5029 0.08347900   1.008000   ; qtot 108.678011
 5030          c    108    ccc    C10   5030 0.67254400  12.010000   ; qtot 109.350555
 5031          o    108    ccc     O4   5031 -0.52917200  16.000000   ; qtot 108.821383
 5032         c3    108    ccc    C11   5032 0.08518000  12.010000   ; qtot 108.906563
 5033         c3    108    ccc    C12   5033 0.07918000  12.010000   ; qtot 108.985743
 5034         h1    108    ccc    H17   5034 0.06978000   1.008000   ; qtot 109.055523
 5035         c3    108    ccc    C13   5035 0.07918000  12.010000   ; qtot 109.134703
 5036         c3    108    ccc    C14   5036 0.03578000  12.010000   ; qtot 109.170483
 5037         c3    108    ccc    C15   5037 0.33498000  12.010000   ; qtot 109.505463
 5038         h1    108    ccc    H18   5038 0.06178000   1.008000   ; qtot 109.567243
 5039         h1    108    ccc    H19   5039 0.11278000   1.008000   ; qtot 109.680023
 5040         h2    108    ccc    H20   5040 0.12178000   1.008000   ; qtot 109.801803
 5041         oh    108    ccc     O1   5041 -0.56972000  16.000000   ; qtot 109.232083
 5042         oh    108    ccc     O6   5042 -0.57772000  16.000000   ; qtot 108.654363
 5043         c3    108    ccc    C16   5043 0.14548000  12.010000   ; qtot 108.799843
 5044         ho    108    ccc    H21   5044 0.40508000   1.008000   ; qtot 109.204923
 5045         hn    108    ccc    H22   5045 0.31758000   1.008000   ; qtot 109.522503
 5046         h1    108    ccc    H23   5046 0.06278000   1.008000   ; qtot 109.585283
 5047         h1    108    ccc    H24   5047 0.06278000   1.008000   ; qtot 109.648063
 5048         oh    108    ccc     O7   5048 -0.59472000  16.000000   ; qtot 109.053343
 5049         ho    108    ccc    H25   5049 0.41908000   1.008000   ; qtot 109.472423
 5050         os    108    ccc     O8   5050 -0.44552000  16.000000   ; qtot 109.026903
 5051         ho    108    ccc    H26   5051 0.41908000   1.008000   ; qtot 109.445983
 5052         h1    108    ccc    H27   5052 0.08578000   1.008000   ; qtot 109.531763
 5053         oh    108    ccc     O9   5053 -0.58672000  16.000000   ; qtot 108.945043
 5054         ho    108    ccc    H28   5054 0.41908000   1.008000   ; qtot 109.364123
 5055         n3    108    ccc     N3   5055 -0.54282000  14.010000   ; qtot 108.821303
 5056         c3    108    ccc    C17   5056 0.08518000  12.010000   ; qtot 108.906483
 5057         c3    108    ccc    C18   5057 0.07918000  12.010000   ; qtot 108.985663
 5058         h1    108    ccc    H29   5058 0.06978000   1.008000   ; qtot 109.055443
 5059         c3    108    ccc    C19   5059 0.07918000  12.010000   ; qtot 109.134623
 5060         c3    108    ccc    C20   5060 0.03578000  12.010000   ; qtot 109.170403
 5061         c3    108    ccc    C21   5061 0.33498000  12.010000   ; qtot 109.505383
 5062         h1    108    ccc    H30   5062 0.06178000   1.008000   ; qtot 109.567163
 5063         h1    108    ccc    H31   5063 0.11278000   1.008000   ; qtot 109.679943
 5064         h2    108    ccc    H32   5064 0.12178000   1.008000   ; qtot 109.801723
 5065         oh    108    ccc    O10   5065 -0.56972000  16.000000   ; qtot 109.232003
 5066         oh    108    ccc    O11   5066 -0.57772000  16.000000   ; qtot 108.654283
 5067         c3    108    ccc    C22   5067 0.14548000  12.010000   ; qtot 108.799763
 5068         ho    108    ccc    H33   5068 0.40508000   1.008000   ; qtot 109.204843
 5069         hn    108    ccc    H34   5069 0.31758000   1.008000   ; qtot 109.522423
 5070         h1    108    ccc    H35   5070 0.06278000   1.008000   ; qtot 109.585203
 5071         h1    108    ccc    H36   5071 0.06278000   1.008000   ; qtot 109.647983
 5072         oh    108    ccc    O12   5072 -0.59472000  16.000000   ; qtot 109.053263
 5073         ho    108    ccc    H37   5073 0.41908000   1.008000   ; qtot 109.472343
 5074         os    108    ccc    O13   5074 -0.44552000  16.000000   ; qtot 109.026823
 5075         ho    108    ccc    H38   5075 0.41908000   1.008000   ; qtot 109.445903
 5076         h1    108    ccc    H39   5076 0.08578000   1.008000   ; qtot 109.531683
 5077         oh    108    ccc     O5   5077 -0.58672000  16.000000   ; qtot 108.944963
 5078         ho    108    ccc    H40   5078 0.41908000   1.008000   ; qtot 109.364043
 5079         n3    108    ccc     N4   5079 -0.54282000  14.010000   ; qtot 108.821223
 5080         hn    108    ccc    H41   5080 0.17125500   1.008000   ; qtot 108.992478
; residue  109 ccc rtp ccc q 1.0
 5081          n    109    ccc     N1   5081 -0.33303000  14.010000   ; qtot 108.659448
 5082         hn    109    ccc     H4   5082 0.25916100   1.008000   ; qtot 108.918609
 5083         c3    109    ccc     C3   5083 -0.03328100  12.010000   ; qtot 108.885328
 5084         h1    109    ccc     H5   5084 0.10618100   1.008000   ; qtot 108.991509
 5085         c3    109    ccc     C4   5085 -0.02083000  12.010000   ; qtot 108.970679
 5086         h1    109    ccc     H6   5086 0.10618100   1.008000   ; qtot 109.076860
 5087         h1    109    ccc     H7   5087 0.07988000   1.008000   ; qtot 109.156740
 5088         h1    109    ccc     H8   5088 0.07988000   1.008000   ; qtot 109.236620
 5089         n4    109    ccc     N2   5089 -0.02747900  14.010000   ; qtot 109.209141
 5090         c3    109    ccc     C5   5090 -0.05097600  12.010000   ; qtot 109.158165
 5091         c3    109    ccc     C6   5091 -0.05097600  12.010000   ; qtot 109.107189
 5092         h1    109    ccc     H9   5092 0.11563300   1.008000   ; qtot 109.222822
 5093         c3    109    ccc     C7   5093 -0.18457900  12.010000   ; qtot 109.038243
 5094         h1    109    ccc    H10   5094 0.11563300   1.008000   ; qtot 109.153876
 5095         hc    109    ccc    H11   5095 0.08347900   1.008000   ; qtot 109.237355
 5096         hc    109    ccc    H12   5096 0.08347900   1.008000   ; qtot 109.320834
 5097          c    109    ccc     C8   5097 0.67254400  12.010000   ; qtot 109.993378
 5098          o    109    ccc     O2   5098 -0.52917200  16.000000   ; qtot 109.464206
 5099         h1    109    ccc    H13   5099 0.11563300   1.008000   ; qtot 109.579839
 5100         h1    109    ccc    H14   5100 0.11563300   1.008000   ; qtot 109.695472
 5101         c3    109    ccc     C9   5101 -0.18457900  12.010000   ; qtot 109.510893
 5102         hc    109    ccc    H15   5102 0.08347900   1.008000   ; qtot 109.594372
 5103         hc    109    ccc    H16   5103 0.08347900   1.008000   ; qtot 109.677851
 5104          c    109    ccc    C10   5104 0.67254400  12.010000   ; qtot 110.350395
 5105          o    109    ccc     O4   5105 -0.52917200  16.000000   ; qtot 109.821223
 5106         c3    109    ccc    C11   5106 0.08518000  12.010000   ; qtot 109.906403
 5107         c3    109    ccc    C12   5107 0.07918000  12.010000   ; qtot 109.985583
 5108         h1    109    ccc    H17   5108 0.06978000   1.008000   ; qtot 110.055363
 5109         c3    109    ccc    C13   5109 0.07918000  12.010000   ; qtot 110.134543
 5110         c3    109    ccc    C14   5110 0.03578000  12.010000   ; qtot 110.170323
 5111         c3    109    ccc    C15   5111 0.33498000  12.010000   ; qtot 110.505303
 5112         h1    109    ccc    H18   5112 0.06178000   1.008000   ; qtot 110.567083
 5113         h1    109    ccc    H19   5113 0.11278000   1.008000   ; qtot 110.679863
 5114         h2    109    ccc    H20   5114 0.12178000   1.008000   ; qtot 110.801643
 5115         oh    109    ccc     O1   5115 -0.56972000  16.000000   ; qtot 110.231923
 5116         oh    109    ccc     O6   5116 -0.57772000  16.000000   ; qtot 109.654203
 5117         c3    109    ccc    C16   5117 0.14548000  12.010000   ; qtot 109.799683
 5118         ho    109    ccc    H21   5118 0.40508000   1.008000   ; qtot 110.204763
 5119         hn    109    ccc    H22   5119 0.31758000   1.008000   ; qtot 110.522343
 5120         h1    109    ccc    H23   5120 0.06278000   1.008000   ; qtot 110.585123
 5121         h1    109    ccc    H24   5121 0.06278000   1.008000   ; qtot 110.647903
 5122         oh    109    ccc     O7   5122 -0.59472000  16.000000   ; qtot 110.053183
 5123         ho    109    ccc    H25   5123 0.41908000   1.008000   ; qtot 110.472263
 5124         os    109    ccc     O8   5124 -0.44552000  16.000000   ; qtot 110.026743
 5125         ho    109    ccc    H26   5125 0.41908000   1.008000   ; qtot 110.445823
 5126         h1    109    ccc    H27   5126 0.08578000   1.008000   ; qtot 110.531603
 5127         oh    109    ccc     O9   5127 -0.58672000  16.000000   ; qtot 109.944883
 5128         ho    109    ccc    H28   5128 0.41908000   1.008000   ; qtot 110.363963
 5129         n3    109    ccc     N3   5129 -0.54282000  14.010000   ; qtot 109.821143
 5130         c3    109    ccc    C17   5130 0.08518000  12.010000   ; qtot 109.906323
 5131         c3    109    ccc    C18   5131 0.07918000  12.010000   ; qtot 109.985503
 5132         h1    109    ccc    H29   5132 0.06978000   1.008000   ; qtot 110.055283
 5133         c3    109    ccc    C19   5133 0.07918000  12.010000   ; qtot 110.134463
 5134         c3    109    ccc    C20   5134 0.03578000  12.010000   ; qtot 110.170243
 5135         c3    109    ccc    C21   5135 0.33498000  12.010000   ; qtot 110.505223
 5136         h1    109    ccc    H30   5136 0.06178000   1.008000   ; qtot 110.567003
 5137         h1    109    ccc    H31   5137 0.11278000   1.008000   ; qtot 110.679783
 5138         h2    109    ccc    H32   5138 0.12178000   1.008000   ; qtot 110.801563
 5139         oh    109    ccc    O10   5139 -0.56972000  16.000000   ; qtot 110.231843
 5140         oh    109    ccc    O11   5140 -0.57772000  16.000000   ; qtot 109.654123
 5141         c3    109    ccc    C22   5141 0.14548000  12.010000   ; qtot 109.799603
 5142         ho    109    ccc    H33   5142 0.40508000   1.008000   ; qtot 110.204683
 5143         hn    109    ccc    H34   5143 0.31758000   1.008000   ; qtot 110.522263
 5144         h1    109    ccc    H35   5144 0.06278000   1.008000   ; qtot 110.585043
 5145         h1    109    ccc    H36   5145 0.06278000   1.008000   ; qtot 110.647823
 5146         oh    109    ccc    O12   5146 -0.59472000  16.000000   ; qtot 110.053103
 5147         ho    109    ccc    H37   5147 0.41908000   1.008000   ; qtot 110.472183
 5148         os    109    ccc    O13   5148 -0.44552000  16.000000   ; qtot 110.026663
 5149         ho    109    ccc    H38   5149 0.41908000   1.008000   ; qtot 110.445743
 5150         h1    109    ccc    H39   5150 0.08578000   1.008000   ; qtot 110.531523
 5151         oh    109    ccc     O5   5151 -0.58672000  16.000000   ; qtot 109.944803
 5152         ho    109    ccc    H40   5152 0.41908000   1.008000   ; qtot 110.363883
 5153         n3    109    ccc     N4   5153 -0.54282000  14.010000   ; qtot 109.821063
 5154         hn    109    ccc    H41   5154 0.17125500   1.008000   ; qtot 109.992318
; residue  110 ccc rtp ccc q 1.0
 5155          n    110    ccc     N1   5155 -0.33303000  14.010000   ; qtot 109.659288
 5156         hn    110    ccc     H4   5156 0.25916100   1.008000   ; qtot 109.918449
 5157         c3    110    ccc     C3   5157 -0.03328100  12.010000   ; qtot 109.885168
 5158         h1    110    ccc     H5   5158 0.10618100   1.008000   ; qtot 109.991349
 5159         c3    110    ccc     C4   5159 -0.02083000  12.010000   ; qtot 109.970519
 5160         h1    110    ccc     H6   5160 0.10618100   1.008000   ; qtot 110.076700
 5161         h1    110    ccc     H7   5161 0.07988000   1.008000   ; qtot 110.156580
 5162         h1    110    ccc     H8   5162 0.07988000   1.008000   ; qtot 110.236460
 5163         n4    110    ccc     N2   5163 -0.02747900  14.010000   ; qtot 110.208981
 5164         c3    110    ccc     C5   5164 -0.05097600  12.010000   ; qtot 110.158005
 5165         c3    110    ccc     C6   5165 -0.05097600  12.010000   ; qtot 110.107029
 5166         h1    110    ccc     H9   5166 0.11563300   1.008000   ; qtot 110.222662
 5167         c3    110    ccc     C7   5167 -0.18457900  12.010000   ; qtot 110.038083
 5168         h1    110    ccc    H10   5168 0.11563300   1.008000   ; qtot 110.153716
 5169         hc    110    ccc    H11   5169 0.08347900   1.008000   ; qtot 110.237195
 5170         hc    110    ccc    H12   5170 0.08347900   1.008000   ; qtot 110.320674
 5171          c    110    ccc     C8   5171 0.67254400  12.010000   ; qtot 110.993218
 5172          o    110    ccc     O2   5172 -0.52917200  16.000000   ; qtot 110.464046
 5173         h1    110    ccc    H13   5173 0.11563300   1.008000   ; qtot 110.579679
 5174         h1    110    ccc    H14   5174 0.11563300   1.008000   ; qtot 110.695312
 5175         c3    110    ccc     C9   5175 -0.18457900  12.010000   ; qtot 110.510733
 5176         hc    110    ccc    H15   5176 0.08347900   1.008000   ; qtot 110.594212
 5177         hc    110    ccc    H16   5177 0.08347900   1.008000   ; qtot 110.677691
 5178          c    110    ccc    C10   5178 0.67254400  12.010000   ; qtot 111.350235
 5179          o    110    ccc     O4   5179 -0.52917200  16.000000   ; qtot 110.821063
 5180         c3    110    ccc    C11   5180 0.08518000  12.010000   ; qtot 110.906243
 5181         c3    110    ccc    C12   5181 0.07918000  12.010000   ; qtot 110.985423
 5182         h1    110    ccc    H17   5182 0.06978000   1.008000   ; qtot 111.055203
 5183         c3    110    ccc    C13   5183 0.07918000  12.010000   ; qtot 111.134383
 5184         c3    110    ccc    C14   5184 0.03578000  12.010000   ; qtot 111.170163
 5185         c3    110    ccc    C15   5185 0.33498000  12.010000   ; qtot 111.505143
 5186         h1    110    ccc    H18   5186 0.06178000   1.008000   ; qtot 111.566923
 5187         h1    110    ccc    H19   5187 0.11278000   1.008000   ; qtot 111.679703
 5188         h2    110    ccc    H20   5188 0.12178000   1.008000   ; qtot 111.801483
 5189         oh    110    ccc     O1   5189 -0.56972000  16.000000   ; qtot 111.231763
 5190         oh    110    ccc     O6   5190 -0.57772000  16.000000   ; qtot 110.654043
 5191         c3    110    ccc    C16   5191 0.14548000  12.010000   ; qtot 110.799523
 5192         ho    110    ccc    H21   5192 0.40508000   1.008000   ; qtot 111.204603
 5193         hn    110    ccc    H22   5193 0.31758000   1.008000   ; qtot 111.522183
 5194         h1    110    ccc    H23   5194 0.06278000   1.008000   ; qtot 111.584963
 5195         h1    110    ccc    H24   5195 0.06278000   1.008000   ; qtot 111.647743
 5196         oh    110    ccc     O7   5196 -0.59472000  16.000000   ; qtot 111.053023
 5197         ho    110    ccc    H25   5197 0.41908000   1.008000   ; qtot 111.472103
 5198         os    110    ccc     O8   5198 -0.44552000  16.000000   ; qtot 111.026583
 5199         ho    110    ccc    H26   5199 0.41908000   1.008000   ; qtot 111.445663
 5200         h1    110    ccc    H27   5200 0.08578000   1.008000   ; qtot 111.531443
 5201         oh    110    ccc     O9   5201 -0.58672000  16.000000   ; qtot 110.944723
 5202         ho    110    ccc    H28   5202 0.41908000   1.008000   ; qtot 111.363803
 5203         n3    110    ccc     N3   5203 -0.54282000  14.010000   ; qtot 110.820983
 5204         c3    110    ccc    C17   5204 0.08518000  12.010000   ; qtot 110.906163
 5205         c3    110    ccc    C18   5205 0.07918000  12.010000   ; qtot 110.985343
 5206         h1    110    ccc    H29   5206 0.06978000   1.008000   ; qtot 111.055123
 5207         c3    110    ccc    C19   5207 0.07918000  12.010000   ; qtot 111.134303
 5208         c3    110    ccc    C20   5208 0.03578000  12.010000   ; qtot 111.170083
 5209         c3    110    ccc    C21   5209 0.33498000  12.010000   ; qtot 111.505063
 5210         h1    110    ccc    H30   5210 0.06178000   1.008000   ; qtot 111.566843
 5211         h1    110    ccc    H31   5211 0.11278000   1.008000   ; qtot 111.679623
 5212         h2    110    ccc    H32   5212 0.12178000   1.008000   ; qtot 111.801403
 5213         oh    110    ccc    O10   5213 -0.56972000  16.000000   ; qtot 111.231683
 5214         oh    110    ccc    O11   5214 -0.57772000  16.000000   ; qtot 110.653963
 5215         c3    110    ccc    C22   5215 0.14548000  12.010000   ; qtot 110.799443
 5216         ho    110    ccc    H33   5216 0.40508000   1.008000   ; qtot 111.204523
 5217         hn    110    ccc    H34   5217 0.31758000   1.008000   ; qtot 111.522103
 5218         h1    110    ccc    H35   5218 0.06278000   1.008000   ; qtot 111.584883
 5219         h1    110    ccc    H36   5219 0.06278000   1.008000   ; qtot 111.647663
 5220         oh    110    ccc    O12   5220 -0.59472000  16.000000   ; qtot 111.052943
 5221         ho    110    ccc    H37   5221 0.41908000   1.008000   ; qtot 111.472023
 5222         os    110    ccc    O13   5222 -0.44552000  16.000000   ; qtot 111.026503
 5223         ho    110    ccc    H38   5223 0.41908000   1.008000   ; qtot 111.445583
 5224         h1    110    ccc    H39   5224 0.08578000   1.008000   ; qtot 111.531363
 5225         oh    110    ccc     O5   5225 -0.58672000  16.000000   ; qtot 110.944643
 5226         ho    110    ccc    H40   5226 0.41908000   1.008000   ; qtot 111.363723
 5227         n3    110    ccc     N4   5227 -0.54282000  14.010000   ; qtot 110.820903
 5228         hn    110    ccc    H41   5228 0.17125500   1.008000   ; qtot 110.992158
; residue  111 ccc rtp ccc q 1.0
 5229          n    111    ccc     N1   5229 -0.33303000  14.010000   ; qtot 110.659128
 5230         hn    111    ccc     H4   5230 0.25916100   1.008000   ; qtot 110.918289
 5231         c3    111    ccc     C3   5231 -0.03328100  12.010000   ; qtot 110.885008
 5232         h1    111    ccc     H5   5232 0.10618100   1.008000   ; qtot 110.991189
 5233         c3    111    ccc     C4   5233 -0.02083000  12.010000   ; qtot 110.970359
 5234         h1    111    ccc     H6   5234 0.10618100   1.008000   ; qtot 111.076540
 5235         h1    111    ccc     H7   5235 0.07988000   1.008000   ; qtot 111.156420
 5236         h1    111    ccc     H8   5236 0.07988000   1.008000   ; qtot 111.236300
 5237         n4    111    ccc     N2   5237 -0.02747900  14.010000   ; qtot 111.208821
 5238         c3    111    ccc     C5   5238 -0.05097600  12.010000   ; qtot 111.157845
 5239         c3    111    ccc     C6   5239 -0.05097600  12.010000   ; qtot 111.106869
 5240         h1    111    ccc     H9   5240 0.11563300   1.008000   ; qtot 111.222502
 5241         c3    111    ccc     C7   5241 -0.18457900  12.010000   ; qtot 111.037923
 5242         h1    111    ccc    H10   5242 0.11563300   1.008000   ; qtot 111.153556
 5243         hc    111    ccc    H11   5243 0.08347900   1.008000   ; qtot 111.237035
 5244         hc    111    ccc    H12   5244 0.08347900   1.008000   ; qtot 111.320514
 5245          c    111    ccc     C8   5245 0.67254400  12.010000   ; qtot 111.993058
 5246          o    111    ccc     O2   5246 -0.52917200  16.000000   ; qtot 111.463886
 5247         h1    111    ccc    H13   5247 0.11563300   1.008000   ; qtot 111.579519
 5248         h1    111    ccc    H14   5248 0.11563300   1.008000   ; qtot 111.695152
 5249         c3    111    ccc     C9   5249 -0.18457900  12.010000   ; qtot 111.510573
 5250         hc    111    ccc    H15   5250 0.08347900   1.008000   ; qtot 111.594052
 5251         hc    111    ccc    H16   5251 0.08347900   1.008000   ; qtot 111.677531
 5252          c    111    ccc    C10   5252 0.67254400  12.010000   ; qtot 112.350075
 5253          o    111    ccc     O4   5253 -0.52917200  16.000000   ; qtot 111.820903
 5254         c3    111    ccc    C11   5254 0.08518000  12.010000   ; qtot 111.906083
 5255         c3    111    ccc    C12   5255 0.07918000  12.010000   ; qtot 111.985263
 5256         h1    111    ccc    H17   5256 0.06978000   1.008000   ; qtot 112.055043
 5257         c3    111    ccc    C13   5257 0.07918000  12.010000   ; qtot 112.134223
 5258         c3    111    ccc    C14   5258 0.03578000  12.010000   ; qtot 112.170003
 5259         c3    111    ccc    C15   5259 0.33498000  12.010000   ; qtot 112.504983
 5260         h1    111    ccc    H18   5260 0.06178000   1.008000   ; qtot 112.566763
 5261         h1    111    ccc    H19   5261 0.11278000   1.008000   ; qtot 112.679543
 5262         h2    111    ccc    H20   5262 0.12178000   1.008000   ; qtot 112.801323
 5263         oh    111    ccc     O1   5263 -0.56972000  16.000000   ; qtot 112.231603
 5264         oh    111    ccc     O6   5264 -0.57772000  16.000000   ; qtot 111.653883
 5265         c3    111    ccc    C16   5265 0.14548000  12.010000   ; qtot 111.799363
 5266         ho    111    ccc    H21   5266 0.40508000   1.008000   ; qtot 112.204443
 5267         hn    111    ccc    H22   5267 0.31758000   1.008000   ; qtot 112.522023
 5268         h1    111    ccc    H23   5268 0.06278000   1.008000   ; qtot 112.584803
 5269         h1    111    ccc    H24   5269 0.06278000   1.008000   ; qtot 112.647583
 5270         oh    111    ccc     O7   5270 -0.59472000  16.000000   ; qtot 112.052863
 5271         ho    111    ccc    H25   5271 0.41908000   1.008000   ; qtot 112.471943
 5272         os    111    ccc     O8   5272 -0.44552000  16.000000   ; qtot 112.026423
 5273         ho    111    ccc    H26   5273 0.41908000   1.008000   ; qtot 112.445503
 5274         h1    111    ccc    H27   5274 0.08578000   1.008000   ; qtot 112.531283
 5275         oh    111    ccc     O9   5275 -0.58672000  16.000000   ; qtot 111.944563
 5276         ho    111    ccc    H28   5276 0.41908000   1.008000   ; qtot 112.363643
 5277         n3    111    ccc     N3   5277 -0.54282000  14.010000   ; qtot 111.820823
 5278         c3    111    ccc    C17   5278 0.08518000  12.010000   ; qtot 111.906003
 5279         c3    111    ccc    C18   5279 0.07918000  12.010000   ; qtot 111.985183
 5280         h1    111    ccc    H29   5280 0.06978000   1.008000   ; qtot 112.054963
 5281         c3    111    ccc    C19   5281 0.07918000  12.010000   ; qtot 112.134143
 5282         c3    111    ccc    C20   5282 0.03578000  12.010000   ; qtot 112.169923
 5283         c3    111    ccc    C21   5283 0.33498000  12.010000   ; qtot 112.504903
 5284         h1    111    ccc    H30   5284 0.06178000   1.008000   ; qtot 112.566683
 5285         h1    111    ccc    H31   5285 0.11278000   1.008000   ; qtot 112.679463
 5286         h2    111    ccc    H32   5286 0.12178000   1.008000   ; qtot 112.801243
 5287         oh    111    ccc    O10   5287 -0.56972000  16.000000   ; qtot 112.231523
 5288         oh    111    ccc    O11   5288 -0.57772000  16.000000   ; qtot 111.653803
 5289         c3    111    ccc    C22   5289 0.14548000  12.010000   ; qtot 111.799283
 5290         ho    111    ccc    H33   5290 0.40508000   1.008000   ; qtot 112.204363
 5291         hn    111    ccc    H34   5291 0.31758000   1.008000   ; qtot 112.521943
 5292         h1    111    ccc    H35   5292 0.06278000   1.008000   ; qtot 112.584723
 5293         h1    111    ccc    H36   5293 0.06278000   1.008000   ; qtot 112.647503
 5294         oh    111    ccc    O12   5294 -0.59472000  16.000000   ; qtot 112.052783
 5295         ho    111    ccc    H37   5295 0.41908000   1.008000   ; qtot 112.471863
 5296         os    111    ccc    O13   5296 -0.44552000  16.000000   ; qtot 112.026343
 5297         ho    111    ccc    H38   5297 0.41908000   1.008000   ; qtot 112.445423
 5298         h1    111    ccc    H39   5298 0.08578000   1.008000   ; qtot 112.531203
 5299         oh    111    ccc     O5   5299 -0.58672000  16.000000   ; qtot 111.944483
 5300         ho    111    ccc    H40   5300 0.41908000   1.008000   ; qtot 112.363563
 5301         n3    111    ccc     N4   5301 -0.54282000  14.010000   ; qtot 111.820743
 5302         hn    111    ccc    H41   5302 0.17125500   1.008000   ; qtot 111.991998
; residue  112 ccc rtp ccc q 1.0
 5303          n    112    ccc     N1   5303 -0.33303000  14.010000   ; qtot 111.658968
 5304         hn    112    ccc     H4   5304 0.25916100   1.008000   ; qtot 111.918129
 5305         c3    112    ccc     C3   5305 -0.03328100  12.010000   ; qtot 111.884848
 5306         h1    112    ccc     H5   5306 0.10618100   1.008000   ; qtot 111.991029
 5307         c3    112    ccc     C4   5307 -0.02083000  12.010000   ; qtot 111.970199
 5308         h1    112    ccc     H6   5308 0.10618100   1.008000   ; qtot 112.076380
 5309         h1    112    ccc     H7   5309 0.07988000   1.008000   ; qtot 112.156260
 5310         h1    112    ccc     H8   5310 0.07988000   1.008000   ; qtot 112.236140
 5311         n4    112    ccc     N2   5311 -0.02747900  14.010000   ; qtot 112.208661
 5312         c3    112    ccc     C5   5312 -0.05097600  12.010000   ; qtot 112.157685
 5313         c3    112    ccc     C6   5313 -0.05097600  12.010000   ; qtot 112.106709
 5314         h1    112    ccc     H9   5314 0.11563300   1.008000   ; qtot 112.222342
 5315         c3    112    ccc     C7   5315 -0.18457900  12.010000   ; qtot 112.037763
 5316         h1    112    ccc    H10   5316 0.11563300   1.008000   ; qtot 112.153396
 5317         hc    112    ccc    H11   5317 0.08347900   1.008000   ; qtot 112.236875
 5318         hc    112    ccc    H12   5318 0.08347900   1.008000   ; qtot 112.320354
 5319          c    112    ccc     C8   5319 0.67254400  12.010000   ; qtot 112.992898
 5320          o    112    ccc     O2   5320 -0.52917200  16.000000   ; qtot 112.463726
 5321         h1    112    ccc    H13   5321 0.11563300   1.008000   ; qtot 112.579359
 5322         h1    112    ccc    H14   5322 0.11563300   1.008000   ; qtot 112.694992
 5323         c3    112    ccc     C9   5323 -0.18457900  12.010000   ; qtot 112.510413
 5324         hc    112    ccc    H15   5324 0.08347900   1.008000   ; qtot 112.593892
 5325         hc    112    ccc    H16   5325 0.08347900   1.008000   ; qtot 112.677371
 5326          c    112    ccc    C10   5326 0.67254400  12.010000   ; qtot 113.349915
 5327          o    112    ccc     O4   5327 -0.52917200  16.000000   ; qtot 112.820743
 5328         c3    112    ccc    C11   5328 0.08518000  12.010000   ; qtot 112.905923
 5329         c3    112    ccc    C12   5329 0.07918000  12.010000   ; qtot 112.985103
 5330         h1    112    ccc    H17   5330 0.06978000   1.008000   ; qtot 113.054883
 5331         c3    112    ccc    C13   5331 0.07918000  12.010000   ; qtot 113.134063
 5332         c3    112    ccc    C14   5332 0.03578000  12.010000   ; qtot 113.169843
 5333         c3    112    ccc    C15   5333 0.33498000  12.010000   ; qtot 113.504823
 5334         h1    112    ccc    H18   5334 0.06178000   1.008000   ; qtot 113.566603
 5335         h1    112    ccc    H19   5335 0.11278000   1.008000   ; qtot 113.679383
 5336         h2    112    ccc    H20   5336 0.12178000   1.008000   ; qtot 113.801163
 5337         oh    112    ccc     O1   5337 -0.56972000  16.000000   ; qtot 113.231443
 5338         oh    112    ccc     O6   5338 -0.57772000  16.000000   ; qtot 112.653723
 5339         c3    112    ccc    C16   5339 0.14548000  12.010000   ; qtot 112.799203
 5340         ho    112    ccc    H21   5340 0.40508000   1.008000   ; qtot 113.204283
 5341         hn    112    ccc    H22   5341 0.31758000   1.008000   ; qtot 113.521863
 5342         h1    112    ccc    H23   5342 0.06278000   1.008000   ; qtot 113.584643
 5343         h1    112    ccc    H24   5343 0.06278000   1.008000   ; qtot 113.647423
 5344         oh    112    ccc     O7   5344 -0.59472000  16.000000   ; qtot 113.052703
 5345         ho    112    ccc    H25   5345 0.41908000   1.008000   ; qtot 113.471783
 5346         os    112    ccc     O8   5346 -0.44552000  16.000000   ; qtot 113.026263
 5347         ho    112    ccc    H26   5347 0.41908000   1.008000   ; qtot 113.445343
 5348         h1    112    ccc    H27   5348 0.08578000   1.008000   ; qtot 113.531123
 5349         oh    112    ccc     O9   5349 -0.58672000  16.000000   ; qtot 112.944403
 5350         ho    112    ccc    H28   5350 0.41908000   1.008000   ; qtot 113.363483
 5351         n3    112    ccc     N3   5351 -0.54282000  14.010000   ; qtot 112.820663
 5352         c3    112    ccc    C17   5352 0.08518000  12.010000   ; qtot 112.905843
 5353         c3    112    ccc    C18   5353 0.07918000  12.010000   ; qtot 112.985023
 5354         h1    112    ccc    H29   5354 0.06978000   1.008000   ; qtot 113.054803
 5355         c3    112    ccc    C19   5355 0.07918000  12.010000   ; qtot 113.133983
 5356         c3    112    ccc    C20   5356 0.03578000  12.010000   ; qtot 113.169763
 5357         c3    112    ccc    C21   5357 0.33498000  12.010000   ; qtot 113.504743
 5358         h1    112    ccc    H30   5358 0.06178000   1.008000   ; qtot 113.566523
 5359         h1    112    ccc    H31   5359 0.11278000   1.008000   ; qtot 113.679303
 5360         h2    112    ccc    H32   5360 0.12178000   1.008000   ; qtot 113.801083
 5361         oh    112    ccc    O10   5361 -0.56972000  16.000000   ; qtot 113.231363
 5362         oh    112    ccc    O11   5362 -0.57772000  16.000000   ; qtot 112.653643
 5363         c3    112    ccc    C22   5363 0.14548000  12.010000   ; qtot 112.799123
 5364         ho    112    ccc    H33   5364 0.40508000   1.008000   ; qtot 113.204203
 5365         hn    112    ccc    H34   5365 0.31758000   1.008000   ; qtot 113.521783
 5366         h1    112    ccc    H35   5366 0.06278000   1.008000   ; qtot 113.584563
 5367         h1    112    ccc    H36   5367 0.06278000   1.008000   ; qtot 113.647343
 5368         oh    112    ccc    O12   5368 -0.59472000  16.000000   ; qtot 113.052623
 5369         ho    112    ccc    H37   5369 0.41908000   1.008000   ; qtot 113.471703
 5370         os    112    ccc    O13   5370 -0.44552000  16.000000   ; qtot 113.026183
 5371         ho    112    ccc    H38   5371 0.41908000   1.008000   ; qtot 113.445263
 5372         h1    112    ccc    H39   5372 0.08578000   1.008000   ; qtot 113.531043
 5373         oh    112    ccc     O5   5373 -0.58672000  16.000000   ; qtot 112.944323
 5374         ho    112    ccc    H40   5374 0.41908000   1.008000   ; qtot 113.363403
 5375         n3    112    ccc     N4   5375 -0.54282000  14.010000   ; qtot 112.820583
 5376         hn    112    ccc    H41   5376 0.17125500   1.008000   ; qtot 112.991838
; residue  113 ccc rtp ccc q 1.0
 5377          n    113    ccc     N1   5377 -0.33303000  14.010000   ; qtot 112.658808
 5378         hn    113    ccc     H4   5378 0.25916100   1.008000   ; qtot 112.917969
 5379         c3    113    ccc     C3   5379 -0.03328100  12.010000   ; qtot 112.884688
 5380         h1    113    ccc     H5   5380 0.10618100   1.008000   ; qtot 112.990869
 5381         c3    113    ccc     C4   5381 -0.02083000  12.010000   ; qtot 112.970039
 5382         h1    113    ccc     H6   5382 0.10618100   1.008000   ; qtot 113.076220
 5383         h1    113    ccc     H7   5383 0.07988000   1.008000   ; qtot 113.156100
 5384         h1    113    ccc     H8   5384 0.07988000   1.008000   ; qtot 113.235980
 5385         n4    113    ccc     N2   5385 -0.02747900  14.010000   ; qtot 113.208501
 5386         c3    113    ccc     C5   5386 -0.05097600  12.010000   ; qtot 113.157525
 5387         c3    113    ccc     C6   5387 -0.05097600  12.010000   ; qtot 113.106549
 5388         h1    113    ccc     H9   5388 0.11563300   1.008000   ; qtot 113.222182
 5389         c3    113    ccc     C7   5389 -0.18457900  12.010000   ; qtot 113.037603
 5390         h1    113    ccc    H10   5390 0.11563300   1.008000   ; qtot 113.153236
 5391         hc    113    ccc    H11   5391 0.08347900   1.008000   ; qtot 113.236715
 5392         hc    113    ccc    H12   5392 0.08347900   1.008000   ; qtot 113.320194
 5393          c    113    ccc     C8   5393 0.67254400  12.010000   ; qtot 113.992738
 5394          o    113    ccc     O2   5394 -0.52917200  16.000000   ; qtot 113.463566
 5395         h1    113    ccc    H13   5395 0.11563300   1.008000   ; qtot 113.579199
 5396         h1    113    ccc    H14   5396 0.11563300   1.008000   ; qtot 113.694832
 5397         c3    113    ccc     C9   5397 -0.18457900  12.010000   ; qtot 113.510253
 5398         hc    113    ccc    H15   5398 0.08347900   1.008000   ; qtot 113.593732
 5399         hc    113    ccc    H16   5399 0.08347900   1.008000   ; qtot 113.677211
 5400          c    113    ccc    C10   5400 0.67254400  12.010000   ; qtot 114.349755
 5401          o    113    ccc     O4   5401 -0.52917200  16.000000   ; qtot 113.820583
 5402         c3    113    ccc    C11   5402 0.08518000  12.010000   ; qtot 113.905763
 5403         c3    113    ccc    C12   5403 0.07918000  12.010000   ; qtot 113.984943
 5404         h1    113    ccc    H17   5404 0.06978000   1.008000   ; qtot 114.054723
 5405         c3    113    ccc    C13   5405 0.07918000  12.010000   ; qtot 114.133903
 5406         c3    113    ccc    C14   5406 0.03578000  12.010000   ; qtot 114.169683
 5407         c3    113    ccc    C15   5407 0.33498000  12.010000   ; qtot 114.504663
 5408         h1    113    ccc    H18   5408 0.06178000   1.008000   ; qtot 114.566443
 5409         h1    113    ccc    H19   5409 0.11278000   1.008000   ; qtot 114.679223
 5410         h2    113    ccc    H20   5410 0.12178000   1.008000   ; qtot 114.801003
 5411         oh    113    ccc     O1   5411 -0.56972000  16.000000   ; qtot 114.231283
 5412         oh    113    ccc     O6   5412 -0.57772000  16.000000   ; qtot 113.653563
 5413         c3    113    ccc    C16   5413 0.14548000  12.010000   ; qtot 113.799043
 5414         ho    113    ccc    H21   5414 0.40508000   1.008000   ; qtot 114.204123
 5415         hn    113    ccc    H22   5415 0.31758000   1.008000   ; qtot 114.521703
 5416         h1    113    ccc    H23   5416 0.06278000   1.008000   ; qtot 114.584483
 5417         h1    113    ccc    H24   5417 0.06278000   1.008000   ; qtot 114.647263
 5418         oh    113    ccc     O7   5418 -0.59472000  16.000000   ; qtot 114.052543
 5419         ho    113    ccc    H25   5419 0.41908000   1.008000   ; qtot 114.471623
 5420         os    113    ccc     O8   5420 -0.44552000  16.000000   ; qtot 114.026103
 5421         ho    113    ccc    H26   5421 0.41908000   1.008000   ; qtot 114.445183
 5422         h1    113    ccc    H27   5422 0.08578000   1.008000   ; qtot 114.530963
 5423         oh    113    ccc     O9   5423 -0.58672000  16.000000   ; qtot 113.944243
 5424         ho    113    ccc    H28   5424 0.41908000   1.008000   ; qtot 114.363323
 5425         n3    113    ccc     N3   5425 -0.54282000  14.010000   ; qtot 113.820503
 5426         c3    113    ccc    C17   5426 0.08518000  12.010000   ; qtot 113.905683
 5427         c3    113    ccc    C18   5427 0.07918000  12.010000   ; qtot 113.984863
 5428         h1    113    ccc    H29   5428 0.06978000   1.008000   ; qtot 114.054643
 5429         c3    113    ccc    C19   5429 0.07918000  12.010000   ; qtot 114.133823
 5430         c3    113    ccc    C20   5430 0.03578000  12.010000   ; qtot 114.169603
 5431         c3    113    ccc    C21   5431 0.33498000  12.010000   ; qtot 114.504583
 5432         h1    113    ccc    H30   5432 0.06178000   1.008000   ; qtot 114.566363
 5433         h1    113    ccc    H31   5433 0.11278000   1.008000   ; qtot 114.679143
 5434         h2    113    ccc    H32   5434 0.12178000   1.008000   ; qtot 114.800923
 5435         oh    113    ccc    O10   5435 -0.56972000  16.000000   ; qtot 114.231203
 5436         oh    113    ccc    O11   5436 -0.57772000  16.000000   ; qtot 113.653483
 5437         c3    113    ccc    C22   5437 0.14548000  12.010000   ; qtot 113.798963
 5438         ho    113    ccc    H33   5438 0.40508000   1.008000   ; qtot 114.204043
 5439         hn    113    ccc    H34   5439 0.31758000   1.008000   ; qtot 114.521623
 5440         h1    113    ccc    H35   5440 0.06278000   1.008000   ; qtot 114.584403
 5441         h1    113    ccc    H36   5441 0.06278000   1.008000   ; qtot 114.647183
 5442         oh    113    ccc    O12   5442 -0.59472000  16.000000   ; qtot 114.052463
 5443         ho    113    ccc    H37   5443 0.41908000   1.008000   ; qtot 114.471543
 5444         os    113    ccc    O13   5444 -0.44552000  16.000000   ; qtot 114.026023
 5445         ho    113    ccc    H38   5445 0.41908000   1.008000   ; qtot 114.445103
 5446         h1    113    ccc    H39   5446 0.08578000   1.008000   ; qtot 114.530883
 5447         oh    113    ccc     O5   5447 -0.58672000  16.000000   ; qtot 113.944163
 5448         ho    113    ccc    H40   5448 0.41908000   1.008000   ; qtot 114.363243
 5449         n3    113    ccc     N4   5449 -0.54282000  14.010000   ; qtot 113.820423
 5450         hn    113    ccc    H41   5450 0.17125500   1.008000   ; qtot 113.991678
; residue  114 ccc rtp ccc q 1.0
 5451          n    114    ccc     N1   5451 -0.33303000  14.010000   ; qtot 113.658648
 5452         hn    114    ccc     H4   5452 0.25916100   1.008000   ; qtot 113.917809
 5453         c3    114    ccc     C3   5453 -0.03328100  12.010000   ; qtot 113.884528
 5454         h1    114    ccc     H5   5454 0.10618100   1.008000   ; qtot 113.990709
 5455         c3    114    ccc     C4   5455 -0.02083000  12.010000   ; qtot 113.969879
 5456         h1    114    ccc     H6   5456 0.10618100   1.008000   ; qtot 114.076060
 5457         h1    114    ccc     H7   5457 0.07988000   1.008000   ; qtot 114.155940
 5458         h1    114    ccc     H8   5458 0.07988000   1.008000   ; qtot 114.235820
 5459         n4    114    ccc     N2   5459 -0.02747900  14.010000   ; qtot 114.208341
 5460         c3    114    ccc     C5   5460 -0.05097600  12.010000   ; qtot 114.157365
 5461         c3    114    ccc     C6   5461 -0.05097600  12.010000   ; qtot 114.106389
 5462         h1    114    ccc     H9   5462 0.11563300   1.008000   ; qtot 114.222022
 5463         c3    114    ccc     C7   5463 -0.18457900  12.010000   ; qtot 114.037443
 5464         h1    114    ccc    H10   5464 0.11563300   1.008000   ; qtot 114.153076
 5465         hc    114    ccc    H11   5465 0.08347900   1.008000   ; qtot 114.236555
 5466         hc    114    ccc    H12   5466 0.08347900   1.008000   ; qtot 114.320034
 5467          c    114    ccc     C8   5467 0.67254400  12.010000   ; qtot 114.992578
 5468          o    114    ccc     O2   5468 -0.52917200  16.000000   ; qtot 114.463406
 5469         h1    114    ccc    H13   5469 0.11563300   1.008000   ; qtot 114.579039
 5470         h1    114    ccc    H14   5470 0.11563300   1.008000   ; qtot 114.694672
 5471         c3    114    ccc     C9   5471 -0.18457900  12.010000   ; qtot 114.510093
 5472         hc    114    ccc    H15   5472 0.08347900   1.008000   ; qtot 114.593572
 5473         hc    114    ccc    H16   5473 0.08347900   1.008000   ; qtot 114.677051
 5474          c    114    ccc    C10   5474 0.67254400  12.010000   ; qtot 115.349595
 5475          o    114    ccc     O4   5475 -0.52917200  16.000000   ; qtot 114.820423
 5476         c3    114    ccc    C11   5476 0.08518000  12.010000   ; qtot 114.905603
 5477         c3    114    ccc    C12   5477 0.07918000  12.010000   ; qtot 114.984783
 5478         h1    114    ccc    H17   5478 0.06978000   1.008000   ; qtot 115.054563
 5479         c3    114    ccc    C13   5479 0.07918000  12.010000   ; qtot 115.133743
 5480         c3    114    ccc    C14   5480 0.03578000  12.010000   ; qtot 115.169523
 5481         c3    114    ccc    C15   5481 0.33498000  12.010000   ; qtot 115.504503
 5482         h1    114    ccc    H18   5482 0.06178000   1.008000   ; qtot 115.566283
 5483         h1    114    ccc    H19   5483 0.11278000   1.008000   ; qtot 115.679063
 5484         h2    114    ccc    H20   5484 0.12178000   1.008000   ; qtot 115.800843
 5485         oh    114    ccc     O1   5485 -0.56972000  16.000000   ; qtot 115.231123
 5486         oh    114    ccc     O6   5486 -0.57772000  16.000000   ; qtot 114.653403
 5487         c3    114    ccc    C16   5487 0.14548000  12.010000   ; qtot 114.798883
 5488         ho    114    ccc    H21   5488 0.40508000   1.008000   ; qtot 115.203963
 5489         hn    114    ccc    H22   5489 0.31758000   1.008000   ; qtot 115.521543
 5490         h1    114    ccc    H23   5490 0.06278000   1.008000   ; qtot 115.584323
 5491         h1    114    ccc    H24   5491 0.06278000   1.008000   ; qtot 115.647103
 5492         oh    114    ccc     O7   5492 -0.59472000  16.000000   ; qtot 115.052383
 5493         ho    114    ccc    H25   5493 0.41908000   1.008000   ; qtot 115.471463
 5494         os    114    ccc     O8   5494 -0.44552000  16.000000   ; qtot 115.025943
 5495         ho    114    ccc    H26   5495 0.41908000   1.008000   ; qtot 115.445023
 5496         h1    114    ccc    H27   5496 0.08578000   1.008000   ; qtot 115.530803
 5497         oh    114    ccc     O9   5497 -0.58672000  16.000000   ; qtot 114.944083
 5498         ho    114    ccc    H28   5498 0.41908000   1.008000   ; qtot 115.363163
 5499         n3    114    ccc     N3   5499 -0.54282000  14.010000   ; qtot 114.820343
 5500         c3    114    ccc    C17   5500 0.08518000  12.010000   ; qtot 114.905523
 5501         c3    114    ccc    C18   5501 0.07918000  12.010000   ; qtot 114.984703
 5502         h1    114    ccc    H29   5502 0.06978000   1.008000   ; qtot 115.054483
 5503         c3    114    ccc    C19   5503 0.07918000  12.010000   ; qtot 115.133663
 5504         c3    114    ccc    C20   5504 0.03578000  12.010000   ; qtot 115.169443
 5505         c3    114    ccc    C21   5505 0.33498000  12.010000   ; qtot 115.504423
 5506         h1    114    ccc    H30   5506 0.06178000   1.008000   ; qtot 115.566203
 5507         h1    114    ccc    H31   5507 0.11278000   1.008000   ; qtot 115.678983
 5508         h2    114    ccc    H32   5508 0.12178000   1.008000   ; qtot 115.800763
 5509         oh    114    ccc    O10   5509 -0.56972000  16.000000   ; qtot 115.231043
 5510         oh    114    ccc    O11   5510 -0.57772000  16.000000   ; qtot 114.653323
 5511         c3    114    ccc    C22   5511 0.14548000  12.010000   ; qtot 114.798803
 5512         ho    114    ccc    H33   5512 0.40508000   1.008000   ; qtot 115.203883
 5513         hn    114    ccc    H34   5513 0.31758000   1.008000   ; qtot 115.521463
 5514         h1    114    ccc    H35   5514 0.06278000   1.008000   ; qtot 115.584243
 5515         h1    114    ccc    H36   5515 0.06278000   1.008000   ; qtot 115.647023
 5516         oh    114    ccc    O12   5516 -0.59472000  16.000000   ; qtot 115.052303
 5517         ho    114    ccc    H37   5517 0.41908000   1.008000   ; qtot 115.471383
 5518         os    114    ccc    O13   5518 -0.44552000  16.000000   ; qtot 115.025863
 5519         ho    114    ccc    H38   5519 0.41908000   1.008000   ; qtot 115.444943
 5520         h1    114    ccc    H39   5520 0.08578000   1.008000   ; qtot 115.530723
 5521         oh    114    ccc     O5   5521 -0.58672000  16.000000   ; qtot 114.944003
 5522         ho    114    ccc    H40   5522 0.41908000   1.008000   ; qtot 115.363083
 5523         n3    114    ccc     N4   5523 -0.54282000  14.010000   ; qtot 114.820263
 5524         hn    114    ccc    H41   5524 0.17125500   1.008000   ; qtot 114.991518
; residue  115 ccc rtp ccc q 1.0
 5525          n    115    ccc     N1   5525 -0.33303000  14.010000   ; qtot 114.658488
 5526         hn    115    ccc     H4   5526 0.25916100   1.008000   ; qtot 114.917649
 5527         c3    115    ccc     C3   5527 -0.03328100  12.010000   ; qtot 114.884368
 5528         h1    115    ccc     H5   5528 0.10618100   1.008000   ; qtot 114.990549
 5529         c3    115    ccc     C4   5529 -0.02083000  12.010000   ; qtot 114.969719
 5530         h1    115    ccc     H6   5530 0.10618100   1.008000   ; qtot 115.075900
 5531         h1    115    ccc     H7   5531 0.07988000   1.008000   ; qtot 115.155780
 5532         h1    115    ccc     H8   5532 0.07988000   1.008000   ; qtot 115.235660
 5533         n4    115    ccc     N2   5533 -0.02747900  14.010000   ; qtot 115.208181
 5534         c3    115    ccc     C5   5534 -0.05097600  12.010000   ; qtot 115.157205
 5535         c3    115    ccc     C6   5535 -0.05097600  12.010000   ; qtot 115.106229
 5536         h1    115    ccc     H9   5536 0.11563300   1.008000   ; qtot 115.221862
 5537         c3    115    ccc     C7   5537 -0.18457900  12.010000   ; qtot 115.037283
 5538         h1    115    ccc    H10   5538 0.11563300   1.008000   ; qtot 115.152916
 5539         hc    115    ccc    H11   5539 0.08347900   1.008000   ; qtot 115.236395
 5540         hc    115    ccc    H12   5540 0.08347900   1.008000   ; qtot 115.319874
 5541          c    115    ccc     C8   5541 0.67254400  12.010000   ; qtot 115.992418
 5542          o    115    ccc     O2   5542 -0.52917200  16.000000   ; qtot 115.463246
 5543         h1    115    ccc    H13   5543 0.11563300   1.008000   ; qtot 115.578879
 5544         h1    115    ccc    H14   5544 0.11563300   1.008000   ; qtot 115.694512
 5545         c3    115    ccc     C9   5545 -0.18457900  12.010000   ; qtot 115.509933
 5546         hc    115    ccc    H15   5546 0.08347900   1.008000   ; qtot 115.593412
 5547         hc    115    ccc    H16   5547 0.08347900   1.008000   ; qtot 115.676891
 5548          c    115    ccc    C10   5548 0.67254400  12.010000   ; qtot 116.349435
 5549          o    115    ccc     O4   5549 -0.52917200  16.000000   ; qtot 115.820263
 5550         c3    115    ccc    C11   5550 0.08518000  12.010000   ; qtot 115.905443
 5551         c3    115    ccc    C12   5551 0.07918000  12.010000   ; qtot 115.984623
 5552         h1    115    ccc    H17   5552 0.06978000   1.008000   ; qtot 116.054403
 5553         c3    115    ccc    C13   5553 0.07918000  12.010000   ; qtot 116.133583
 5554         c3    115    ccc    C14   5554 0.03578000  12.010000   ; qtot 116.169363
 5555         c3    115    ccc    C15   5555 0.33498000  12.010000   ; qtot 116.504343
 5556         h1    115    ccc    H18   5556 0.06178000   1.008000   ; qtot 116.566123
 5557         h1    115    ccc    H19   5557 0.11278000   1.008000   ; qtot 116.678903
 5558         h2    115    ccc    H20   5558 0.12178000   1.008000   ; qtot 116.800683
 5559         oh    115    ccc     O1   5559 -0.56972000  16.000000   ; qtot 116.230963
 5560         oh    115    ccc     O6   5560 -0.57772000  16.000000   ; qtot 115.653243
 5561         c3    115    ccc    C16   5561 0.14548000  12.010000   ; qtot 115.798723
 5562         ho    115    ccc    H21   5562 0.40508000   1.008000   ; qtot 116.203803
 5563         hn    115    ccc    H22   5563 0.31758000   1.008000   ; qtot 116.521383
 5564         h1    115    ccc    H23   5564 0.06278000   1.008000   ; qtot 116.584163
 5565         h1    115    ccc    H24   5565 0.06278000   1.008000   ; qtot 116.646943
 5566         oh    115    ccc     O7   5566 -0.59472000  16.000000   ; qtot 116.052223
 5567         ho    115    ccc    H25   5567 0.41908000   1.008000   ; qtot 116.471303
 5568         os    115    ccc     O8   5568 -0.44552000  16.000000   ; qtot 116.025783
 5569         ho    115    ccc    H26   5569 0.41908000   1.008000   ; qtot 116.444863
 5570         h1    115    ccc    H27   5570 0.08578000   1.008000   ; qtot 116.530643
 5571         oh    115    ccc     O9   5571 -0.58672000  16.000000   ; qtot 115.943923
 5572         ho    115    ccc    H28   5572 0.41908000   1.008000   ; qtot 116.363003
 5573         n3    115    ccc     N3   5573 -0.54282000  14.010000   ; qtot 115.820183
 5574         c3    115    ccc    C17   5574 0.08518000  12.010000   ; qtot 115.905363
 5575         c3    115    ccc    C18   5575 0.07918000  12.010000   ; qtot 115.984543
 5576         h1    115    ccc    H29   5576 0.06978000   1.008000   ; qtot 116.054323
 5577         c3    115    ccc    C19   5577 0.07918000  12.010000   ; qtot 116.133503
 5578         c3    115    ccc    C20   5578 0.03578000  12.010000   ; qtot 116.169283
 5579         c3    115    ccc    C21   5579 0.33498000  12.010000   ; qtot 116.504263
 5580         h1    115    ccc    H30   5580 0.06178000   1.008000   ; qtot 116.566043
 5581         h1    115    ccc    H31   5581 0.11278000   1.008000   ; qtot 116.678823
 5582         h2    115    ccc    H32   5582 0.12178000   1.008000   ; qtot 116.800603
 5583         oh    115    ccc    O10   5583 -0.56972000  16.000000   ; qtot 116.230883
 5584         oh    115    ccc    O11   5584 -0.57772000  16.000000   ; qtot 115.653163
 5585         c3    115    ccc    C22   5585 0.14548000  12.010000   ; qtot 115.798643
 5586         ho    115    ccc    H33   5586 0.40508000   1.008000   ; qtot 116.203723
 5587         hn    115    ccc    H34   5587 0.31758000   1.008000   ; qtot 116.521303
 5588         h1    115    ccc    H35   5588 0.06278000   1.008000   ; qtot 116.584083
 5589         h1    115    ccc    H36   5589 0.06278000   1.008000   ; qtot 116.646863
 5590         oh    115    ccc    O12   5590 -0.59472000  16.000000   ; qtot 116.052143
 5591         ho    115    ccc    H37   5591 0.41908000   1.008000   ; qtot 116.471223
 5592         os    115    ccc    O13   5592 -0.44552000  16.000000   ; qtot 116.025703
 5593         ho    115    ccc    H38   5593 0.41908000   1.008000   ; qtot 116.444783
 5594         h1    115    ccc    H39   5594 0.08578000   1.008000   ; qtot 116.530563
 5595         oh    115    ccc     O5   5595 -0.58672000  16.000000   ; qtot 115.943843
 5596         ho    115    ccc    H40   5596 0.41908000   1.008000   ; qtot 116.362923
 5597         n3    115    ccc     N4   5597 -0.54282000  14.010000   ; qtot 115.820103
 5598         hn    115    ccc    H41   5598 0.17125500   1.008000   ; qtot 115.991358
; residue  116 ccc rtp ccc q 1.0
 5599          n    116    ccc     N1   5599 -0.33303000  14.010000   ; qtot 115.658328
 5600         hn    116    ccc     H4   5600 0.25916100   1.008000   ; qtot 115.917489
 5601         c3    116    ccc     C3   5601 -0.03328100  12.010000   ; qtot 115.884208
 5602         h1    116    ccc     H5   5602 0.10618100   1.008000   ; qtot 115.990389
 5603         c3    116    ccc     C4   5603 -0.02083000  12.010000   ; qtot 115.969559
 5604         h1    116    ccc     H6   5604 0.10618100   1.008000   ; qtot 116.075740
 5605         h1    116    ccc     H7   5605 0.07988000   1.008000   ; qtot 116.155620
 5606         h1    116    ccc     H8   5606 0.07988000   1.008000   ; qtot 116.235500
 5607         n4    116    ccc     N2   5607 -0.02747900  14.010000   ; qtot 116.208021
 5608         c3    116    ccc     C5   5608 -0.05097600  12.010000   ; qtot 116.157045
 5609         c3    116    ccc     C6   5609 -0.05097600  12.010000   ; qtot 116.106069
 5610         h1    116    ccc     H9   5610 0.11563300   1.008000   ; qtot 116.221702
 5611         c3    116    ccc     C7   5611 -0.18457900  12.010000   ; qtot 116.037123
 5612         h1    116    ccc    H10   5612 0.11563300   1.008000   ; qtot 116.152756
 5613         hc    116    ccc    H11   5613 0.08347900   1.008000   ; qtot 116.236235
 5614         hc    116    ccc    H12   5614 0.08347900   1.008000   ; qtot 116.319714
 5615          c    116    ccc     C8   5615 0.67254400  12.010000   ; qtot 116.992258
 5616          o    116    ccc     O2   5616 -0.52917200  16.000000   ; qtot 116.463086
 5617         h1    116    ccc    H13   5617 0.11563300   1.008000   ; qtot 116.578719
 5618         h1    116    ccc    H14   5618 0.11563300   1.008000   ; qtot 116.694352
 5619         c3    116    ccc     C9   5619 -0.18457900  12.010000   ; qtot 116.509773
 5620         hc    116    ccc    H15   5620 0.08347900   1.008000   ; qtot 116.593252
 5621         hc    116    ccc    H16   5621 0.08347900   1.008000   ; qtot 116.676731
 5622          c    116    ccc    C10   5622 0.67254400  12.010000   ; qtot 117.349275
 5623          o    116    ccc     O4   5623 -0.52917200  16.000000   ; qtot 116.820103
 5624         c3    116    ccc    C11   5624 0.08518000  12.010000   ; qtot 116.905283
 5625         c3    116    ccc    C12   5625 0.07918000  12.010000   ; qtot 116.984463
 5626         h1    116    ccc    H17   5626 0.06978000   1.008000   ; qtot 117.054243
 5627         c3    116    ccc    C13   5627 0.07918000  12.010000   ; qtot 117.133423
 5628         c3    116    ccc    C14   5628 0.03578000  12.010000   ; qtot 117.169203
 5629         c3    116    ccc    C15   5629 0.33498000  12.010000   ; qtot 117.504183
 5630         h1    116    ccc    H18   5630 0.06178000   1.008000   ; qtot 117.565963
 5631         h1    116    ccc    H19   5631 0.11278000   1.008000   ; qtot 117.678743
 5632         h2    116    ccc    H20   5632 0.12178000   1.008000   ; qtot 117.800523
 5633         oh    116    ccc     O1   5633 -0.56972000  16.000000   ; qtot 117.230803
 5634         oh    116    ccc     O6   5634 -0.57772000  16.000000   ; qtot 116.653083
 5635         c3    116    ccc    C16   5635 0.14548000  12.010000   ; qtot 116.798563
 5636         ho    116    ccc    H21   5636 0.40508000   1.008000   ; qtot 117.203643
 5637         hn    116    ccc    H22   5637 0.31758000   1.008000   ; qtot 117.521223
 5638         h1    116    ccc    H23   5638 0.06278000   1.008000   ; qtot 117.584003
 5639         h1    116    ccc    H24   5639 0.06278000   1.008000   ; qtot 117.646783
 5640         oh    116    ccc     O7   5640 -0.59472000  16.000000   ; qtot 117.052063
 5641         ho    116    ccc    H25   5641 0.41908000   1.008000   ; qtot 117.471143
 5642         os    116    ccc     O8   5642 -0.44552000  16.000000   ; qtot 117.025623
 5643         ho    116    ccc    H26   5643 0.41908000   1.008000   ; qtot 117.444703
 5644         h1    116    ccc    H27   5644 0.08578000   1.008000   ; qtot 117.530483
 5645         oh    116    ccc     O9   5645 -0.58672000  16.000000   ; qtot 116.943763
 5646         ho    116    ccc    H28   5646 0.41908000   1.008000   ; qtot 117.362843
 5647         n3    116    ccc     N3   5647 -0.54282000  14.010000   ; qtot 116.820023
 5648         c3    116    ccc    C17   5648 0.08518000  12.010000   ; qtot 116.905203
 5649         c3    116    ccc    C18   5649 0.07918000  12.010000   ; qtot 116.984383
 5650         h1    116    ccc    H29   5650 0.06978000   1.008000   ; qtot 117.054163
 5651         c3    116    ccc    C19   5651 0.07918000  12.010000   ; qtot 117.133343
 5652         c3    116    ccc    C20   5652 0.03578000  12.010000   ; qtot 117.169123
 5653         c3    116    ccc    C21   5653 0.33498000  12.010000   ; qtot 117.504103
 5654         h1    116    ccc    H30   5654 0.06178000   1.008000   ; qtot 117.565883
 5655         h1    116    ccc    H31   5655 0.11278000   1.008000   ; qtot 117.678663
 5656         h2    116    ccc    H32   5656 0.12178000   1.008000   ; qtot 117.800443
 5657         oh    116    ccc    O10   5657 -0.56972000  16.000000   ; qtot 117.230723
 5658         oh    116    ccc    O11   5658 -0.57772000  16.000000   ; qtot 116.653003
 5659         c3    116    ccc    C22   5659 0.14548000  12.010000   ; qtot 116.798483
 5660         ho    116    ccc    H33   5660 0.40508000   1.008000   ; qtot 117.203563
 5661         hn    116    ccc    H34   5661 0.31758000   1.008000   ; qtot 117.521143
 5662         h1    116    ccc    H35   5662 0.06278000   1.008000   ; qtot 117.583923
 5663         h1    116    ccc    H36   5663 0.06278000   1.008000   ; qtot 117.646703
 5664         oh    116    ccc    O12   5664 -0.59472000  16.000000   ; qtot 117.051983
 5665         ho    116    ccc    H37   5665 0.41908000   1.008000   ; qtot 117.471063
 5666         os    116    ccc    O13   5666 -0.44552000  16.000000   ; qtot 117.025543
 5667         ho    116    ccc    H38   5667 0.41908000   1.008000   ; qtot 117.444623
 5668         h1    116    ccc    H39   5668 0.08578000   1.008000   ; qtot 117.530403
 5669         oh    116    ccc     O5   5669 -0.58672000  16.000000   ; qtot 116.943683
 5670         ho    116    ccc    H40   5670 0.41908000   1.008000   ; qtot 117.362763
 5671         n3    116    ccc     N4   5671 -0.54282000  14.010000   ; qtot 116.819943
 5672         hn    116    ccc    H41   5672 0.17125500   1.008000   ; qtot 116.991198
; residue  117 ccc rtp ccc q 1.0
 5673          n    117    ccc     N1   5673 -0.33303000  14.010000   ; qtot 116.658168
 5674         hn    117    ccc     H4   5674 0.25916100   1.008000   ; qtot 116.917329
 5675         c3    117    ccc     C3   5675 -0.03328100  12.010000   ; qtot 116.884048
 5676         h1    117    ccc     H5   5676 0.10618100   1.008000   ; qtot 116.990229
 5677         c3    117    ccc     C4   5677 -0.02083000  12.010000   ; qtot 116.969399
 5678         h1    117    ccc     H6   5678 0.10618100   1.008000   ; qtot 117.075580
 5679         h1    117    ccc     H7   5679 0.07988000   1.008000   ; qtot 117.155460
 5680         h1    117    ccc     H8   5680 0.07988000   1.008000   ; qtot 117.235340
 5681         n4    117    ccc     N2   5681 -0.02747900  14.010000   ; qtot 117.207861
 5682         c3    117    ccc     C5   5682 -0.05097600  12.010000   ; qtot 117.156885
 5683         c3    117    ccc     C6   5683 -0.05097600  12.010000   ; qtot 117.105909
 5684         h1    117    ccc     H9   5684 0.11563300   1.008000   ; qtot 117.221542
 5685         c3    117    ccc     C7   5685 -0.18457900  12.010000   ; qtot 117.036963
 5686         h1    117    ccc    H10   5686 0.11563300   1.008000   ; qtot 117.152596
 5687         hc    117    ccc    H11   5687 0.08347900   1.008000   ; qtot 117.236075
 5688         hc    117    ccc    H12   5688 0.08347900   1.008000   ; qtot 117.319554
 5689          c    117    ccc     C8   5689 0.67254400  12.010000   ; qtot 117.992098
 5690          o    117    ccc     O2   5690 -0.52917200  16.000000   ; qtot 117.462926
 5691         h1    117    ccc    H13   5691 0.11563300   1.008000   ; qtot 117.578559
 5692         h1    117    ccc    H14   5692 0.11563300   1.008000   ; qtot 117.694192
 5693         c3    117    ccc     C9   5693 -0.18457900  12.010000   ; qtot 117.509613
 5694         hc    117    ccc    H15   5694 0.08347900   1.008000   ; qtot 117.593092
 5695         hc    117    ccc    H16   5695 0.08347900   1.008000   ; qtot 117.676571
 5696          c    117    ccc    C10   5696 0.67254400  12.010000   ; qtot 118.349115
 5697          o    117    ccc     O4   5697 -0.52917200  16.000000   ; qtot 117.819943
 5698         c3    117    ccc    C11   5698 0.08518000  12.010000   ; qtot 117.905123
 5699         c3    117    ccc    C12   5699 0.07918000  12.010000   ; qtot 117.984303
 5700         h1    117    ccc    H17   5700 0.06978000   1.008000   ; qtot 118.054083
 5701         c3    117    ccc    C13   5701 0.07918000  12.010000   ; qtot 118.133263
 5702         c3    117    ccc    C14   5702 0.03578000  12.010000   ; qtot 118.169043
 5703         c3    117    ccc    C15   5703 0.33498000  12.010000   ; qtot 118.504023
 5704         h1    117    ccc    H18   5704 0.06178000   1.008000   ; qtot 118.565803
 5705         h1    117    ccc    H19   5705 0.11278000   1.008000   ; qtot 118.678583
 5706         h2    117    ccc    H20   5706 0.12178000   1.008000   ; qtot 118.800363
 5707         oh    117    ccc     O1   5707 -0.56972000  16.000000   ; qtot 118.230643
 5708         oh    117    ccc     O6   5708 -0.57772000  16.000000   ; qtot 117.652923
 5709         c3    117    ccc    C16   5709 0.14548000  12.010000   ; qtot 117.798403
 5710         ho    117    ccc    H21   5710 0.40508000   1.008000   ; qtot 118.203483
 5711         hn    117    ccc    H22   5711 0.31758000   1.008000   ; qtot 118.521063
 5712         h1    117    ccc    H23   5712 0.06278000   1.008000   ; qtot 118.583843
 5713         h1    117    ccc    H24   5713 0.06278000   1.008000   ; qtot 118.646623
 5714         oh    117    ccc     O7   5714 -0.59472000  16.000000   ; qtot 118.051903
 5715         ho    117    ccc    H25   5715 0.41908000   1.008000   ; qtot 118.470983
 5716         os    117    ccc     O8   5716 -0.44552000  16.000000   ; qtot 118.025463
 5717         ho    117    ccc    H26   5717 0.41908000   1.008000   ; qtot 118.444543
 5718         h1    117    ccc    H27   5718 0.08578000   1.008000   ; qtot 118.530323
 5719         oh    117    ccc     O9   5719 -0.58672000  16.000000   ; qtot 117.943603
 5720         ho    117    ccc    H28   5720 0.41908000   1.008000   ; qtot 118.362683
 5721         n3    117    ccc     N3   5721 -0.54282000  14.010000   ; qtot 117.819863
 5722         c3    117    ccc    C17   5722 0.08518000  12.010000   ; qtot 117.905043
 5723         c3    117    ccc    C18   5723 0.07918000  12.010000   ; qtot 117.984223
 5724         h1    117    ccc    H29   5724 0.06978000   1.008000   ; qtot 118.054003
 5725         c3    117    ccc    C19   5725 0.07918000  12.010000   ; qtot 118.133183
 5726         c3    117    ccc    C20   5726 0.03578000  12.010000   ; qtot 118.168963
 5727         c3    117    ccc    C21   5727 0.33498000  12.010000   ; qtot 118.503943
 5728         h1    117    ccc    H30   5728 0.06178000   1.008000   ; qtot 118.565723
 5729         h1    117    ccc    H31   5729 0.11278000   1.008000   ; qtot 118.678503
 5730         h2    117    ccc    H32   5730 0.12178000   1.008000   ; qtot 118.800283
 5731         oh    117    ccc    O10   5731 -0.56972000  16.000000   ; qtot 118.230563
 5732         oh    117    ccc    O11   5732 -0.57772000  16.000000   ; qtot 117.652843
 5733         c3    117    ccc    C22   5733 0.14548000  12.010000   ; qtot 117.798323
 5734         ho    117    ccc    H33   5734 0.40508000   1.008000   ; qtot 118.203403
 5735         hn    117    ccc    H34   5735 0.31758000   1.008000   ; qtot 118.520983
 5736         h1    117    ccc    H35   5736 0.06278000   1.008000   ; qtot 118.583763
 5737         h1    117    ccc    H36   5737 0.06278000   1.008000   ; qtot 118.646543
 5738         oh    117    ccc    O12   5738 -0.59472000  16.000000   ; qtot 118.051823
 5739         ho    117    ccc    H37   5739 0.41908000   1.008000   ; qtot 118.470903
 5740         os    117    ccc    O13   5740 -0.44552000  16.000000   ; qtot 118.025383
 5741         ho    117    ccc    H38   5741 0.41908000   1.008000   ; qtot 118.444463
 5742         h1    117    ccc    H39   5742 0.08578000   1.008000   ; qtot 118.530243
 5743         oh    117    ccc     O5   5743 -0.58672000  16.000000   ; qtot 117.943523
 5744         ho    117    ccc    H40   5744 0.41908000   1.008000   ; qtot 118.362603
 5745         n3    117    ccc     N4   5745 -0.54282000  14.010000   ; qtot 117.819783
 5746         hn    117    ccc    H41   5746 0.17125500   1.008000   ; qtot 117.991038
; residue  118 ccc rtp ccc q 1.0
 5747          n    118    ccc     N1   5747 -0.33303000  14.010000   ; qtot 117.658008
 5748         hn    118    ccc     H4   5748 0.25916100   1.008000   ; qtot 117.917169
 5749         c3    118    ccc     C3   5749 -0.03328100  12.010000   ; qtot 117.883888
 5750         h1    118    ccc     H5   5750 0.10618100   1.008000   ; qtot 117.990069
 5751         c3    118    ccc     C4   5751 -0.02083000  12.010000   ; qtot 117.969239
 5752         h1    118    ccc     H6   5752 0.10618100   1.008000   ; qtot 118.075420
 5753         h1    118    ccc     H7   5753 0.07988000   1.008000   ; qtot 118.155300
 5754         h1    118    ccc     H8   5754 0.07988000   1.008000   ; qtot 118.235180
 5755         n4    118    ccc     N2   5755 -0.02747900  14.010000   ; qtot 118.207701
 5756         c3    118    ccc     C5   5756 -0.05097600  12.010000   ; qtot 118.156725
 5757         c3    118    ccc     C6   5757 -0.05097600  12.010000   ; qtot 118.105749
 5758         h1    118    ccc     H9   5758 0.11563300   1.008000   ; qtot 118.221382
 5759         c3    118    ccc     C7   5759 -0.18457900  12.010000   ; qtot 118.036803
 5760         h1    118    ccc    H10   5760 0.11563300   1.008000   ; qtot 118.152436
 5761         hc    118    ccc    H11   5761 0.08347900   1.008000   ; qtot 118.235915
 5762         hc    118    ccc    H12   5762 0.08347900   1.008000   ; qtot 118.319394
 5763          c    118    ccc     C8   5763 0.67254400  12.010000   ; qtot 118.991938
 5764          o    118    ccc     O2   5764 -0.52917200  16.000000   ; qtot 118.462766
 5765         h1    118    ccc    H13   5765 0.11563300   1.008000   ; qtot 118.578399
 5766         h1    118    ccc    H14   5766 0.11563300   1.008000   ; qtot 118.694032
 5767         c3    118    ccc     C9   5767 -0.18457900  12.010000   ; qtot 118.509453
 5768         hc    118    ccc    H15   5768 0.08347900   1.008000   ; qtot 118.592932
 5769         hc    118    ccc    H16   5769 0.08347900   1.008000   ; qtot 118.676411
 5770          c    118    ccc    C10   5770 0.67254400  12.010000   ; qtot 119.348955
 5771          o    118    ccc     O4   5771 -0.52917200  16.000000   ; qtot 118.819783
 5772         c3    118    ccc    C11   5772 0.08518000  12.010000   ; qtot 118.904963
 5773         c3    118    ccc    C12   5773 0.07918000  12.010000   ; qtot 118.984143
 5774         h1    118    ccc    H17   5774 0.06978000   1.008000   ; qtot 119.053923
 5775         c3    118    ccc    C13   5775 0.07918000  12.010000   ; qtot 119.133103
 5776         c3    118    ccc    C14   5776 0.03578000  12.010000   ; qtot 119.168883
 5777         c3    118    ccc    C15   5777 0.33498000  12.010000   ; qtot 119.503863
 5778         h1    118    ccc    H18   5778 0.06178000   1.008000   ; qtot 119.565643
 5779         h1    118    ccc    H19   5779 0.11278000   1.008000   ; qtot 119.678423
 5780         h2    118    ccc    H20   5780 0.12178000   1.008000   ; qtot 119.800203
 5781         oh    118    ccc     O1   5781 -0.56972000  16.000000   ; qtot 119.230483
 5782         oh    118    ccc     O6   5782 -0.57772000  16.000000   ; qtot 118.652763
 5783         c3    118    ccc    C16   5783 0.14548000  12.010000   ; qtot 118.798243
 5784         ho    118    ccc    H21   5784 0.40508000   1.008000   ; qtot 119.203323
 5785         hn    118    ccc    H22   5785 0.31758000   1.008000   ; qtot 119.520903
 5786         h1    118    ccc    H23   5786 0.06278000   1.008000   ; qtot 119.583683
 5787         h1    118    ccc    H24   5787 0.06278000   1.008000   ; qtot 119.646463
 5788         oh    118    ccc     O7   5788 -0.59472000  16.000000   ; qtot 119.051743
 5789         ho    118    ccc    H25   5789 0.41908000   1.008000   ; qtot 119.470823
 5790         os    118    ccc     O8   5790 -0.44552000  16.000000   ; qtot 119.025303
 5791         ho    118    ccc    H26   5791 0.41908000   1.008000   ; qtot 119.444383
 5792         h1    118    ccc    H27   5792 0.08578000   1.008000   ; qtot 119.530163
 5793         oh    118    ccc     O9   5793 -0.58672000  16.000000   ; qtot 118.943443
 5794         ho    118    ccc    H28   5794 0.41908000   1.008000   ; qtot 119.362523
 5795         n3    118    ccc     N3   5795 -0.54282000  14.010000   ; qtot 118.819703
 5796         c3    118    ccc    C17   5796 0.08518000  12.010000   ; qtot 118.904883
 5797         c3    118    ccc    C18   5797 0.07918000  12.010000   ; qtot 118.984063
 5798         h1    118    ccc    H29   5798 0.06978000   1.008000   ; qtot 119.053843
 5799         c3    118    ccc    C19   5799 0.07918000  12.010000   ; qtot 119.133023
 5800         c3    118    ccc    C20   5800 0.03578000  12.010000   ; qtot 119.168803
 5801         c3    118    ccc    C21   5801 0.33498000  12.010000   ; qtot 119.503783
 5802         h1    118    ccc    H30   5802 0.06178000   1.008000   ; qtot 119.565563
 5803         h1    118    ccc    H31   5803 0.11278000   1.008000   ; qtot 119.678343
 5804         h2    118    ccc    H32   5804 0.12178000   1.008000   ; qtot 119.800123
 5805         oh    118    ccc    O10   5805 -0.56972000  16.000000   ; qtot 119.230403
 5806         oh    118    ccc    O11   5806 -0.57772000  16.000000   ; qtot 118.652683
 5807         c3    118    ccc    C22   5807 0.14548000  12.010000   ; qtot 118.798163
 5808         ho    118    ccc    H33   5808 0.40508000   1.008000   ; qtot 119.203243
 5809         hn    118    ccc    H34   5809 0.31758000   1.008000   ; qtot 119.520823
 5810         h1    118    ccc    H35   5810 0.06278000   1.008000   ; qtot 119.583603
 5811         h1    118    ccc    H36   5811 0.06278000   1.008000   ; qtot 119.646383
 5812         oh    118    ccc    O12   5812 -0.59472000  16.000000   ; qtot 119.051663
 5813         ho    118    ccc    H37   5813 0.41908000   1.008000   ; qtot 119.470743
 5814         os    118    ccc    O13   5814 -0.44552000  16.000000   ; qtot 119.025223
 5815         ho    118    ccc    H38   5815 0.41908000   1.008000   ; qtot 119.444303
 5816         h1    118    ccc    H39   5816 0.08578000   1.008000   ; qtot 119.530083
 5817         oh    118    ccc     O5   5817 -0.58672000  16.000000   ; qtot 118.943363
 5818         ho    118    ccc    H40   5818 0.41908000   1.008000   ; qtot 119.362443
 5819         n3    118    ccc     N4   5819 -0.54282000  14.010000   ; qtot 118.819623
 5820         hn    118    ccc    H41   5820 0.17125500   1.008000   ; qtot 118.990878
; residue  119 ccc rtp ccc q 1.0
 5821          n    119    ccc     N1   5821 -0.33303000  14.010000   ; qtot 118.657848
 5822         hn    119    ccc     H4   5822 0.25916100   1.008000   ; qtot 118.917009
 5823         c3    119    ccc     C3   5823 -0.03328100  12.010000   ; qtot 118.883728
 5824         h1    119    ccc     H5   5824 0.10618100   1.008000   ; qtot 118.989909
 5825         c3    119    ccc     C4   5825 -0.02083000  12.010000   ; qtot 118.969079
 5826         h1    119    ccc     H6   5826 0.10618100   1.008000   ; qtot 119.075260
 5827         h1    119    ccc     H7   5827 0.07988000   1.008000   ; qtot 119.155140
 5828         h1    119    ccc     H8   5828 0.07988000   1.008000   ; qtot 119.235020
 5829         n4    119    ccc     N2   5829 -0.02747900  14.010000   ; qtot 119.207541
 5830         c3    119    ccc     C5   5830 -0.05097600  12.010000   ; qtot 119.156565
 5831         c3    119    ccc     C6   5831 -0.05097600  12.010000   ; qtot 119.105589
 5832         h1    119    ccc     H9   5832 0.11563300   1.008000   ; qtot 119.221222
 5833         c3    119    ccc     C7   5833 -0.18457900  12.010000   ; qtot 119.036643
 5834         h1    119    ccc    H10   5834 0.11563300   1.008000   ; qtot 119.152276
 5835         hc    119    ccc    H11   5835 0.08347900   1.008000   ; qtot 119.235755
 5836         hc    119    ccc    H12   5836 0.08347900   1.008000   ; qtot 119.319234
 5837          c    119    ccc     C8   5837 0.67254400  12.010000   ; qtot 119.991778
 5838          o    119    ccc     O2   5838 -0.52917200  16.000000   ; qtot 119.462606
 5839         h1    119    ccc    H13   5839 0.11563300   1.008000   ; qtot 119.578239
 5840         h1    119    ccc    H14   5840 0.11563300   1.008000   ; qtot 119.693872
 5841         c3    119    ccc     C9   5841 -0.18457900  12.010000   ; qtot 119.509293
 5842         hc    119    ccc    H15   5842 0.08347900   1.008000   ; qtot 119.592772
 5843         hc    119    ccc    H16   5843 0.08347900   1.008000   ; qtot 119.676251
 5844          c    119    ccc    C10   5844 0.67254400  12.010000   ; qtot 120.348795
 5845          o    119    ccc     O4   5845 -0.52917200  16.000000   ; qtot 119.819623
 5846         c3    119    ccc    C11   5846 0.08518000  12.010000   ; qtot 119.904803
 5847         c3    119    ccc    C12   5847 0.07918000  12.010000   ; qtot 119.983983
 5848         h1    119    ccc    H17   5848 0.06978000   1.008000   ; qtot 120.053763
 5849         c3    119    ccc    C13   5849 0.07918000  12.010000   ; qtot 120.132943
 5850         c3    119    ccc    C14   5850 0.03578000  12.010000   ; qtot 120.168723
 5851         c3    119    ccc    C15   5851 0.33498000  12.010000   ; qtot 120.503703
 5852         h1    119    ccc    H18   5852 0.06178000   1.008000   ; qtot 120.565483
 5853         h1    119    ccc    H19   5853 0.11278000   1.008000   ; qtot 120.678263
 5854         h2    119    ccc    H20   5854 0.12178000   1.008000   ; qtot 120.800043
 5855         oh    119    ccc     O1   5855 -0.56972000  16.000000   ; qtot 120.230323
 5856         oh    119    ccc     O6   5856 -0.57772000  16.000000   ; qtot 119.652603
 5857         c3    119    ccc    C16   5857 0.14548000  12.010000   ; qtot 119.798083
 5858         ho    119    ccc    H21   5858 0.40508000   1.008000   ; qtot 120.203163
 5859         hn    119    ccc    H22   5859 0.31758000   1.008000   ; qtot 120.520743
 5860         h1    119    ccc    H23   5860 0.06278000   1.008000   ; qtot 120.583523
 5861         h1    119    ccc    H24   5861 0.06278000   1.008000   ; qtot 120.646303
 5862         oh    119    ccc     O7   5862 -0.59472000  16.000000   ; qtot 120.051583
 5863         ho    119    ccc    H25   5863 0.41908000   1.008000   ; qtot 120.470663
 5864         os    119    ccc     O8   5864 -0.44552000  16.000000   ; qtot 120.025143
 5865         ho    119    ccc    H26   5865 0.41908000   1.008000   ; qtot 120.444223
 5866         h1    119    ccc    H27   5866 0.08578000   1.008000   ; qtot 120.530003
 5867         oh    119    ccc     O9   5867 -0.58672000  16.000000   ; qtot 119.943283
 5868         ho    119    ccc    H28   5868 0.41908000   1.008000   ; qtot 120.362363
 5869         n3    119    ccc     N3   5869 -0.54282000  14.010000   ; qtot 119.819543
 5870         c3    119    ccc    C17   5870 0.08518000  12.010000   ; qtot 119.904723
 5871         c3    119    ccc    C18   5871 0.07918000  12.010000   ; qtot 119.983903
 5872         h1    119    ccc    H29   5872 0.06978000   1.008000   ; qtot 120.053683
 5873         c3    119    ccc    C19   5873 0.07918000  12.010000   ; qtot 120.132863
 5874         c3    119    ccc    C20   5874 0.03578000  12.010000   ; qtot 120.168643
 5875         c3    119    ccc    C21   5875 0.33498000  12.010000   ; qtot 120.503623
 5876         h1    119    ccc    H30   5876 0.06178000   1.008000   ; qtot 120.565403
 5877         h1    119    ccc    H31   5877 0.11278000   1.008000   ; qtot 120.678183
 5878         h2    119    ccc    H32   5878 0.12178000   1.008000   ; qtot 120.799963
 5879         oh    119    ccc    O10   5879 -0.56972000  16.000000   ; qtot 120.230243
 5880         oh    119    ccc    O11   5880 -0.57772000  16.000000   ; qtot 119.652523
 5881         c3    119    ccc    C22   5881 0.14548000  12.010000   ; qtot 119.798003
 5882         ho    119    ccc    H33   5882 0.40508000   1.008000   ; qtot 120.203083
 5883         hn    119    ccc    H34   5883 0.31758000   1.008000   ; qtot 120.520663
 5884         h1    119    ccc    H35   5884 0.06278000   1.008000   ; qtot 120.583443
 5885         h1    119    ccc    H36   5885 0.06278000   1.008000   ; qtot 120.646223
 5886         oh    119    ccc    O12   5886 -0.59472000  16.000000   ; qtot 120.051503
 5887         ho    119    ccc    H37   5887 0.41908000   1.008000   ; qtot 120.470583
 5888         os    119    ccc    O13   5888 -0.44552000  16.000000   ; qtot 120.025063
 5889         ho    119    ccc    H38   5889 0.41908000   1.008000   ; qtot 120.444143
 5890         h1    119    ccc    H39   5890 0.08578000   1.008000   ; qtot 120.529923
 5891         oh    119    ccc     O5   5891 -0.58672000  16.000000   ; qtot 119.943203
 5892         ho    119    ccc    H40   5892 0.41908000   1.008000   ; qtot 120.362283
 5893         n3    119    ccc     N4   5893 -0.54282000  14.010000   ; qtot 119.819463
 5894         hn    119    ccc    H41   5894 0.17125500   1.008000   ; qtot 119.990718
; residue  120 ccc rtp ccc q 1.0
 5895          n    120    ccc     N1   5895 -0.33303000  14.010000   ; qtot 119.657688
 5896         hn    120    ccc     H4   5896 0.25916100   1.008000   ; qtot 119.916849
 5897         c3    120    ccc     C3   5897 -0.03328100  12.010000   ; qtot 119.883568
 5898         h1    120    ccc     H5   5898 0.10618100   1.008000   ; qtot 119.989749
 5899         c3    120    ccc     C4   5899 -0.02083000  12.010000   ; qtot 119.968919
 5900         h1    120    ccc     H6   5900 0.10618100   1.008000   ; qtot 120.075100
 5901         h1    120    ccc     H7   5901 0.07988000   1.008000   ; qtot 120.154980
 5902         h1    120    ccc     H8   5902 0.07988000   1.008000   ; qtot 120.234860
 5903         n4    120    ccc     N2   5903 -0.02747900  14.010000   ; qtot 120.207381
 5904         c3    120    ccc     C5   5904 -0.05097600  12.010000   ; qtot 120.156405
 5905         c3    120    ccc     C6   5905 -0.05097600  12.010000   ; qtot 120.105429
 5906         h1    120    ccc     H9   5906 0.11563300   1.008000   ; qtot 120.221062
 5907         c3    120    ccc     C7   5907 -0.18457900  12.010000   ; qtot 120.036483
 5908         h1    120    ccc    H10   5908 0.11563300   1.008000   ; qtot 120.152116
 5909         hc    120    ccc    H11   5909 0.08347900   1.008000   ; qtot 120.235595
 5910         hc    120    ccc    H12   5910 0.08347900   1.008000   ; qtot 120.319074
 5911          c    120    ccc     C8   5911 0.67254400  12.010000   ; qtot 120.991618
 5912          o    120    ccc     O2   5912 -0.52917200  16.000000   ; qtot 120.462446
 5913         h1    120    ccc    H13   5913 0.11563300   1.008000   ; qtot 120.578079
 5914         h1    120    ccc    H14   5914 0.11563300   1.008000   ; qtot 120.693712
 5915         c3    120    ccc     C9   5915 -0.18457900  12.010000   ; qtot 120.509133
 5916         hc    120    ccc    H15   5916 0.08347900   1.008000   ; qtot 120.592612
 5917         hc    120    ccc    H16   5917 0.08347900   1.008000   ; qtot 120.676091
 5918          c    120    ccc    C10   5918 0.67254400  12.010000   ; qtot 121.348635
 5919          o    120    ccc     O4   5919 -0.52917200  16.000000   ; qtot 120.819463
 5920         c3    120    ccc    C11   5920 0.08518000  12.010000   ; qtot 120.904643
 5921         c3    120    ccc    C12   5921 0.07918000  12.010000   ; qtot 120.983823
 5922         h1    120    ccc    H17   5922 0.06978000   1.008000   ; qtot 121.053603
 5923         c3    120    ccc    C13   5923 0.07918000  12.010000   ; qtot 121.132783
 5924         c3    120    ccc    C14   5924 0.03578000  12.010000   ; qtot 121.168563
 5925         c3    120    ccc    C15   5925 0.33498000  12.010000   ; qtot 121.503543
 5926         h1    120    ccc    H18   5926 0.06178000   1.008000   ; qtot 121.565323
 5927         h1    120    ccc    H19   5927 0.11278000   1.008000   ; qtot 121.678103
 5928         h2    120    ccc    H20   5928 0.12178000   1.008000   ; qtot 121.799883
 5929         oh    120    ccc     O1   5929 -0.56972000  16.000000   ; qtot 121.230163
 5930         oh    120    ccc     O6   5930 -0.57772000  16.000000   ; qtot 120.652443
 5931         c3    120    ccc    C16   5931 0.14548000  12.010000   ; qtot 120.797923
 5932         ho    120    ccc    H21   5932 0.40508000   1.008000   ; qtot 121.203003
 5933         hn    120    ccc    H22   5933 0.31758000   1.008000   ; qtot 121.520583
 5934         h1    120    ccc    H23   5934 0.06278000   1.008000   ; qtot 121.583363
 5935         h1    120    ccc    H24   5935 0.06278000   1.008000   ; qtot 121.646143
 5936         oh    120    ccc     O7   5936 -0.59472000  16.000000   ; qtot 121.051423
 5937         ho    120    ccc    H25   5937 0.41908000   1.008000   ; qtot 121.470503
 5938         os    120    ccc     O8   5938 -0.44552000  16.000000   ; qtot 121.024983
 5939         ho    120    ccc    H26   5939 0.41908000   1.008000   ; qtot 121.444063
 5940         h1    120    ccc    H27   5940 0.08578000   1.008000   ; qtot 121.529843
 5941         oh    120    ccc     O9   5941 -0.58672000  16.000000   ; qtot 120.943123
 5942         ho    120    ccc    H28   5942 0.41908000   1.008000   ; qtot 121.362203
 5943         n3    120    ccc     N3   5943 -0.54282000  14.010000   ; qtot 120.819383
 5944         c3    120    ccc    C17   5944 0.08518000  12.010000   ; qtot 120.904563
 5945         c3    120    ccc    C18   5945 0.07918000  12.010000   ; qtot 120.983743
 5946         h1    120    ccc    H29   5946 0.06978000   1.008000   ; qtot 121.053523
 5947         c3    120    ccc    C19   5947 0.07918000  12.010000   ; qtot 121.132703
 5948         c3    120    ccc    C20   5948 0.03578000  12.010000   ; qtot 121.168483
 5949         c3    120    ccc    C21   5949 0.33498000  12.010000   ; qtot 121.503463
 5950         h1    120    ccc    H30   5950 0.06178000   1.008000   ; qtot 121.565243
 5951         h1    120    ccc    H31   5951 0.11278000   1.008000   ; qtot 121.678023
 5952         h2    120    ccc    H32   5952 0.12178000   1.008000   ; qtot 121.799803
 5953         oh    120    ccc    O10   5953 -0.56972000  16.000000   ; qtot 121.230083
 5954         oh    120    ccc    O11   5954 -0.57772000  16.000000   ; qtot 120.652363
 5955         c3    120    ccc    C22   5955 0.14548000  12.010000   ; qtot 120.797843
 5956         ho    120    ccc    H33   5956 0.40508000   1.008000   ; qtot 121.202923
 5957         hn    120    ccc    H34   5957 0.31758000   1.008000   ; qtot 121.520503
 5958         h1    120    ccc    H35   5958 0.06278000   1.008000   ; qtot 121.583283
 5959         h1    120    ccc    H36   5959 0.06278000   1.008000   ; qtot 121.646063
 5960         oh    120    ccc    O12   5960 -0.59472000  16.000000   ; qtot 121.051343
 5961         ho    120    ccc    H37   5961 0.41908000   1.008000   ; qtot 121.470423
 5962         os    120    ccc    O13   5962 -0.44552000  16.000000   ; qtot 121.024903
 5963         ho    120    ccc    H38   5963 0.41908000   1.008000   ; qtot 121.443983
 5964         h1    120    ccc    H39   5964 0.08578000   1.008000   ; qtot 121.529763
 5965         oh    120    ccc     O5   5965 -0.58672000  16.000000   ; qtot 120.943043
 5966         ho    120    ccc    H40   5966 0.41908000   1.008000   ; qtot 121.362123
 5967         n3    120    ccc     N4   5967 -0.54282000  14.010000   ; qtot 120.819303
 5968         hn    120    ccc    H41   5968 0.17125500   1.008000   ; qtot 120.990558
; residue  121 ccc rtp ccc q 1.0
 5969          n    121    ccc     N1   5969 -0.33303000  14.010000   ; qtot 120.657528
 5970         hn    121    ccc     H4   5970 0.25916100   1.008000   ; qtot 120.916689
 5971         c3    121    ccc     C3   5971 -0.03328100  12.010000   ; qtot 120.883408
 5972         h1    121    ccc     H5   5972 0.10618100   1.008000   ; qtot 120.989589
 5973         c3    121    ccc     C4   5973 -0.02083000  12.010000   ; qtot 120.968759
 5974         h1    121    ccc     H6   5974 0.10618100   1.008000   ; qtot 121.074940
 5975         h1    121    ccc     H7   5975 0.07988000   1.008000   ; qtot 121.154820
 5976         h1    121    ccc     H8   5976 0.07988000   1.008000   ; qtot 121.234700
 5977         n4    121    ccc     N2   5977 -0.02747900  14.010000   ; qtot 121.207221
 5978         c3    121    ccc     C5   5978 -0.05097600  12.010000   ; qtot 121.156245
 5979         c3    121    ccc     C6   5979 -0.05097600  12.010000   ; qtot 121.105269
 5980         h1    121    ccc     H9   5980 0.11563300   1.008000   ; qtot 121.220902
 5981         c3    121    ccc     C7   5981 -0.18457900  12.010000   ; qtot 121.036323
 5982         h1    121    ccc    H10   5982 0.11563300   1.008000   ; qtot 121.151956
 5983         hc    121    ccc    H11   5983 0.08347900   1.008000   ; qtot 121.235435
 5984         hc    121    ccc    H12   5984 0.08347900   1.008000   ; qtot 121.318914
 5985          c    121    ccc     C8   5985 0.67254400  12.010000   ; qtot 121.991458
 5986          o    121    ccc     O2   5986 -0.52917200  16.000000   ; qtot 121.462286
 5987         h1    121    ccc    H13   5987 0.11563300   1.008000   ; qtot 121.577919
 5988         h1    121    ccc    H14   5988 0.11563300   1.008000   ; qtot 121.693552
 5989         c3    121    ccc     C9   5989 -0.18457900  12.010000   ; qtot 121.508973
 5990         hc    121    ccc    H15   5990 0.08347900   1.008000   ; qtot 121.592452
 5991         hc    121    ccc    H16   5991 0.08347900   1.008000   ; qtot 121.675931
 5992          c    121    ccc    C10   5992 0.67254400  12.010000   ; qtot 122.348475
 5993          o    121    ccc     O4   5993 -0.52917200  16.000000   ; qtot 121.819303
 5994         c3    121    ccc    C11   5994 0.08518000  12.010000   ; qtot 121.904483
 5995         c3    121    ccc    C12   5995 0.07918000  12.010000   ; qtot 121.983663
 5996         h1    121    ccc    H17   5996 0.06978000   1.008000   ; qtot 122.053443
 5997         c3    121    ccc    C13   5997 0.07918000  12.010000   ; qtot 122.132623
 5998         c3    121    ccc    C14   5998 0.03578000  12.010000   ; qtot 122.168403
 5999         c3    121    ccc    C15   5999 0.33498000  12.010000   ; qtot 122.503383
 6000         h1    121    ccc    H18   6000 0.06178000   1.008000   ; qtot 122.565163
 6001         h1    121    ccc    H19   6001 0.11278000   1.008000   ; qtot 122.677943
 6002         h2    121    ccc    H20   6002 0.12178000   1.008000   ; qtot 122.799723
 6003         oh    121    ccc     O1   6003 -0.56972000  16.000000   ; qtot 122.230003
 6004         oh    121    ccc     O6   6004 -0.57772000  16.000000   ; qtot 121.652283
 6005         c3    121    ccc    C16   6005 0.14548000  12.010000   ; qtot 121.797763
 6006         ho    121    ccc    H21   6006 0.40508000   1.008000   ; qtot 122.202843
 6007         hn    121    ccc    H22   6007 0.31758000   1.008000   ; qtot 122.520423
 6008         h1    121    ccc    H23   6008 0.06278000   1.008000   ; qtot 122.583203
 6009         h1    121    ccc    H24   6009 0.06278000   1.008000   ; qtot 122.645983
 6010         oh    121    ccc     O7   6010 -0.59472000  16.000000   ; qtot 122.051263
 6011         ho    121    ccc    H25   6011 0.41908000   1.008000   ; qtot 122.470343
 6012         os    121    ccc     O8   6012 -0.44552000  16.000000   ; qtot 122.024823
 6013         ho    121    ccc    H26   6013 0.41908000   1.008000   ; qtot 122.443903
 6014         h1    121    ccc    H27   6014 0.08578000   1.008000   ; qtot 122.529683
 6015         oh    121    ccc     O9   6015 -0.58672000  16.000000   ; qtot 121.942963
 6016         ho    121    ccc    H28   6016 0.41908000   1.008000   ; qtot 122.362043
 6017         n3    121    ccc     N3   6017 -0.54282000  14.010000   ; qtot 121.819223
 6018         c3    121    ccc    C17   6018 0.08518000  12.010000   ; qtot 121.904403
 6019         c3    121    ccc    C18   6019 0.07918000  12.010000   ; qtot 121.983583
 6020         h1    121    ccc    H29   6020 0.06978000   1.008000   ; qtot 122.053363
 6021         c3    121    ccc    C19   6021 0.07918000  12.010000   ; qtot 122.132543
 6022         c3    121    ccc    C20   6022 0.03578000  12.010000   ; qtot 122.168323
 6023         c3    121    ccc    C21   6023 0.33498000  12.010000   ; qtot 122.503303
 6024         h1    121    ccc    H30   6024 0.06178000   1.008000   ; qtot 122.565083
 6025         h1    121    ccc    H31   6025 0.11278000   1.008000   ; qtot 122.677863
 6026         h2    121    ccc    H32   6026 0.12178000   1.008000   ; qtot 122.799643
 6027         oh    121    ccc    O10   6027 -0.56972000  16.000000   ; qtot 122.229923
 6028         oh    121    ccc    O11   6028 -0.57772000  16.000000   ; qtot 121.652203
 6029         c3    121    ccc    C22   6029 0.14548000  12.010000   ; qtot 121.797683
 6030         ho    121    ccc    H33   6030 0.40508000   1.008000   ; qtot 122.202763
 6031         hn    121    ccc    H34   6031 0.31758000   1.008000   ; qtot 122.520343
 6032         h1    121    ccc    H35   6032 0.06278000   1.008000   ; qtot 122.583123
 6033         h1    121    ccc    H36   6033 0.06278000   1.008000   ; qtot 122.645903
 6034         oh    121    ccc    O12   6034 -0.59472000  16.000000   ; qtot 122.051183
 6035         ho    121    ccc    H37   6035 0.41908000   1.008000   ; qtot 122.470263
 6036         os    121    ccc    O13   6036 -0.44552000  16.000000   ; qtot 122.024743
 6037         ho    121    ccc    H38   6037 0.41908000   1.008000   ; qtot 122.443823
 6038         h1    121    ccc    H39   6038 0.08578000   1.008000   ; qtot 122.529603
 6039         oh    121    ccc     O5   6039 -0.58672000  16.000000   ; qtot 121.942883
 6040         ho    121    ccc    H40   6040 0.41908000   1.008000   ; qtot 122.361963
 6041         n3    121    ccc     N4   6041 -0.54282000  14.010000   ; qtot 121.819143
 6042         hn    121    ccc    H41   6042 0.17125500   1.008000   ; qtot 121.990398
; residue  122 ccc rtp ccc q 1.0
 6043          n    122    ccc     N1   6043 -0.33303000  14.010000   ; qtot 121.657368
 6044         hn    122    ccc     H4   6044 0.25916100   1.008000   ; qtot 121.916529
 6045         c3    122    ccc     C3   6045 -0.03328100  12.010000   ; qtot 121.883248
 6046         h1    122    ccc     H5   6046 0.10618100   1.008000   ; qtot 121.989429
 6047         c3    122    ccc     C4   6047 -0.02083000  12.010000   ; qtot 121.968599
 6048         h1    122    ccc     H6   6048 0.10618100   1.008000   ; qtot 122.074780
 6049         h1    122    ccc     H7   6049 0.07988000   1.008000   ; qtot 122.154660
 6050         h1    122    ccc     H8   6050 0.07988000   1.008000   ; qtot 122.234540
 6051         n4    122    ccc     N2   6051 -0.02747900  14.010000   ; qtot 122.207061
 6052         c3    122    ccc     C5   6052 -0.05097600  12.010000   ; qtot 122.156085
 6053         c3    122    ccc     C6   6053 -0.05097600  12.010000   ; qtot 122.105109
 6054         h1    122    ccc     H9   6054 0.11563300   1.008000   ; qtot 122.220742
 6055         c3    122    ccc     C7   6055 -0.18457900  12.010000   ; qtot 122.036163
 6056         h1    122    ccc    H10   6056 0.11563300   1.008000   ; qtot 122.151796
 6057         hc    122    ccc    H11   6057 0.08347900   1.008000   ; qtot 122.235275
 6058         hc    122    ccc    H12   6058 0.08347900   1.008000   ; qtot 122.318754
 6059          c    122    ccc     C8   6059 0.67254400  12.010000   ; qtot 122.991298
 6060          o    122    ccc     O2   6060 -0.52917200  16.000000   ; qtot 122.462126
 6061         h1    122    ccc    H13   6061 0.11563300   1.008000   ; qtot 122.577759
 6062         h1    122    ccc    H14   6062 0.11563300   1.008000   ; qtot 122.693392
 6063         c3    122    ccc     C9   6063 -0.18457900  12.010000   ; qtot 122.508813
 6064         hc    122    ccc    H15   6064 0.08347900   1.008000   ; qtot 122.592292
 6065         hc    122    ccc    H16   6065 0.08347900   1.008000   ; qtot 122.675771
 6066          c    122    ccc    C10   6066 0.67254400  12.010000   ; qtot 123.348315
 6067          o    122    ccc     O4   6067 -0.52917200  16.000000   ; qtot 122.819143
 6068         c3    122    ccc    C11   6068 0.08518000  12.010000   ; qtot 122.904323
 6069         c3    122    ccc    C12   6069 0.07918000  12.010000   ; qtot 122.983503
 6070         h1    122    ccc    H17   6070 0.06978000   1.008000   ; qtot 123.053283
 6071         c3    122    ccc    C13   6071 0.07918000  12.010000   ; qtot 123.132463
 6072         c3    122    ccc    C14   6072 0.03578000  12.010000   ; qtot 123.168243
 6073         c3    122    ccc    C15   6073 0.33498000  12.010000   ; qtot 123.503223
 6074         h1    122    ccc    H18   6074 0.06178000   1.008000   ; qtot 123.565003
 6075         h1    122    ccc    H19   6075 0.11278000   1.008000   ; qtot 123.677783
 6076         h2    122    ccc    H20   6076 0.12178000   1.008000   ; qtot 123.799563
 6077         oh    122    ccc     O1   6077 -0.56972000  16.000000   ; qtot 123.229843
 6078         oh    122    ccc     O6   6078 -0.57772000  16.000000   ; qtot 122.652123
 6079         c3    122    ccc    C16   6079 0.14548000  12.010000   ; qtot 122.797603
 6080         ho    122    ccc    H21   6080 0.40508000   1.008000   ; qtot 123.202683
 6081         hn    122    ccc    H22   6081 0.31758000   1.008000   ; qtot 123.520263
 6082         h1    122    ccc    H23   6082 0.06278000   1.008000   ; qtot 123.583043
 6083         h1    122    ccc    H24   6083 0.06278000   1.008000   ; qtot 123.645823
 6084         oh    122    ccc     O7   6084 -0.59472000  16.000000   ; qtot 123.051103
 6085         ho    122    ccc    H25   6085 0.41908000   1.008000   ; qtot 123.470183
 6086         os    122    ccc     O8   6086 -0.44552000  16.000000   ; qtot 123.024663
 6087         ho    122    ccc    H26   6087 0.41908000   1.008000   ; qtot 123.443743
 6088         h1    122    ccc    H27   6088 0.08578000   1.008000   ; qtot 123.529523
 6089         oh    122    ccc     O9   6089 -0.58672000  16.000000   ; qtot 122.942803
 6090         ho    122    ccc    H28   6090 0.41908000   1.008000   ; qtot 123.361883
 6091         n3    122    ccc     N3   6091 -0.54282000  14.010000   ; qtot 122.819063
 6092         c3    122    ccc    C17   6092 0.08518000  12.010000   ; qtot 122.904243
 6093         c3    122    ccc    C18   6093 0.07918000  12.010000   ; qtot 122.983423
 6094         h1    122    ccc    H29   6094 0.06978000   1.008000   ; qtot 123.053203
 6095         c3    122    ccc    C19   6095 0.07918000  12.010000   ; qtot 123.132383
 6096         c3    122    ccc    C20   6096 0.03578000  12.010000   ; qtot 123.168163
 6097         c3    122    ccc    C21   6097 0.33498000  12.010000   ; qtot 123.503143
 6098         h1    122    ccc    H30   6098 0.06178000   1.008000   ; qtot 123.564923
 6099         h1    122    ccc    H31   6099 0.11278000   1.008000   ; qtot 123.677703
 6100         h2    122    ccc    H32   6100 0.12178000   1.008000   ; qtot 123.799483
 6101         oh    122    ccc    O10   6101 -0.56972000  16.000000   ; qtot 123.229763
 6102         oh    122    ccc    O11   6102 -0.57772000  16.000000   ; qtot 122.652043
 6103         c3    122    ccc    C22   6103 0.14548000  12.010000   ; qtot 122.797523
 6104         ho    122    ccc    H33   6104 0.40508000   1.008000   ; qtot 123.202603
 6105         hn    122    ccc    H34   6105 0.31758000   1.008000   ; qtot 123.520183
 6106         h1    122    ccc    H35   6106 0.06278000   1.008000   ; qtot 123.582963
 6107         h1    122    ccc    H36   6107 0.06278000   1.008000   ; qtot 123.645743
 6108         oh    122    ccc    O12   6108 -0.59472000  16.000000   ; qtot 123.051023
 6109         ho    122    ccc    H37   6109 0.41908000   1.008000   ; qtot 123.470103
 6110         os    122    ccc    O13   6110 -0.44552000  16.000000   ; qtot 123.024583
 6111         ho    122    ccc    H38   6111 0.41908000   1.008000   ; qtot 123.443663
 6112         h1    122    ccc    H39   6112 0.08578000   1.008000   ; qtot 123.529443
 6113         oh    122    ccc     O5   6113 -0.58672000  16.000000   ; qtot 122.942723
 6114         ho    122    ccc    H40   6114 0.41908000   1.008000   ; qtot 123.361803
 6115         n3    122    ccc     N4   6115 -0.54282000  14.010000   ; qtot 122.818983
 6116         hn    122    ccc    H41   6116 0.17125500   1.008000   ; qtot 122.990238
; residue  123 ccc rtp ccc q 1.0
 6117          n    123    ccc     N1   6117 -0.33303000  14.010000   ; qtot 122.657208
 6118         hn    123    ccc     H4   6118 0.25916100   1.008000   ; qtot 122.916369
 6119         c3    123    ccc     C3   6119 -0.03328100  12.010000   ; qtot 122.883088
 6120         h1    123    ccc     H5   6120 0.10618100   1.008000   ; qtot 122.989269
 6121         c3    123    ccc     C4   6121 -0.02083000  12.010000   ; qtot 122.968439
 6122         h1    123    ccc     H6   6122 0.10618100   1.008000   ; qtot 123.074620
 6123         h1    123    ccc     H7   6123 0.07988000   1.008000   ; qtot 123.154500
 6124         h1    123    ccc     H8   6124 0.07988000   1.008000   ; qtot 123.234380
 6125         n4    123    ccc     N2   6125 -0.02747900  14.010000   ; qtot 123.206901
 6126         c3    123    ccc     C5   6126 -0.05097600  12.010000   ; qtot 123.155925
 6127         c3    123    ccc     C6   6127 -0.05097600  12.010000   ; qtot 123.104949
 6128         h1    123    ccc     H9   6128 0.11563300   1.008000   ; qtot 123.220582
 6129         c3    123    ccc     C7   6129 -0.18457900  12.010000   ; qtot 123.036003
 6130         h1    123    ccc    H10   6130 0.11563300   1.008000   ; qtot 123.151636
 6131         hc    123    ccc    H11   6131 0.08347900   1.008000   ; qtot 123.235115
 6132         hc    123    ccc    H12   6132 0.08347900   1.008000   ; qtot 123.318594
 6133          c    123    ccc     C8   6133 0.67254400  12.010000   ; qtot 123.991138
 6134          o    123    ccc     O2   6134 -0.52917200  16.000000   ; qtot 123.461966
 6135         h1    123    ccc    H13   6135 0.11563300   1.008000   ; qtot 123.577599
 6136         h1    123    ccc    H14   6136 0.11563300   1.008000   ; qtot 123.693232
 6137         c3    123    ccc     C9   6137 -0.18457900  12.010000   ; qtot 123.508653
 6138         hc    123    ccc    H15   6138 0.08347900   1.008000   ; qtot 123.592132
 6139         hc    123    ccc    H16   6139 0.08347900   1.008000   ; qtot 123.675611
 6140          c    123    ccc    C10   6140 0.67254400  12.010000   ; qtot 124.348155
 6141          o    123    ccc     O4   6141 -0.52917200  16.000000   ; qtot 123.818983
 6142         c3    123    ccc    C11   6142 0.08518000  12.010000   ; qtot 123.904163
 6143         c3    123    ccc    C12   6143 0.07918000  12.010000   ; qtot 123.983343
 6144         h1    123    ccc    H17   6144 0.06978000   1.008000   ; qtot 124.053123
 6145         c3    123    ccc    C13   6145 0.07918000  12.010000   ; qtot 124.132303
 6146         c3    123    ccc    C14   6146 0.03578000  12.010000   ; qtot 124.168083
 6147         c3    123    ccc    C15   6147 0.33498000  12.010000   ; qtot 124.503063
 6148         h1    123    ccc    H18   6148 0.06178000   1.008000   ; qtot 124.564843
 6149         h1    123    ccc    H19   6149 0.11278000   1.008000   ; qtot 124.677623
 6150         h2    123    ccc    H20   6150 0.12178000   1.008000   ; qtot 124.799403
 6151         oh    123    ccc     O1   6151 -0.56972000  16.000000   ; qtot 124.229683
 6152         oh    123    ccc     O6   6152 -0.57772000  16.000000   ; qtot 123.651963
 6153         c3    123    ccc    C16   6153 0.14548000  12.010000   ; qtot 123.797443
 6154         ho    123    ccc    H21   6154 0.40508000   1.008000   ; qtot 124.202523
 6155         hn    123    ccc    H22   6155 0.31758000   1.008000   ; qtot 124.520103
 6156         h1    123    ccc    H23   6156 0.06278000   1.008000   ; qtot 124.582883
 6157         h1    123    ccc    H24   6157 0.06278000   1.008000   ; qtot 124.645663
 6158         oh    123    ccc     O7   6158 -0.59472000  16.000000   ; qtot 124.050943
 6159         ho    123    ccc    H25   6159 0.41908000   1.008000   ; qtot 124.470023
 6160         os    123    ccc     O8   6160 -0.44552000  16.000000   ; qtot 124.024503
 6161         ho    123    ccc    H26   6161 0.41908000   1.008000   ; qtot 124.443583
 6162         h1    123    ccc    H27   6162 0.08578000   1.008000   ; qtot 124.529363
 6163         oh    123    ccc     O9   6163 -0.58672000  16.000000   ; qtot 123.942643
 6164         ho    123    ccc    H28   6164 0.41908000   1.008000   ; qtot 124.361723
 6165         n3    123    ccc     N3   6165 -0.54282000  14.010000   ; qtot 123.818903
 6166         c3    123    ccc    C17   6166 0.08518000  12.010000   ; qtot 123.904083
 6167         c3    123    ccc    C18   6167 0.07918000  12.010000   ; qtot 123.983263
 6168         h1    123    ccc    H29   6168 0.06978000   1.008000   ; qtot 124.053043
 6169         c3    123    ccc    C19   6169 0.07918000  12.010000   ; qtot 124.132223
 6170         c3    123    ccc    C20   6170 0.03578000  12.010000   ; qtot 124.168003
 6171         c3    123    ccc    C21   6171 0.33498000  12.010000   ; qtot 124.502983
 6172         h1    123    ccc    H30   6172 0.06178000   1.008000   ; qtot 124.564763
 6173         h1    123    ccc    H31   6173 0.11278000   1.008000   ; qtot 124.677543
 6174         h2    123    ccc    H32   6174 0.12178000   1.008000   ; qtot 124.799323
 6175         oh    123    ccc    O10   6175 -0.56972000  16.000000   ; qtot 124.229603
 6176         oh    123    ccc    O11   6176 -0.57772000  16.000000   ; qtot 123.651883
 6177         c3    123    ccc    C22   6177 0.14548000  12.010000   ; qtot 123.797363
 6178         ho    123    ccc    H33   6178 0.40508000   1.008000   ; qtot 124.202443
 6179         hn    123    ccc    H34   6179 0.31758000   1.008000   ; qtot 124.520023
 6180         h1    123    ccc    H35   6180 0.06278000   1.008000   ; qtot 124.582803
 6181         h1    123    ccc    H36   6181 0.06278000   1.008000   ; qtot 124.645583
 6182         oh    123    ccc    O12   6182 -0.59472000  16.000000   ; qtot 124.050863
 6183         ho    123    ccc    H37   6183 0.41908000   1.008000   ; qtot 124.469943
 6184         os    123    ccc    O13   6184 -0.44552000  16.000000   ; qtot 124.024423
 6185         ho    123    ccc    H38   6185 0.41908000   1.008000   ; qtot 124.443503
 6186         h1    123    ccc    H39   6186 0.08578000   1.008000   ; qtot 124.529283
 6187         oh    123    ccc     O5   6187 -0.58672000  16.000000   ; qtot 123.942563
 6188         ho    123    ccc    H40   6188 0.41908000   1.008000   ; qtot 124.361643
 6189         n3    123    ccc     N4   6189 -0.54282000  14.010000   ; qtot 123.818823
 6190         hn    123    ccc    H41   6190 0.17125500   1.008000   ; qtot 123.990078
; residue  124 ccc rtp ccc q 1.0
 6191          n    124    ccc     N1   6191 -0.33303000  14.010000   ; qtot 123.657048
 6192         hn    124    ccc     H4   6192 0.25916100   1.008000   ; qtot 123.916209
 6193         c3    124    ccc     C3   6193 -0.03328100  12.010000   ; qtot 123.882928
 6194         h1    124    ccc     H5   6194 0.10618100   1.008000   ; qtot 123.989109
 6195         c3    124    ccc     C4   6195 -0.02083000  12.010000   ; qtot 123.968279
 6196         h1    124    ccc     H6   6196 0.10618100   1.008000   ; qtot 124.074460
 6197         h1    124    ccc     H7   6197 0.07988000   1.008000   ; qtot 124.154340
 6198         h1    124    ccc     H8   6198 0.07988000   1.008000   ; qtot 124.234220
 6199         n4    124    ccc     N2   6199 -0.02747900  14.010000   ; qtot 124.206741
 6200         c3    124    ccc     C5   6200 -0.05097600  12.010000   ; qtot 124.155765
 6201         c3    124    ccc     C6   6201 -0.05097600  12.010000   ; qtot 124.104789
 6202         h1    124    ccc     H9   6202 0.11563300   1.008000   ; qtot 124.220422
 6203         c3    124    ccc     C7   6203 -0.18457900  12.010000   ; qtot 124.035843
 6204         h1    124    ccc    H10   6204 0.11563300   1.008000   ; qtot 124.151476
 6205         hc    124    ccc    H11   6205 0.08347900   1.008000   ; qtot 124.234955
 6206         hc    124    ccc    H12   6206 0.08347900   1.008000   ; qtot 124.318434
 6207          c    124    ccc     C8   6207 0.67254400  12.010000   ; qtot 124.990978
 6208          o    124    ccc     O2   6208 -0.52917200  16.000000   ; qtot 124.461806
 6209         h1    124    ccc    H13   6209 0.11563300   1.008000   ; qtot 124.577439
 6210         h1    124    ccc    H14   6210 0.11563300   1.008000   ; qtot 124.693072
 6211         c3    124    ccc     C9   6211 -0.18457900  12.010000   ; qtot 124.508493
 6212         hc    124    ccc    H15   6212 0.08347900   1.008000   ; qtot 124.591972
 6213         hc    124    ccc    H16   6213 0.08347900   1.008000   ; qtot 124.675451
 6214          c    124    ccc    C10   6214 0.67254400  12.010000   ; qtot 125.347995
 6215          o    124    ccc     O4   6215 -0.52917200  16.000000   ; qtot 124.818823
 6216         c3    124    ccc    C11   6216 0.08518000  12.010000   ; qtot 124.904003
 6217         c3    124    ccc    C12   6217 0.07918000  12.010000   ; qtot 124.983183
 6218         h1    124    ccc    H17   6218 0.06978000   1.008000   ; qtot 125.052963
 6219         c3    124    ccc    C13   6219 0.07918000  12.010000   ; qtot 125.132143
 6220         c3    124    ccc    C14   6220 0.03578000  12.010000   ; qtot 125.167923
 6221         c3    124    ccc    C15   6221 0.33498000  12.010000   ; qtot 125.502903
 6222         h1    124    ccc    H18   6222 0.06178000   1.008000   ; qtot 125.564683
 6223         h1    124    ccc    H19   6223 0.11278000   1.008000   ; qtot 125.677463
 6224         h2    124    ccc    H20   6224 0.12178000   1.008000   ; qtot 125.799243
 6225         oh    124    ccc     O1   6225 -0.56972000  16.000000   ; qtot 125.229523
 6226         oh    124    ccc     O6   6226 -0.57772000  16.000000   ; qtot 124.651803
 6227         c3    124    ccc    C16   6227 0.14548000  12.010000   ; qtot 124.797283
 6228         ho    124    ccc    H21   6228 0.40508000   1.008000   ; qtot 125.202363
 6229         hn    124    ccc    H22   6229 0.31758000   1.008000   ; qtot 125.519943
 6230         h1    124    ccc    H23   6230 0.06278000   1.008000   ; qtot 125.582723
 6231         h1    124    ccc    H24   6231 0.06278000   1.008000   ; qtot 125.645503
 6232         oh    124    ccc     O7   6232 -0.59472000  16.000000   ; qtot 125.050783
 6233         ho    124    ccc    H25   6233 0.41908000   1.008000   ; qtot 125.469863
 6234         os    124    ccc     O8   6234 -0.44552000  16.000000   ; qtot 125.024343
 6235         ho    124    ccc    H26   6235 0.41908000   1.008000   ; qtot 125.443423
 6236         h1    124    ccc    H27   6236 0.08578000   1.008000   ; qtot 125.529203
 6237         oh    124    ccc     O9   6237 -0.58672000  16.000000   ; qtot 124.942483
 6238         ho    124    ccc    H28   6238 0.41908000   1.008000   ; qtot 125.361563
 6239         n3    124    ccc     N3   6239 -0.54282000  14.010000   ; qtot 124.818743
 6240         c3    124    ccc    C17   6240 0.08518000  12.010000   ; qtot 124.903923
 6241         c3    124    ccc    C18   6241 0.07918000  12.010000   ; qtot 124.983103
 6242         h1    124    ccc    H29   6242 0.06978000   1.008000   ; qtot 125.052883
 6243         c3    124    ccc    C19   6243 0.07918000  12.010000   ; qtot 125.132063
 6244         c3    124    ccc    C20   6244 0.03578000  12.010000   ; qtot 125.167843
 6245         c3    124    ccc    C21   6245 0.33498000  12.010000   ; qtot 125.502823
 6246         h1    124    ccc    H30   6246 0.06178000   1.008000   ; qtot 125.564603
 6247         h1    124    ccc    H31   6247 0.11278000   1.008000   ; qtot 125.677383
 6248         h2    124    ccc    H32   6248 0.12178000   1.008000   ; qtot 125.799163
 6249         oh    124    ccc    O10   6249 -0.56972000  16.000000   ; qtot 125.229443
 6250         oh    124    ccc    O11   6250 -0.57772000  16.000000   ; qtot 124.651723
 6251         c3    124    ccc    C22   6251 0.14548000  12.010000   ; qtot 124.797203
 6252         ho    124    ccc    H33   6252 0.40508000   1.008000   ; qtot 125.202283
 6253         hn    124    ccc    H34   6253 0.31758000   1.008000   ; qtot 125.519863
 6254         h1    124    ccc    H35   6254 0.06278000   1.008000   ; qtot 125.582643
 6255         h1    124    ccc    H36   6255 0.06278000   1.008000   ; qtot 125.645423
 6256         oh    124    ccc    O12   6256 -0.59472000  16.000000   ; qtot 125.050703
 6257         ho    124    ccc    H37   6257 0.41908000   1.008000   ; qtot 125.469783
 6258         os    124    ccc    O13   6258 -0.44552000  16.000000   ; qtot 125.024263
 6259         ho    124    ccc    H38   6259 0.41908000   1.008000   ; qtot 125.443343
 6260         h1    124    ccc    H39   6260 0.08578000   1.008000   ; qtot 125.529123
 6261         oh    124    ccc     O5   6261 -0.58672000  16.000000   ; qtot 124.942403
 6262         ho    124    ccc    H40   6262 0.41908000   1.008000   ; qtot 125.361483
 6263         n3    124    ccc     N4   6263 -0.54282000  14.010000   ; qtot 124.818663
 6264         hn    124    ccc    H41   6264 0.17125500   1.008000   ; qtot 124.989918
; residue  125 ccc rtp ccc q 1.0
 6265          n    125    ccc     N1   6265 -0.33303000  14.010000   ; qtot 124.656888
 6266         hn    125    ccc     H4   6266 0.25916100   1.008000   ; qtot 124.916049
 6267         c3    125    ccc     C3   6267 -0.03328100  12.010000   ; qtot 124.882768
 6268         h1    125    ccc     H5   6268 0.10618100   1.008000   ; qtot 124.988949
 6269         c3    125    ccc     C4   6269 -0.02083000  12.010000   ; qtot 124.968119
 6270         h1    125    ccc     H6   6270 0.10618100   1.008000   ; qtot 125.074300
 6271         h1    125    ccc     H7   6271 0.07988000   1.008000   ; qtot 125.154180
 6272         h1    125    ccc     H8   6272 0.07988000   1.008000   ; qtot 125.234060
 6273         n4    125    ccc     N2   6273 -0.02747900  14.010000   ; qtot 125.206581
 6274         c3    125    ccc     C5   6274 -0.05097600  12.010000   ; qtot 125.155605
 6275         c3    125    ccc     C6   6275 -0.05097600  12.010000   ; qtot 125.104629
 6276         h1    125    ccc     H9   6276 0.11563300   1.008000   ; qtot 125.220262
 6277         c3    125    ccc     C7   6277 -0.18457900  12.010000   ; qtot 125.035683
 6278         h1    125    ccc    H10   6278 0.11563300   1.008000   ; qtot 125.151316
 6279         hc    125    ccc    H11   6279 0.08347900   1.008000   ; qtot 125.234795
 6280         hc    125    ccc    H12   6280 0.08347900   1.008000   ; qtot 125.318274
 6281          c    125    ccc     C8   6281 0.67254400  12.010000   ; qtot 125.990818
 6282          o    125    ccc     O2   6282 -0.52917200  16.000000   ; qtot 125.461646
 6283         h1    125    ccc    H13   6283 0.11563300   1.008000   ; qtot 125.577279
 6284         h1    125    ccc    H14   6284 0.11563300   1.008000   ; qtot 125.692912
 6285         c3    125    ccc     C9   6285 -0.18457900  12.010000   ; qtot 125.508333
 6286         hc    125    ccc    H15   6286 0.08347900   1.008000   ; qtot 125.591812
 6287         hc    125    ccc    H16   6287 0.08347900   1.008000   ; qtot 125.675291
 6288          c    125    ccc    C10   6288 0.67254400  12.010000   ; qtot 126.347835
 6289          o    125    ccc     O4   6289 -0.52917200  16.000000   ; qtot 125.818663
 6290         c3    125    ccc    C11   6290 0.08518000  12.010000   ; qtot 125.903843
 6291         c3    125    ccc    C12   6291 0.07918000  12.010000   ; qtot 125.983023
 6292         h1    125    ccc    H17   6292 0.06978000   1.008000   ; qtot 126.052803
 6293         c3    125    ccc    C13   6293 0.07918000  12.010000   ; qtot 126.131983
 6294         c3    125    ccc    C14   6294 0.03578000  12.010000   ; qtot 126.167763
 6295         c3    125    ccc    C15   6295 0.33498000  12.010000   ; qtot 126.502743
 6296         h1    125    ccc    H18   6296 0.06178000   1.008000   ; qtot 126.564523
 6297         h1    125    ccc    H19   6297 0.11278000   1.008000   ; qtot 126.677303
 6298         h2    125    ccc    H20   6298 0.12178000   1.008000   ; qtot 126.799083
 6299         oh    125    ccc     O1   6299 -0.56972000  16.000000   ; qtot 126.229363
 6300         oh    125    ccc     O6   6300 -0.57772000  16.000000   ; qtot 125.651643
 6301         c3    125    ccc    C16   6301 0.14548000  12.010000   ; qtot 125.797123
 6302         ho    125    ccc    H21   6302 0.40508000   1.008000   ; qtot 126.202203
 6303         hn    125    ccc    H22   6303 0.31758000   1.008000   ; qtot 126.519783
 6304         h1    125    ccc    H23   6304 0.06278000   1.008000   ; qtot 126.582563
 6305         h1    125    ccc    H24   6305 0.06278000   1.008000   ; qtot 126.645343
 6306         oh    125    ccc     O7   6306 -0.59472000  16.000000   ; qtot 126.050623
 6307         ho    125    ccc    H25   6307 0.41908000   1.008000   ; qtot 126.469703
 6308         os    125    ccc     O8   6308 -0.44552000  16.000000   ; qtot 126.024183
 6309         ho    125    ccc    H26   6309 0.41908000   1.008000   ; qtot 126.443263
 6310         h1    125    ccc    H27   6310 0.08578000   1.008000   ; qtot 126.529043
 6311         oh    125    ccc     O9   6311 -0.58672000  16.000000   ; qtot 125.942323
 6312         ho    125    ccc    H28   6312 0.41908000   1.008000   ; qtot 126.361403
 6313         n3    125    ccc     N3   6313 -0.54282000  14.010000   ; qtot 125.818583
 6314         c3    125    ccc    C17   6314 0.08518000  12.010000   ; qtot 125.903763
 6315         c3    125    ccc    C18   6315 0.07918000  12.010000   ; qtot 125.982943
 6316         h1    125    ccc    H29   6316 0.06978000   1.008000   ; qtot 126.052723
 6317         c3    125    ccc    C19   6317 0.07918000  12.010000   ; qtot 126.131903
 6318         c3    125    ccc    C20   6318 0.03578000  12.010000   ; qtot 126.167683
 6319         c3    125    ccc    C21   6319 0.33498000  12.010000   ; qtot 126.502663
 6320         h1    125    ccc    H30   6320 0.06178000   1.008000   ; qtot 126.564443
 6321         h1    125    ccc    H31   6321 0.11278000   1.008000   ; qtot 126.677223
 6322         h2    125    ccc    H32   6322 0.12178000   1.008000   ; qtot 126.799003
 6323         oh    125    ccc    O10   6323 -0.56972000  16.000000   ; qtot 126.229283
 6324         oh    125    ccc    O11   6324 -0.57772000  16.000000   ; qtot 125.651563
 6325         c3    125    ccc    C22   6325 0.14548000  12.010000   ; qtot 125.797043
 6326         ho    125    ccc    H33   6326 0.40508000   1.008000   ; qtot 126.202123
 6327         hn    125    ccc    H34   6327 0.31758000   1.008000   ; qtot 126.519703
 6328         h1    125    ccc    H35   6328 0.06278000   1.008000   ; qtot 126.582483
 6329         h1    125    ccc    H36   6329 0.06278000   1.008000   ; qtot 126.645263
 6330         oh    125    ccc    O12   6330 -0.59472000  16.000000   ; qtot 126.050543
 6331         ho    125    ccc    H37   6331 0.41908000   1.008000   ; qtot 126.469623
 6332         os    125    ccc    O13   6332 -0.44552000  16.000000   ; qtot 126.024103
 6333         ho    125    ccc    H38   6333 0.41908000   1.008000   ; qtot 126.443183
 6334         h1    125    ccc    H39   6334 0.08578000   1.008000   ; qtot 126.528963
 6335         oh    125    ccc     O5   6335 -0.58672000  16.000000   ; qtot 125.942243
 6336         ho    125    ccc    H40   6336 0.41908000   1.008000   ; qtot 126.361323
 6337         n3    125    ccc     N4   6337 -0.54282000  14.010000   ; qtot 125.818503
 6338         hn    125    ccc    H41   6338 0.17125500   1.008000   ; qtot 125.989758

[ bonds ]
;    ai     aj funct         c0         c1         c2         c3
      1      2     1   0.15110 237065.440000
      1      7     1   0.15110 237065.440000
      1      8     1   0.15110 237065.440000
      2      3     1   0.15375 251793.120000
      3      4     1   0.15110 237065.440000
      4      5     1   0.15110 237065.440000
      4      6     1   0.15110 237065.440000
      5     11     1   0.15375 251793.120000
      6      9     1   0.15375 251793.120000
      7     13     1   0.15375 251793.120000
      8     15     1   0.15375 251793.120000
      9     10     1   0.15241 261918.400000
     10     18     1   0.12183 533627.360000
     10     52     1   0.13789 357815.680000
     11     12     1   0.15241 261918.400000
     12     17     1   0.12183 533627.360000
     12     78     1   0.13789 357815.680000
     13     14     1   0.15241 261918.400000
     14     20     1   0.12183 533627.360000
     14    104     1   0.13789 357815.680000
     15     16     1   0.15241 261918.400000
     16     19     1   0.12183 533627.360000
     16    130     1   0.13789 357815.680000
     43     44     1   0.15110 237065.440000
     43     45     1   0.15110 237065.440000
     43     50     1   0.15110 237065.440000
     44     46     1   0.15375 251793.120000
     45     48     1   0.15375 251793.120000
     46     47     1   0.15241 261918.400000
     47     53     1   0.12183 533627.360000
     47    156     1   0.13789 357815.680000
     48     49     1   0.15241 261918.400000
     49     54     1   0.12183 533627.360000
     49    182     1   0.13789 357815.680000
     50     51     1   0.15375 251793.120000
     51     52     1   0.14619 275056.160000
     69     70     1   0.15110 237065.440000
     69     71     1   0.15110 237065.440000
     69     76     1   0.15110 237065.440000
     70     72     1   0.15375 251793.120000
     71     74     1   0.15375 251793.120000
     72     73     1   0.15241 261918.400000
     73     79     1   0.12183 533627.360000
     73    208     1   0.13789 357815.680000
     74     75     1   0.15241 261918.400000
     75     80     1   0.12183 533627.360000
     75    234     1   0.13789 357815.680000
     76     77     1   0.15375 251793.120000
     77     78     1   0.14619 275056.160000
     95     96     1   0.15110 237065.440000
     95     97     1   0.15110 237065.440000
     95    102     1   0.15110 237065.440000
     96     98     1   0.15375 251793.120000
     97    100     1   0.15375 251793.120000
     98     99     1   0.15241 261918.400000
     99    105     1   0.12183 533627.360000
     99    260     1   0.13789 357815.680000
    100    101     1   0.15241 261918.400000
    101    106     1   0.12183 533627.360000
    101    286     1   0.13789 357815.680000
    102    103     1   0.15375 251793.120000
    103    104     1   0.14619 275056.160000
    121    122     1   0.15110 237065.440000
    121    123     1   0.15110 237065.440000
    121    128     1   0.15110 237065.440000
    122    124     1   0.15375 251793.120000
    123    126     1   0.15375 251793.120000
    124    125     1   0.15241 261918.400000
    125    131     1   0.12183 533627.360000
    125    312     1   0.13789 357815.680000
    126    127     1   0.15241 261918.400000
    127    132     1   0.12183 533627.360000
    127    338     1   0.13789 357815.680000
    128    129     1   0.15375 251793.120000
    129    130     1   0.14619 275056.160000
    147    148     1   0.15110 237065.440000
    147    149     1   0.15110 237065.440000
    147    154     1   0.15110 237065.440000
    148    150     1   0.15375 251793.120000
    149    152     1   0.15375 251793.120000
    150    151     1   0.15241 261918.400000
    151    157     1   0.12183 533627.360000
    151    364     1   0.13789 357815.680000
    152    153     1   0.15241 261918.400000
    153    158     1   0.12183 533627.360000
    153    390     1   0.13789 357815.680000
    154    155     1   0.15375 251793.120000
    155    156     1   0.14619 275056.160000
    173    174     1   0.15110 237065.440000
    173    175     1   0.15110 237065.440000
    173    180     1   0.15110 237065.440000
    174    176     1   0.15375 251793.120000
    175    178     1   0.15375 251793.120000
    176    177     1   0.15241 261918.400000
    177    183     1   0.12183 533627.360000
    177    416     1   0.13789 357815.680000
    178    179     1   0.15241 261918.400000
    179    184     1   0.12183 533627.360000
    179    442     1   0.13789 357815.680000
    180    181     1   0.15375 251793.120000
    181    182     1   0.14619 275056.160000
    199    200     1   0.15110 237065.440000
    199    201     1   0.15110 237065.440000
    199    206     1   0.15110 237065.440000
    200    202     1   0.15375 251793.120000
    201    204     1   0.15375 251793.120000
    202    203     1   0.15241 261918.400000
    203    209     1   0.12183 533627.360000
    203    468     1   0.13789 357815.680000
    204    205     1   0.15241 261918.400000
    205    210     1   0.12183 533627.360000
    205    494     1   0.13789 357815.680000
    206    207     1   0.15375 251793.120000
    207    208     1   0.14619 275056.160000
    225    226     1   0.15110 237065.440000
    225    227     1   0.15110 237065.440000
    225    232     1   0.15110 237065.440000
    226    228     1   0.15375 251793.120000
    227    230     1   0.15375 251793.120000
    228    229     1   0.15241 261918.400000
    229    235     1   0.12183 533627.360000
    229    520     1   0.13789 357815.680000
    230    231     1   0.15241 261918.400000
    231    236     1   0.12183 533627.360000
    231    546     1   0.13789 357815.680000
    232    233     1   0.15375 251793.120000
    233    234     1   0.14619 275056.160000
    251    252     1   0.15110 237065.440000
    251    253     1   0.15110 237065.440000
    251    258     1   0.15110 237065.440000
    252    254     1   0.15375 251793.120000
    253    256     1   0.15375 251793.120000
    254    255     1   0.15241 261918.400000
    255    261     1   0.12183 533627.360000
    255    572     1   0.13789 357815.680000
    256    257     1   0.15241 261918.400000
    257    262     1   0.12183 533627.360000
    257    598     1   0.13789 357815.680000
    258    259     1   0.15375 251793.120000
    259    260     1   0.14619 275056.160000
    277    278     1   0.15110 237065.440000
    277    279     1   0.15110 237065.440000
    277    284     1   0.15110 237065.440000
    278    280     1   0.15375 251793.120000
    279    282     1   0.15375 251793.120000
    280    281     1   0.15241 261918.400000
    281    287     1   0.12183 533627.360000
    281    624     1   0.13789 357815.680000
    282    283     1   0.15241 261918.400000
    283    288     1   0.12183 533627.360000
    283    650     1   0.13789 357815.680000
    284    285     1   0.15375 251793.120000
    285    286     1   0.14619 275056.160000
    303    304     1   0.15110 237065.440000
    303    305     1   0.15110 237065.440000
    303    310     1   0.15110 237065.440000
    304    306     1   0.15375 251793.120000
    305    308     1   0.15375 251793.120000
    306    307     1   0.15241 261918.400000
    307    313     1   0.12183 533627.360000
    307    676     1   0.13789 357815.680000
    308    309     1   0.15241 261918.400000
    309    314     1   0.12183 533627.360000
    309    702     1   0.13789 357815.680000
    310    311     1   0.15375 251793.120000
    311    312     1   0.14619 275056.160000
    329    330     1   0.15110 237065.440000
    329    331     1   0.15110 237065.440000
    329    336     1   0.15110 237065.440000
    330    332     1   0.15375 251793.120000
    331    334     1   0.15375 251793.120000
    332    333     1   0.15241 261918.400000
    333    339     1   0.12183 533627.360000
    333    728     1   0.13789 357815.680000
    334    335     1   0.15241 261918.400000
    335    340     1   0.12183 533627.360000
    335    754     1   0.13789 357815.680000
    336    337     1   0.15375 251793.120000
    337    338     1   0.14619 275056.160000
    355    356     1   0.15110 237065.440000
    355    357     1   0.15110 237065.440000
    355    362     1   0.15110 237065.440000
    356    358     1   0.15375 251793.120000
    357    360     1   0.15375 251793.120000
    358    359     1   0.15241 261918.400000
    359    365     1   0.12183 533627.360000
    359    780     1   0.13789 357815.680000
    360    361     1   0.15241 261918.400000
    361    366     1   0.12183 533627.360000
    361    806     1   0.13789 357815.680000
    362    363     1   0.15375 251793.120000
    363    364     1   0.14619 275056.160000
    381    382     1   0.15110 237065.440000
    381    383     1   0.15110 237065.440000
    381    388     1   0.15110 237065.440000
    382    384     1   0.15375 251793.120000
    383    386     1   0.15375 251793.120000
    384    385     1   0.15241 261918.400000
    385    391     1   0.12183 533627.360000
    385    832     1   0.13789 357815.680000
    386    387     1   0.15241 261918.400000
    387    392     1   0.12183 533627.360000
    387    858     1   0.13789 357815.680000
    388    389     1   0.15375 251793.120000
    389    390     1   0.14619 275056.160000
    407    408     1   0.15110 237065.440000
    407    409     1   0.15110 237065.440000
    407    414     1   0.15110 237065.440000
    408    410     1   0.15375 251793.120000
    409    412     1   0.15375 251793.120000
    410    411     1   0.15241 261918.400000
    411    417     1   0.12183 533627.360000
    411    884     1   0.13789 357815.680000
    412    413     1   0.15241 261918.400000
    413    418     1   0.12183 533627.360000
    413    910     1   0.13789 357815.680000
    414    415     1   0.15375 251793.120000
    415    416     1   0.14619 275056.160000
    433    434     1   0.15110 237065.440000
    433    435     1   0.15110 237065.440000
    433    440     1   0.15110 237065.440000
    434    436     1   0.15375 251793.120000
    435    438     1   0.15375 251793.120000
    436    437     1   0.15241 261918.400000
    437    443     1   0.12183 533627.360000
    437    936     1   0.13789 357815.680000
    438    439     1   0.15241 261918.400000
    439    444     1   0.12183 533627.360000
    439    962     1   0.13789 357815.680000
    440    441     1   0.15375 251793.120000
    441    442     1   0.14619 275056.160000
    459    460     1   0.15110 237065.440000
    459    461     1   0.15110 237065.440000
    459    466     1   0.15110 237065.440000
    460    462     1   0.15375 251793.120000
    461    464     1   0.15375 251793.120000
    462    463     1   0.15241 261918.400000
    463    469     1   0.12183 533627.360000
    463    988     1   0.13789 357815.680000
    464    465     1   0.15241 261918.400000
    465    470     1   0.12183 533627.360000
    465   1014     1   0.13789 357815.680000
    466    467     1   0.15375 251793.120000
    467    468     1   0.14619 275056.160000
    485    486     1   0.15110 237065.440000
    485    487     1   0.15110 237065.440000
    485    492     1   0.15110 237065.440000
    486    488     1   0.15375 251793.120000
    487    490     1   0.15375 251793.120000
    488    489     1   0.15241 261918.400000
    489    495     1   0.12183 533627.360000
    489   1040     1   0.13789 357815.680000
    490    491     1   0.15241 261918.400000
    491    496     1   0.12183 533627.360000
    491   1066     1   0.13789 357815.680000
    492    493     1   0.15375 251793.120000
    493    494     1   0.14619 275056.160000
    511    512     1   0.15110 237065.440000
    511    513     1   0.15110 237065.440000
    511    518     1   0.15110 237065.440000
    512    514     1   0.15375 251793.120000
    513    516     1   0.15375 251793.120000
    514    515     1   0.15241 261918.400000
    515    521     1   0.12183 533627.360000
    515   1092     1   0.13789 357815.680000
    516    517     1   0.15241 261918.400000
    517    522     1   0.12183 533627.360000
    517   1118     1   0.13789 357815.680000
    518    519     1   0.15375 251793.120000
    519    520     1   0.14619 275056.160000
    537    538     1   0.15110 237065.440000
    537    539     1   0.15110 237065.440000
    537    544     1   0.15110 237065.440000
    538    540     1   0.15375 251793.120000
    539    542     1   0.15375 251793.120000
    540    541     1   0.15241 261918.400000
    541    547     1   0.12183 533627.360000
    541   1144     1   0.13789 357815.680000
    542    543     1   0.15241 261918.400000
    543    548     1   0.12183 533627.360000
    543   1170     1   0.13789 357815.680000
    544    545     1   0.15375 251793.120000
    545    546     1   0.14619 275056.160000
    563    564     1   0.15110 237065.440000
    563    565     1   0.15110 237065.440000
    563    570     1   0.15110 237065.440000
    564    566     1   0.15375 251793.120000
    565    568     1   0.15375 251793.120000
    566    567     1   0.15241 261918.400000
    567    573     1   0.12183 533627.360000
    567   1196     1   0.13789 357815.680000
    568    569     1   0.15241 261918.400000
    569    574     1   0.12183 533627.360000
    569   1222     1   0.13789 357815.680000
    570    571     1   0.15375 251793.120000
    571    572     1   0.14619 275056.160000
    589    590     1   0.15110 237065.440000
    589    591     1   0.15110 237065.440000
    589    596     1   0.15110 237065.440000
    590    592     1   0.15375 251793.120000
    591    594     1   0.15375 251793.120000
    592    593     1   0.15241 261918.400000
    593    599     1   0.12183 533627.360000
    593   1248     1   0.13789 357815.680000
    594    595     1   0.15241 261918.400000
    595    600     1   0.12183 533627.360000
    595   1274     1   0.13789 357815.680000
    596    597     1   0.15375 251793.120000
    597    598     1   0.14619 275056.160000
    615    616     1   0.15110 237065.440000
    615    617     1   0.15110 237065.440000
    615    622     1   0.15110 237065.440000
    616    618     1   0.15375 251793.120000
    617    620     1   0.15375 251793.120000
    618    619     1   0.15241 261918.400000
    619    625     1   0.12183 533627.360000
    619   1300     1   0.13789 357815.680000
    620    621     1   0.15241 261918.400000
    621    626     1   0.12183 533627.360000
    621   1326     1   0.13789 357815.680000
    622    623     1   0.15375 251793.120000
    623    624     1   0.14619 275056.160000
    641    642     1   0.15110 237065.440000
    641    643     1   0.15110 237065.440000
    641    648     1   0.15110 237065.440000
    642    644     1   0.15375 251793.120000
    643    646     1   0.15375 251793.120000
    644    645     1   0.15241 261918.400000
    645    651     1   0.12183 533627.360000
    645   1352     1   0.13789 357815.680000
    646    647     1   0.15241 261918.400000
    647    652     1   0.12183 533627.360000
    647   1378     1   0.13789 357815.680000
    648    649     1   0.15375 251793.120000
    649    650     1   0.14619 275056.160000
    667    668     1   0.15110 237065.440000
    667    669     1   0.15110 237065.440000
    667    674     1   0.15110 237065.440000
    668    670     1   0.15375 251793.120000
    669    672     1   0.15375 251793.120000
    670    671     1   0.15241 261918.400000
    671    677     1   0.12183 533627.360000
    671   1404     1   0.13789 357815.680000
    672    673     1   0.15241 261918.400000
    673    678     1   0.12183 533627.360000
    673   1430     1   0.13789 357815.680000
    674    675     1   0.15375 251793.120000
    675    676     1   0.14619 275056.160000
    693    694     1   0.15110 237065.440000
    693    695     1   0.15110 237065.440000
    693    700     1   0.15110 237065.440000
    694    696     1   0.15375 251793.120000
    695    698     1   0.15375 251793.120000
    696    697     1   0.15241 261918.400000
    697    703     1   0.12183 533627.360000
    697   1456     1   0.13789 357815.680000
    698    699     1   0.15241 261918.400000
    699    704     1   0.12183 533627.360000
    699   1482     1   0.13789 357815.680000
    700    701     1   0.15375 251793.120000
    701    702     1   0.14619 275056.160000
    719    720     1   0.15110 237065.440000
    719    721     1   0.15110 237065.440000
    719    726     1   0.15110 237065.440000
    720    722     1   0.15375 251793.120000
    721    724     1   0.15375 251793.120000
    722    723     1   0.15241 261918.400000
    723    729     1   0.12183 533627.360000
    723   1508     1   0.13789 357815.680000
    724    725     1   0.15241 261918.400000
    725    730     1   0.12183 533627.360000
    725   1534     1   0.13789 357815.680000
    726    727     1   0.15375 251793.120000
    727    728     1   0.14619 275056.160000
    745    746     1   0.15110 237065.440000
    745    747     1   0.15110 237065.440000
    745    752     1   0.15110 237065.440000
    746    748     1   0.15375 251793.120000
    747    750     1   0.15375 251793.120000
    748    749     1   0.15241 261918.400000
    749    755     1   0.12183 533627.360000
    749   1560     1   0.13789 357815.680000
    750    751     1   0.15241 261918.400000
    751    756     1   0.12183 533627.360000
    751   1586     1   0.13789 357815.680000
    752    753     1   0.15375 251793.120000
    753    754     1   0.14619 275056.160000
    771    772     1   0.15110 237065.440000
    771    773     1   0.15110 237065.440000
    771    778     1   0.15110 237065.440000
    772    774     1   0.15375 251793.120000
    773    776     1   0.15375 251793.120000
    774    775     1   0.15241 261918.400000
    775   1603     1   0.13789 357815.680000
    775    781     1   0.12183 533627.360000
    776    777     1   0.15241 261918.400000
    777    782     1   0.12183 533627.360000
    777   1677     1   0.13789 357815.680000
    778    779     1   0.15375 251793.120000
    779    780     1   0.14619 275056.160000
    797    798     1   0.15110 237065.440000
    797    799     1   0.15110 237065.440000
    797    804     1   0.15110 237065.440000
    798    800     1   0.15375 251793.120000
    799    802     1   0.15375 251793.120000
    800    801     1   0.15241 261918.400000
    801   1751     1   0.13789 357815.680000
    801    807     1   0.12183 533627.360000
    802    803     1   0.15241 261918.400000
    803    808     1   0.12183 533627.360000
    803   1825     1   0.13789 357815.680000
    804    805     1   0.15375 251793.120000
    805    806     1   0.14619 275056.160000
    823    824     1   0.15110 237065.440000
    823    825     1   0.15110 237065.440000
    823    830     1   0.15110 237065.440000
    824    826     1   0.15375 251793.120000
    825    828     1   0.15375 251793.120000
    826    827     1   0.15241 261918.400000
    827   1899     1   0.13789 357815.680000
    827    833     1   0.12183 533627.360000
    828    829     1   0.15241 261918.400000
    829    834     1   0.12183 533627.360000
    829   1973     1   0.13789 357815.680000
    830    831     1   0.15375 251793.120000
    831    832     1   0.14619 275056.160000
    849    850     1   0.15110 237065.440000
    849    851     1   0.15110 237065.440000
    849    856     1   0.15110 237065.440000
    850    852     1   0.15375 251793.120000
    851    854     1   0.15375 251793.120000
    852    853     1   0.15241 261918.400000
    853   2047     1   0.13789 357815.680000
    853    859     1   0.12183 533627.360000
    854    855     1   0.15241 261918.400000
    855    860     1   0.12183 533627.360000
    855   2121     1   0.13789 357815.680000
    856    857     1   0.15375 251793.120000
    857    858     1   0.14619 275056.160000
    875    876     1   0.15110 237065.440000
    875    877     1   0.15110 237065.440000
    875    882     1   0.15110 237065.440000
    876    878     1   0.15375 251793.120000
    877    880     1   0.15375 251793.120000
    878    879     1   0.15241 261918.400000
    879   2195     1   0.13789 357815.680000
    879    885     1   0.12183 533627.360000
    880    881     1   0.15241 261918.400000
    881    886     1   0.12183 533627.360000
    881   2269     1   0.13789 357815.680000
    882    883     1   0.15375 251793.120000
    883    884     1   0.14619 275056.160000
    901    902     1   0.15110 237065.440000
    901    903     1   0.15110 237065.440000
    901    908     1   0.15110 237065.440000
    902    904     1   0.15375 251793.120000
    903    906     1   0.15375 251793.120000
    904    905     1   0.15241 261918.400000
    905   2343     1   0.13789 357815.680000
    905    911     1   0.12183 533627.360000
    906    907     1   0.15241 261918.400000
    907    912     1   0.12183 533627.360000
    907   2417     1   0.13789 357815.680000
    908    909     1   0.15375 251793.120000
    909    910     1   0.14619 275056.160000
    927    928     1   0.15110 237065.440000
    927    929     1   0.15110 237065.440000
    927    934     1   0.15110 237065.440000
    928    930     1   0.15375 251793.120000
    929    932     1   0.15375 251793.120000
    930    931     1   0.15241 261918.400000
    931   2491     1   0.13789 357815.680000
    931    937     1   0.12183 533627.360000
    932    933     1   0.15241 261918.400000
    933    938     1   0.12183 533627.360000
    933   2565     1   0.13789 357815.680000
    934    935     1   0.15375 251793.120000
    935    936     1   0.14619 275056.160000
    953    954     1   0.15110 237065.440000
    953    955     1   0.15110 237065.440000
    953    960     1   0.15110 237065.440000
    954    956     1   0.15375 251793.120000
    955    958     1   0.15375 251793.120000
    956    957     1   0.15241 261918.400000
    957   2639     1   0.13789 357815.680000
    957    963     1   0.12183 533627.360000
    958    959     1   0.15241 261918.400000
    959    964     1   0.12183 533627.360000
    959   2713     1   0.13789 357815.680000
    960    961     1   0.15375 251793.120000
    961    962     1   0.14619 275056.160000
    979    980     1   0.15110 237065.440000
    979    981     1   0.15110 237065.440000
    979    986     1   0.15110 237065.440000
    980    982     1   0.15375 251793.120000
    981    984     1   0.15375 251793.120000
    982    983     1   0.15241 261918.400000
    983   2787     1   0.13789 357815.680000
    983    989     1   0.12183 533627.360000
    984    985     1   0.15241 261918.400000
    985    990     1   0.12183 533627.360000
    985   2861     1   0.13789 357815.680000
    986    987     1   0.15375 251793.120000
    987    988     1   0.14619 275056.160000
   1005   1006     1   0.15110 237065.440000
   1005   1007     1   0.15110 237065.440000
   1005   1012     1   0.15110 237065.440000
   1006   1008     1   0.15375 251793.120000
   1007   1010     1   0.15375 251793.120000
   1008   1009     1   0.15241 261918.400000
   1009   2935     1   0.13789 357815.680000
   1009   1015     1   0.12183 533627.360000
   1010   1011     1   0.15241 261918.400000
   1011   1016     1   0.12183 533627.360000
   1011   3009     1   0.13789 357815.680000
   1012   1013     1   0.15375 251793.120000
   1013   1014     1   0.14619 275056.160000
   1031   1032     1   0.15110 237065.440000
   1031   1033     1   0.15110 237065.440000
   1031   1038     1   0.15110 237065.440000
   1032   1034     1   0.15375 251793.120000
   1033   1036     1   0.15375 251793.120000
   1034   1035     1   0.15241 261918.400000
   1035   3083     1   0.13789 357815.680000
   1035   1041     1   0.12183 533627.360000
   1036   1037     1   0.15241 261918.400000
   1037   1042     1   0.12183 533627.360000
   1037   3157     1   0.13789 357815.680000
   1038   1039     1   0.15375 251793.120000
   1039   1040     1   0.14619 275056.160000
   1057   1058     1   0.15110 237065.440000
   1057   1059     1   0.15110 237065.440000
   1057   1064     1   0.15110 237065.440000
   1058   1060     1   0.15375 251793.120000
   1059   1062     1   0.15375 251793.120000
   1060   1061     1   0.15241 261918.400000
   1061   3231     1   0.13789 357815.680000
   1061   1067     1   0.12183 533627.360000
   1062   1063     1   0.15241 261918.400000
   1063   1068     1   0.12183 533627.360000
   1063   3305     1   0.13789 357815.680000
   1064   1065     1   0.15375 251793.120000
   1065   1066     1   0.14619 275056.160000
   1083   1084     1   0.15110 237065.440000
   1083   1085     1   0.15110 237065.440000
   1083   1090     1   0.15110 237065.440000
   1084   1086     1   0.15375 251793.120000
   1085   1088     1   0.15375 251793.120000
   1086   1087     1   0.15241 261918.400000
   1087   3379     1   0.13789 357815.680000
   1087   1093     1   0.12183 533627.360000
   1088   1089     1   0.15241 261918.400000
   1089   1094     1   0.12183 533627.360000
   1089   3453     1   0.13789 357815.680000
   1090   1091     1   0.15375 251793.120000
   1091   1092     1   0.14619 275056.160000
   1109   1110     1   0.15110 237065.440000
   1109   1111     1   0.15110 237065.440000
   1109   1116     1   0.15110 237065.440000
   1110   1112     1   0.15375 251793.120000
   1111   1114     1   0.15375 251793.120000
   1112   1113     1   0.15241 261918.400000
   1113   3527     1   0.13789 357815.680000
   1113   1119     1   0.12183 533627.360000
   1114   1115     1   0.15241 261918.400000
   1115   1120     1   0.12183 533627.360000
   1115   3601     1   0.13789 357815.680000
   1116   1117     1   0.15375 251793.120000
   1117   1118     1   0.14619 275056.160000
   1135   1136     1   0.15110 237065.440000
   1135   1137     1   0.15110 237065.440000
   1135   1142     1   0.15110 237065.440000
   1136   1138     1   0.15375 251793.120000
   1137   1140     1   0.15375 251793.120000
   1138   1139     1   0.15241 261918.400000
   1139   3675     1   0.13789 357815.680000
   1139   1145     1   0.12183 533627.360000
   1140   1141     1   0.15241 261918.400000
   1141   1146     1   0.12183 533627.360000
   1141   3749     1   0.13789 357815.680000
   1142   1143     1   0.15375 251793.120000
   1143   1144     1   0.14619 275056.160000
   1161   1162     1   0.15110 237065.440000
   1161   1163     1   0.15110 237065.440000
   1161   1168     1   0.15110 237065.440000
   1162   1164     1   0.15375 251793.120000
   1163   1166     1   0.15375 251793.120000
   1164   1165     1   0.15241 261918.400000
   1165   3823     1   0.13789 357815.680000
   1165   1171     1   0.12183 533627.360000
   1166   1167     1   0.15241 261918.400000
   1167   1172     1   0.12183 533627.360000
   1167   3897     1   0.13789 357815.680000
   1168   1169     1   0.15375 251793.120000
   1169   1170     1   0.14619 275056.160000
   1187   1188     1   0.15110 237065.440000
   1187   1189     1   0.15110 237065.440000
   1187   1194     1   0.15110 237065.440000
   1188   1190     1   0.15375 251793.120000
   1189   1192     1   0.15375 251793.120000
   1190   1191     1   0.15241 261918.400000
   1191   3971     1   0.13789 357815.680000
   1191   1197     1   0.12183 533627.360000
   1192   1193     1   0.15241 261918.400000
   1193   1198     1   0.12183 533627.360000
   1193   4045     1   0.13789 357815.680000
   1194   1195     1   0.15375 251793.120000
   1195   1196     1   0.14619 275056.160000
   1213   1214     1   0.15110 237065.440000
   1213   1215     1   0.15110 237065.440000
   1213   1220     1   0.15110 237065.440000
   1214   1216     1   0.15375 251793.120000
   1215   1218     1   0.15375 251793.120000
   1216   1217     1   0.15241 261918.400000
   1217   4119     1   0.13789 357815.680000
   1217   1223     1   0.12183 533627.360000
   1218   1219     1   0.15241 261918.400000
   1219   1224     1   0.12183 533627.360000
   1219   4193     1   0.13789 357815.680000
   1220   1221     1   0.15375 251793.120000
   1221   1222     1   0.14619 275056.160000
   1239   1240     1   0.15110 237065.440000
   1239   1241     1   0.15110 237065.440000
   1239   1246     1   0.15110 237065.440000
   1240   1242     1   0.15375 251793.120000
   1241   1244     1   0.15375 251793.120000
   1242   1243     1   0.15241 261918.400000
   1243   4267     1   0.13789 357815.680000
   1243   1249     1   0.12183 533627.360000
   1244   1245     1   0.15241 261918.400000
   1245   1250     1   0.12183 533627.360000
   1245   4341     1   0.13789 357815.680000
   1246   1247     1   0.15375 251793.120000
   1247   1248     1   0.14619 275056.160000
   1265   1266     1   0.15110 237065.440000
   1265   1267     1   0.15110 237065.440000
   1265   1272     1   0.15110 237065.440000
   1266   1268     1   0.15375 251793.120000
   1267   1270     1   0.15375 251793.120000
   1268   1269     1   0.15241 261918.400000
   1269   4415     1   0.13789 357815.680000
   1269   1275     1   0.12183 533627.360000
   1270   1271     1   0.15241 261918.400000
   1271   1276     1   0.12183 533627.360000
   1271   4489     1   0.13789 357815.680000
   1272   1273     1   0.15375 251793.120000
   1273   1274     1   0.14619 275056.160000
   1291   1292     1   0.15110 237065.440000
   1291   1293     1   0.15110 237065.440000
   1291   1298     1   0.15110 237065.440000
   1292   1294     1   0.15375 251793.120000
   1293   1296     1   0.15375 251793.120000
   1294   1295     1   0.15241 261918.400000
   1295   4563     1   0.13789 357815.680000
   1295   1301     1   0.12183 533627.360000
   1296   1297     1   0.15241 261918.400000
   1297   1302     1   0.12183 533627.360000
   1297   4637     1   0.13789 357815.680000
   1298   1299     1   0.15375 251793.120000
   1299   1300     1   0.14619 275056.160000
   1317   1318     1   0.15110 237065.440000
   1317   1319     1   0.15110 237065.440000
   1317   1324     1   0.15110 237065.440000
   1318   1320     1   0.15375 251793.120000
   1319   1322     1   0.15375 251793.120000
   1320   1321     1   0.15241 261918.400000
   1321   4711     1   0.13789 357815.680000
   1321   1327     1   0.12183 533627.360000
   1322   1323     1   0.15241 261918.400000
   1323   1328     1   0.12183 533627.360000
   1323   4785     1   0.13789 357815.680000
   1324   1325     1   0.15375 251793.120000
   1325   1326     1   0.14619 275056.160000
   1343   1344     1   0.15110 237065.440000
   1343   1345     1   0.15110 237065.440000
   1343   1350     1   0.15110 237065.440000
   1344   1346     1   0.15375 251793.120000
   1345   1348     1   0.15375 251793.120000
   1346   1347     1   0.15241 261918.400000
   1347   4859     1   0.13789 357815.680000
   1347   1353     1   0.12183 533627.360000
   1348   1349     1   0.15241 261918.400000
   1349   1354     1   0.12183 533627.360000
   1349   4933     1   0.13789 357815.680000
   1350   1351     1   0.15375 251793.120000
   1351   1352     1   0.14619 275056.160000
   1369   1370     1   0.15110 237065.440000
   1369   1371     1   0.15110 237065.440000
   1369   1376     1   0.15110 237065.440000
   1370   1372     1   0.15375 251793.120000
   1371   1374     1   0.15375 251793.120000
   1372   1373     1   0.15241 261918.400000
   1373   5007     1   0.13789 357815.680000
   1373   1379     1   0.12183 533627.360000
   1374   1375     1   0.15241 261918.400000
   1375   1380     1   0.12183 533627.360000
   1375   5081     1   0.13789 357815.680000
   1376   1377     1   0.15375 251793.120000
   1377   1378     1   0.14619 275056.160000
   1395   1396     1   0.15110 237065.440000
   1395   1397     1   0.15110 237065.440000
   1395   1402     1   0.15110 237065.440000
   1396   1398     1   0.15375 251793.120000
   1397   1400     1   0.15375 251793.120000
   1398   1399     1   0.15241 261918.400000
   1399   5155     1   0.13789 357815.680000
   1399   1405     1   0.12183 533627.360000
   1400   1401     1   0.15241 261918.400000
   1401   1406     1   0.12183 533627.360000
   1401   5229     1   0.13789 357815.680000
   1402   1403     1   0.15375 251793.120000
   1403   1404     1   0.14619 275056.160000
   1421   1422     1   0.15110 237065.440000
   1421   1423     1   0.15110 237065.440000
   1421   1428     1   0.15110 237065.440000
   1422   1424     1   0.15375 251793.120000
   1423   1426     1   0.15375 251793.120000
   1424   1425     1   0.15241 261918.400000
   1425   5303     1   0.13789 357815.680000
   1425   1431     1   0.12183 533627.360000
   1426   1427     1   0.15241 261918.400000
   1427   1432     1   0.12183 533627.360000
   1427   5377     1   0.13789 357815.680000
   1428   1429     1   0.15375 251793.120000
   1429   1430     1   0.14619 275056.160000
   1447   1448     1   0.15110 237065.440000
   1447   1449     1   0.15110 237065.440000
   1447   1454     1   0.15110 237065.440000
   1448   1450     1   0.15375 251793.120000
   1449   1452     1   0.15375 251793.120000
   1450   1451     1   0.15241 261918.400000
   1451   5451     1   0.13789 357815.680000
   1451   1457     1   0.12183 533627.360000
   1452   1453     1   0.15241 261918.400000
   1453   1458     1   0.12183 533627.360000
   1453   5525     1   0.13789 357815.680000
   1454   1455     1   0.15375 251793.120000
   1455   1456     1   0.14619 275056.160000
   1473   1474     1   0.15110 237065.440000
   1473   1475     1   0.15110 237065.440000
   1473   1480     1   0.15110 237065.440000
   1474   1476     1   0.15375 251793.120000
   1475   1478     1   0.15375 251793.120000
   1476   1477     1   0.15241 261918.400000
   1477   5599     1   0.13789 357815.680000
   1477   1483     1   0.12183 533627.360000
   1478   1479     1   0.15241 261918.400000
   1479   1484     1   0.12183 533627.360000
   1479   5673     1   0.13789 357815.680000
   1480   1481     1   0.15375 251793.120000
   1481   1482     1   0.14619 275056.160000
   1499   1500     1   0.15110 237065.440000
   1499   1501     1   0.15110 237065.440000
   1499   1506     1   0.15110 237065.440000
   1500   1502     1   0.15375 251793.120000
   1501   1504     1   0.15375 251793.120000
   1502   1503     1   0.15241 261918.400000
   1503   5747     1   0.13789 357815.680000
   1503   1509     1   0.12183 533627.360000
   1504   1505     1   0.15241 261918.400000
   1505   1510     1   0.12183 533627.360000
   1505   5821     1   0.13789 357815.680000
   1506   1507     1   0.15375 251793.120000
   1507   1508     1   0.14619 275056.160000
   1525   1526     1   0.15110 237065.440000
   1525   1527     1   0.15110 237065.440000
   1525   1532     1   0.15110 237065.440000
   1526   1528     1   0.15375 251793.120000
   1527   1530     1   0.15375 251793.120000
   1528   1529     1   0.15241 261918.400000
   1529   5895     1   0.13789 357815.680000
   1529   1535     1   0.12183 533627.360000
   1530   1531     1   0.15241 261918.400000
   1531   1536     1   0.12183 533627.360000
   1531   5969     1   0.13789 357815.680000
   1532   1533     1   0.15375 251793.120000
   1533   1534     1   0.14619 275056.160000
   1551   1552     1   0.15110 237065.440000
   1551   1553     1   0.15110 237065.440000
   1551   1558     1   0.15110 237065.440000
   1552   1554     1   0.15375 251793.120000
   1553   1556     1   0.15375 251793.120000
   1554   1555     1   0.15241 261918.400000
   1555   6043     1   0.13789 357815.680000
   1555   1561     1   0.12183 533627.360000
   1556   1557     1   0.15241 261918.400000
   1557   1562     1   0.12183 533627.360000
   1557   6117     1   0.13789 357815.680000
   1558   1559     1   0.15375 251793.120000
   1559   1560     1   0.14619 275056.160000
   1577   1578     1   0.15110 237065.440000
   1577   1579     1   0.15110 237065.440000
   1577   1584     1   0.15110 237065.440000
   1578   1580     1   0.15375 251793.120000
   1579   1582     1   0.15375 251793.120000
   1580   1581     1   0.15241 261918.400000
   1581   6191     1   0.13789 357815.680000
   1581   1587     1   0.12183 533627.360000
   1582   1583     1   0.15241 261918.400000
   1583   6265     1   0.13789 357815.680000
   1583   1588     1   0.12183 533627.360000
   1584   1585     1   0.15375 251793.120000
   1585   1586     1   0.14619 275056.160000
   1603   1605     1   0.14619 275056.160000
   1605   1607     1   0.15375 251793.120000
   1607   1611     1   0.15110 237065.440000
   1611   1612     1   0.15110 237065.440000
   1611   1613     1   0.15110 237065.440000
   1612   1623     1   0.15375 251793.120000
   1613   1615     1   0.15375 251793.120000
   1615   1619     1   0.15241 261918.400000
   1619   1620     1   0.12183 533627.360000
   1619   1651     1   0.13400 406935.840000
   1623   1626     1   0.15241 261918.400000
   1626   1627     1   0.12183 533627.360000
   1626   1675     1   0.13400 406935.840000
   1628   1629     1   0.15375 251793.120000
   1628   1639     1   0.15375 251793.120000
   1628   1646     1   0.14316 258236.480000
   1629   1631     1   0.15375 251793.120000
   1629   1649     1   0.14233 265014.560000
   1631   1632     1   0.15375 251793.120000
   1631   1638     1   0.14233 265014.560000
   1632   1633     1   0.15375 251793.120000
   1632   1651     1   0.14647 272713.120000
   1633   1637     1   0.14233 265014.560000
   1633   1646     1   0.14316 258236.480000
   1639   1644     1   0.14233 265014.560000
   1652   1653     1   0.15375 251793.120000
   1652   1663     1   0.15375 251793.120000
   1652   1670     1   0.14316 258236.480000
   1653   1655     1   0.15375 251793.120000
   1653   1673     1   0.14233 265014.560000
   1655   1656     1   0.15375 251793.120000
   1655   1662     1   0.14233 265014.560000
   1656   1657     1   0.15375 251793.120000
   1656   1675     1   0.14647 272713.120000
   1657   1661     1   0.14233 265014.560000
   1657   1670     1   0.14316 258236.480000
   1663   1668     1   0.14233 265014.560000
   1677   1679     1   0.14619 275056.160000
   1679   1681     1   0.15375 251793.120000
   1681   1685     1   0.15110 237065.440000
   1685   1686     1   0.15110 237065.440000
   1685   1687     1   0.15110 237065.440000
   1686   1697     1   0.15375 251793.120000
   1687   1689     1   0.15375 251793.120000
   1689   1693     1   0.15241 261918.400000
   1693   1694     1   0.12183 533627.360000
   1693   1725     1   0.13400 406935.840000
   1697   1700     1   0.15241 261918.400000
   1700   1701     1   0.12183 533627.360000
   1700   1749     1   0.13400 406935.840000
   1702   1703     1   0.15375 251793.120000
   1702   1713     1   0.15375 251793.120000
   1702   1720     1   0.14316 258236.480000
   1703   1705     1   0.15375 251793.120000
   1703   1723     1   0.14233 265014.560000
   1705   1706     1   0.15375 251793.120000
   1705   1712     1   0.14233 265014.560000
   1706   1707     1   0.15375 251793.120000
   1706   1725     1   0.14647 272713.120000
   1707   1711     1   0.14233 265014.560000
   1707   1720     1   0.14316 258236.480000
   1713   1718     1   0.14233 265014.560000
   1726   1727     1   0.15375 251793.120000
   1726   1737     1   0.15375 251793.120000
   1726   1744     1   0.14316 258236.480000
   1727   1729     1   0.15375 251793.120000
   1727   1747     1   0.14233 265014.560000
   1729   1730     1   0.15375 251793.120000
   1729   1736     1   0.14233 265014.560000
   1730   1731     1   0.15375 251793.120000
   1730   1749     1   0.14647 272713.120000
   1731   1735     1   0.14233 265014.560000
   1731   1744     1   0.14316 258236.480000
   1737   1742     1   0.14233 265014.560000
   1751   1753     1   0.14619 275056.160000
   1753   1755     1   0.15375 251793.120000
   1755   1759     1   0.15110 237065.440000
   1759   1760     1   0.15110 237065.440000
   1759   1761     1   0.15110 237065.440000
   1760   1771     1   0.15375 251793.120000
   1761   1763     1   0.15375 251793.120000
   1763   1767     1   0.15241 261918.400000
   1767   1768     1   0.12183 533627.360000
   1767   1799     1   0.13400 406935.840000
   1771   1774     1   0.15241 261918.400000
   1774   1775     1   0.12183 533627.360000
   1774   1823     1   0.13400 406935.840000
   1776   1777     1   0.15375 251793.120000
   1776   1787     1   0.15375 251793.120000
   1776   1794     1   0.14316 258236.480000
   1777   1779     1   0.15375 251793.120000
   1777   1797     1   0.14233 265014.560000
   1779   1780     1   0.15375 251793.120000
   1779   1786     1   0.14233 265014.560000
   1780   1781     1   0.15375 251793.120000
   1780   1799     1   0.14647 272713.120000
   1781   1785     1   0.14233 265014.560000
   1781   1794     1   0.14316 258236.480000
   1787   1792     1   0.14233 265014.560000
   1800   1801     1   0.15375 251793.120000
   1800   1811     1   0.15375 251793.120000
   1800   1818     1   0.14316 258236.480000
   1801   1803     1   0.15375 251793.120000
   1801   1821     1   0.14233 265014.560000
   1803   1804     1   0.15375 251793.120000
   1803   1810     1   0.14233 265014.560000
   1804   1805     1   0.15375 251793.120000
   1804   1823     1   0.14647 272713.120000
   1805   1809     1   0.14233 265014.560000
   1805   1818     1   0.14316 258236.480000
   1811   1816     1   0.14233 265014.560000
   1825   1827     1   0.14619 275056.160000
   1827   1829     1   0.15375 251793.120000
   1829   1833     1   0.15110 237065.440000
   1833   1834     1   0.15110 237065.440000
   1833   1835     1   0.15110 237065.440000
   1834   1845     1   0.15375 251793.120000
   1835   1837     1   0.15375 251793.120000
   1837   1841     1   0.15241 261918.400000
   1841   1842     1   0.12183 533627.360000
   1841   1873     1   0.13400 406935.840000
   1845   1848     1   0.15241 261918.400000
   1848   1849     1   0.12183 533627.360000
   1848   1897     1   0.13400 406935.840000
   1850   1851     1   0.15375 251793.120000
   1850   1861     1   0.15375 251793.120000
   1850   1868     1   0.14316 258236.480000
   1851   1853     1   0.15375 251793.120000
   1851   1871     1   0.14233 265014.560000
   1853   1854     1   0.15375 251793.120000
   1853   1860     1   0.14233 265014.560000
   1854   1855     1   0.15375 251793.120000
   1854   1873     1   0.14647 272713.120000
   1855   1859     1   0.14233 265014.560000
   1855   1868     1   0.14316 258236.480000
   1861   1866     1   0.14233 265014.560000
   1874   1875     1   0.15375 251793.120000
   1874   1885     1   0.15375 251793.120000
   1874   1892     1   0.14316 258236.480000
   1875   1877     1   0.15375 251793.120000
   1875   1895     1   0.14233 265014.560000
   1877   1878     1   0.15375 251793.120000
   1877   1884     1   0.14233 265014.560000
   1878   1879     1   0.15375 251793.120000
   1878   1897     1   0.14647 272713.120000
   1879   1883     1   0.14233 265014.560000
   1879   1892     1   0.14316 258236.480000
   1885   1890     1   0.14233 265014.560000
   1899   1901     1   0.14619 275056.160000
   1901   1903     1   0.15375 251793.120000
   1903   1907     1   0.15110 237065.440000
   1907   1908     1   0.15110 237065.440000
   1907   1909     1   0.15110 237065.440000
   1908   1919     1   0.15375 251793.120000
   1909   1911     1   0.15375 251793.120000
   1911   1915     1   0.15241 261918.400000
   1915   1916     1   0.12183 533627.360000
   1915   1947     1   0.13400 406935.840000
   1919   1922     1   0.15241 261918.400000
   1922   1923     1   0.12183 533627.360000
   1922   1971     1   0.13400 406935.840000
   1924   1925     1   0.15375 251793.120000
   1924   1935     1   0.15375 251793.120000
   1924   1942     1   0.14316 258236.480000
   1925   1927     1   0.15375 251793.120000
   1925   1945     1   0.14233 265014.560000
   1927   1928     1   0.15375 251793.120000
   1927   1934     1   0.14233 265014.560000
   1928   1929     1   0.15375 251793.120000
   1928   1947     1   0.14647 272713.120000
   1929   1933     1   0.14233 265014.560000
   1929   1942     1   0.14316 258236.480000
   1935   1940     1   0.14233 265014.560000
   1948   1949     1   0.15375 251793.120000
   1948   1959     1   0.15375 251793.120000
   1948   1966     1   0.14316 258236.480000
   1949   1951     1   0.15375 251793.120000
   1949   1969     1   0.14233 265014.560000
   1951   1952     1   0.15375 251793.120000
   1951   1958     1   0.14233 265014.560000
   1952   1953     1   0.15375 251793.120000
   1952   1971     1   0.14647 272713.120000
   1953   1957     1   0.14233 265014.560000
   1953   1966     1   0.14316 258236.480000
   1959   1964     1   0.14233 265014.560000
   1973   1975     1   0.14619 275056.160000
   1975   1977     1   0.15375 251793.120000
   1977   1981     1   0.15110 237065.440000
   1981   1982     1   0.15110 237065.440000
   1981   1983     1   0.15110 237065.440000
   1982   1993     1   0.15375 251793.120000
   1983   1985     1   0.15375 251793.120000
   1985   1989     1   0.15241 261918.400000
   1989   1990     1   0.12183 533627.360000
   1989   2021     1   0.13400 406935.840000
   1993   1996     1   0.15241 261918.400000
   1996   1997     1   0.12183 533627.360000
   1996   2045     1   0.13400 406935.840000
   1998   1999     1   0.15375 251793.120000
   1998   2009     1   0.15375 251793.120000
   1998   2016     1   0.14316 258236.480000
   1999   2001     1   0.15375 251793.120000
   1999   2019     1   0.14233 265014.560000
   2001   2002     1   0.15375 251793.120000
   2001   2008     1   0.14233 265014.560000
   2002   2003     1   0.15375 251793.120000
   2002   2021     1   0.14647 272713.120000
   2003   2007     1   0.14233 265014.560000
   2003   2016     1   0.14316 258236.480000
   2009   2014     1   0.14233 265014.560000
   2022   2023     1   0.15375 251793.120000
   2022   2033     1   0.15375 251793.120000
   2022   2040     1   0.14316 258236.480000
   2023   2025     1   0.15375 251793.120000
   2023   2043     1   0.14233 265014.560000
   2025   2026     1   0.15375 251793.120000
   2025   2032     1   0.14233 265014.560000
   2026   2027     1   0.15375 251793.120000
   2026   2045     1   0.14647 272713.120000
   2027   2031     1   0.14233 265014.560000
   2027   2040     1   0.14316 258236.480000
   2033   2038     1   0.14233 265014.560000
   2047   2049     1   0.14619 275056.160000
   2049   2051     1   0.15375 251793.120000
   2051   2055     1   0.15110 237065.440000
   2055   2056     1   0.15110 237065.440000
   2055   2057     1   0.15110 237065.440000
   2056   2067     1   0.15375 251793.120000
   2057   2059     1   0.15375 251793.120000
   2059   2063     1   0.15241 261918.400000
   2063   2064     1   0.12183 533627.360000
   2063   2095     1   0.13400 406935.840000
   2067   2070     1   0.15241 261918.400000
   2070   2071     1   0.12183 533627.360000
   2070   2119     1   0.13400 406935.840000
   2072   2073     1   0.15375 251793.120000
   2072   2083     1   0.15375 251793.120000
   2072   2090     1   0.14316 258236.480000
   2073   2075     1   0.15375 251793.120000
   2073   2093     1   0.14233 265014.560000
   2075   2076     1   0.15375 251793.120000
   2075   2082     1   0.14233 265014.560000
   2076   2077     1   0.15375 251793.120000
   2076   2095     1   0.14647 272713.120000
   2077   2081     1   0.14233 265014.560000
   2077   2090     1   0.14316 258236.480000
   2083   2088     1   0.14233 265014.560000
   2096   2097     1   0.15375 251793.120000
   2096   2107     1   0.15375 251793.120000
   2096   2114     1   0.14316 258236.480000
   2097   2099     1   0.15375 251793.120000
   2097   2117     1   0.14233 265014.560000
   2099   2100     1   0.15375 251793.120000
   2099   2106     1   0.14233 265014.560000
   2100   2101     1   0.15375 251793.120000
   2100   2119     1   0.14647 272713.120000
   2101   2105     1   0.14233 265014.560000
   2101   2114     1   0.14316 258236.480000
   2107   2112     1   0.14233 265014.560000
   2121   2123     1   0.14619 275056.160000
   2123   2125     1   0.15375 251793.120000
   2125   2129     1   0.15110 237065.440000
   2129   2130     1   0.15110 237065.440000
   2129   2131     1   0.15110 237065.440000
   2130   2141     1   0.15375 251793.120000
   2131   2133     1   0.15375 251793.120000
   2133   2137     1   0.15241 261918.400000
   2137   2138     1   0.12183 533627.360000
   2137   2169     1   0.13400 406935.840000
   2141   2144     1   0.15241 261918.400000
   2144   2145     1   0.12183 533627.360000
   2144   2193     1   0.13400 406935.840000
   2146   2147     1   0.15375 251793.120000
   2146   2157     1   0.15375 251793.120000
   2146   2164     1   0.14316 258236.480000
   2147   2149     1   0.15375 251793.120000
   2147   2167     1   0.14233 265014.560000
   2149   2150     1   0.15375 251793.120000
   2149   2156     1   0.14233 265014.560000
   2150   2151     1   0.15375 251793.120000
   2150   2169     1   0.14647 272713.120000
   2151   2155     1   0.14233 265014.560000
   2151   2164     1   0.14316 258236.480000
   2157   2162     1   0.14233 265014.560000
   2170   2171     1   0.15375 251793.120000
   2170   2181     1   0.15375 251793.120000
   2170   2188     1   0.14316 258236.480000
   2171   2173     1   0.15375 251793.120000
   2171   2191     1   0.14233 265014.560000
   2173   2174     1   0.15375 251793.120000
   2173   2180     1   0.14233 265014.560000
   2174   2175     1   0.15375 251793.120000
   2174   2193     1   0.14647 272713.120000
   2175   2179     1   0.14233 265014.560000
   2175   2188     1   0.14316 258236.480000
   2181   2186     1   0.14233 265014.560000
   2195   2197     1   0.14619 275056.160000
   2197   2199     1   0.15375 251793.120000
   2199   2203     1   0.15110 237065.440000
   2203   2204     1   0.15110 237065.440000
   2203   2205     1   0.15110 237065.440000
   2204   2215     1   0.15375 251793.120000
   2205   2207     1   0.15375 251793.120000
   2207   2211     1   0.15241 261918.400000
   2211   2212     1   0.12183 533627.360000
   2211   2243     1   0.13400 406935.840000
   2215   2218     1   0.15241 261918.400000
   2218   2219     1   0.12183 533627.360000
   2218   2267     1   0.13400 406935.840000
   2220   2221     1   0.15375 251793.120000
   2220   2231     1   0.15375 251793.120000
   2220   2238     1   0.14316 258236.480000
   2221   2223     1   0.15375 251793.120000
   2221   2241     1   0.14233 265014.560000
   2223   2224     1   0.15375 251793.120000
   2223   2230     1   0.14233 265014.560000
   2224   2225     1   0.15375 251793.120000
   2224   2243     1   0.14647 272713.120000
   2225   2229     1   0.14233 265014.560000
   2225   2238     1   0.14316 258236.480000
   2231   2236     1   0.14233 265014.560000
   2244   2245     1   0.15375 251793.120000
   2244   2255     1   0.15375 251793.120000
   2244   2262     1   0.14316 258236.480000
   2245   2247     1   0.15375 251793.120000
   2245   2265     1   0.14233 265014.560000
   2247   2248     1   0.15375 251793.120000
   2247   2254     1   0.14233 265014.560000
   2248   2249     1   0.15375 251793.120000
   2248   2267     1   0.14647 272713.120000
   2249   2253     1   0.14233 265014.560000
   2249   2262     1   0.14316 258236.480000
   2255   2260     1   0.14233 265014.560000
   2269   2271     1   0.14619 275056.160000
   2271   2273     1   0.15375 251793.120000
   2273   2277     1   0.15110 237065.440000
   2277   2278     1   0.15110 237065.440000
   2277   2279     1   0.15110 237065.440000
   2278   2289     1   0.15375 251793.120000
   2279   2281     1   0.15375 251793.120000
   2281   2285     1   0.15241 261918.400000
   2285   2286     1   0.12183 533627.360000
   2285   2317     1   0.13400 406935.840000
   2289   2292     1   0.15241 261918.400000
   2292   2293     1   0.12183 533627.360000
   2292   2341     1   0.13400 406935.840000
   2294   2295     1   0.15375 251793.120000
   2294   2305     1   0.15375 251793.120000
   2294   2312     1   0.14316 258236.480000
   2295   2297     1   0.15375 251793.120000
   2295   2315     1   0.14233 265014.560000
   2297   2298     1   0.15375 251793.120000
   2297   2304     1   0.14233 265014.560000
   2298   2299     1   0.15375 251793.120000
   2298   2317     1   0.14647 272713.120000
   2299   2303     1   0.14233 265014.560000
   2299   2312     1   0.14316 258236.480000
   2305   2310     1   0.14233 265014.560000
   2318   2319     1   0.15375 251793.120000
   2318   2329     1   0.15375 251793.120000
   2318   2336     1   0.14316 258236.480000
   2319   2321     1   0.15375 251793.120000
   2319   2339     1   0.14233 265014.560000
   2321   2322     1   0.15375 251793.120000
   2321   2328     1   0.14233 265014.560000
   2322   2323     1   0.15375 251793.120000
   2322   2341     1   0.14647 272713.120000
   2323   2327     1   0.14233 265014.560000
   2323   2336     1   0.14316 258236.480000
   2329   2334     1   0.14233 265014.560000
   2343   2345     1   0.14619 275056.160000
   2345   2347     1   0.15375 251793.120000
   2347   2351     1   0.15110 237065.440000
   2351   2352     1   0.15110 237065.440000
   2351   2353     1   0.15110 237065.440000
   2352   2363     1   0.15375 251793.120000
   2353   2355     1   0.15375 251793.120000
   2355   2359     1   0.15241 261918.400000
   2359   2360     1   0.12183 533627.360000
   2359   2391     1   0.13400 406935.840000
   2363   2366     1   0.15241 261918.400000
   2366   2367     1   0.12183 533627.360000
   2366   2415     1   0.13400 406935.840000
   2368   2369     1   0.15375 251793.120000
   2368   2379     1   0.15375 251793.120000
   2368   2386     1   0.14316 258236.480000
   2369   2371     1   0.15375 251793.120000
   2369   2389     1   0.14233 265014.560000
   2371   2372     1   0.15375 251793.120000
   2371   2378     1   0.14233 265014.560000
   2372   2373     1   0.15375 251793.120000
   2372   2391     1   0.14647 272713.120000
   2373   2377     1   0.14233 265014.560000
   2373   2386     1   0.14316 258236.480000
   2379   2384     1   0.14233 265014.560000
   2392   2393     1   0.15375 251793.120000
   2392   2403     1   0.15375 251793.120000
   2392   2410     1   0.14316 258236.480000
   2393   2395     1   0.15375 251793.120000
   2393   2413     1   0.14233 265014.560000
   2395   2396     1   0.15375 251793.120000
   2395   2402     1   0.14233 265014.560000
   2396   2397     1   0.15375 251793.120000
   2396   2415     1   0.14647 272713.120000
   2397   2401     1   0.14233 265014.560000
   2397   2410     1   0.14316 258236.480000
   2403   2408     1   0.14233 265014.560000
   2417   2419     1   0.14619 275056.160000
   2419   2421     1   0.15375 251793.120000
   2421   2425     1   0.15110 237065.440000
   2425   2426     1   0.15110 237065.440000
   2425   2427     1   0.15110 237065.440000
   2426   2437     1   0.15375 251793.120000
   2427   2429     1   0.15375 251793.120000
   2429   2433     1   0.15241 261918.400000
   2433   2434     1   0.12183 533627.360000
   2433   2465     1   0.13400 406935.840000
   2437   2440     1   0.15241 261918.400000
   2440   2441     1   0.12183 533627.360000
   2440   2489     1   0.13400 406935.840000
   2442   2443     1   0.15375 251793.120000
   2442   2453     1   0.15375 251793.120000
   2442   2460     1   0.14316 258236.480000
   2443   2445     1   0.15375 251793.120000
   2443   2463     1   0.14233 265014.560000
   2445   2446     1   0.15375 251793.120000
   2445   2452     1   0.14233 265014.560000
   2446   2447     1   0.15375 251793.120000
   2446   2465     1   0.14647 272713.120000
   2447   2451     1   0.14233 265014.560000
   2447   2460     1   0.14316 258236.480000
   2453   2458     1   0.14233 265014.560000
   2466   2467     1   0.15375 251793.120000
   2466   2477     1   0.15375 251793.120000
   2466   2484     1   0.14316 258236.480000
   2467   2469     1   0.15375 251793.120000
   2467   2487     1   0.14233 265014.560000
   2469   2470     1   0.15375 251793.120000
   2469   2476     1   0.14233 265014.560000
   2470   2471     1   0.15375 251793.120000
   2470   2489     1   0.14647 272713.120000
   2471   2475     1   0.14233 265014.560000
   2471   2484     1   0.14316 258236.480000
   2477   2482     1   0.14233 265014.560000
   2491   2493     1   0.14619 275056.160000
   2493   2495     1   0.15375 251793.120000
   2495   2499     1   0.15110 237065.440000
   2499   2500     1   0.15110 237065.440000
   2499   2501     1   0.15110 237065.440000
   2500   2511     1   0.15375 251793.120000
   2501   2503     1   0.15375 251793.120000
   2503   2507     1   0.15241 261918.400000
   2507   2508     1   0.12183 533627.360000
   2507   2539     1   0.13400 406935.840000
   2511   2514     1   0.15241 261918.400000
   2514   2515     1   0.12183 533627.360000
   2514   2563     1   0.13400 406935.840000
   2516   2517     1   0.15375 251793.120000
   2516   2527     1   0.15375 251793.120000
   2516   2534     1   0.14316 258236.480000
   2517   2519     1   0.15375 251793.120000
   2517   2537     1   0.14233 265014.560000
   2519   2520     1   0.15375 251793.120000
   2519   2526     1   0.14233 265014.560000
   2520   2521     1   0.15375 251793.120000
   2520   2539     1   0.14647 272713.120000
   2521   2525     1   0.14233 265014.560000
   2521   2534     1   0.14316 258236.480000
   2527   2532     1   0.14233 265014.560000
   2540   2541     1   0.15375 251793.120000
   2540   2551     1   0.15375 251793.120000
   2540   2558     1   0.14316 258236.480000
   2541   2543     1   0.15375 251793.120000
   2541   2561     1   0.14233 265014.560000
   2543   2544     1   0.15375 251793.120000
   2543   2550     1   0.14233 265014.560000
   2544   2545     1   0.15375 251793.120000
   2544   2563     1   0.14647 272713.120000
   2545   2549     1   0.14233 265014.560000
   2545   2558     1   0.14316 258236.480000
   2551   2556     1   0.14233 265014.560000
   2565   2567     1   0.14619 275056.160000
   2567   2569     1   0.15375 251793.120000
   2569   2573     1   0.15110 237065.440000
   2573   2574     1   0.15110 237065.440000
   2573   2575     1   0.15110 237065.440000
   2574   2585     1   0.15375 251793.120000
   2575   2577     1   0.15375 251793.120000
   2577   2581     1   0.15241 261918.400000
   2581   2582     1   0.12183 533627.360000
   2581   2613     1   0.13400 406935.840000
   2585   2588     1   0.15241 261918.400000
   2588   2589     1   0.12183 533627.360000
   2588   2637     1   0.13400 406935.840000
   2590   2591     1   0.15375 251793.120000
   2590   2601     1   0.15375 251793.120000
   2590   2608     1   0.14316 258236.480000
   2591   2593     1   0.15375 251793.120000
   2591   2611     1   0.14233 265014.560000
   2593   2594     1   0.15375 251793.120000
   2593   2600     1   0.14233 265014.560000
   2594   2595     1   0.15375 251793.120000
   2594   2613     1   0.14647 272713.120000
   2595   2599     1   0.14233 265014.560000
   2595   2608     1   0.14316 258236.480000
   2601   2606     1   0.14233 265014.560000
   2614   2615     1   0.15375 251793.120000
   2614   2625     1   0.15375 251793.120000
   2614   2632     1   0.14316 258236.480000
   2615   2617     1   0.15375 251793.120000
   2615   2635     1   0.14233 265014.560000
   2617   2618     1   0.15375 251793.120000
   2617   2624     1   0.14233 265014.560000
   2618   2619     1   0.15375 251793.120000
   2618   2637     1   0.14647 272713.120000
   2619   2623     1   0.14233 265014.560000
   2619   2632     1   0.14316 258236.480000
   2625   2630     1   0.14233 265014.560000
   2639   2641     1   0.14619 275056.160000
   2641   2643     1   0.15375 251793.120000
   2643   2647     1   0.15110 237065.440000
   2647   2648     1   0.15110 237065.440000
   2647   2649     1   0.15110 237065.440000
   2648   2659     1   0.15375 251793.120000
   2649   2651     1   0.15375 251793.120000
   2651   2655     1   0.15241 261918.400000
   2655   2656     1   0.12183 533627.360000
   2655   2687     1   0.13400 406935.840000
   2659   2662     1   0.15241 261918.400000
   2662   2663     1   0.12183 533627.360000
   2662   2711     1   0.13400 406935.840000
   2664   2665     1   0.15375 251793.120000
   2664   2675     1   0.15375 251793.120000
   2664   2682     1   0.14316 258236.480000
   2665   2667     1   0.15375 251793.120000
   2665   2685     1   0.14233 265014.560000
   2667   2668     1   0.15375 251793.120000
   2667   2674     1   0.14233 265014.560000
   2668   2669     1   0.15375 251793.120000
   2668   2687     1   0.14647 272713.120000
   2669   2673     1   0.14233 265014.560000
   2669   2682     1   0.14316 258236.480000
   2675   2680     1   0.14233 265014.560000
   2688   2689     1   0.15375 251793.120000
   2688   2699     1   0.15375 251793.120000
   2688   2706     1   0.14316 258236.480000
   2689   2691     1   0.15375 251793.120000
   2689   2709     1   0.14233 265014.560000
   2691   2692     1   0.15375 251793.120000
   2691   2698     1   0.14233 265014.560000
   2692   2693     1   0.15375 251793.120000
   2692   2711     1   0.14647 272713.120000
   2693   2697     1   0.14233 265014.560000
   2693   2706     1   0.14316 258236.480000
   2699   2704     1   0.14233 265014.560000
   2713   2715     1   0.14619 275056.160000
   2715   2717     1   0.15375 251793.120000
   2717   2721     1   0.15110 237065.440000
   2721   2722     1   0.15110 237065.440000
   2721   2723     1   0.15110 237065.440000
   2722   2733     1   0.15375 251793.120000
   2723   2725     1   0.15375 251793.120000
   2725   2729     1   0.15241 261918.400000
   2729   2730     1   0.12183 533627.360000
   2729   2761     1   0.13400 406935.840000
   2733   2736     1   0.15241 261918.400000
   2736   2737     1   0.12183 533627.360000
   2736   2785     1   0.13400 406935.840000
   2738   2739     1   0.15375 251793.120000
   2738   2749     1   0.15375 251793.120000
   2738   2756     1   0.14316 258236.480000
   2739   2741     1   0.15375 251793.120000
   2739   2759     1   0.14233 265014.560000
   2741   2742     1   0.15375 251793.120000
   2741   2748     1   0.14233 265014.560000
   2742   2743     1   0.15375 251793.120000
   2742   2761     1   0.14647 272713.120000
   2743   2747     1   0.14233 265014.560000
   2743   2756     1   0.14316 258236.480000
   2749   2754     1   0.14233 265014.560000
   2762   2763     1   0.15375 251793.120000
   2762   2773     1   0.15375 251793.120000
   2762   2780     1   0.14316 258236.480000
   2763   2765     1   0.15375 251793.120000
   2763   2783     1   0.14233 265014.560000
   2765   2766     1   0.15375 251793.120000
   2765   2772     1   0.14233 265014.560000
   2766   2767     1   0.15375 251793.120000
   2766   2785     1   0.14647 272713.120000
   2767   2771     1   0.14233 265014.560000
   2767   2780     1   0.14316 258236.480000
   2773   2778     1   0.14233 265014.560000
   2787   2789     1   0.14619 275056.160000
   2789   2791     1   0.15375 251793.120000
   2791   2795     1   0.15110 237065.440000
   2795   2796     1   0.15110 237065.440000
   2795   2797     1   0.15110 237065.440000
   2796   2807     1   0.15375 251793.120000
   2797   2799     1   0.15375 251793.120000
   2799   2803     1   0.15241 261918.400000
   2803   2804     1   0.12183 533627.360000
   2803   2835     1   0.13400 406935.840000
   2807   2810     1   0.15241 261918.400000
   2810   2811     1   0.12183 533627.360000
   2810   2859     1   0.13400 406935.840000
   2812   2813     1   0.15375 251793.120000
   2812   2823     1   0.15375 251793.120000
   2812   2830     1   0.14316 258236.480000
   2813   2815     1   0.15375 251793.120000
   2813   2833     1   0.14233 265014.560000
   2815   2816     1   0.15375 251793.120000
   2815   2822     1   0.14233 265014.560000
   2816   2817     1   0.15375 251793.120000
   2816   2835     1   0.14647 272713.120000
   2817   2821     1   0.14233 265014.560000
   2817   2830     1   0.14316 258236.480000
   2823   2828     1   0.14233 265014.560000
   2836   2837     1   0.15375 251793.120000
   2836   2847     1   0.15375 251793.120000
   2836   2854     1   0.14316 258236.480000
   2837   2839     1   0.15375 251793.120000
   2837   2857     1   0.14233 265014.560000
   2839   2840     1   0.15375 251793.120000
   2839   2846     1   0.14233 265014.560000
   2840   2841     1   0.15375 251793.120000
   2840   2859     1   0.14647 272713.120000
   2841   2845     1   0.14233 265014.560000
   2841   2854     1   0.14316 258236.480000
   2847   2852     1   0.14233 265014.560000
   2861   2863     1   0.14619 275056.160000
   2863   2865     1   0.15375 251793.120000
   2865   2869     1   0.15110 237065.440000
   2869   2870     1   0.15110 237065.440000
   2869   2871     1   0.15110 237065.440000
   2870   2881     1   0.15375 251793.120000
   2871   2873     1   0.15375 251793.120000
   2873   2877     1   0.15241 261918.400000
   2877   2878     1   0.12183 533627.360000
   2877   2909     1   0.13400 406935.840000
   2881   2884     1   0.15241 261918.400000
   2884   2885     1   0.12183 533627.360000
   2884   2933     1   0.13400 406935.840000
   2886   2887     1   0.15375 251793.120000
   2886   2897     1   0.15375 251793.120000
   2886   2904     1   0.14316 258236.480000
   2887   2889     1   0.15375 251793.120000
   2887   2907     1   0.14233 265014.560000
   2889   2890     1   0.15375 251793.120000
   2889   2896     1   0.14233 265014.560000
   2890   2891     1   0.15375 251793.120000
   2890   2909     1   0.14647 272713.120000
   2891   2895     1   0.14233 265014.560000
   2891   2904     1   0.14316 258236.480000
   2897   2902     1   0.14233 265014.560000
   2910   2911     1   0.15375 251793.120000
   2910   2921     1   0.15375 251793.120000
   2910   2928     1   0.14316 258236.480000
   2911   2913     1   0.15375 251793.120000
   2911   2931     1   0.14233 265014.560000
   2913   2914     1   0.15375 251793.120000
   2913   2920     1   0.14233 265014.560000
   2914   2915     1   0.15375 251793.120000
   2914   2933     1   0.14647 272713.120000
   2915   2919     1   0.14233 265014.560000
   2915   2928     1   0.14316 258236.480000
   2921   2926     1   0.14233 265014.560000
   2935   2937     1   0.14619 275056.160000
   2937   2939     1   0.15375 251793.120000
   2939   2943     1   0.15110 237065.440000
   2943   2944     1   0.15110 237065.440000
   2943   2945     1   0.15110 237065.440000
   2944   2955     1   0.15375 251793.120000
   2945   2947     1   0.15375 251793.120000
   2947   2951     1   0.15241 261918.400000
   2951   2952     1   0.12183 533627.360000
   2951   2983     1   0.13400 406935.840000
   2955   2958     1   0.15241 261918.400000
   2958   2959     1   0.12183 533627.360000
   2958   3007     1   0.13400 406935.840000
   2960   2961     1   0.15375 251793.120000
   2960   2971     1   0.15375 251793.120000
   2960   2978     1   0.14316 258236.480000
   2961   2963     1   0.15375 251793.120000
   2961   2981     1   0.14233 265014.560000
   2963   2964     1   0.15375 251793.120000
   2963   2970     1   0.14233 265014.560000
   2964   2965     1   0.15375 251793.120000
   2964   2983     1   0.14647 272713.120000
   2965   2969     1   0.14233 265014.560000
   2965   2978     1   0.14316 258236.480000
   2971   2976     1   0.14233 265014.560000
   2984   2985     1   0.15375 251793.120000
   2984   2995     1   0.15375 251793.120000
   2984   3002     1   0.14316 258236.480000
   2985   2987     1   0.15375 251793.120000
   2985   3005     1   0.14233 265014.560000
   2987   2988     1   0.15375 251793.120000
   2987   2994     1   0.14233 265014.560000
   2988   2989     1   0.15375 251793.120000
   2988   3007     1   0.14647 272713.120000
   2989   2993     1   0.14233 265014.560000
   2989   3002     1   0.14316 258236.480000
   2995   3000     1   0.14233 265014.560000
   3009   3011     1   0.14619 275056.160000
   3011   3013     1   0.15375 251793.120000
   3013   3017     1   0.15110 237065.440000
   3017   3018     1   0.15110 237065.440000
   3017   3019     1   0.15110 237065.440000
   3018   3029     1   0.15375 251793.120000
   3019   3021     1   0.15375 251793.120000
   3021   3025     1   0.15241 261918.400000
   3025   3026     1   0.12183 533627.360000
   3025   3057     1   0.13400 406935.840000
   3029   3032     1   0.15241 261918.400000
   3032   3033     1   0.12183 533627.360000
   3032   3081     1   0.13400 406935.840000
   3034   3035     1   0.15375 251793.120000
   3034   3045     1   0.15375 251793.120000
   3034   3052     1   0.14316 258236.480000
   3035   3037     1   0.15375 251793.120000
   3035   3055     1   0.14233 265014.560000
   3037   3038     1   0.15375 251793.120000
   3037   3044     1   0.14233 265014.560000
   3038   3039     1   0.15375 251793.120000
   3038   3057     1   0.14647 272713.120000
   3039   3043     1   0.14233 265014.560000
   3039   3052     1   0.14316 258236.480000
   3045   3050     1   0.14233 265014.560000
   3058   3059     1   0.15375 251793.120000
   3058   3069     1   0.15375 251793.120000
   3058   3076     1   0.14316 258236.480000
   3059   3061     1   0.15375 251793.120000
   3059   3079     1   0.14233 265014.560000
   3061   3062     1   0.15375 251793.120000
   3061   3068     1   0.14233 265014.560000
   3062   3063     1   0.15375 251793.120000
   3062   3081     1   0.14647 272713.120000
   3063   3067     1   0.14233 265014.560000
   3063   3076     1   0.14316 258236.480000
   3069   3074     1   0.14233 265014.560000
   3083   3085     1   0.14619 275056.160000
   3085   3087     1   0.15375 251793.120000
   3087   3091     1   0.15110 237065.440000
   3091   3092     1   0.15110 237065.440000
   3091   3093     1   0.15110 237065.440000
   3092   3103     1   0.15375 251793.120000
   3093   3095     1   0.15375 251793.120000
   3095   3099     1   0.15241 261918.400000
   3099   3100     1   0.12183 533627.360000
   3099   3131     1   0.13400 406935.840000
   3103   3106     1   0.15241 261918.400000
   3106   3107     1   0.12183 533627.360000
   3106   3155     1   0.13400 406935.840000
   3108   3109     1   0.15375 251793.120000
   3108   3119     1   0.15375 251793.120000
   3108   3126     1   0.14316 258236.480000
   3109   3111     1   0.15375 251793.120000
   3109   3129     1   0.14233 265014.560000
   3111   3112     1   0.15375 251793.120000
   3111   3118     1   0.14233 265014.560000
   3112   3113     1   0.15375 251793.120000
   3112   3131     1   0.14647 272713.120000
   3113   3117     1   0.14233 265014.560000
   3113   3126     1   0.14316 258236.480000
   3119   3124     1   0.14233 265014.560000
   3132   3133     1   0.15375 251793.120000
   3132   3143     1   0.15375 251793.120000
   3132   3150     1   0.14316 258236.480000
   3133   3135     1   0.15375 251793.120000
   3133   3153     1   0.14233 265014.560000
   3135   3136     1   0.15375 251793.120000
   3135   3142     1   0.14233 265014.560000
   3136   3137     1   0.15375 251793.120000
   3136   3155     1   0.14647 272713.120000
   3137   3141     1   0.14233 265014.560000
   3137   3150     1   0.14316 258236.480000
   3143   3148     1   0.14233 265014.560000
   3157   3159     1   0.14619 275056.160000
   3159   3161     1   0.15375 251793.120000
   3161   3165     1   0.15110 237065.440000
   3165   3166     1   0.15110 237065.440000
   3165   3167     1   0.15110 237065.440000
   3166   3177     1   0.15375 251793.120000
   3167   3169     1   0.15375 251793.120000
   3169   3173     1   0.15241 261918.400000
   3173   3174     1   0.12183 533627.360000
   3173   3205     1   0.13400 406935.840000
   3177   3180     1   0.15241 261918.400000
   3180   3181     1   0.12183 533627.360000
   3180   3229     1   0.13400 406935.840000
   3182   3183     1   0.15375 251793.120000
   3182   3193     1   0.15375 251793.120000
   3182   3200     1   0.14316 258236.480000
   3183   3185     1   0.15375 251793.120000
   3183   3203     1   0.14233 265014.560000
   3185   3186     1   0.15375 251793.120000
   3185   3192     1   0.14233 265014.560000
   3186   3187     1   0.15375 251793.120000
   3186   3205     1   0.14647 272713.120000
   3187   3191     1   0.14233 265014.560000
   3187   3200     1   0.14316 258236.480000
   3193   3198     1   0.14233 265014.560000
   3206   3207     1   0.15375 251793.120000
   3206   3217     1   0.15375 251793.120000
   3206   3224     1   0.14316 258236.480000
   3207   3209     1   0.15375 251793.120000
   3207   3227     1   0.14233 265014.560000
   3209   3210     1   0.15375 251793.120000
   3209   3216     1   0.14233 265014.560000
   3210   3211     1   0.15375 251793.120000
   3210   3229     1   0.14647 272713.120000
   3211   3215     1   0.14233 265014.560000
   3211   3224     1   0.14316 258236.480000
   3217   3222     1   0.14233 265014.560000
   3231   3233     1   0.14619 275056.160000
   3233   3235     1   0.15375 251793.120000
   3235   3239     1   0.15110 237065.440000
   3239   3240     1   0.15110 237065.440000
   3239   3241     1   0.15110 237065.440000
   3240   3251     1   0.15375 251793.120000
   3241   3243     1   0.15375 251793.120000
   3243   3247     1   0.15241 261918.400000
   3247   3248     1   0.12183 533627.360000
   3247   3279     1   0.13400 406935.840000
   3251   3254     1   0.15241 261918.400000
   3254   3255     1   0.12183 533627.360000
   3254   3303     1   0.13400 406935.840000
   3256   3257     1   0.15375 251793.120000
   3256   3267     1   0.15375 251793.120000
   3256   3274     1   0.14316 258236.480000
   3257   3259     1   0.15375 251793.120000
   3257   3277     1   0.14233 265014.560000
   3259   3260     1   0.15375 251793.120000
   3259   3266     1   0.14233 265014.560000
   3260   3261     1   0.15375 251793.120000
   3260   3279     1   0.14647 272713.120000
   3261   3265     1   0.14233 265014.560000
   3261   3274     1   0.14316 258236.480000
   3267   3272     1   0.14233 265014.560000
   3280   3281     1   0.15375 251793.120000
   3280   3291     1   0.15375 251793.120000
   3280   3298     1   0.14316 258236.480000
   3281   3283     1   0.15375 251793.120000
   3281   3301     1   0.14233 265014.560000
   3283   3284     1   0.15375 251793.120000
   3283   3290     1   0.14233 265014.560000
   3284   3285     1   0.15375 251793.120000
   3284   3303     1   0.14647 272713.120000
   3285   3289     1   0.14233 265014.560000
   3285   3298     1   0.14316 258236.480000
   3291   3296     1   0.14233 265014.560000
   3305   3307     1   0.14619 275056.160000
   3307   3309     1   0.15375 251793.120000
   3309   3313     1   0.15110 237065.440000
   3313   3314     1   0.15110 237065.440000
   3313   3315     1   0.15110 237065.440000
   3314   3325     1   0.15375 251793.120000
   3315   3317     1   0.15375 251793.120000
   3317   3321     1   0.15241 261918.400000
   3321   3322     1   0.12183 533627.360000
   3321   3353     1   0.13400 406935.840000
   3325   3328     1   0.15241 261918.400000
   3328   3329     1   0.12183 533627.360000
   3328   3377     1   0.13400 406935.840000
   3330   3331     1   0.15375 251793.120000
   3330   3341     1   0.15375 251793.120000
   3330   3348     1   0.14316 258236.480000
   3331   3333     1   0.15375 251793.120000
   3331   3351     1   0.14233 265014.560000
   3333   3334     1   0.15375 251793.120000
   3333   3340     1   0.14233 265014.560000
   3334   3335     1   0.15375 251793.120000
   3334   3353     1   0.14647 272713.120000
   3335   3339     1   0.14233 265014.560000
   3335   3348     1   0.14316 258236.480000
   3341   3346     1   0.14233 265014.560000
   3354   3355     1   0.15375 251793.120000
   3354   3365     1   0.15375 251793.120000
   3354   3372     1   0.14316 258236.480000
   3355   3357     1   0.15375 251793.120000
   3355   3375     1   0.14233 265014.560000
   3357   3358     1   0.15375 251793.120000
   3357   3364     1   0.14233 265014.560000
   3358   3359     1   0.15375 251793.120000
   3358   3377     1   0.14647 272713.120000
   3359   3363     1   0.14233 265014.560000
   3359   3372     1   0.14316 258236.480000
   3365   3370     1   0.14233 265014.560000
   3379   3381     1   0.14619 275056.160000
   3381   3383     1   0.15375 251793.120000
   3383   3387     1   0.15110 237065.440000
   3387   3388     1   0.15110 237065.440000
   3387   3389     1   0.15110 237065.440000
   3388   3399     1   0.15375 251793.120000
   3389   3391     1   0.15375 251793.120000
   3391   3395     1   0.15241 261918.400000
   3395   3396     1   0.12183 533627.360000
   3395   3427     1   0.13400 406935.840000
   3399   3402     1   0.15241 261918.400000
   3402   3403     1   0.12183 533627.360000
   3402   3451     1   0.13400 406935.840000
   3404   3405     1   0.15375 251793.120000
   3404   3415     1   0.15375 251793.120000
   3404   3422     1   0.14316 258236.480000
   3405   3407     1   0.15375 251793.120000
   3405   3425     1   0.14233 265014.560000
   3407   3408     1   0.15375 251793.120000
   3407   3414     1   0.14233 265014.560000
   3408   3409     1   0.15375 251793.120000
   3408   3427     1   0.14647 272713.120000
   3409   3413     1   0.14233 265014.560000
   3409   3422     1   0.14316 258236.480000
   3415   3420     1   0.14233 265014.560000
   3428   3429     1   0.15375 251793.120000
   3428   3439     1   0.15375 251793.120000
   3428   3446     1   0.14316 258236.480000
   3429   3431     1   0.15375 251793.120000
   3429   3449     1   0.14233 265014.560000
   3431   3432     1   0.15375 251793.120000
   3431   3438     1   0.14233 265014.560000
   3432   3433     1   0.15375 251793.120000
   3432   3451     1   0.14647 272713.120000
   3433   3437     1   0.14233 265014.560000
   3433   3446     1   0.14316 258236.480000
   3439   3444     1   0.14233 265014.560000
   3453   3455     1   0.14619 275056.160000
   3455   3457     1   0.15375 251793.120000
   3457   3461     1   0.15110 237065.440000
   3461   3462     1   0.15110 237065.440000
   3461   3463     1   0.15110 237065.440000
   3462   3473     1   0.15375 251793.120000
   3463   3465     1   0.15375 251793.120000
   3465   3469     1   0.15241 261918.400000
   3469   3470     1   0.12183 533627.360000
   3469   3501     1   0.13400 406935.840000
   3473   3476     1   0.15241 261918.400000
   3476   3477     1   0.12183 533627.360000
   3476   3525     1   0.13400 406935.840000
   3478   3479     1   0.15375 251793.120000
   3478   3489     1   0.15375 251793.120000
   3478   3496     1   0.14316 258236.480000
   3479   3481     1   0.15375 251793.120000
   3479   3499     1   0.14233 265014.560000
   3481   3482     1   0.15375 251793.120000
   3481   3488     1   0.14233 265014.560000
   3482   3483     1   0.15375 251793.120000
   3482   3501     1   0.14647 272713.120000
   3483   3487     1   0.14233 265014.560000
   3483   3496     1   0.14316 258236.480000
   3489   3494     1   0.14233 265014.560000
   3502   3503     1   0.15375 251793.120000
   3502   3513     1   0.15375 251793.120000
   3502   3520     1   0.14316 258236.480000
   3503   3505     1   0.15375 251793.120000
   3503   3523     1   0.14233 265014.560000
   3505   3506     1   0.15375 251793.120000
   3505   3512     1   0.14233 265014.560000
   3506   3507     1   0.15375 251793.120000
   3506   3525     1   0.14647 272713.120000
   3507   3511     1   0.14233 265014.560000
   3507   3520     1   0.14316 258236.480000
   3513   3518     1   0.14233 265014.560000
   3527   3529     1   0.14619 275056.160000
   3529   3531     1   0.15375 251793.120000
   3531   3535     1   0.15110 237065.440000
   3535   3536     1   0.15110 237065.440000
   3535   3537     1   0.15110 237065.440000
   3536   3547     1   0.15375 251793.120000
   3537   3539     1   0.15375 251793.120000
   3539   3543     1   0.15241 261918.400000
   3543   3544     1   0.12183 533627.360000
   3543   3575     1   0.13400 406935.840000
   3547   3550     1   0.15241 261918.400000
   3550   3551     1   0.12183 533627.360000
   3550   3599     1   0.13400 406935.840000
   3552   3553     1   0.15375 251793.120000
   3552   3563     1   0.15375 251793.120000
   3552   3570     1   0.14316 258236.480000
   3553   3555     1   0.15375 251793.120000
   3553   3573     1   0.14233 265014.560000
   3555   3556     1   0.15375 251793.120000
   3555   3562     1   0.14233 265014.560000
   3556   3557     1   0.15375 251793.120000
   3556   3575     1   0.14647 272713.120000
   3557   3561     1   0.14233 265014.560000
   3557   3570     1   0.14316 258236.480000
   3563   3568     1   0.14233 265014.560000
   3576   3577     1   0.15375 251793.120000
   3576   3587     1   0.15375 251793.120000
   3576   3594     1   0.14316 258236.480000
   3577   3579     1   0.15375 251793.120000
   3577   3597     1   0.14233 265014.560000
   3579   3580     1   0.15375 251793.120000
   3579   3586     1   0.14233 265014.560000
   3580   3581     1   0.15375 251793.120000
   3580   3599     1   0.14647 272713.120000
   3581   3585     1   0.14233 265014.560000
   3581   3594     1   0.14316 258236.480000
   3587   3592     1   0.14233 265014.560000
   3601   3603     1   0.14619 275056.160000
   3603   3605     1   0.15375 251793.120000
   3605   3609     1   0.15110 237065.440000
   3609   3610     1   0.15110 237065.440000
   3609   3611     1   0.15110 237065.440000
   3610   3621     1   0.15375 251793.120000
   3611   3613     1   0.15375 251793.120000
   3613   3617     1   0.15241 261918.400000
   3617   3618     1   0.12183 533627.360000
   3617   3649     1   0.13400 406935.840000
   3621   3624     1   0.15241 261918.400000
   3624   3625     1   0.12183 533627.360000
   3624   3673     1   0.13400 406935.840000
   3626   3627     1   0.15375 251793.120000
   3626   3637     1   0.15375 251793.120000
   3626   3644     1   0.14316 258236.480000
   3627   3629     1   0.15375 251793.120000
   3627   3647     1   0.14233 265014.560000
   3629   3630     1   0.15375 251793.120000
   3629   3636     1   0.14233 265014.560000
   3630   3631     1   0.15375 251793.120000
   3630   3649     1   0.14647 272713.120000
   3631   3635     1   0.14233 265014.560000
   3631   3644     1   0.14316 258236.480000
   3637   3642     1   0.14233 265014.560000
   3650   3651     1   0.15375 251793.120000
   3650   3661     1   0.15375 251793.120000
   3650   3668     1   0.14316 258236.480000
   3651   3653     1   0.15375 251793.120000
   3651   3671     1   0.14233 265014.560000
   3653   3654     1   0.15375 251793.120000
   3653   3660     1   0.14233 265014.560000
   3654   3655     1   0.15375 251793.120000
   3654   3673     1   0.14647 272713.120000
   3655   3659     1   0.14233 265014.560000
   3655   3668     1   0.14316 258236.480000
   3661   3666     1   0.14233 265014.560000
   3675   3677     1   0.14619 275056.160000
   3677   3679     1   0.15375 251793.120000
   3679   3683     1   0.15110 237065.440000
   3683   3684     1   0.15110 237065.440000
   3683   3685     1   0.15110 237065.440000
   3684   3695     1   0.15375 251793.120000
   3685   3687     1   0.15375 251793.120000
   3687   3691     1   0.15241 261918.400000
   3691   3692     1   0.12183 533627.360000
   3691   3723     1   0.13400 406935.840000
   3695   3698     1   0.15241 261918.400000
   3698   3699     1   0.12183 533627.360000
   3698   3747     1   0.13400 406935.840000
   3700   3701     1   0.15375 251793.120000
   3700   3711     1   0.15375 251793.120000
   3700   3718     1   0.14316 258236.480000
   3701   3703     1   0.15375 251793.120000
   3701   3721     1   0.14233 265014.560000
   3703   3704     1   0.15375 251793.120000
   3703   3710     1   0.14233 265014.560000
   3704   3705     1   0.15375 251793.120000
   3704   3723     1   0.14647 272713.120000
   3705   3709     1   0.14233 265014.560000
   3705   3718     1   0.14316 258236.480000
   3711   3716     1   0.14233 265014.560000
   3724   3725     1   0.15375 251793.120000
   3724   3735     1   0.15375 251793.120000
   3724   3742     1   0.14316 258236.480000
   3725   3727     1   0.15375 251793.120000
   3725   3745     1   0.14233 265014.560000
   3727   3728     1   0.15375 251793.120000
   3727   3734     1   0.14233 265014.560000
   3728   3729     1   0.15375 251793.120000
   3728   3747     1   0.14647 272713.120000
   3729   3733     1   0.14233 265014.560000
   3729   3742     1   0.14316 258236.480000
   3735   3740     1   0.14233 265014.560000
   3749   3751     1   0.14619 275056.160000
   3751   3753     1   0.15375 251793.120000
   3753   3757     1   0.15110 237065.440000
   3757   3758     1   0.15110 237065.440000
   3757   3759     1   0.15110 237065.440000
   3758   3769     1   0.15375 251793.120000
   3759   3761     1   0.15375 251793.120000
   3761   3765     1   0.15241 261918.400000
   3765   3766     1   0.12183 533627.360000
   3765   3797     1   0.13400 406935.840000
   3769   3772     1   0.15241 261918.400000
   3772   3773     1   0.12183 533627.360000
   3772   3821     1   0.13400 406935.840000
   3774   3775     1   0.15375 251793.120000
   3774   3785     1   0.15375 251793.120000
   3774   3792     1   0.14316 258236.480000
   3775   3777     1   0.15375 251793.120000
   3775   3795     1   0.14233 265014.560000
   3777   3778     1   0.15375 251793.120000
   3777   3784     1   0.14233 265014.560000
   3778   3779     1   0.15375 251793.120000
   3778   3797     1   0.14647 272713.120000
   3779   3783     1   0.14233 265014.560000
   3779   3792     1   0.14316 258236.480000
   3785   3790     1   0.14233 265014.560000
   3798   3799     1   0.15375 251793.120000
   3798   3809     1   0.15375 251793.120000
   3798   3816     1   0.14316 258236.480000
   3799   3801     1   0.15375 251793.120000
   3799   3819     1   0.14233 265014.560000
   3801   3802     1   0.15375 251793.120000
   3801   3808     1   0.14233 265014.560000
   3802   3803     1   0.15375 251793.120000
   3802   3821     1   0.14647 272713.120000
   3803   3807     1   0.14233 265014.560000
   3803   3816     1   0.14316 258236.480000
   3809   3814     1   0.14233 265014.560000
   3823   3825     1   0.14619 275056.160000
   3825   3827     1   0.15375 251793.120000
   3827   3831     1   0.15110 237065.440000
   3831   3832     1   0.15110 237065.440000
   3831   3833     1   0.15110 237065.440000
   3832   3843     1   0.15375 251793.120000
   3833   3835     1   0.15375 251793.120000
   3835   3839     1   0.15241 261918.400000
   3839   3840     1   0.12183 533627.360000
   3839   3871     1   0.13400 406935.840000
   3843   3846     1   0.15241 261918.400000
   3846   3847     1   0.12183 533627.360000
   3846   3895     1   0.13400 406935.840000
   3848   3849     1   0.15375 251793.120000
   3848   3859     1   0.15375 251793.120000
   3848   3866     1   0.14316 258236.480000
   3849   3851     1   0.15375 251793.120000
   3849   3869     1   0.14233 265014.560000
   3851   3852     1   0.15375 251793.120000
   3851   3858     1   0.14233 265014.560000
   3852   3853     1   0.15375 251793.120000
   3852   3871     1   0.14647 272713.120000
   3853   3857     1   0.14233 265014.560000
   3853   3866     1   0.14316 258236.480000
   3859   3864     1   0.14233 265014.560000
   3872   3873     1   0.15375 251793.120000
   3872   3883     1   0.15375 251793.120000
   3872   3890     1   0.14316 258236.480000
   3873   3875     1   0.15375 251793.120000
   3873   3893     1   0.14233 265014.560000
   3875   3876     1   0.15375 251793.120000
   3875   3882     1   0.14233 265014.560000
   3876   3877     1   0.15375 251793.120000
   3876   3895     1   0.14647 272713.120000
   3877   3881     1   0.14233 265014.560000
   3877   3890     1   0.14316 258236.480000
   3883   3888     1   0.14233 265014.560000
   3897   3899     1   0.14619 275056.160000
   3899   3901     1   0.15375 251793.120000
   3901   3905     1   0.15110 237065.440000
   3905   3906     1   0.15110 237065.440000
   3905   3907     1   0.15110 237065.440000
   3906   3917     1   0.15375 251793.120000
   3907   3909     1   0.15375 251793.120000
   3909   3913     1   0.15241 261918.400000
   3913   3914     1   0.12183 533627.360000
   3913   3945     1   0.13400 406935.840000
   3917   3920     1   0.15241 261918.400000
   3920   3921     1   0.12183 533627.360000
   3920   3969     1   0.13400 406935.840000
   3922   3923     1   0.15375 251793.120000
   3922   3933     1   0.15375 251793.120000
   3922   3940     1   0.14316 258236.480000
   3923   3925     1   0.15375 251793.120000
   3923   3943     1   0.14233 265014.560000
   3925   3926     1   0.15375 251793.120000
   3925   3932     1   0.14233 265014.560000
   3926   3927     1   0.15375 251793.120000
   3926   3945     1   0.14647 272713.120000
   3927   3931     1   0.14233 265014.560000
   3927   3940     1   0.14316 258236.480000
   3933   3938     1   0.14233 265014.560000
   3946   3947     1   0.15375 251793.120000
   3946   3957     1   0.15375 251793.120000
   3946   3964     1   0.14316 258236.480000
   3947   3949     1   0.15375 251793.120000
   3947   3967     1   0.14233 265014.560000
   3949   3950     1   0.15375 251793.120000
   3949   3956     1   0.14233 265014.560000
   3950   3951     1   0.15375 251793.120000
   3950   3969     1   0.14647 272713.120000
   3951   3955     1   0.14233 265014.560000
   3951   3964     1   0.14316 258236.480000
   3957   3962     1   0.14233 265014.560000
   3971   3973     1   0.14619 275056.160000
   3973   3975     1   0.15375 251793.120000
   3975   3979     1   0.15110 237065.440000
   3979   3980     1   0.15110 237065.440000
   3979   3981     1   0.15110 237065.440000
   3980   3991     1   0.15375 251793.120000
   3981   3983     1   0.15375 251793.120000
   3983   3987     1   0.15241 261918.400000
   3987   3988     1   0.12183 533627.360000
   3987   4019     1   0.13400 406935.840000
   3991   3994     1   0.15241 261918.400000
   3994   3995     1   0.12183 533627.360000
   3994   4043     1   0.13400 406935.840000
   3996   3997     1   0.15375 251793.120000
   3996   4007     1   0.15375 251793.120000
   3996   4014     1   0.14316 258236.480000
   3997   3999     1   0.15375 251793.120000
   3997   4017     1   0.14233 265014.560000
   3999   4000     1   0.15375 251793.120000
   3999   4006     1   0.14233 265014.560000
   4000   4001     1   0.15375 251793.120000
   4000   4019     1   0.14647 272713.120000
   4001   4005     1   0.14233 265014.560000
   4001   4014     1   0.14316 258236.480000
   4007   4012     1   0.14233 265014.560000
   4020   4021     1   0.15375 251793.120000
   4020   4031     1   0.15375 251793.120000
   4020   4038     1   0.14316 258236.480000
   4021   4023     1   0.15375 251793.120000
   4021   4041     1   0.14233 265014.560000
   4023   4024     1   0.15375 251793.120000
   4023   4030     1   0.14233 265014.560000
   4024   4025     1   0.15375 251793.120000
   4024   4043     1   0.14647 272713.120000
   4025   4029     1   0.14233 265014.560000
   4025   4038     1   0.14316 258236.480000
   4031   4036     1   0.14233 265014.560000
   4045   4047     1   0.14619 275056.160000
   4047   4049     1   0.15375 251793.120000
   4049   4053     1   0.15110 237065.440000
   4053   4054     1   0.15110 237065.440000
   4053   4055     1   0.15110 237065.440000
   4054   4065     1   0.15375 251793.120000
   4055   4057     1   0.15375 251793.120000
   4057   4061     1   0.15241 261918.400000
   4061   4062     1   0.12183 533627.360000
   4061   4093     1   0.13400 406935.840000
   4065   4068     1   0.15241 261918.400000
   4068   4069     1   0.12183 533627.360000
   4068   4117     1   0.13400 406935.840000
   4070   4071     1   0.15375 251793.120000
   4070   4081     1   0.15375 251793.120000
   4070   4088     1   0.14316 258236.480000
   4071   4073     1   0.15375 251793.120000
   4071   4091     1   0.14233 265014.560000
   4073   4074     1   0.15375 251793.120000
   4073   4080     1   0.14233 265014.560000
   4074   4075     1   0.15375 251793.120000
   4074   4093     1   0.14647 272713.120000
   4075   4079     1   0.14233 265014.560000
   4075   4088     1   0.14316 258236.480000
   4081   4086     1   0.14233 265014.560000
   4094   4095     1   0.15375 251793.120000
   4094   4105     1   0.15375 251793.120000
   4094   4112     1   0.14316 258236.480000
   4095   4097     1   0.15375 251793.120000
   4095   4115     1   0.14233 265014.560000
   4097   4098     1   0.15375 251793.120000
   4097   4104     1   0.14233 265014.560000
   4098   4099     1   0.15375 251793.120000
   4098   4117     1   0.14647 272713.120000
   4099   4103     1   0.14233 265014.560000
   4099   4112     1   0.14316 258236.480000
   4105   4110     1   0.14233 265014.560000
   4119   4121     1   0.14619 275056.160000
   4121   4123     1   0.15375 251793.120000
   4123   4127     1   0.15110 237065.440000
   4127   4128     1   0.15110 237065.440000
   4127   4129     1   0.15110 237065.440000
   4128   4139     1   0.15375 251793.120000
   4129   4131     1   0.15375 251793.120000
   4131   4135     1   0.15241 261918.400000
   4135   4136     1   0.12183 533627.360000
   4135   4167     1   0.13400 406935.840000
   4139   4142     1   0.15241 261918.400000
   4142   4143     1   0.12183 533627.360000
   4142   4191     1   0.13400 406935.840000
   4144   4145     1   0.15375 251793.120000
   4144   4155     1   0.15375 251793.120000
   4144   4162     1   0.14316 258236.480000
   4145   4147     1   0.15375 251793.120000
   4145   4165     1   0.14233 265014.560000
   4147   4148     1   0.15375 251793.120000
   4147   4154     1   0.14233 265014.560000
   4148   4149     1   0.15375 251793.120000
   4148   4167     1   0.14647 272713.120000
   4149   4153     1   0.14233 265014.560000
   4149   4162     1   0.14316 258236.480000
   4155   4160     1   0.14233 265014.560000
   4168   4169     1   0.15375 251793.120000
   4168   4179     1   0.15375 251793.120000
   4168   4186     1   0.14316 258236.480000
   4169   4171     1   0.15375 251793.120000
   4169   4189     1   0.14233 265014.560000
   4171   4172     1   0.15375 251793.120000
   4171   4178     1   0.14233 265014.560000
   4172   4173     1   0.15375 251793.120000
   4172   4191     1   0.14647 272713.120000
   4173   4177     1   0.14233 265014.560000
   4173   4186     1   0.14316 258236.480000
   4179   4184     1   0.14233 265014.560000
   4193   4195     1   0.14619 275056.160000
   4195   4197     1   0.15375 251793.120000
   4197   4201     1   0.15110 237065.440000
   4201   4202     1   0.15110 237065.440000
   4201   4203     1   0.15110 237065.440000
   4202   4213     1   0.15375 251793.120000
   4203   4205     1   0.15375 251793.120000
   4205   4209     1   0.15241 261918.400000
   4209   4210     1   0.12183 533627.360000
   4209   4241     1   0.13400 406935.840000
   4213   4216     1   0.15241 261918.400000
   4216   4217     1   0.12183 533627.360000
   4216   4265     1   0.13400 406935.840000
   4218   4219     1   0.15375 251793.120000
   4218   4229     1   0.15375 251793.120000
   4218   4236     1   0.14316 258236.480000
   4219   4221     1   0.15375 251793.120000
   4219   4239     1   0.14233 265014.560000
   4221   4222     1   0.15375 251793.120000
   4221   4228     1   0.14233 265014.560000
   4222   4223     1   0.15375 251793.120000
   4222   4241     1   0.14647 272713.120000
   4223   4227     1   0.14233 265014.560000
   4223   4236     1   0.14316 258236.480000
   4229   4234     1   0.14233 265014.560000
   4242   4243     1   0.15375 251793.120000
   4242   4253     1   0.15375 251793.120000
   4242   4260     1   0.14316 258236.480000
   4243   4245     1   0.15375 251793.120000
   4243   4263     1   0.14233 265014.560000
   4245   4246     1   0.15375 251793.120000
   4245   4252     1   0.14233 265014.560000
   4246   4247     1   0.15375 251793.120000
   4246   4265     1   0.14647 272713.120000
   4247   4251     1   0.14233 265014.560000
   4247   4260     1   0.14316 258236.480000
   4253   4258     1   0.14233 265014.560000
   4267   4269     1   0.14619 275056.160000
   4269   4271     1   0.15375 251793.120000
   4271   4275     1   0.15110 237065.440000
   4275   4276     1   0.15110 237065.440000
   4275   4277     1   0.15110 237065.440000
   4276   4287     1   0.15375 251793.120000
   4277   4279     1   0.15375 251793.120000
   4279   4283     1   0.15241 261918.400000
   4283   4284     1   0.12183 533627.360000
   4283   4315     1   0.13400 406935.840000
   4287   4290     1   0.15241 261918.400000
   4290   4291     1   0.12183 533627.360000
   4290   4339     1   0.13400 406935.840000
   4292   4293     1   0.15375 251793.120000
   4292   4303     1   0.15375 251793.120000
   4292   4310     1   0.14316 258236.480000
   4293   4295     1   0.15375 251793.120000
   4293   4313     1   0.14233 265014.560000
   4295   4296     1   0.15375 251793.120000
   4295   4302     1   0.14233 265014.560000
   4296   4297     1   0.15375 251793.120000
   4296   4315     1   0.14647 272713.120000
   4297   4301     1   0.14233 265014.560000
   4297   4310     1   0.14316 258236.480000
   4303   4308     1   0.14233 265014.560000
   4316   4317     1   0.15375 251793.120000
   4316   4327     1   0.15375 251793.120000
   4316   4334     1   0.14316 258236.480000
   4317   4319     1   0.15375 251793.120000
   4317   4337     1   0.14233 265014.560000
   4319   4320     1   0.15375 251793.120000
   4319   4326     1   0.14233 265014.560000
   4320   4321     1   0.15375 251793.120000
   4320   4339     1   0.14647 272713.120000
   4321   4325     1   0.14233 265014.560000
   4321   4334     1   0.14316 258236.480000
   4327   4332     1   0.14233 265014.560000
   4341   4343     1   0.14619 275056.160000
   4343   4345     1   0.15375 251793.120000
   4345   4349     1   0.15110 237065.440000
   4349   4350     1   0.15110 237065.440000
   4349   4351     1   0.15110 237065.440000
   4350   4361     1   0.15375 251793.120000
   4351   4353     1   0.15375 251793.120000
   4353   4357     1   0.15241 261918.400000
   4357   4358     1   0.12183 533627.360000
   4357   4389     1   0.13400 406935.840000
   4361   4364     1   0.15241 261918.400000
   4364   4365     1   0.12183 533627.360000
   4364   4413     1   0.13400 406935.840000
   4366   4367     1   0.15375 251793.120000
   4366   4377     1   0.15375 251793.120000
   4366   4384     1   0.14316 258236.480000
   4367   4369     1   0.15375 251793.120000
   4367   4387     1   0.14233 265014.560000
   4369   4370     1   0.15375 251793.120000
   4369   4376     1   0.14233 265014.560000
   4370   4371     1   0.15375 251793.120000
   4370   4389     1   0.14647 272713.120000
   4371   4375     1   0.14233 265014.560000
   4371   4384     1   0.14316 258236.480000
   4377   4382     1   0.14233 265014.560000
   4390   4391     1   0.15375 251793.120000
   4390   4401     1   0.15375 251793.120000
   4390   4408     1   0.14316 258236.480000
   4391   4393     1   0.15375 251793.120000
   4391   4411     1   0.14233 265014.560000
   4393   4394     1   0.15375 251793.120000
   4393   4400     1   0.14233 265014.560000
   4394   4395     1   0.15375 251793.120000
   4394   4413     1   0.14647 272713.120000
   4395   4399     1   0.14233 265014.560000
   4395   4408     1   0.14316 258236.480000
   4401   4406     1   0.14233 265014.560000
   4415   4417     1   0.14619 275056.160000
   4417   4419     1   0.15375 251793.120000
   4419   4423     1   0.15110 237065.440000
   4423   4424     1   0.15110 237065.440000
   4423   4425     1   0.15110 237065.440000
   4424   4435     1   0.15375 251793.120000
   4425   4427     1   0.15375 251793.120000
   4427   4431     1   0.15241 261918.400000
   4431   4432     1   0.12183 533627.360000
   4431   4463     1   0.13400 406935.840000
   4435   4438     1   0.15241 261918.400000
   4438   4439     1   0.12183 533627.360000
   4438   4487     1   0.13400 406935.840000
   4440   4441     1   0.15375 251793.120000
   4440   4451     1   0.15375 251793.120000
   4440   4458     1   0.14316 258236.480000
   4441   4443     1   0.15375 251793.120000
   4441   4461     1   0.14233 265014.560000
   4443   4444     1   0.15375 251793.120000
   4443   4450     1   0.14233 265014.560000
   4444   4445     1   0.15375 251793.120000
   4444   4463     1   0.14647 272713.120000
   4445   4449     1   0.14233 265014.560000
   4445   4458     1   0.14316 258236.480000
   4451   4456     1   0.14233 265014.560000
   4464   4465     1   0.15375 251793.120000
   4464   4475     1   0.15375 251793.120000
   4464   4482     1   0.14316 258236.480000
   4465   4467     1   0.15375 251793.120000
   4465   4485     1   0.14233 265014.560000
   4467   4468     1   0.15375 251793.120000
   4467   4474     1   0.14233 265014.560000
   4468   4469     1   0.15375 251793.120000
   4468   4487     1   0.14647 272713.120000
   4469   4473     1   0.14233 265014.560000
   4469   4482     1   0.14316 258236.480000
   4475   4480     1   0.14233 265014.560000
   4489   4491     1   0.14619 275056.160000
   4491   4493     1   0.15375 251793.120000
   4493   4497     1   0.15110 237065.440000
   4497   4498     1   0.15110 237065.440000
   4497   4499     1   0.15110 237065.440000
   4498   4509     1   0.15375 251793.120000
   4499   4501     1   0.15375 251793.120000
   4501   4505     1   0.15241 261918.400000
   4505   4506     1   0.12183 533627.360000
   4505   4537     1   0.13400 406935.840000
   4509   4512     1   0.15241 261918.400000
   4512   4513     1   0.12183 533627.360000
   4512   4561     1   0.13400 406935.840000
   4514   4515     1   0.15375 251793.120000
   4514   4525     1   0.15375 251793.120000
   4514   4532     1   0.14316 258236.480000
   4515   4517     1   0.15375 251793.120000
   4515   4535     1   0.14233 265014.560000
   4517   4518     1   0.15375 251793.120000
   4517   4524     1   0.14233 265014.560000
   4518   4519     1   0.15375 251793.120000
   4518   4537     1   0.14647 272713.120000
   4519   4523     1   0.14233 265014.560000
   4519   4532     1   0.14316 258236.480000
   4525   4530     1   0.14233 265014.560000
   4538   4539     1   0.15375 251793.120000
   4538   4549     1   0.15375 251793.120000
   4538   4556     1   0.14316 258236.480000
   4539   4541     1   0.15375 251793.120000
   4539   4559     1   0.14233 265014.560000
   4541   4542     1   0.15375 251793.120000
   4541   4548     1   0.14233 265014.560000
   4542   4543     1   0.15375 251793.120000
   4542   4561     1   0.14647 272713.120000
   4543   4547     1   0.14233 265014.560000
   4543   4556     1   0.14316 258236.480000
   4549   4554     1   0.14233 265014.560000
   4563   4565     1   0.14619 275056.160000
   4565   4567     1   0.15375 251793.120000
   4567   4571     1   0.15110 237065.440000
   4571   4572     1   0.15110 237065.440000
   4571   4573     1   0.15110 237065.440000
   4572   4583     1   0.15375 251793.120000
   4573   4575     1   0.15375 251793.120000
   4575   4579     1   0.15241 261918.400000
   4579   4580     1   0.12183 533627.360000
   4579   4611     1   0.13400 406935.840000
   4583   4586     1   0.15241 261918.400000
   4586   4587     1   0.12183 533627.360000
   4586   4635     1   0.13400 406935.840000
   4588   4589     1   0.15375 251793.120000
   4588   4599     1   0.15375 251793.120000
   4588   4606     1   0.14316 258236.480000
   4589   4591     1   0.15375 251793.120000
   4589   4609     1   0.14233 265014.560000
   4591   4592     1   0.15375 251793.120000
   4591   4598     1   0.14233 265014.560000
   4592   4593     1   0.15375 251793.120000
   4592   4611     1   0.14647 272713.120000
   4593   4597     1   0.14233 265014.560000
   4593   4606     1   0.14316 258236.480000
   4599   4604     1   0.14233 265014.560000
   4612   4613     1   0.15375 251793.120000
   4612   4623     1   0.15375 251793.120000
   4612   4630     1   0.14316 258236.480000
   4613   4615     1   0.15375 251793.120000
   4613   4633     1   0.14233 265014.560000
   4615   4616     1   0.15375 251793.120000
   4615   4622     1   0.14233 265014.560000
   4616   4617     1   0.15375 251793.120000
   4616   4635     1   0.14647 272713.120000
   4617   4621     1   0.14233 265014.560000
   4617   4630     1   0.14316 258236.480000
   4623   4628     1   0.14233 265014.560000
   4637   4639     1   0.14619 275056.160000
   4639   4641     1   0.15375 251793.120000
   4641   4645     1   0.15110 237065.440000
   4645   4646     1   0.15110 237065.440000
   4645   4647     1   0.15110 237065.440000
   4646   4657     1   0.15375 251793.120000
   4647   4649     1   0.15375 251793.120000
   4649   4653     1   0.15241 261918.400000
   4653   4654     1   0.12183 533627.360000
   4653   4685     1   0.13400 406935.840000
   4657   4660     1   0.15241 261918.400000
   4660   4661     1   0.12183 533627.360000
   4660   4709     1   0.13400 406935.840000
   4662   4663     1   0.15375 251793.120000
   4662   4673     1   0.15375 251793.120000
   4662   4680     1   0.14316 258236.480000
   4663   4665     1   0.15375 251793.120000
   4663   4683     1   0.14233 265014.560000
   4665   4666     1   0.15375 251793.120000
   4665   4672     1   0.14233 265014.560000
   4666   4667     1   0.15375 251793.120000
   4666   4685     1   0.14647 272713.120000
   4667   4671     1   0.14233 265014.560000
   4667   4680     1   0.14316 258236.480000
   4673   4678     1   0.14233 265014.560000
   4686   4687     1   0.15375 251793.120000
   4686   4697     1   0.15375 251793.120000
   4686   4704     1   0.14316 258236.480000
   4687   4689     1   0.15375 251793.120000
   4687   4707     1   0.14233 265014.560000
   4689   4690     1   0.15375 251793.120000
   4689   4696     1   0.14233 265014.560000
   4690   4691     1   0.15375 251793.120000
   4690   4709     1   0.14647 272713.120000
   4691   4695     1   0.14233 265014.560000
   4691   4704     1   0.14316 258236.480000
   4697   4702     1   0.14233 265014.560000
   4711   4713     1   0.14619 275056.160000
   4713   4715     1   0.15375 251793.120000
   4715   4719     1   0.15110 237065.440000
   4719   4720     1   0.15110 237065.440000
   4719   4721     1   0.15110 237065.440000
   4720   4731     1   0.15375 251793.120000
   4721   4723     1   0.15375 251793.120000
   4723   4727     1   0.15241 261918.400000
   4727   4728     1   0.12183 533627.360000
   4727   4759     1   0.13400 406935.840000
   4731   4734     1   0.15241 261918.400000
   4734   4735     1   0.12183 533627.360000
   4734   4783     1   0.13400 406935.840000
   4736   4737     1   0.15375 251793.120000
   4736   4747     1   0.15375 251793.120000
   4736   4754     1   0.14316 258236.480000
   4737   4739     1   0.15375 251793.120000
   4737   4757     1   0.14233 265014.560000
   4739   4740     1   0.15375 251793.120000
   4739   4746     1   0.14233 265014.560000
   4740   4741     1   0.15375 251793.120000
   4740   4759     1   0.14647 272713.120000
   4741   4745     1   0.14233 265014.560000
   4741   4754     1   0.14316 258236.480000
   4747   4752     1   0.14233 265014.560000
   4760   4761     1   0.15375 251793.120000
   4760   4771     1   0.15375 251793.120000
   4760   4778     1   0.14316 258236.480000
   4761   4763     1   0.15375 251793.120000
   4761   4781     1   0.14233 265014.560000
   4763   4764     1   0.15375 251793.120000
   4763   4770     1   0.14233 265014.560000
   4764   4765     1   0.15375 251793.120000
   4764   4783     1   0.14647 272713.120000
   4765   4769     1   0.14233 265014.560000
   4765   4778     1   0.14316 258236.480000
   4771   4776     1   0.14233 265014.560000
   4785   4787     1   0.14619 275056.160000
   4787   4789     1   0.15375 251793.120000
   4789   4793     1   0.15110 237065.440000
   4793   4794     1   0.15110 237065.440000
   4793   4795     1   0.15110 237065.440000
   4794   4805     1   0.15375 251793.120000
   4795   4797     1   0.15375 251793.120000
   4797   4801     1   0.15241 261918.400000
   4801   4802     1   0.12183 533627.360000
   4801   4833     1   0.13400 406935.840000
   4805   4808     1   0.15241 261918.400000
   4808   4809     1   0.12183 533627.360000
   4808   4857     1   0.13400 406935.840000
   4810   4811     1   0.15375 251793.120000
   4810   4821     1   0.15375 251793.120000
   4810   4828     1   0.14316 258236.480000
   4811   4813     1   0.15375 251793.120000
   4811   4831     1   0.14233 265014.560000
   4813   4814     1   0.15375 251793.120000
   4813   4820     1   0.14233 265014.560000
   4814   4815     1   0.15375 251793.120000
   4814   4833     1   0.14647 272713.120000
   4815   4819     1   0.14233 265014.560000
   4815   4828     1   0.14316 258236.480000
   4821   4826     1   0.14233 265014.560000
   4834   4835     1   0.15375 251793.120000
   4834   4845     1   0.15375 251793.120000
   4834   4852     1   0.14316 258236.480000
   4835   4837     1   0.15375 251793.120000
   4835   4855     1   0.14233 265014.560000
   4837   4838     1   0.15375 251793.120000
   4837   4844     1   0.14233 265014.560000
   4838   4839     1   0.15375 251793.120000
   4838   4857     1   0.14647 272713.120000
   4839   4843     1   0.14233 265014.560000
   4839   4852     1   0.14316 258236.480000
   4845   4850     1   0.14233 265014.560000
   4859   4861     1   0.14619 275056.160000
   4861   4863     1   0.15375 251793.120000
   4863   4867     1   0.15110 237065.440000
   4867   4868     1   0.15110 237065.440000
   4867   4869     1   0.15110 237065.440000
   4868   4879     1   0.15375 251793.120000
   4869   4871     1   0.15375 251793.120000
   4871   4875     1   0.15241 261918.400000
   4875   4876     1   0.12183 533627.360000
   4875   4907     1   0.13400 406935.840000
   4879   4882     1   0.15241 261918.400000
   4882   4883     1   0.12183 533627.360000
   4882   4931     1   0.13400 406935.840000
   4884   4885     1   0.15375 251793.120000
   4884   4895     1   0.15375 251793.120000
   4884   4902     1   0.14316 258236.480000
   4885   4887     1   0.15375 251793.120000
   4885   4905     1   0.14233 265014.560000
   4887   4888     1   0.15375 251793.120000
   4887   4894     1   0.14233 265014.560000
   4888   4889     1   0.15375 251793.120000
   4888   4907     1   0.14647 272713.120000
   4889   4893     1   0.14233 265014.560000
   4889   4902     1   0.14316 258236.480000
   4895   4900     1   0.14233 265014.560000
   4908   4909     1   0.15375 251793.120000
   4908   4919     1   0.15375 251793.120000
   4908   4926     1   0.14316 258236.480000
   4909   4911     1   0.15375 251793.120000
   4909   4929     1   0.14233 265014.560000
   4911   4912     1   0.15375 251793.120000
   4911   4918     1   0.14233 265014.560000
   4912   4913     1   0.15375 251793.120000
   4912   4931     1   0.14647 272713.120000
   4913   4917     1   0.14233 265014.560000
   4913   4926     1   0.14316 258236.480000
   4919   4924     1   0.14233 265014.560000
   4933   4935     1   0.14619 275056.160000
   4935   4937     1   0.15375 251793.120000
   4937   4941     1   0.15110 237065.440000
   4941   4942     1   0.15110 237065.440000
   4941   4943     1   0.15110 237065.440000
   4942   4953     1   0.15375 251793.120000
   4943   4945     1   0.15375 251793.120000
   4945   4949     1   0.15241 261918.400000
   4949   4950     1   0.12183 533627.360000
   4949   4981     1   0.13400 406935.840000
   4953   4956     1   0.15241 261918.400000
   4956   4957     1   0.12183 533627.360000
   4956   5005     1   0.13400 406935.840000
   4958   4959     1   0.15375 251793.120000
   4958   4969     1   0.15375 251793.120000
   4958   4976     1   0.14316 258236.480000
   4959   4961     1   0.15375 251793.120000
   4959   4979     1   0.14233 265014.560000
   4961   4962     1   0.15375 251793.120000
   4961   4968     1   0.14233 265014.560000
   4962   4963     1   0.15375 251793.120000
   4962   4981     1   0.14647 272713.120000
   4963   4967     1   0.14233 265014.560000
   4963   4976     1   0.14316 258236.480000
   4969   4974     1   0.14233 265014.560000
   4982   4983     1   0.15375 251793.120000
   4982   4993     1   0.15375 251793.120000
   4982   5000     1   0.14316 258236.480000
   4983   4985     1   0.15375 251793.120000
   4983   5003     1   0.14233 265014.560000
   4985   4986     1   0.15375 251793.120000
   4985   4992     1   0.14233 265014.560000
   4986   4987     1   0.15375 251793.120000
   4986   5005     1   0.14647 272713.120000
   4987   4991     1   0.14233 265014.560000
   4987   5000     1   0.14316 258236.480000
   4993   4998     1   0.14233 265014.560000
   5007   5009     1   0.14619 275056.160000
   5009   5011     1   0.15375 251793.120000
   5011   5015     1   0.15110 237065.440000
   5015   5016     1   0.15110 237065.440000
   5015   5017     1   0.15110 237065.440000
   5016   5027     1   0.15375 251793.120000
   5017   5019     1   0.15375 251793.120000
   5019   5023     1   0.15241 261918.400000
   5023   5024     1   0.12183 533627.360000
   5023   5055     1   0.13400 406935.840000
   5027   5030     1   0.15241 261918.400000
   5030   5031     1   0.12183 533627.360000
   5030   5079     1   0.13400 406935.840000
   5032   5033     1   0.15375 251793.120000
   5032   5043     1   0.15375 251793.120000
   5032   5050     1   0.14316 258236.480000
   5033   5035     1   0.15375 251793.120000
   5033   5053     1   0.14233 265014.560000
   5035   5036     1   0.15375 251793.120000
   5035   5042     1   0.14233 265014.560000
   5036   5037     1   0.15375 251793.120000
   5036   5055     1   0.14647 272713.120000
   5037   5041     1   0.14233 265014.560000
   5037   5050     1   0.14316 258236.480000
   5043   5048     1   0.14233 265014.560000
   5056   5057     1   0.15375 251793.120000
   5056   5067     1   0.15375 251793.120000
   5056   5074     1   0.14316 258236.480000
   5057   5059     1   0.15375 251793.120000
   5057   5077     1   0.14233 265014.560000
   5059   5060     1   0.15375 251793.120000
   5059   5066     1   0.14233 265014.560000
   5060   5061     1   0.15375 251793.120000
   5060   5079     1   0.14647 272713.120000
   5061   5065     1   0.14233 265014.560000
   5061   5074     1   0.14316 258236.480000
   5067   5072     1   0.14233 265014.560000
   5081   5083     1   0.14619 275056.160000
   5083   5085     1   0.15375 251793.120000
   5085   5089     1   0.15110 237065.440000
   5089   5090     1   0.15110 237065.440000
   5089   5091     1   0.15110 237065.440000
   5090   5101     1   0.15375 251793.120000
   5091   5093     1   0.15375 251793.120000
   5093   5097     1   0.15241 261918.400000
   5097   5098     1   0.12183 533627.360000
   5097   5129     1   0.13400 406935.840000
   5101   5104     1   0.15241 261918.400000
   5104   5105     1   0.12183 533627.360000
   5104   5153     1   0.13400 406935.840000
   5106   5107     1   0.15375 251793.120000
   5106   5117     1   0.15375 251793.120000
   5106   5124     1   0.14316 258236.480000
   5107   5109     1   0.15375 251793.120000
   5107   5127     1   0.14233 265014.560000
   5109   5110     1   0.15375 251793.120000
   5109   5116     1   0.14233 265014.560000
   5110   5111     1   0.15375 251793.120000
   5110   5129     1   0.14647 272713.120000
   5111   5115     1   0.14233 265014.560000
   5111   5124     1   0.14316 258236.480000
   5117   5122     1   0.14233 265014.560000
   5130   5131     1   0.15375 251793.120000
   5130   5141     1   0.15375 251793.120000
   5130   5148     1   0.14316 258236.480000
   5131   5133     1   0.15375 251793.120000
   5131   5151     1   0.14233 265014.560000
   5133   5134     1   0.15375 251793.120000
   5133   5140     1   0.14233 265014.560000
   5134   5135     1   0.15375 251793.120000
   5134   5153     1   0.14647 272713.120000
   5135   5139     1   0.14233 265014.560000
   5135   5148     1   0.14316 258236.480000
   5141   5146     1   0.14233 265014.560000
   5155   5157     1   0.14619 275056.160000
   5157   5159     1   0.15375 251793.120000
   5159   5163     1   0.15110 237065.440000
   5163   5164     1   0.15110 237065.440000
   5163   5165     1   0.15110 237065.440000
   5164   5175     1   0.15375 251793.120000
   5165   5167     1   0.15375 251793.120000
   5167   5171     1   0.15241 261918.400000
   5171   5172     1   0.12183 533627.360000
   5171   5203     1   0.13400 406935.840000
   5175   5178     1   0.15241 261918.400000
   5178   5179     1   0.12183 533627.360000
   5178   5227     1   0.13400 406935.840000
   5180   5181     1   0.15375 251793.120000
   5180   5191     1   0.15375 251793.120000
   5180   5198     1   0.14316 258236.480000
   5181   5183     1   0.15375 251793.120000
   5181   5201     1   0.14233 265014.560000
   5183   5184     1   0.15375 251793.120000
   5183   5190     1   0.14233 265014.560000
   5184   5185     1   0.15375 251793.120000
   5184   5203     1   0.14647 272713.120000
   5185   5189     1   0.14233 265014.560000
   5185   5198     1   0.14316 258236.480000
   5191   5196     1   0.14233 265014.560000
   5204   5205     1   0.15375 251793.120000
   5204   5215     1   0.15375 251793.120000
   5204   5222     1   0.14316 258236.480000
   5205   5207     1   0.15375 251793.120000
   5205   5225     1   0.14233 265014.560000
   5207   5208     1   0.15375 251793.120000
   5207   5214     1   0.14233 265014.560000
   5208   5209     1   0.15375 251793.120000
   5208   5227     1   0.14647 272713.120000
   5209   5213     1   0.14233 265014.560000
   5209   5222     1   0.14316 258236.480000
   5215   5220     1   0.14233 265014.560000
   5229   5231     1   0.14619 275056.160000
   5231   5233     1   0.15375 251793.120000
   5233   5237     1   0.15110 237065.440000
   5237   5238     1   0.15110 237065.440000
   5237   5239     1   0.15110 237065.440000
   5238   5249     1   0.15375 251793.120000
   5239   5241     1   0.15375 251793.120000
   5241   5245     1   0.15241 261918.400000
   5245   5246     1   0.12183 533627.360000
   5245   5277     1   0.13400 406935.840000
   5249   5252     1   0.15241 261918.400000
   5252   5253     1   0.12183 533627.360000
   5252   5301     1   0.13400 406935.840000
   5254   5255     1   0.15375 251793.120000
   5254   5265     1   0.15375 251793.120000
   5254   5272     1   0.14316 258236.480000
   5255   5257     1   0.15375 251793.120000
   5255   5275     1   0.14233 265014.560000
   5257   5258     1   0.15375 251793.120000
   5257   5264     1   0.14233 265014.560000
   5258   5259     1   0.15375 251793.120000
   5258   5277     1   0.14647 272713.120000
   5259   5263     1   0.14233 265014.560000
   5259   5272     1   0.14316 258236.480000
   5265   5270     1   0.14233 265014.560000
   5278   5279     1   0.15375 251793.120000
   5278   5289     1   0.15375 251793.120000
   5278   5296     1   0.14316 258236.480000
   5279   5281     1   0.15375 251793.120000
   5279   5299     1   0.14233 265014.560000
   5281   5282     1   0.15375 251793.120000
   5281   5288     1   0.14233 265014.560000
   5282   5283     1   0.15375 251793.120000
   5282   5301     1   0.14647 272713.120000
   5283   5287     1   0.14233 265014.560000
   5283   5296     1   0.14316 258236.480000
   5289   5294     1   0.14233 265014.560000
   5303   5305     1   0.14619 275056.160000
   5305   5307     1   0.15375 251793.120000
   5307   5311     1   0.15110 237065.440000
   5311   5312     1   0.15110 237065.440000
   5311   5313     1   0.15110 237065.440000
   5312   5323     1   0.15375 251793.120000
   5313   5315     1   0.15375 251793.120000
   5315   5319     1   0.15241 261918.400000
   5319   5320     1   0.12183 533627.360000
   5319   5351     1   0.13400 406935.840000
   5323   5326     1   0.15241 261918.400000
   5326   5327     1   0.12183 533627.360000
   5326   5375     1   0.13400 406935.840000
   5328   5329     1   0.15375 251793.120000
   5328   5339     1   0.15375 251793.120000
   5328   5346     1   0.14316 258236.480000
   5329   5331     1   0.15375 251793.120000
   5329   5349     1   0.14233 265014.560000
   5331   5332     1   0.15375 251793.120000
   5331   5338     1   0.14233 265014.560000
   5332   5333     1   0.15375 251793.120000
   5332   5351     1   0.14647 272713.120000
   5333   5337     1   0.14233 265014.560000
   5333   5346     1   0.14316 258236.480000
   5339   5344     1   0.14233 265014.560000
   5352   5353     1   0.15375 251793.120000
   5352   5363     1   0.15375 251793.120000
   5352   5370     1   0.14316 258236.480000
   5353   5355     1   0.15375 251793.120000
   5353   5373     1   0.14233 265014.560000
   5355   5356     1   0.15375 251793.120000
   5355   5362     1   0.14233 265014.560000
   5356   5357     1   0.15375 251793.120000
   5356   5375     1   0.14647 272713.120000
   5357   5361     1   0.14233 265014.560000
   5357   5370     1   0.14316 258236.480000
   5363   5368     1   0.14233 265014.560000
   5377   5379     1   0.14619 275056.160000
   5379   5381     1   0.15375 251793.120000
   5381   5385     1   0.15110 237065.440000
   5385   5386     1   0.15110 237065.440000
   5385   5387     1   0.15110 237065.440000
   5386   5397     1   0.15375 251793.120000
   5387   5389     1   0.15375 251793.120000
   5389   5393     1   0.15241 261918.400000
   5393   5394     1   0.12183 533627.360000
   5393   5425     1   0.13400 406935.840000
   5397   5400     1   0.15241 261918.400000
   5400   5401     1   0.12183 533627.360000
   5400   5449     1   0.13400 406935.840000
   5402   5403     1   0.15375 251793.120000
   5402   5413     1   0.15375 251793.120000
   5402   5420     1   0.14316 258236.480000
   5403   5405     1   0.15375 251793.120000
   5403   5423     1   0.14233 265014.560000
   5405   5406     1   0.15375 251793.120000
   5405   5412     1   0.14233 265014.560000
   5406   5407     1   0.15375 251793.120000
   5406   5425     1   0.14647 272713.120000
   5407   5411     1   0.14233 265014.560000
   5407   5420     1   0.14316 258236.480000
   5413   5418     1   0.14233 265014.560000
   5426   5427     1   0.15375 251793.120000
   5426   5437     1   0.15375 251793.120000
   5426   5444     1   0.14316 258236.480000
   5427   5429     1   0.15375 251793.120000
   5427   5447     1   0.14233 265014.560000
   5429   5430     1   0.15375 251793.120000
   5429   5436     1   0.14233 265014.560000
   5430   5431     1   0.15375 251793.120000
   5430   5449     1   0.14647 272713.120000
   5431   5435     1   0.14233 265014.560000
   5431   5444     1   0.14316 258236.480000
   5437   5442     1   0.14233 265014.560000
   5451   5453     1   0.14619 275056.160000
   5453   5455     1   0.15375 251793.120000
   5455   5459     1   0.15110 237065.440000
   5459   5460     1   0.15110 237065.440000
   5459   5461     1   0.15110 237065.440000
   5460   5471     1   0.15375 251793.120000
   5461   5463     1   0.15375 251793.120000
   5463   5467     1   0.15241 261918.400000
   5467   5468     1   0.12183 533627.360000
   5467   5499     1   0.13400 406935.840000
   5471   5474     1   0.15241 261918.400000
   5474   5475     1   0.12183 533627.360000
   5474   5523     1   0.13400 406935.840000
   5476   5477     1   0.15375 251793.120000
   5476   5487     1   0.15375 251793.120000
   5476   5494     1   0.14316 258236.480000
   5477   5479     1   0.15375 251793.120000
   5477   5497     1   0.14233 265014.560000
   5479   5480     1   0.15375 251793.120000
   5479   5486     1   0.14233 265014.560000
   5480   5481     1   0.15375 251793.120000
   5480   5499     1   0.14647 272713.120000
   5481   5485     1   0.14233 265014.560000
   5481   5494     1   0.14316 258236.480000
   5487   5492     1   0.14233 265014.560000
   5500   5501     1   0.15375 251793.120000
   5500   5511     1   0.15375 251793.120000
   5500   5518     1   0.14316 258236.480000
   5501   5503     1   0.15375 251793.120000
   5501   5521     1   0.14233 265014.560000
   5503   5504     1   0.15375 251793.120000
   5503   5510     1   0.14233 265014.560000
   5504   5505     1   0.15375 251793.120000
   5504   5523     1   0.14647 272713.120000
   5505   5509     1   0.14233 265014.560000
   5505   5518     1   0.14316 258236.480000
   5511   5516     1   0.14233 265014.560000
   5525   5527     1   0.14619 275056.160000
   5527   5529     1   0.15375 251793.120000
   5529   5533     1   0.15110 237065.440000
   5533   5534     1   0.15110 237065.440000
   5533   5535     1   0.15110 237065.440000
   5534   5545     1   0.15375 251793.120000
   5535   5537     1   0.15375 251793.120000
   5537   5541     1   0.15241 261918.400000
   5541   5542     1   0.12183 533627.360000
   5541   5573     1   0.13400 406935.840000
   5545   5548     1   0.15241 261918.400000
   5548   5549     1   0.12183 533627.360000
   5548   5597     1   0.13400 406935.840000
   5550   5551     1   0.15375 251793.120000
   5550   5561     1   0.15375 251793.120000
   5550   5568     1   0.14316 258236.480000
   5551   5553     1   0.15375 251793.120000
   5551   5571     1   0.14233 265014.560000
   5553   5554     1   0.15375 251793.120000
   5553   5560     1   0.14233 265014.560000
   5554   5555     1   0.15375 251793.120000
   5554   5573     1   0.14647 272713.120000
   5555   5559     1   0.14233 265014.560000
   5555   5568     1   0.14316 258236.480000
   5561   5566     1   0.14233 265014.560000
   5574   5575     1   0.15375 251793.120000
   5574   5585     1   0.15375 251793.120000
   5574   5592     1   0.14316 258236.480000
   5575   5577     1   0.15375 251793.120000
   5575   5595     1   0.14233 265014.560000
   5577   5578     1   0.15375 251793.120000
   5577   5584     1   0.14233 265014.560000
   5578   5579     1   0.15375 251793.120000
   5578   5597     1   0.14647 272713.120000
   5579   5583     1   0.14233 265014.560000
   5579   5592     1   0.14316 258236.480000
   5585   5590     1   0.14233 265014.560000
   5599   5601     1   0.14619 275056.160000
   5601   5603     1   0.15375 251793.120000
   5603   5607     1   0.15110 237065.440000
   5607   5608     1   0.15110 237065.440000
   5607   5609     1   0.15110 237065.440000
   5608   5619     1   0.15375 251793.120000
   5609   5611     1   0.15375 251793.120000
   5611   5615     1   0.15241 261918.400000
   5615   5616     1   0.12183 533627.360000
   5615   5647     1   0.13400 406935.840000
   5619   5622     1   0.15241 261918.400000
   5622   5623     1   0.12183 533627.360000
   5622   5671     1   0.13400 406935.840000
   5624   5625     1   0.15375 251793.120000
   5624   5635     1   0.15375 251793.120000
   5624   5642     1   0.14316 258236.480000
   5625   5627     1   0.15375 251793.120000
   5625   5645     1   0.14233 265014.560000
   5627   5628     1   0.15375 251793.120000
   5627   5634     1   0.14233 265014.560000
   5628   5629     1   0.15375 251793.120000
   5628   5647     1   0.14647 272713.120000
   5629   5633     1   0.14233 265014.560000
   5629   5642     1   0.14316 258236.480000
   5635   5640     1   0.14233 265014.560000
   5648   5649     1   0.15375 251793.120000
   5648   5659     1   0.15375 251793.120000
   5648   5666     1   0.14316 258236.480000
   5649   5651     1   0.15375 251793.120000
   5649   5669     1   0.14233 265014.560000
   5651   5652     1   0.15375 251793.120000
   5651   5658     1   0.14233 265014.560000
   5652   5653     1   0.15375 251793.120000
   5652   5671     1   0.14647 272713.120000
   5653   5657     1   0.14233 265014.560000
   5653   5666     1   0.14316 258236.480000
   5659   5664     1   0.14233 265014.560000
   5673   5675     1   0.14619 275056.160000
   5675   5677     1   0.15375 251793.120000
   5677   5681     1   0.15110 237065.440000
   5681   5682     1   0.15110 237065.440000
   5681   5683     1   0.15110 237065.440000
   5682   5693     1   0.15375 251793.120000
   5683   5685     1   0.15375 251793.120000
   5685   5689     1   0.15241 261918.400000
   5689   5690     1   0.12183 533627.360000
   5689   5721     1   0.13400 406935.840000
   5693   5696     1   0.15241 261918.400000
   5696   5697     1   0.12183 533627.360000
   5696   5745     1   0.13400 406935.840000
   5698   5699     1   0.15375 251793.120000
   5698   5709     1   0.15375 251793.120000
   5698   5716     1   0.14316 258236.480000
   5699   5701     1   0.15375 251793.120000
   5699   5719     1   0.14233 265014.560000
   5701   5702     1   0.15375 251793.120000
   5701   5708     1   0.14233 265014.560000
   5702   5703     1   0.15375 251793.120000
   5702   5721     1   0.14647 272713.120000
   5703   5707     1   0.14233 265014.560000
   5703   5716     1   0.14316 258236.480000
   5709   5714     1   0.14233 265014.560000
   5722   5723     1   0.15375 251793.120000
   5722   5733     1   0.15375 251793.120000
   5722   5740     1   0.14316 258236.480000
   5723   5725     1   0.15375 251793.120000
   5723   5743     1   0.14233 265014.560000
   5725   5726     1   0.15375 251793.120000
   5725   5732     1   0.14233 265014.560000
   5726   5727     1   0.15375 251793.120000
   5726   5745     1   0.14647 272713.120000
   5727   5731     1   0.14233 265014.560000
   5727   5740     1   0.14316 258236.480000
   5733   5738     1   0.14233 265014.560000
   5747   5749     1   0.14619 275056.160000
   5749   5751     1   0.15375 251793.120000
   5751   5755     1   0.15110 237065.440000
   5755   5756     1   0.15110 237065.440000
   5755   5757     1   0.15110 237065.440000
   5756   5767     1   0.15375 251793.120000
   5757   5759     1   0.15375 251793.120000
   5759   5763     1   0.15241 261918.400000
   5763   5764     1   0.12183 533627.360000
   5763   5795     1   0.13400 406935.840000
   5767   5770     1   0.15241 261918.400000
   5770   5771     1   0.12183 533627.360000
   5770   5819     1   0.13400 406935.840000
   5772   5773     1   0.15375 251793.120000
   5772   5783     1   0.15375 251793.120000
   5772   5790     1   0.14316 258236.480000
   5773   5775     1   0.15375 251793.120000
   5773   5793     1   0.14233 265014.560000
   5775   5776     1   0.15375 251793.120000
   5775   5782     1   0.14233 265014.560000
   5776   5777     1   0.15375 251793.120000
   5776   5795     1   0.14647 272713.120000
   5777   5781     1   0.14233 265014.560000
   5777   5790     1   0.14316 258236.480000
   5783   5788     1   0.14233 265014.560000
   5796   5797     1   0.15375 251793.120000
   5796   5807     1   0.15375 251793.120000
   5796   5814     1   0.14316 258236.480000
   5797   5799     1   0.15375 251793.120000
   5797   5817     1   0.14233 265014.560000
   5799   5800     1   0.15375 251793.120000
   5799   5806     1   0.14233 265014.560000
   5800   5801     1   0.15375 251793.120000
   5800   5819     1   0.14647 272713.120000
   5801   5805     1   0.14233 265014.560000
   5801   5814     1   0.14316 258236.480000
   5807   5812     1   0.14233 265014.560000
   5821   5823     1   0.14619 275056.160000
   5823   5825     1   0.15375 251793.120000
   5825   5829     1   0.15110 237065.440000
   5829   5830     1   0.15110 237065.440000
   5829   5831     1   0.15110 237065.440000
   5830   5841     1   0.15375 251793.120000
   5831   5833     1   0.15375 251793.120000
   5833   5837     1   0.15241 261918.400000
   5837   5838     1   0.12183 533627.360000
   5837   5869     1   0.13400 406935.840000
   5841   5844     1   0.15241 261918.400000
   5844   5845     1   0.12183 533627.360000
   5844   5893     1   0.13400 406935.840000
   5846   5847     1   0.15375 251793.120000
   5846   5857     1   0.15375 251793.120000
   5846   5864     1   0.14316 258236.480000
   5847   5849     1   0.15375 251793.120000
   5847   5867     1   0.14233 265014.560000
   5849   5850     1   0.15375 251793.120000
   5849   5856     1   0.14233 265014.560000
   5850   5851     1   0.15375 251793.120000
   5850   5869     1   0.14647 272713.120000
   5851   5855     1   0.14233 265014.560000
   5851   5864     1   0.14316 258236.480000
   5857   5862     1   0.14233 265014.560000
   5870   5871     1   0.15375 251793.120000
   5870   5881     1   0.15375 251793.120000
   5870   5888     1   0.14316 258236.480000
   5871   5873     1   0.15375 251793.120000
   5871   5891     1   0.14233 265014.560000
   5873   5874     1   0.15375 251793.120000
   5873   5880     1   0.14233 265014.560000
   5874   5875     1   0.15375 251793.120000
   5874   5893     1   0.14647 272713.120000
   5875   5879     1   0.14233 265014.560000
   5875   5888     1   0.14316 258236.480000
   5881   5886     1   0.14233 265014.560000
   5895   5897     1   0.14619 275056.160000
   5897   5899     1   0.15375 251793.120000
   5899   5903     1   0.15110 237065.440000
   5903   5904     1   0.15110 237065.440000
   5903   5905     1   0.15110 237065.440000
   5904   5915     1   0.15375 251793.120000
   5905   5907     1   0.15375 251793.120000
   5907   5911     1   0.15241 261918.400000
   5911   5912     1   0.12183 533627.360000
   5911   5943     1   0.13400 406935.840000
   5915   5918     1   0.15241 261918.400000
   5918   5919     1   0.12183 533627.360000
   5918   5967     1   0.13400 406935.840000
   5920   5921     1   0.15375 251793.120000
   5920   5931     1   0.15375 251793.120000
   5920   5938     1   0.14316 258236.480000
   5921   5923     1   0.15375 251793.120000
   5921   5941     1   0.14233 265014.560000
   5923   5924     1   0.15375 251793.120000
   5923   5930     1   0.14233 265014.560000
   5924   5925     1   0.15375 251793.120000
   5924   5943     1   0.14647 272713.120000
   5925   5929     1   0.14233 265014.560000
   5925   5938     1   0.14316 258236.480000
   5931   5936     1   0.14233 265014.560000
   5944   5945     1   0.15375 251793.120000
   5944   5955     1   0.15375 251793.120000
   5944   5962     1   0.14316 258236.480000
   5945   5947     1   0.15375 251793.120000
   5945   5965     1   0.14233 265014.560000
   5947   5948     1   0.15375 251793.120000
   5947   5954     1   0.14233 265014.560000
   5948   5949     1   0.15375 251793.120000
   5948   5967     1   0.14647 272713.120000
   5949   5953     1   0.14233 265014.560000
   5949   5962     1   0.14316 258236.480000
   5955   5960     1   0.14233 265014.560000
   5969   5971     1   0.14619 275056.160000
   5971   5973     1   0.15375 251793.120000
   5973   5977     1   0.15110 237065.440000
   5977   5978     1   0.15110 237065.440000
   5977   5979     1   0.15110 237065.440000
   5978   5989     1   0.15375 251793.120000
   5979   5981     1   0.15375 251793.120000
   5981   5985     1   0.15241 261918.400000
   5985   5986     1   0.12183 533627.360000
   5985   6017     1   0.13400 406935.840000
   5989   5992     1   0.15241 261918.400000
   5992   5993     1   0.12183 533627.360000
   5992   6041     1   0.13400 406935.840000
   5994   5995     1   0.15375 251793.120000
   5994   6005     1   0.15375 251793.120000
   5994   6012     1   0.14316 258236.480000
   5995   5997     1   0.15375 251793.120000
   5995   6015     1   0.14233 265014.560000
   5997   5998     1   0.15375 251793.120000
   5997   6004     1   0.14233 265014.560000
   5998   5999     1   0.15375 251793.120000
   5998   6017     1   0.14647 272713.120000
   5999   6003     1   0.14233 265014.560000
   5999   6012     1   0.14316 258236.480000
   6005   6010     1   0.14233 265014.560000
   6018   6019     1   0.15375 251793.120000
   6018   6029     1   0.15375 251793.120000
   6018   6036     1   0.14316 258236.480000
   6019   6021     1   0.15375 251793.120000
   6019   6039     1   0.14233 265014.560000
   6021   6022     1   0.15375 251793.120000
   6021   6028     1   0.14233 265014.560000
   6022   6023     1   0.15375 251793.120000
   6022   6041     1   0.14647 272713.120000
   6023   6027     1   0.14233 265014.560000
   6023   6036     1   0.14316 258236.480000
   6029   6034     1   0.14233 265014.560000
   6043   6045     1   0.14619 275056.160000
   6045   6047     1   0.15375 251793.120000
   6047   6051     1   0.15110 237065.440000
   6051   6052     1   0.15110 237065.440000
   6051   6053     1   0.15110 237065.440000
   6052   6063     1   0.15375 251793.120000
   6053   6055     1   0.15375 251793.120000
   6055   6059     1   0.15241 261918.400000
   6059   6060     1   0.12183 533627.360000
   6059   6091     1   0.13400 406935.840000
   6063   6066     1   0.15241 261918.400000
   6066   6067     1   0.12183 533627.360000
   6066   6115     1   0.13400 406935.840000
   6068   6069     1   0.15375 251793.120000
   6068   6079     1   0.15375 251793.120000
   6068   6086     1   0.14316 258236.480000
   6069   6071     1   0.15375 251793.120000
   6069   6089     1   0.14233 265014.560000
   6071   6072     1   0.15375 251793.120000
   6071   6078     1   0.14233 265014.560000
   6072   6073     1   0.15375 251793.120000
   6072   6091     1   0.14647 272713.120000
   6073   6077     1   0.14233 265014.560000
   6073   6086     1   0.14316 258236.480000
   6079   6084     1   0.14233 265014.560000
   6092   6093     1   0.15375 251793.120000
   6092   6103     1   0.15375 251793.120000
   6092   6110     1   0.14316 258236.480000
   6093   6095     1   0.15375 251793.120000
   6093   6113     1   0.14233 265014.560000
   6095   6096     1   0.15375 251793.120000
   6095   6102     1   0.14233 265014.560000
   6096   6097     1   0.15375 251793.120000
   6096   6115     1   0.14647 272713.120000
   6097   6101     1   0.14233 265014.560000
   6097   6110     1   0.14316 258236.480000
   6103   6108     1   0.14233 265014.560000
   6117   6119     1   0.14619 275056.160000
   6119   6121     1   0.15375 251793.120000
   6121   6125     1   0.15110 237065.440000
   6125   6126     1   0.15110 237065.440000
   6125   6127     1   0.15110 237065.440000
   6126   6137     1   0.15375 251793.120000
   6127   6129     1   0.15375 251793.120000
   6129   6133     1   0.15241 261918.400000
   6133   6134     1   0.12183 533627.360000
   6133   6165     1   0.13400 406935.840000
   6137   6140     1   0.15241 261918.400000
   6140   6141     1   0.12183 533627.360000
   6140   6189     1   0.13400 406935.840000
   6142   6143     1   0.15375 251793.120000
   6142   6153     1   0.15375 251793.120000
   6142   6160     1   0.14316 258236.480000
   6143   6145     1   0.15375 251793.120000
   6143   6163     1   0.14233 265014.560000
   6145   6146     1   0.15375 251793.120000
   6145   6152     1   0.14233 265014.560000
   6146   6147     1   0.15375 251793.120000
   6146   6165     1   0.14647 272713.120000
   6147   6151     1   0.14233 265014.560000
   6147   6160     1   0.14316 258236.480000
   6153   6158     1   0.14233 265014.560000
   6166   6167     1   0.15375 251793.120000
   6166   6177     1   0.15375 251793.120000
   6166   6184     1   0.14316 258236.480000
   6167   6169     1   0.15375 251793.120000
   6167   6187     1   0.14233 265014.560000
   6169   6170     1   0.15375 251793.120000
   6169   6176     1   0.14233 265014.560000
   6170   6171     1   0.15375 251793.120000
   6170   6189     1   0.14647 272713.120000
   6171   6175     1   0.14233 265014.560000
   6171   6184     1   0.14316 258236.480000
   6177   6182     1   0.14233 265014.560000
   6191   6193     1   0.14619 275056.160000
   6193   6195     1   0.15375 251793.120000
   6195   6199     1   0.15110 237065.440000
   6199   6200     1   0.15110 237065.440000
   6199   6201     1   0.15110 237065.440000
   6200   6211     1   0.15375 251793.120000
   6201   6203     1   0.15375 251793.120000
   6203   6207     1   0.15241 261918.400000
   6207   6208     1   0.12183 533627.360000
   6207   6239     1   0.13400 406935.840000
   6211   6214     1   0.15241 261918.400000
   6214   6215     1   0.12183 533627.360000
   6214   6263     1   0.13400 406935.840000
   6216   6217     1   0.15375 251793.120000
   6216   6227     1   0.15375 251793.120000
   6216   6234     1   0.14316 258236.480000
   6217   6219     1   0.15375 251793.120000
   6217   6237     1   0.14233 265014.560000
   6219   6220     1   0.15375 251793.120000
   6219   6226     1   0.14233 265014.560000
   6220   6221     1   0.15375 251793.120000
   6220   6239     1   0.14647 272713.120000
   6221   6225     1   0.14233 265014.560000
   6221   6234     1   0.14316 258236.480000
   6227   6232     1   0.14233 265014.560000
   6240   6241     1   0.15375 251793.120000
   6240   6251     1   0.15375 251793.120000
   6240   6258     1   0.14316 258236.480000
   6241   6243     1   0.15375 251793.120000
   6241   6261     1   0.14233 265014.560000
   6243   6244     1   0.15375 251793.120000
   6243   6250     1   0.14233 265014.560000
   6244   6245     1   0.15375 251793.120000
   6244   6263     1   0.14647 272713.120000
   6245   6249     1   0.14233 265014.560000
   6245   6258     1   0.14316 258236.480000
   6251   6256     1   0.14233 265014.560000
   6265   6267     1   0.14619 275056.160000
   6267   6269     1   0.15375 251793.120000
   6269   6273     1   0.15110 237065.440000
   6273   6274     1   0.15110 237065.440000
   6273   6275     1   0.15110 237065.440000
   6274   6285     1   0.15375 251793.120000
   6275   6277     1   0.15375 251793.120000
   6277   6281     1   0.15241 261918.400000
   6281   6282     1   0.12183 533627.360000
   6281   6313     1   0.13400 406935.840000
   6285   6288     1   0.15241 261918.400000
   6288   6289     1   0.12183 533627.360000
   6288   6337     1   0.13400 406935.840000
   6290   6291     1   0.15375 251793.120000
   6290   6301     1   0.15375 251793.120000
   6290   6308     1   0.14316 258236.480000
   6291   6293     1   0.15375 251793.120000
   6291   6311     1   0.14233 265014.560000
   6293   6294     1   0.15375 251793.120000
   6293   6300     1   0.14233 265014.560000
   6294   6295     1   0.15375 251793.120000
   6294   6313     1   0.14647 272713.120000
   6295   6299     1   0.14233 265014.560000
   6295   6308     1   0.14316 258236.480000
   6301   6306     1   0.14233 265014.560000
   6314   6315     1   0.15375 251793.120000
   6314   6325     1   0.15375 251793.120000
   6314   6332     1   0.14316 258236.480000
   6315   6317     1   0.15375 251793.120000
   6315   6335     1   0.14233 265014.560000
   6317   6318     1   0.15375 251793.120000
   6317   6324     1   0.14233 265014.560000
   6318   6319     1   0.15375 251793.120000
   6318   6337     1   0.14647 272713.120000
   6319   6323     1   0.14233 265014.560000
   6319   6332     1   0.14316 258236.480000
   6325   6330     1   0.14233 265014.560000
      1     41     1   0.10304 312293.760000
      2     21     1   0.10910 283424.160000
      2     22     1   0.10910 283424.160000
      3     23     1   0.10910 283424.160000
      3     24     1   0.10910 283424.160000
      4     42     1   0.10304 312293.760000
      5     25     1   0.10910 283424.160000
      5     26     1   0.10910 283424.160000
      6     27     1   0.10910 283424.160000
      6     28     1   0.10910 283424.160000
      7     29     1   0.10910 283424.160000
      7     30     1   0.10910 283424.160000
      8     31     1   0.10910 283424.160000
      8     32     1   0.10910 283424.160000
      9     33     1   0.10969 276646.080000
      9     34     1   0.10969 276646.080000
     11     35     1   0.10969 276646.080000
     11     36     1   0.10969 276646.080000
     13     37     1   0.10969 276646.080000
     13     38     1   0.10969 276646.080000
     15     39     1   0.10969 276646.080000
     15     40     1   0.10969 276646.080000
     43     68     1   0.10304 312293.760000
     44     55     1   0.10910 283424.160000
     44     56     1   0.10910 283424.160000
     45     57     1   0.10910 283424.160000
     45     58     1   0.10910 283424.160000
     46     59     1   0.10969 276646.080000
     46     60     1   0.10969 276646.080000
     48     61     1   0.10969 276646.080000
     48     62     1   0.10969 276646.080000
     50     63     1   0.10910 283424.160000
     50     64     1   0.10910 283424.160000
     51     65     1   0.10969 276646.080000
     51     66     1   0.10969 276646.080000
     52     67     1   0.10129 337397.760000
     69     94     1   0.10304 312293.760000
     70     81     1   0.10910 283424.160000
     70     82     1   0.10910 283424.160000
     71     83     1   0.10910 283424.160000
     71     84     1   0.10910 283424.160000
     72     85     1   0.10969 276646.080000
     72     86     1   0.10969 276646.080000
     74     87     1   0.10969 276646.080000
     74     88     1   0.10969 276646.080000
     76     89     1   0.10910 283424.160000
     76     90     1   0.10910 283424.160000
     77     91     1   0.10969 276646.080000
     77     92     1   0.10969 276646.080000
     78     93     1   0.10129 337397.760000
     95    120     1   0.10304 312293.760000
     96    107     1   0.10910 283424.160000
     96    108     1   0.10910 283424.160000
     97    109     1   0.10910 283424.160000
     97    110     1   0.10910 283424.160000
     98    111     1   0.10969 276646.080000
     98    112     1   0.10969 276646.080000
    100    113     1   0.10969 276646.080000
    100    114     1   0.10969 276646.080000
    102    115     1   0.10910 283424.160000
    102    116     1   0.10910 283424.160000
    103    117     1   0.10969 276646.080000
    103    118     1   0.10969 276646.080000
    104    119     1   0.10129 337397.760000
    121    146     1   0.10304 312293.760000
    122    133     1   0.10910 283424.160000
    122    134     1   0.10910 283424.160000
    123    135     1   0.10910 283424.160000
    123    136     1   0.10910 283424.160000
    124    137     1   0.10969 276646.080000
    124    138     1   0.10969 276646.080000
    126    139     1   0.10969 276646.080000
    126    140     1   0.10969 276646.080000
    128    141     1   0.10910 283424.160000
    128    142     1   0.10910 283424.160000
    129    143     1   0.10969 276646.080000
    129    144     1   0.10969 276646.080000
    130    145     1   0.10129 337397.760000
    147    172     1   0.10304 312293.760000
    148    159     1   0.10910 283424.160000
    148    160     1   0.10910 283424.160000
    149    161     1   0.10910 283424.160000
    149    162     1   0.10910 283424.160000
    150    163     1   0.10969 276646.080000
    150    164     1   0.10969 276646.080000
    152    165     1   0.10969 276646.080000
    152    166     1   0.10969 276646.080000
    154    167     1   0.10910 283424.160000
    154    168     1   0.10910 283424.160000
    155    169     1   0.10969 276646.080000
    155    170     1   0.10969 276646.080000
    156    171     1   0.10129 337397.760000
    173    198     1   0.10304 312293.760000
    174    185     1   0.10910 283424.160000
    174    186     1   0.10910 283424.160000
    175    187     1   0.10910 283424.160000
    175    188     1   0.10910 283424.160000
    176    189     1   0.10969 276646.080000
    176    190     1   0.10969 276646.080000
    178    191     1   0.10969 276646.080000
    178    192     1   0.10969 276646.080000
    180    193     1   0.10910 283424.160000
    180    194     1   0.10910 283424.160000
    181    195     1   0.10969 276646.080000
    181    196     1   0.10969 276646.080000
    182    197     1   0.10129 337397.760000
    199    224     1   0.10304 312293.760000
    200    211     1   0.10910 283424.160000
    200    212     1   0.10910 283424.160000
    201    213     1   0.10910 283424.160000
    201    214     1   0.10910 283424.160000
    202    215     1   0.10969 276646.080000
    202    216     1   0.10969 276646.080000
    204    217     1   0.10969 276646.080000
    204    218     1   0.10969 276646.080000
    206    219     1   0.10910 283424.160000
    206    220     1   0.10910 283424.160000
    207    221     1   0.10969 276646.080000
    207    222     1   0.10969 276646.080000
    208    223     1   0.10129 337397.760000
    225    250     1   0.10304 312293.760000
    226    237     1   0.10910 283424.160000
    226    238     1   0.10910 283424.160000
    227    239     1   0.10910 283424.160000
    227    240     1   0.10910 283424.160000
    228    241     1   0.10969 276646.080000
    228    242     1   0.10969 276646.080000
    230    243     1   0.10969 276646.080000
    230    244     1   0.10969 276646.080000
    232    245     1   0.10910 283424.160000
    232    246     1   0.10910 283424.160000
    233    247     1   0.10969 276646.080000
    233    248     1   0.10969 276646.080000
    234    249     1   0.10129 337397.760000
    251    276     1   0.10304 312293.760000
    252    263     1   0.10910 283424.160000
    252    264     1   0.10910 283424.160000
    253    265     1   0.10910 283424.160000
    253    266     1   0.10910 283424.160000
    254    267     1   0.10969 276646.080000
    254    268     1   0.10969 276646.080000
    256    269     1   0.10969 276646.080000
    256    270     1   0.10969 276646.080000
    258    271     1   0.10910 283424.160000
    258    272     1   0.10910 283424.160000
    259    273     1   0.10969 276646.080000
    259    274     1   0.10969 276646.080000
    260    275     1   0.10129 337397.760000
    277    302     1   0.10304 312293.760000
    278    289     1   0.10910 283424.160000
    278    290     1   0.10910 283424.160000
    279    291     1   0.10910 283424.160000
    279    292     1   0.10910 283424.160000
    280    293     1   0.10969 276646.080000
    280    294     1   0.10969 276646.080000
    282    295     1   0.10969 276646.080000
    282    296     1   0.10969 276646.080000
    284    297     1   0.10910 283424.160000
    284    298     1   0.10910 283424.160000
    285    299     1   0.10969 276646.080000
    285    300     1   0.10969 276646.080000
    286    301     1   0.10129 337397.760000
    303    328     1   0.10304 312293.760000
    304    315     1   0.10910 283424.160000
    304    316     1   0.10910 283424.160000
    305    317     1   0.10910 283424.160000
    305    318     1   0.10910 283424.160000
    306    319     1   0.10969 276646.080000
    306    320     1   0.10969 276646.080000
    308    321     1   0.10969 276646.080000
    308    322     1   0.10969 276646.080000
    310    323     1   0.10910 283424.160000
    310    324     1   0.10910 283424.160000
    311    325     1   0.10969 276646.080000
    311    326     1   0.10969 276646.080000
    312    327     1   0.10129 337397.760000
    329    354     1   0.10304 312293.760000
    330    341     1   0.10910 283424.160000
    330    342     1   0.10910 283424.160000
    331    343     1   0.10910 283424.160000
    331    344     1   0.10910 283424.160000
    332    345     1   0.10969 276646.080000
    332    346     1   0.10969 276646.080000
    334    347     1   0.10969 276646.080000
    334    348     1   0.10969 276646.080000
    336    349     1   0.10910 283424.160000
    336    350     1   0.10910 283424.160000
    337    351     1   0.10969 276646.080000
    337    352     1   0.10969 276646.080000
    338    353     1   0.10129 337397.760000
    355    380     1   0.10304 312293.760000
    356    367     1   0.10910 283424.160000
    356    368     1   0.10910 283424.160000
    357    369     1   0.10910 283424.160000
    357    370     1   0.10910 283424.160000
    358    371     1   0.10969 276646.080000
    358    372     1   0.10969 276646.080000
    360    373     1   0.10969 276646.080000
    360    374     1   0.10969 276646.080000
    362    375     1   0.10910 283424.160000
    362    376     1   0.10910 283424.160000
    363    377     1   0.10969 276646.080000
    363    378     1   0.10969 276646.080000
    364    379     1   0.10129 337397.760000
    381    406     1   0.10304 312293.760000
    382    393     1   0.10910 283424.160000
    382    394     1   0.10910 283424.160000
    383    395     1   0.10910 283424.160000
    383    396     1   0.10910 283424.160000
    384    397     1   0.10969 276646.080000
    384    398     1   0.10969 276646.080000
    386    399     1   0.10969 276646.080000
    386    400     1   0.10969 276646.080000
    388    401     1   0.10910 283424.160000
    388    402     1   0.10910 283424.160000
    389    403     1   0.10969 276646.080000
    389    404     1   0.10969 276646.080000
    390    405     1   0.10129 337397.760000
    407    432     1   0.10304 312293.760000
    408    419     1   0.10910 283424.160000
    408    420     1   0.10910 283424.160000
    409    421     1   0.10910 283424.160000
    409    422     1   0.10910 283424.160000
    410    423     1   0.10969 276646.080000
    410    424     1   0.10969 276646.080000
    412    425     1   0.10969 276646.080000
    412    426     1   0.10969 276646.080000
    414    427     1   0.10910 283424.160000
    414    428     1   0.10910 283424.160000
    415    429     1   0.10969 276646.080000
    415    430     1   0.10969 276646.080000
    416    431     1   0.10129 337397.760000
    433    458     1   0.10304 312293.760000
    434    445     1   0.10910 283424.160000
    434    446     1   0.10910 283424.160000
    435    447     1   0.10910 283424.160000
    435    448     1   0.10910 283424.160000
    436    449     1   0.10969 276646.080000
    436    450     1   0.10969 276646.080000
    438    451     1   0.10969 276646.080000
    438    452     1   0.10969 276646.080000
    440    453     1   0.10910 283424.160000
    440    454     1   0.10910 283424.160000
    441    455     1   0.10969 276646.080000
    441    456     1   0.10969 276646.080000
    442    457     1   0.10129 337397.760000
    459    484     1   0.10304 312293.760000
    460    471     1   0.10910 283424.160000
    460    472     1   0.10910 283424.160000
    461    473     1   0.10910 283424.160000
    461    474     1   0.10910 283424.160000
    462    475     1   0.10969 276646.080000
    462    476     1   0.10969 276646.080000
    464    477     1   0.10969 276646.080000
    464    478     1   0.10969 276646.080000
    466    479     1   0.10910 283424.160000
    466    480     1   0.10910 283424.160000
    467    481     1   0.10969 276646.080000
    467    482     1   0.10969 276646.080000
    468    483     1   0.10129 337397.760000
    485    510     1   0.10304 312293.760000
    486    497     1   0.10910 283424.160000
    486    498     1   0.10910 283424.160000
    487    499     1   0.10910 283424.160000
    487    500     1   0.10910 283424.160000
    488    501     1   0.10969 276646.080000
    488    502     1   0.10969 276646.080000
    490    503     1   0.10969 276646.080000
    490    504     1   0.10969 276646.080000
    492    505     1   0.10910 283424.160000
    492    506     1   0.10910 283424.160000
    493    507     1   0.10969 276646.080000
    493    508     1   0.10969 276646.080000
    494    509     1   0.10129 337397.760000
    511    536     1   0.10304 312293.760000
    512    523     1   0.10910 283424.160000
    512    524     1   0.10910 283424.160000
    513    525     1   0.10910 283424.160000
    513    526     1   0.10910 283424.160000
    514    527     1   0.10969 276646.080000
    514    528     1   0.10969 276646.080000
    516    529     1   0.10969 276646.080000
    516    530     1   0.10969 276646.080000
    518    531     1   0.10910 283424.160000
    518    532     1   0.10910 283424.160000
    519    533     1   0.10969 276646.080000
    519    534     1   0.10969 276646.080000
    520    535     1   0.10129 337397.760000
    537    562     1   0.10304 312293.760000
    538    549     1   0.10910 283424.160000
    538    550     1   0.10910 283424.160000
    539    551     1   0.10910 283424.160000
    539    552     1   0.10910 283424.160000
    540    553     1   0.10969 276646.080000
    540    554     1   0.10969 276646.080000
    542    555     1   0.10969 276646.080000
    542    556     1   0.10969 276646.080000
    544    557     1   0.10910 283424.160000
    544    558     1   0.10910 283424.160000
    545    559     1   0.10969 276646.080000
    545    560     1   0.10969 276646.080000
    546    561     1   0.10129 337397.760000
    563    588     1   0.10304 312293.760000
    564    575     1   0.10910 283424.160000
    564    576     1   0.10910 283424.160000
    565    577     1   0.10910 283424.160000
    565    578     1   0.10910 283424.160000
    566    579     1   0.10969 276646.080000
    566    580     1   0.10969 276646.080000
    568    581     1   0.10969 276646.080000
    568    582     1   0.10969 276646.080000
    570    583     1   0.10910 283424.160000
    570    584     1   0.10910 283424.160000
    571    585     1   0.10969 276646.080000
    571    586     1   0.10969 276646.080000
    572    587     1   0.10129 337397.760000
    589    614     1   0.10304 312293.760000
    590    601     1   0.10910 283424.160000
    590    602     1   0.10910 283424.160000
    591    603     1   0.10910 283424.160000
    591    604     1   0.10910 283424.160000
    592    605     1   0.10969 276646.080000
    592    606     1   0.10969 276646.080000
    594    607     1   0.10969 276646.080000
    594    608     1   0.10969 276646.080000
    596    609     1   0.10910 283424.160000
    596    610     1   0.10910 283424.160000
    597    611     1   0.10969 276646.080000
    597    612     1   0.10969 276646.080000
    598    613     1   0.10129 337397.760000
    615    640     1   0.10304 312293.760000
    616    627     1   0.10910 283424.160000
    616    628     1   0.10910 283424.160000
    617    629     1   0.10910 283424.160000
    617    630     1   0.10910 283424.160000
    618    631     1   0.10969 276646.080000
    618    632     1   0.10969 276646.080000
    620    633     1   0.10969 276646.080000
    620    634     1   0.10969 276646.080000
    622    635     1   0.10910 283424.160000
    622    636     1   0.10910 283424.160000
    623    637     1   0.10969 276646.080000
    623    638     1   0.10969 276646.080000
    624    639     1   0.10129 337397.760000
    641    666     1   0.10304 312293.760000
    642    653     1   0.10910 283424.160000
    642    654     1   0.10910 283424.160000
    643    655     1   0.10910 283424.160000
    643    656     1   0.10910 283424.160000
    644    657     1   0.10969 276646.080000
    644    658     1   0.10969 276646.080000
    646    659     1   0.10969 276646.080000
    646    660     1   0.10969 276646.080000
    648    661     1   0.10910 283424.160000
    648    662     1   0.10910 283424.160000
    649    663     1   0.10969 276646.080000
    649    664     1   0.10969 276646.080000
    650    665     1   0.10129 337397.760000
    667    692     1   0.10304 312293.760000
    668    679     1   0.10910 283424.160000
    668    680     1   0.10910 283424.160000
    669    681     1   0.10910 283424.160000
    669    682     1   0.10910 283424.160000
    670    683     1   0.10969 276646.080000
    670    684     1   0.10969 276646.080000
    672    685     1   0.10969 276646.080000
    672    686     1   0.10969 276646.080000
    674    687     1   0.10910 283424.160000
    674    688     1   0.10910 283424.160000
    675    689     1   0.10969 276646.080000
    675    690     1   0.10969 276646.080000
    676    691     1   0.10129 337397.760000
    693    718     1   0.10304 312293.760000
    694    705     1   0.10910 283424.160000
    694    706     1   0.10910 283424.160000
    695    707     1   0.10910 283424.160000
    695    708     1   0.10910 283424.160000
    696    709     1   0.10969 276646.080000
    696    710     1   0.10969 276646.080000
    698    711     1   0.10969 276646.080000
    698    712     1   0.10969 276646.080000
    700    713     1   0.10910 283424.160000
    700    714     1   0.10910 283424.160000
    701    715     1   0.10969 276646.080000
    701    716     1   0.10969 276646.080000
    702    717     1   0.10129 337397.760000
    719    744     1   0.10304 312293.760000
    720    731     1   0.10910 283424.160000
    720    732     1   0.10910 283424.160000
    721    733     1   0.10910 283424.160000
    721    734     1   0.10910 283424.160000
    722    735     1   0.10969 276646.080000
    722    736     1   0.10969 276646.080000
    724    737     1   0.10969 276646.080000
    724    738     1   0.10969 276646.080000
    726    739     1   0.10910 283424.160000
    726    740     1   0.10910 283424.160000
    727    741     1   0.10969 276646.080000
    727    742     1   0.10969 276646.080000
    728    743     1   0.10129 337397.760000
    745    770     1   0.10304 312293.760000
    746    757     1   0.10910 283424.160000
    746    758     1   0.10910 283424.160000
    747    759     1   0.10910 283424.160000
    747    760     1   0.10910 283424.160000
    748    761     1   0.10969 276646.080000
    748    762     1   0.10969 276646.080000
    750    763     1   0.10969 276646.080000
    750    764     1   0.10969 276646.080000
    752    765     1   0.10910 283424.160000
    752    766     1   0.10910 283424.160000
    753    767     1   0.10969 276646.080000
    753    768     1   0.10969 276646.080000
    754    769     1   0.10129 337397.760000
    771    796     1   0.10304 312293.760000
    772    783     1   0.10910 283424.160000
    772    784     1   0.10910 283424.160000
    773    785     1   0.10910 283424.160000
    773    786     1   0.10910 283424.160000
    774    787     1   0.10969 276646.080000
    774    788     1   0.10969 276646.080000
    776    789     1   0.10969 276646.080000
    776    790     1   0.10969 276646.080000
    778    791     1   0.10910 283424.160000
    778    792     1   0.10910 283424.160000
    779    793     1   0.10969 276646.080000
    779    794     1   0.10969 276646.080000
    780    795     1   0.10129 337397.760000
    797    822     1   0.10304 312293.760000
    798    809     1   0.10910 283424.160000
    798    810     1   0.10910 283424.160000
    799    811     1   0.10910 283424.160000
    799    812     1   0.10910 283424.160000
    800    813     1   0.10969 276646.080000
    800    814     1   0.10969 276646.080000
    802    815     1   0.10969 276646.080000
    802    816     1   0.10969 276646.080000
    804    817     1   0.10910 283424.160000
    804    818     1   0.10910 283424.160000
    805    819     1   0.10969 276646.080000
    805    820     1   0.10969 276646.080000
    806    821     1   0.10129 337397.760000
    823    848     1   0.10304 312293.760000
    824    835     1   0.10910 283424.160000
    824    836     1   0.10910 283424.160000
    825    837     1   0.10910 283424.160000
    825    838     1   0.10910 283424.160000
    826    839     1   0.10969 276646.080000
    826    840     1   0.10969 276646.080000
    828    841     1   0.10969 276646.080000
    828    842     1   0.10969 276646.080000
    830    843     1   0.10910 283424.160000
    830    844     1   0.10910 283424.160000
    831    845     1   0.10969 276646.080000
    831    846     1   0.10969 276646.080000
    832    847     1   0.10129 337397.760000
    849    874     1   0.10304 312293.760000
    850    861     1   0.10910 283424.160000
    850    862     1   0.10910 283424.160000
    851    863     1   0.10910 283424.160000
    851    864     1   0.10910 283424.160000
    852    865     1   0.10969 276646.080000
    852    866     1   0.10969 276646.080000
    854    867     1   0.10969 276646.080000
    854    868     1   0.10969 276646.080000
    856    869     1   0.10910 283424.160000
    856    870     1   0.10910 283424.160000
    857    871     1   0.10969 276646.080000
    857    872     1   0.10969 276646.080000
    858    873     1   0.10129 337397.760000
    875    900     1   0.10304 312293.760000
    876    887     1   0.10910 283424.160000
    876    888     1   0.10910 283424.160000
    877    889     1   0.10910 283424.160000
    877    890     1   0.10910 283424.160000
    878    891     1   0.10969 276646.080000
    878    892     1   0.10969 276646.080000
    880    893     1   0.10969 276646.080000
    880    894     1   0.10969 276646.080000
    882    895     1   0.10910 283424.160000
    882    896     1   0.10910 283424.160000
    883    897     1   0.10969 276646.080000
    883    898     1   0.10969 276646.080000
    884    899     1   0.10129 337397.760000
    901    926     1   0.10304 312293.760000
    902    913     1   0.10910 283424.160000
    902    914     1   0.10910 283424.160000
    903    915     1   0.10910 283424.160000
    903    916     1   0.10910 283424.160000
    904    917     1   0.10969 276646.080000
    904    918     1   0.10969 276646.080000
    906    919     1   0.10969 276646.080000
    906    920     1   0.10969 276646.080000
    908    921     1   0.10910 283424.160000
    908    922     1   0.10910 283424.160000
    909    923     1   0.10969 276646.080000
    909    924     1   0.10969 276646.080000
    910    925     1   0.10129 337397.760000
    927    952     1   0.10304 312293.760000
    928    939     1   0.10910 283424.160000
    928    940     1   0.10910 283424.160000
    929    941     1   0.10910 283424.160000
    929    942     1   0.10910 283424.160000
    930    943     1   0.10969 276646.080000
    930    944     1   0.10969 276646.080000
    932    945     1   0.10969 276646.080000
    932    946     1   0.10969 276646.080000
    934    947     1   0.10910 283424.160000
    934    948     1   0.10910 283424.160000
    935    949     1   0.10969 276646.080000
    935    950     1   0.10969 276646.080000
    936    951     1   0.10129 337397.760000
    953    978     1   0.10304 312293.760000
    954    965     1   0.10910 283424.160000
    954    966     1   0.10910 283424.160000
    955    967     1   0.10910 283424.160000
    955    968     1   0.10910 283424.160000
    956    969     1   0.10969 276646.080000
    956    970     1   0.10969 276646.080000
    958    971     1   0.10969 276646.080000
    958    972     1   0.10969 276646.080000
    960    973     1   0.10910 283424.160000
    960    974     1   0.10910 283424.160000
    961    975     1   0.10969 276646.080000
    961    976     1   0.10969 276646.080000
    962    977     1   0.10129 337397.760000
    979   1004     1   0.10304 312293.760000
    980    991     1   0.10910 283424.160000
    980    992     1   0.10910 283424.160000
    981    993     1   0.10910 283424.160000
    981    994     1   0.10910 283424.160000
    982    995     1   0.10969 276646.080000
    982    996     1   0.10969 276646.080000
    984    997     1   0.10969 276646.080000
    984    998     1   0.10969 276646.080000
    986    999     1   0.10910 283424.160000
    986   1000     1   0.10910 283424.160000
    987   1001     1   0.10969 276646.080000
    987   1002     1   0.10969 276646.080000
    988   1003     1   0.10129 337397.760000
   1005   1030     1   0.10304 312293.760000
   1006   1017     1   0.10910 283424.160000
   1006   1018     1   0.10910 283424.160000
   1007   1019     1   0.10910 283424.160000
   1007   1020     1   0.10910 283424.160000
   1008   1021     1   0.10969 276646.080000
   1008   1022     1   0.10969 276646.080000
   1010   1023     1   0.10969 276646.080000
   1010   1024     1   0.10969 276646.080000
   1012   1025     1   0.10910 283424.160000
   1012   1026     1   0.10910 283424.160000
   1013   1027     1   0.10969 276646.080000
   1013   1028     1   0.10969 276646.080000
   1014   1029     1   0.10129 337397.760000
   1031   1056     1   0.10304 312293.760000
   1032   1043     1   0.10910 283424.160000
   1032   1044     1   0.10910 283424.160000
   1033   1045     1   0.10910 283424.160000
   1033   1046     1   0.10910 283424.160000
   1034   1047     1   0.10969 276646.080000
   1034   1048     1   0.10969 276646.080000
   1036   1049     1   0.10969 276646.080000
   1036   1050     1   0.10969 276646.080000
   1038   1051     1   0.10910 283424.160000
   1038   1052     1   0.10910 283424.160000
   1039   1053     1   0.10969 276646.080000
   1039   1054     1   0.10969 276646.080000
   1040   1055     1   0.10129 337397.760000
   1057   1082     1   0.10304 312293.760000
   1058   1069     1   0.10910 283424.160000
   1058   1070     1   0.10910 283424.160000
   1059   1071     1   0.10910 283424.160000
   1059   1072     1   0.10910 283424.160000
   1060   1073     1   0.10969 276646.080000
   1060   1074     1   0.10969 276646.080000
   1062   1075     1   0.10969 276646.080000
   1062   1076     1   0.10969 276646.080000
   1064   1077     1   0.10910 283424.160000
   1064   1078     1   0.10910 283424.160000
   1065   1079     1   0.10969 276646.080000
   1065   1080     1   0.10969 276646.080000
   1066   1081     1   0.10129 337397.760000
   1083   1108     1   0.10304 312293.760000
   1084   1095     1   0.10910 283424.160000
   1084   1096     1   0.10910 283424.160000
   1085   1097     1   0.10910 283424.160000
   1085   1098     1   0.10910 283424.160000
   1086   1099     1   0.10969 276646.080000
   1086   1100     1   0.10969 276646.080000
   1088   1101     1   0.10969 276646.080000
   1088   1102     1   0.10969 276646.080000
   1090   1103     1   0.10910 283424.160000
   1090   1104     1   0.10910 283424.160000
   1091   1105     1   0.10969 276646.080000
   1091   1106     1   0.10969 276646.080000
   1092   1107     1   0.10129 337397.760000
   1109   1134     1   0.10304 312293.760000
   1110   1121     1   0.10910 283424.160000
   1110   1122     1   0.10910 283424.160000
   1111   1123     1   0.10910 283424.160000
   1111   1124     1   0.10910 283424.160000
   1112   1125     1   0.10969 276646.080000
   1112   1126     1   0.10969 276646.080000
   1114   1127     1   0.10969 276646.080000
   1114   1128     1   0.10969 276646.080000
   1116   1129     1   0.10910 283424.160000
   1116   1130     1   0.10910 283424.160000
   1117   1131     1   0.10969 276646.080000
   1117   1132     1   0.10969 276646.080000
   1118   1133     1   0.10129 337397.760000
   1135   1160     1   0.10304 312293.760000
   1136   1147     1   0.10910 283424.160000
   1136   1148     1   0.10910 283424.160000
   1137   1149     1   0.10910 283424.160000
   1137   1150     1   0.10910 283424.160000
   1138   1151     1   0.10969 276646.080000
   1138   1152     1   0.10969 276646.080000
   1140   1153     1   0.10969 276646.080000
   1140   1154     1   0.10969 276646.080000
   1142   1155     1   0.10910 283424.160000
   1142   1156     1   0.10910 283424.160000
   1143   1157     1   0.10969 276646.080000
   1143   1158     1   0.10969 276646.080000
   1144   1159     1   0.10129 337397.760000
   1161   1186     1   0.10304 312293.760000
   1162   1173     1   0.10910 283424.160000
   1162   1174     1   0.10910 283424.160000
   1163   1175     1   0.10910 283424.160000
   1163   1176     1   0.10910 283424.160000
   1164   1177     1   0.10969 276646.080000
   1164   1178     1   0.10969 276646.080000
   1166   1179     1   0.10969 276646.080000
   1166   1180     1   0.10969 276646.080000
   1168   1181     1   0.10910 283424.160000
   1168   1182     1   0.10910 283424.160000
   1169   1183     1   0.10969 276646.080000
   1169   1184     1   0.10969 276646.080000
   1170   1185     1   0.10129 337397.760000
   1187   1212     1   0.10304 312293.760000
   1188   1199     1   0.10910 283424.160000
   1188   1200     1   0.10910 283424.160000
   1189   1201     1   0.10910 283424.160000
   1189   1202     1   0.10910 283424.160000
   1190   1203     1   0.10969 276646.080000
   1190   1204     1   0.10969 276646.080000
   1192   1205     1   0.10969 276646.080000
   1192   1206     1   0.10969 276646.080000
   1194   1207     1   0.10910 283424.160000
   1194   1208     1   0.10910 283424.160000
   1195   1209     1   0.10969 276646.080000
   1195   1210     1   0.10969 276646.080000
   1196   1211     1   0.10129 337397.760000
   1213   1238     1   0.10304 312293.760000
   1214   1225     1   0.10910 283424.160000
   1214   1226     1   0.10910 283424.160000
   1215   1227     1   0.10910 283424.160000
   1215   1228     1   0.10910 283424.160000
   1216   1229     1   0.10969 276646.080000
   1216   1230     1   0.10969 276646.080000
   1218   1231     1   0.10969 276646.080000
   1218   1232     1   0.10969 276646.080000
   1220   1233     1   0.10910 283424.160000
   1220   1234     1   0.10910 283424.160000
   1221   1235     1   0.10969 276646.080000
   1221   1236     1   0.10969 276646.080000
   1222   1237     1   0.10129 337397.760000
   1239   1264     1   0.10304 312293.760000
   1240   1251     1   0.10910 283424.160000
   1240   1252     1   0.10910 283424.160000
   1241   1253     1   0.10910 283424.160000
   1241   1254     1   0.10910 283424.160000
   1242   1255     1   0.10969 276646.080000
   1242   1256     1   0.10969 276646.080000
   1244   1257     1   0.10969 276646.080000
   1244   1258     1   0.10969 276646.080000
   1246   1259     1   0.10910 283424.160000
   1246   1260     1   0.10910 283424.160000
   1247   1261     1   0.10969 276646.080000
   1247   1262     1   0.10969 276646.080000
   1248   1263     1   0.10129 337397.760000
   1265   1290     1   0.10304 312293.760000
   1266   1277     1   0.10910 283424.160000
   1266   1278     1   0.10910 283424.160000
   1267   1279     1   0.10910 283424.160000
   1267   1280     1   0.10910 283424.160000
   1268   1281     1   0.10969 276646.080000
   1268   1282     1   0.10969 276646.080000
   1270   1283     1   0.10969 276646.080000
   1270   1284     1   0.10969 276646.080000
   1272   1285     1   0.10910 283424.160000
   1272   1286     1   0.10910 283424.160000
   1273   1287     1   0.10969 276646.080000
   1273   1288     1   0.10969 276646.080000
   1274   1289     1   0.10129 337397.760000
   1291   1316     1   0.10304 312293.760000
   1292   1303     1   0.10910 283424.160000
   1292   1304     1   0.10910 283424.160000
   1293   1305     1   0.10910 283424.160000
   1293   1306     1   0.10910 283424.160000
   1294   1307     1   0.10969 276646.080000
   1294   1308     1   0.10969 276646.080000
   1296   1309     1   0.10969 276646.080000
   1296   1310     1   0.10969 276646.080000
   1298   1311     1   0.10910 283424.160000
   1298   1312     1   0.10910 283424.160000
   1299   1313     1   0.10969 276646.080000
   1299   1314     1   0.10969 276646.080000
   1300   1315     1   0.10129 337397.760000
   1317   1342     1   0.10304 312293.760000
   1318   1329     1   0.10910 283424.160000
   1318   1330     1   0.10910 283424.160000
   1319   1331     1   0.10910 283424.160000
   1319   1332     1   0.10910 283424.160000
   1320   1333     1   0.10969 276646.080000
   1320   1334     1   0.10969 276646.080000
   1322   1335     1   0.10969 276646.080000
   1322   1336     1   0.10969 276646.080000
   1324   1337     1   0.10910 283424.160000
   1324   1338     1   0.10910 283424.160000
   1325   1339     1   0.10969 276646.080000
   1325   1340     1   0.10969 276646.080000
   1326   1341     1   0.10129 337397.760000
   1343   1368     1   0.10304 312293.760000
   1344   1355     1   0.10910 283424.160000
   1344   1356     1   0.10910 283424.160000
   1345   1357     1   0.10910 283424.160000
   1345   1358     1   0.10910 283424.160000
   1346   1359     1   0.10969 276646.080000
   1346   1360     1   0.10969 276646.080000
   1348   1361     1   0.10969 276646.080000
   1348   1362     1   0.10969 276646.080000
   1350   1363     1   0.10910 283424.160000
   1350   1364     1   0.10910 283424.160000
   1351   1365     1   0.10969 276646.080000
   1351   1366     1   0.10969 276646.080000
   1352   1367     1   0.10129 337397.760000
   1369   1394     1   0.10304 312293.760000
   1370   1381     1   0.10910 283424.160000
   1370   1382     1   0.10910 283424.160000
   1371   1383     1   0.10910 283424.160000
   1371   1384     1   0.10910 283424.160000
   1372   1385     1   0.10969 276646.080000
   1372   1386     1   0.10969 276646.080000
   1374   1387     1   0.10969 276646.080000
   1374   1388     1   0.10969 276646.080000
   1376   1389     1   0.10910 283424.160000
   1376   1390     1   0.10910 283424.160000
   1377   1391     1   0.10969 276646.080000
   1377   1392     1   0.10969 276646.080000
   1378   1393     1   0.10129 337397.760000
   1395   1420     1   0.10304 312293.760000
   1396   1407     1   0.10910 283424.160000
   1396   1408     1   0.10910 283424.160000
   1397   1409     1   0.10910 283424.160000
   1397   1410     1   0.10910 283424.160000
   1398   1411     1   0.10969 276646.080000
   1398   1412     1   0.10969 276646.080000
   1400   1413     1   0.10969 276646.080000
   1400   1414     1   0.10969 276646.080000
   1402   1415     1   0.10910 283424.160000
   1402   1416     1   0.10910 283424.160000
   1403   1417     1   0.10969 276646.080000
   1403   1418     1   0.10969 276646.080000
   1404   1419     1   0.10129 337397.760000
   1421   1446     1   0.10304 312293.760000
   1422   1433     1   0.10910 283424.160000
   1422   1434     1   0.10910 283424.160000
   1423   1435     1   0.10910 283424.160000
   1423   1436     1   0.10910 283424.160000
   1424   1437     1   0.10969 276646.080000
   1424   1438     1   0.10969 276646.080000
   1426   1439     1   0.10969 276646.080000
   1426   1440     1   0.10969 276646.080000
   1428   1441     1   0.10910 283424.160000
   1428   1442     1   0.10910 283424.160000
   1429   1443     1   0.10969 276646.080000
   1429   1444     1   0.10969 276646.080000
   1430   1445     1   0.10129 337397.760000
   1447   1472     1   0.10304 312293.760000
   1448   1459     1   0.10910 283424.160000
   1448   1460     1   0.10910 283424.160000
   1449   1461     1   0.10910 283424.160000
   1449   1462     1   0.10910 283424.160000
   1450   1463     1   0.10969 276646.080000
   1450   1464     1   0.10969 276646.080000
   1452   1465     1   0.10969 276646.080000
   1452   1466     1   0.10969 276646.080000
   1454   1467     1   0.10910 283424.160000
   1454   1468     1   0.10910 283424.160000
   1455   1469     1   0.10969 276646.080000
   1455   1470     1   0.10969 276646.080000
   1456   1471     1   0.10129 337397.760000
   1473   1498     1   0.10304 312293.760000
   1474   1485     1   0.10910 283424.160000
   1474   1486     1   0.10910 283424.160000
   1475   1487     1   0.10910 283424.160000
   1475   1488     1   0.10910 283424.160000
   1476   1489     1   0.10969 276646.080000
   1476   1490     1   0.10969 276646.080000
   1478   1491     1   0.10969 276646.080000
   1478   1492     1   0.10969 276646.080000
   1480   1493     1   0.10910 283424.160000
   1480   1494     1   0.10910 283424.160000
   1481   1495     1   0.10969 276646.080000
   1481   1496     1   0.10969 276646.080000
   1482   1497     1   0.10129 337397.760000
   1499   1524     1   0.10304 312293.760000
   1500   1511     1   0.10910 283424.160000
   1500   1512     1   0.10910 283424.160000
   1501   1513     1   0.10910 283424.160000
   1501   1514     1   0.10910 283424.160000
   1502   1515     1   0.10969 276646.080000
   1502   1516     1   0.10969 276646.080000
   1504   1517     1   0.10969 276646.080000
   1504   1518     1   0.10969 276646.080000
   1506   1519     1   0.10910 283424.160000
   1506   1520     1   0.10910 283424.160000
   1507   1521     1   0.10969 276646.080000
   1507   1522     1   0.10969 276646.080000
   1508   1523     1   0.10129 337397.760000
   1525   1550     1   0.10304 312293.760000
   1526   1537     1   0.10910 283424.160000
   1526   1538     1   0.10910 283424.160000
   1527   1539     1   0.10910 283424.160000
   1527   1540     1   0.10910 283424.160000
   1528   1541     1   0.10969 276646.080000
   1528   1542     1   0.10969 276646.080000
   1530   1543     1   0.10969 276646.080000
   1530   1544     1   0.10969 276646.080000
   1532   1545     1   0.10910 283424.160000
   1532   1546     1   0.10910 283424.160000
   1533   1547     1   0.10969 276646.080000
   1533   1548     1   0.10969 276646.080000
   1534   1549     1   0.10129 337397.760000
   1551   1576     1   0.10304 312293.760000
   1552   1563     1   0.10910 283424.160000
   1552   1564     1   0.10910 283424.160000
   1553   1565     1   0.10910 283424.160000
   1553   1566     1   0.10910 283424.160000
   1554   1567     1   0.10969 276646.080000
   1554   1568     1   0.10969 276646.080000
   1556   1569     1   0.10969 276646.080000
   1556   1570     1   0.10969 276646.080000
   1558   1571     1   0.10910 283424.160000
   1558   1572     1   0.10910 283424.160000
   1559   1573     1   0.10969 276646.080000
   1559   1574     1   0.10969 276646.080000
   1560   1575     1   0.10129 337397.760000
   1577   1602     1   0.10304 312293.760000
   1578   1589     1   0.10910 283424.160000
   1578   1590     1   0.10910 283424.160000
   1579   1591     1   0.10910 283424.160000
   1579   1592     1   0.10910 283424.160000
   1580   1593     1   0.10969 276646.080000
   1580   1594     1   0.10969 276646.080000
   1582   1595     1   0.10969 276646.080000
   1582   1596     1   0.10969 276646.080000
   1584   1597     1   0.10910 283424.160000
   1584   1598     1   0.10910 283424.160000
   1585   1599     1   0.10969 276646.080000
   1585   1600     1   0.10969 276646.080000
   1586   1601     1   0.10129 337397.760000
   1603   1604     1   0.10129 337397.760000
   1605   1606     1   0.10969 276646.080000
   1605   1608     1   0.10969 276646.080000
   1607   1609     1   0.10969 276646.080000
   1607   1610     1   0.10969 276646.080000
   1611   1676     1   0.10304 312293.760000
   1612   1621     1   0.10969 276646.080000
   1612   1622     1   0.10969 276646.080000
   1613   1614     1   0.10969 276646.080000
   1613   1616     1   0.10969 276646.080000
   1615   1617     1   0.10969 276646.080000
   1615   1618     1   0.10969 276646.080000
   1623   1624     1   0.10969 276646.080000
   1623   1625     1   0.10969 276646.080000
   1628   1630     1   0.10969 276646.080000
   1629   1648     1   0.10969 276646.080000
   1631   1635     1   0.10969 276646.080000
   1632   1634     1   0.10969 276646.080000
   1633   1636     1   0.10961 277566.560000
   1637   1647     1   0.09730 310787.520000
   1638   1640     1   0.09730 310787.520000
   1639   1642     1   0.10969 276646.080000
   1639   1643     1   0.10969 276646.080000
   1641   1651     1   0.10190 328360.320000
   1644   1645     1   0.09730 310787.520000
   1649   1650     1   0.09730 310787.520000
   1652   1654     1   0.10969 276646.080000
   1653   1672     1   0.10969 276646.080000
   1655   1659     1   0.10969 276646.080000
   1656   1658     1   0.10969 276646.080000
   1657   1660     1   0.10961 277566.560000
   1661   1671     1   0.09730 310787.520000
   1662   1664     1   0.09730 310787.520000
   1663   1666     1   0.10969 276646.080000
   1663   1667     1   0.10969 276646.080000
   1665   1675     1   0.10190 328360.320000
   1668   1669     1   0.09730 310787.520000
   1673   1674     1   0.09730 310787.520000
   1677   1678     1   0.10129 337397.760000
   1679   1680     1   0.10969 276646.080000
   1679   1682     1   0.10969 276646.080000
   1681   1683     1   0.10969 276646.080000
   1681   1684     1   0.10969 276646.080000
   1685   1750     1   0.10304 312293.760000
   1686   1695     1   0.10969 276646.080000
   1686   1696     1   0.10969 276646.080000
   1687   1688     1   0.10969 276646.080000
   1687   1690     1   0.10969 276646.080000
   1689   1691     1   0.10969 276646.080000
   1689   1692     1   0.10969 276646.080000
   1697   1698     1   0.10969 276646.080000
   1697   1699     1   0.10969 276646.080000
   1702   1704     1   0.10969 276646.080000
   1703   1722     1   0.10969 276646.080000
   1705   1709     1   0.10969 276646.080000
   1706   1708     1   0.10969 276646.080000
   1707   1710     1   0.10961 277566.560000
   1711   1721     1   0.09730 310787.520000
   1712   1714     1   0.09730 310787.520000
   1713   1716     1   0.10969 276646.080000
   1713   1717     1   0.10969 276646.080000
   1715   1725     1   0.10190 328360.320000
   1718   1719     1   0.09730 310787.520000
   1723   1724     1   0.09730 310787.520000
   1726   1728     1   0.10969 276646.080000
   1727   1746     1   0.10969 276646.080000
   1729   1733     1   0.10969 276646.080000
   1730   1732     1   0.10969 276646.080000
   1731   1734     1   0.10961 277566.560000
   1735   1745     1   0.09730 310787.520000
   1736   1738     1   0.09730 310787.520000
   1737   1740     1   0.10969 276646.080000
   1737   1741     1   0.10969 276646.080000
   1739   1749     1   0.10190 328360.320000
   1742   1743     1   0.09730 310787.520000
   1747   1748     1   0.09730 310787.520000
   1751   1752     1   0.10129 337397.760000
   1753   1754     1   0.10969 276646.080000
   1753   1756     1   0.10969 276646.080000
   1755   1757     1   0.10969 276646.080000
   1755   1758     1   0.10969 276646.080000
   1759   1824     1   0.10304 312293.760000
   1760   1769     1   0.10969 276646.080000
   1760   1770     1   0.10969 276646.080000
   1761   1762     1   0.10969 276646.080000
   1761   1764     1   0.10969 276646.080000
   1763   1765     1   0.10969 276646.080000
   1763   1766     1   0.10969 276646.080000
   1771   1772     1   0.10969 276646.080000
   1771   1773     1   0.10969 276646.080000
   1776   1778     1   0.10969 276646.080000
   1777   1796     1   0.10969 276646.080000
   1779   1783     1   0.10969 276646.080000
   1780   1782     1   0.10969 276646.080000
   1781   1784     1   0.10961 277566.560000
   1785   1795     1   0.09730 310787.520000
   1786   1788     1   0.09730 310787.520000
   1787   1790     1   0.10969 276646.080000
   1787   1791     1   0.10969 276646.080000
   1789   1799     1   0.10190 328360.320000
   1792   1793     1   0.09730 310787.520000
   1797   1798     1   0.09730 310787.520000
   1800   1802     1   0.10969 276646.080000
   1801   1820     1   0.10969 276646.080000
   1803   1807     1   0.10969 276646.080000
   1804   1806     1   0.10969 276646.080000
   1805   1808     1   0.10961 277566.560000
   1809   1819     1   0.09730 310787.520000
   1810   1812     1   0.09730 310787.520000
   1811   1814     1   0.10969 276646.080000
   1811   1815     1   0.10969 276646.080000
   1813   1823     1   0.10190 328360.320000
   1816   1817     1   0.09730 310787.520000
   1821   1822     1   0.09730 310787.520000
   1825   1826     1   0.10129 337397.760000
   1827   1828     1   0.10969 276646.080000
   1827   1830     1   0.10969 276646.080000
   1829   1831     1   0.10969 276646.080000
   1829   1832     1   0.10969 276646.080000
   1833   1898     1   0.10304 312293.760000
   1834   1843     1   0.10969 276646.080000
   1834   1844     1   0.10969 276646.080000
   1835   1836     1   0.10969 276646.080000
   1835   1838     1   0.10969 276646.080000
   1837   1839     1   0.10969 276646.080000
   1837   1840     1   0.10969 276646.080000
   1845   1846     1   0.10969 276646.080000
   1845   1847     1   0.10969 276646.080000
   1850   1852     1   0.10969 276646.080000
   1851   1870     1   0.10969 276646.080000
   1853   1857     1   0.10969 276646.080000
   1854   1856     1   0.10969 276646.080000
   1855   1858     1   0.10961 277566.560000
   1859   1869     1   0.09730 310787.520000
   1860   1862     1   0.09730 310787.520000
   1861   1864     1   0.10969 276646.080000
   1861   1865     1   0.10969 276646.080000
   1863   1873     1   0.10190 328360.320000
   1866   1867     1   0.09730 310787.520000
   1871   1872     1   0.09730 310787.520000
   1874   1876     1   0.10969 276646.080000
   1875   1894     1   0.10969 276646.080000
   1877   1881     1   0.10969 276646.080000
   1878   1880     1   0.10969 276646.080000
   1879   1882     1   0.10961 277566.560000
   1883   1893     1   0.09730 310787.520000
   1884   1886     1   0.09730 310787.520000
   1885   1888     1   0.10969 276646.080000
   1885   1889     1   0.10969 276646.080000
   1887   1897     1   0.10190 328360.320000
   1890   1891     1   0.09730 310787.520000
   1895   1896     1   0.09730 310787.520000
   1899   1900     1   0.10129 337397.760000
   1901   1902     1   0.10969 276646.080000
   1901   1904     1   0.10969 276646.080000
   1903   1905     1   0.10969 276646.080000
   1903   1906     1   0.10969 276646.080000
   1907   1972     1   0.10304 312293.760000
   1908   1917     1   0.10969 276646.080000
   1908   1918     1   0.10969 276646.080000
   1909   1910     1   0.10969 276646.080000
   1909   1912     1   0.10969 276646.080000
   1911   1913     1   0.10969 276646.080000
   1911   1914     1   0.10969 276646.080000
   1919   1920     1   0.10969 276646.080000
   1919   1921     1   0.10969 276646.080000
   1924   1926     1   0.10969 276646.080000
   1925   1944     1   0.10969 276646.080000
   1927   1931     1   0.10969 276646.080000
   1928   1930     1   0.10969 276646.080000
   1929   1932     1   0.10961 277566.560000
   1933   1943     1   0.09730 310787.520000
   1934   1936     1   0.09730 310787.520000
   1935   1938     1   0.10969 276646.080000
   1935   1939     1   0.10969 276646.080000
   1937   1947     1   0.10190 328360.320000
   1940   1941     1   0.09730 310787.520000
   1945   1946     1   0.09730 310787.520000
   1948   1950     1   0.10969 276646.080000
   1949   1968     1   0.10969 276646.080000
   1951   1955     1   0.10969 276646.080000
   1952   1954     1   0.10969 276646.080000
   1953   1956     1   0.10961 277566.560000
   1957   1967     1   0.09730 310787.520000
   1958   1960     1   0.09730 310787.520000
   1959   1962     1   0.10969 276646.080000
   1959   1963     1   0.10969 276646.080000
   1961   1971     1   0.10190 328360.320000
   1964   1965     1   0.09730 310787.520000
   1969   1970     1   0.09730 310787.520000
   1973   1974     1   0.10129 337397.760000
   1975   1976     1   0.10969 276646.080000
   1975   1978     1   0.10969 276646.080000
   1977   1979     1   0.10969 276646.080000
   1977   1980     1   0.10969 276646.080000
   1981   2046     1   0.10304 312293.760000
   1982   1991     1   0.10969 276646.080000
   1982   1992     1   0.10969 276646.080000
   1983   1984     1   0.10969 276646.080000
   1983   1986     1   0.10969 276646.080000
   1985   1987     1   0.10969 276646.080000
   1985   1988     1   0.10969 276646.080000
   1993   1994     1   0.10969 276646.080000
   1993   1995     1   0.10969 276646.080000
   1998   2000     1   0.10969 276646.080000
   1999   2018     1   0.10969 276646.080000
   2001   2005     1   0.10969 276646.080000
   2002   2004     1   0.10969 276646.080000
   2003   2006     1   0.10961 277566.560000
   2007   2017     1   0.09730 310787.520000
   2008   2010     1   0.09730 310787.520000
   2009   2012     1   0.10969 276646.080000
   2009   2013     1   0.10969 276646.080000
   2011   2021     1   0.10190 328360.320000
   2014   2015     1   0.09730 310787.520000
   2019   2020     1   0.09730 310787.520000
   2022   2024     1   0.10969 276646.080000
   2023   2042     1   0.10969 276646.080000
   2025   2029     1   0.10969 276646.080000
   2026   2028     1   0.10969 276646.080000
   2027   2030     1   0.10961 277566.560000
   2031   2041     1   0.09730 310787.520000
   2032   2034     1   0.09730 310787.520000
   2033   2036     1   0.10969 276646.080000
   2033   2037     1   0.10969 276646.080000
   2035   2045     1   0.10190 328360.320000
   2038   2039     1   0.09730 310787.520000
   2043   2044     1   0.09730 310787.520000
   2047   2048     1   0.10129 337397.760000
   2049   2050     1   0.10969 276646.080000
   2049   2052     1   0.10969 276646.080000
   2051   2053     1   0.10969 276646.080000
   2051   2054     1   0.10969 276646.080000
   2055   2120     1   0.10304 312293.760000
   2056   2065     1   0.10969 276646.080000
   2056   2066     1   0.10969 276646.080000
   2057   2058     1   0.10969 276646.080000
   2057   2060     1   0.10969 276646.080000
   2059   2061     1   0.10969 276646.080000
   2059   2062     1   0.10969 276646.080000
   2067   2068     1   0.10969 276646.080000
   2067   2069     1   0.10969 276646.080000
   2072   2074     1   0.10969 276646.080000
   2073   2092     1   0.10969 276646.080000
   2075   2079     1   0.10969 276646.080000
   2076   2078     1   0.10969 276646.080000
   2077   2080     1   0.10961 277566.560000
   2081   2091     1   0.09730 310787.520000
   2082   2084     1   0.09730 310787.520000
   2083   2086     1   0.10969 276646.080000
   2083   2087     1   0.10969 276646.080000
   2085   2095     1   0.10190 328360.320000
   2088   2089     1   0.09730 310787.520000
   2093   2094     1   0.09730 310787.520000
   2096   2098     1   0.10969 276646.080000
   2097   2116     1   0.10969 276646.080000
   2099   2103     1   0.10969 276646.080000
   2100   2102     1   0.10969 276646.080000
   2101   2104     1   0.10961 277566.560000
   2105   2115     1   0.09730 310787.520000
   2106   2108     1   0.09730 310787.520000
   2107   2110     1   0.10969 276646.080000
   2107   2111     1   0.10969 276646.080000
   2109   2119     1   0.10190 328360.320000
   2112   2113     1   0.09730 310787.520000
   2117   2118     1   0.09730 310787.520000
   2121   2122     1   0.10129 337397.760000
   2123   2124     1   0.10969 276646.080000
   2123   2126     1   0.10969 276646.080000
   2125   2127     1   0.10969 276646.080000
   2125   2128     1   0.10969 276646.080000
   2129   2194     1   0.10304 312293.760000
   2130   2139     1   0.10969 276646.080000
   2130   2140     1   0.10969 276646.080000
   2131   2132     1   0.10969 276646.080000
   2131   2134     1   0.10969 276646.080000
   2133   2135     1   0.10969 276646.080000
   2133   2136     1   0.10969 276646.080000
   2141   2142     1   0.10969 276646.080000
   2141   2143     1   0.10969 276646.080000
   2146   2148     1   0.10969 276646.080000
   2147   2166     1   0.10969 276646.080000
   2149   2153     1   0.10969 276646.080000
   2150   2152     1   0.10969 276646.080000
   2151   2154     1   0.10961 277566.560000
   2155   2165     1   0.09730 310787.520000
   2156   2158     1   0.09730 310787.520000
   2157   2160     1   0.10969 276646.080000
   2157   2161     1   0.10969 276646.080000
   2159   2169     1   0.10190 328360.320000
   2162   2163     1   0.09730 310787.520000
   2167   2168     1   0.09730 310787.520000
   2170   2172     1   0.10969 276646.080000
   2171   2190     1   0.10969 276646.080000
   2173   2177     1   0.10969 276646.080000
   2174   2176     1   0.10969 276646.080000
   2175   2178     1   0.10961 277566.560000
   2179   2189     1   0.09730 310787.520000
   2180   2182     1   0.09730 310787.520000
   2181   2184     1   0.10969 276646.080000
   2181   2185     1   0.10969 276646.080000
   2183   2193     1   0.10190 328360.320000
   2186   2187     1   0.09730 310787.520000
   2191   2192     1   0.09730 310787.520000
   2195   2196     1   0.10129 337397.760000
   2197   2198     1   0.10969 276646.080000
   2197   2200     1   0.10969 276646.080000
   2199   2201     1   0.10969 276646.080000
   2199   2202     1   0.10969 276646.080000
   2203   2268     1   0.10304 312293.760000
   2204   2213     1   0.10969 276646.080000
   2204   2214     1   0.10969 276646.080000
   2205   2206     1   0.10969 276646.080000
   2205   2208     1   0.10969 276646.080000
   2207   2209     1   0.10969 276646.080000
   2207   2210     1   0.10969 276646.080000
   2215   2216     1   0.10969 276646.080000
   2215   2217     1   0.10969 276646.080000
   2220   2222     1   0.10969 276646.080000
   2221   2240     1   0.10969 276646.080000
   2223   2227     1   0.10969 276646.080000
   2224   2226     1   0.10969 276646.080000
   2225   2228     1   0.10961 277566.560000
   2229   2239     1   0.09730 310787.520000
   2230   2232     1   0.09730 310787.520000
   2231   2234     1   0.10969 276646.080000
   2231   2235     1   0.10969 276646.080000
   2233   2243     1   0.10190 328360.320000
   2236   2237     1   0.09730 310787.520000
   2241   2242     1   0.09730 310787.520000
   2244   2246     1   0.10969 276646.080000
   2245   2264     1   0.10969 276646.080000
   2247   2251     1   0.10969 276646.080000
   2248   2250     1   0.10969 276646.080000
   2249   2252     1   0.10961 277566.560000
   2253   2263     1   0.09730 310787.520000
   2254   2256     1   0.09730 310787.520000
   2255   2258     1   0.10969 276646.080000
   2255   2259     1   0.10969 276646.080000
   2257   2267     1   0.10190 328360.320000
   2260   2261     1   0.09730 310787.520000
   2265   2266     1   0.09730 310787.520000
   2269   2270     1   0.10129 337397.760000
   2271   2272     1   0.10969 276646.080000
   2271   2274     1   0.10969 276646.080000
   2273   2275     1   0.10969 276646.080000
   2273   2276     1   0.10969 276646.080000
   2277   2342     1   0.10304 312293.760000
   2278   2287     1   0.10969 276646.080000
   2278   2288     1   0.10969 276646.080000
   2279   2280     1   0.10969 276646.080000
   2279   2282     1   0.10969 276646.080000
   2281   2283     1   0.10969 276646.080000
   2281   2284     1   0.10969 276646.080000
   2289   2290     1   0.10969 276646.080000
   2289   2291     1   0.10969 276646.080000
   2294   2296     1   0.10969 276646.080000
   2295   2314     1   0.10969 276646.080000
   2297   2301     1   0.10969 276646.080000
   2298   2300     1   0.10969 276646.080000
   2299   2302     1   0.10961 277566.560000
   2303   2313     1   0.09730 310787.520000
   2304   2306     1   0.09730 310787.520000
   2305   2308     1   0.10969 276646.080000
   2305   2309     1   0.10969 276646.080000
   2307   2317     1   0.10190 328360.320000
   2310   2311     1   0.09730 310787.520000
   2315   2316     1   0.09730 310787.520000
   2318   2320     1   0.10969 276646.080000
   2319   2338     1   0.10969 276646.080000
   2321   2325     1   0.10969 276646.080000
   2322   2324     1   0.10969 276646.080000
   2323   2326     1   0.10961 277566.560000
   2327   2337     1   0.09730 310787.520000
   2328   2330     1   0.09730 310787.520000
   2329   2332     1   0.10969 276646.080000
   2329   2333     1   0.10969 276646.080000
   2331   2341     1   0.10190 328360.320000
   2334   2335     1   0.09730 310787.520000
   2339   2340     1   0.09730 310787.520000
   2343   2344     1   0.10129 337397.760000
   2345   2346     1   0.10969 276646.080000
   2345   2348     1   0.10969 276646.080000
   2347   2349     1   0.10969 276646.080000
   2347   2350     1   0.10969 276646.080000
   2351   2416     1   0.10304 312293.760000
   2352   2361     1   0.10969 276646.080000
   2352   2362     1   0.10969 276646.080000
   2353   2354     1   0.10969 276646.080000
   2353   2356     1   0.10969 276646.080000
   2355   2357     1   0.10969 276646.080000
   2355   2358     1   0.10969 276646.080000
   2363   2364     1   0.10969 276646.080000
   2363   2365     1   0.10969 276646.080000
   2368   2370     1   0.10969 276646.080000
   2369   2388     1   0.10969 276646.080000
   2371   2375     1   0.10969 276646.080000
   2372   2374     1   0.10969 276646.080000
   2373   2376     1   0.10961 277566.560000
   2377   2387     1   0.09730 310787.520000
   2378   2380     1   0.09730 310787.520000
   2379   2382     1   0.10969 276646.080000
   2379   2383     1   0.10969 276646.080000
   2381   2391     1   0.10190 328360.320000
   2384   2385     1   0.09730 310787.520000
   2389   2390     1   0.09730 310787.520000
   2392   2394     1   0.10969 276646.080000
   2393   2412     1   0.10969 276646.080000
   2395   2399     1   0.10969 276646.080000
   2396   2398     1   0.10969 276646.080000
   2397   2400     1   0.10961 277566.560000
   2401   2411     1   0.09730 310787.520000
   2402   2404     1   0.09730 310787.520000
   2403   2406     1   0.10969 276646.080000
   2403   2407     1   0.10969 276646.080000
   2405   2415     1   0.10190 328360.320000
   2408   2409     1   0.09730 310787.520000
   2413   2414     1   0.09730 310787.520000
   2417   2418     1   0.10129 337397.760000
   2419   2420     1   0.10969 276646.080000
   2419   2422     1   0.10969 276646.080000
   2421   2423     1   0.10969 276646.080000
   2421   2424     1   0.10969 276646.080000
   2425   2490     1   0.10304 312293.760000
   2426   2435     1   0.10969 276646.080000
   2426   2436     1   0.10969 276646.080000
   2427   2428     1   0.10969 276646.080000
   2427   2430     1   0.10969 276646.080000
   2429   2431     1   0.10969 276646.080000
   2429   2432     1   0.10969 276646.080000
   2437   2438     1   0.10969 276646.080000
   2437   2439     1   0.10969 276646.080000
   2442   2444     1   0.10969 276646.080000
   2443   2462     1   0.10969 276646.080000
   2445   2449     1   0.10969 276646.080000
   2446   2448     1   0.10969 276646.080000
   2447   2450     1   0.10961 277566.560000
   2451   2461     1   0.09730 310787.520000
   2452   2454     1   0.09730 310787.520000
   2453   2456     1   0.10969 276646.080000
   2453   2457     1   0.10969 276646.080000
   2455   2465     1   0.10190 328360.320000
   2458   2459     1   0.09730 310787.520000
   2463   2464     1   0.09730 310787.520000
   2466   2468     1   0.10969 276646.080000
   2467   2486     1   0.10969 276646.080000
   2469   2473     1   0.10969 276646.080000
   2470   2472     1   0.10969 276646.080000
   2471   2474     1   0.10961 277566.560000
   2475   2485     1   0.09730 310787.520000
   2476   2478     1   0.09730 310787.520000
   2477   2480     1   0.10969 276646.080000
   2477   2481     1   0.10969 276646.080000
   2479   2489     1   0.10190 328360.320000
   2482   2483     1   0.09730 310787.520000
   2487   2488     1   0.09730 310787.520000
   2491   2492     1   0.10129 337397.760000
   2493   2494     1   0.10969 276646.080000
   2493   2496     1   0.10969 276646.080000
   2495   2497     1   0.10969 276646.080000
   2495   2498     1   0.10969 276646.080000
   2499   2564     1   0.10304 312293.760000
   2500   2509     1   0.10969 276646.080000
   2500   2510     1   0.10969 276646.080000
   2501   2502     1   0.10969 276646.080000
   2501   2504     1   0.10969 276646.080000
   2503   2505     1   0.10969 276646.080000
   2503   2506     1   0.10969 276646.080000
   2511   2512     1   0.10969 276646.080000
   2511   2513     1   0.10969 276646.080000
   2516   2518     1   0.10969 276646.080000
   2517   2536     1   0.10969 276646.080000
   2519   2523     1   0.10969 276646.080000
   2520   2522     1   0.10969 276646.080000
   2521   2524     1   0.10961 277566.560000
   2525   2535     1   0.09730 310787.520000
   2526   2528     1   0.09730 310787.520000
   2527   2530     1   0.10969 276646.080000
   2527   2531     1   0.10969 276646.080000
   2529   2539     1   0.10190 328360.320000
   2532   2533     1   0.09730 310787.520000
   2537   2538     1   0.09730 310787.520000
   2540   2542     1   0.10969 276646.080000
   2541   2560     1   0.10969 276646.080000
   2543   2547     1   0.10969 276646.080000
   2544   2546     1   0.10969 276646.080000
   2545   2548     1   0.10961 277566.560000
   2549   2559     1   0.09730 310787.520000
   2550   2552     1   0.09730 310787.520000
   2551   2554     1   0.10969 276646.080000
   2551   2555     1   0.10969 276646.080000
   2553   2563     1   0.10190 328360.320000
   2556   2557     1   0.09730 310787.520000
   2561   2562     1   0.09730 310787.520000
   2565   2566     1   0.10129 337397.760000
   2567   2568     1   0.10969 276646.080000
   2567   2570     1   0.10969 276646.080000
   2569   2571     1   0.10969 276646.080000
   2569   2572     1   0.10969 276646.080000
   2573   2638     1   0.10304 312293.760000
   2574   2583     1   0.10969 276646.080000
   2574   2584     1   0.10969 276646.080000
   2575   2576     1   0.10969 276646.080000
   2575   2578     1   0.10969 276646.080000
   2577   2579     1   0.10969 276646.080000
   2577   2580     1   0.10969 276646.080000
   2585   2586     1   0.10969 276646.080000
   2585   2587     1   0.10969 276646.080000
   2590   2592     1   0.10969 276646.080000
   2591   2610     1   0.10969 276646.080000
   2593   2597     1   0.10969 276646.080000
   2594   2596     1   0.10969 276646.080000
   2595   2598     1   0.10961 277566.560000
   2599   2609     1   0.09730 310787.520000
   2600   2602     1   0.09730 310787.520000
   2601   2604     1   0.10969 276646.080000
   2601   2605     1   0.10969 276646.080000
   2603   2613     1   0.10190 328360.320000
   2606   2607     1   0.09730 310787.520000
   2611   2612     1   0.09730 310787.520000
   2614   2616     1   0.10969 276646.080000
   2615   2634     1   0.10969 276646.080000
   2617   2621     1   0.10969 276646.080000
   2618   2620     1   0.10969 276646.080000
   2619   2622     1   0.10961 277566.560000
   2623   2633     1   0.09730 310787.520000
   2624   2626     1   0.09730 310787.520000
   2625   2628     1   0.10969 276646.080000
   2625   2629     1   0.10969 276646.080000
   2627   2637     1   0.10190 328360.320000
   2630   2631     1   0.09730 310787.520000
   2635   2636     1   0.09730 310787.520000
   2639   2640     1   0.10129 337397.760000
   2641   2642     1   0.10969 276646.080000
   2641   2644     1   0.10969 276646.080000
   2643   2645     1   0.10969 276646.080000
   2643   2646     1   0.10969 276646.080000
   2647   2712     1   0.10304 312293.760000
   2648   2657     1   0.10969 276646.080000
   2648   2658     1   0.10969 276646.080000
   2649   2650     1   0.10969 276646.080000
   2649   2652     1   0.10969 276646.080000
   2651   2653     1   0.10969 276646.080000
   2651   2654     1   0.10969 276646.080000
   2659   2660     1   0.10969 276646.080000
   2659   2661     1   0.10969 276646.080000
   2664   2666     1   0.10969 276646.080000
   2665   2684     1   0.10969 276646.080000
   2667   2671     1   0.10969 276646.080000
   2668   2670     1   0.10969 276646.080000
   2669   2672     1   0.10961 277566.560000
   2673   2683     1   0.09730 310787.520000
   2674   2676     1   0.09730 310787.520000
   2675   2678     1   0.10969 276646.080000
   2675   2679     1   0.10969 276646.080000
   2677   2687     1   0.10190 328360.320000
   2680   2681     1   0.09730 310787.520000
   2685   2686     1   0.09730 310787.520000
   2688   2690     1   0.10969 276646.080000
   2689   2708     1   0.10969 276646.080000
   2691   2695     1   0.10969 276646.080000
   2692   2694     1   0.10969 276646.080000
   2693   2696     1   0.10961 277566.560000
   2697   2707     1   0.09730 310787.520000
   2698   2700     1   0.09730 310787.520000
   2699   2702     1   0.10969 276646.080000
   2699   2703     1   0.10969 276646.080000
   2701   2711     1   0.10190 328360.320000
   2704   2705     1   0.09730 310787.520000
   2709   2710     1   0.09730 310787.520000
   2713   2714     1   0.10129 337397.760000
   2715   2716     1   0.10969 276646.080000
   2715   2718     1   0.10969 276646.080000
   2717   2719     1   0.10969 276646.080000
   2717   2720     1   0.10969 276646.080000
   2721   2786     1   0.10304 312293.760000
   2722   2731     1   0.10969 276646.080000
   2722   2732     1   0.10969 276646.080000
   2723   2724     1   0.10969 276646.080000
   2723   2726     1   0.10969 276646.080000
   2725   2727     1   0.10969 276646.080000
   2725   2728     1   0.10969 276646.080000
   2733   2734     1   0.10969 276646.080000
   2733   2735     1   0.10969 276646.080000
   2738   2740     1   0.10969 276646.080000
   2739   2758     1   0.10969 276646.080000
   2741   2745     1   0.10969 276646.080000
   2742   2744     1   0.10969 276646.080000
   2743   2746     1   0.10961 277566.560000
   2747   2757     1   0.09730 310787.520000
   2748   2750     1   0.09730 310787.520000
   2749   2752     1   0.10969 276646.080000
   2749   2753     1   0.10969 276646.080000
   2751   2761     1   0.10190 328360.320000
   2754   2755     1   0.09730 310787.520000
   2759   2760     1   0.09730 310787.520000
   2762   2764     1   0.10969 276646.080000
   2763   2782     1   0.10969 276646.080000
   2765   2769     1   0.10969 276646.080000
   2766   2768     1   0.10969 276646.080000
   2767   2770     1   0.10961 277566.560000
   2771   2781     1   0.09730 310787.520000
   2772   2774     1   0.09730 310787.520000
   2773   2776     1   0.10969 276646.080000
   2773   2777     1   0.10969 276646.080000
   2775   2785     1   0.10190 328360.320000
   2778   2779     1   0.09730 310787.520000
   2783   2784     1   0.09730 310787.520000
   2787   2788     1   0.10129 337397.760000
   2789   2790     1   0.10969 276646.080000
   2789   2792     1   0.10969 276646.080000
   2791   2793     1   0.10969 276646.080000
   2791   2794     1   0.10969 276646.080000
   2795   2860     1   0.10304 312293.760000
   2796   2805     1   0.10969 276646.080000
   2796   2806     1   0.10969 276646.080000
   2797   2798     1   0.10969 276646.080000
   2797   2800     1   0.10969 276646.080000
   2799   2801     1   0.10969 276646.080000
   2799   2802     1   0.10969 276646.080000
   2807   2808     1   0.10969 276646.080000
   2807   2809     1   0.10969 276646.080000
   2812   2814     1   0.10969 276646.080000
   2813   2832     1   0.10969 276646.080000
   2815   2819     1   0.10969 276646.080000
   2816   2818     1   0.10969 276646.080000
   2817   2820     1   0.10961 277566.560000
   2821   2831     1   0.09730 310787.520000
   2822   2824     1   0.09730 310787.520000
   2823   2826     1   0.10969 276646.080000
   2823   2827     1   0.10969 276646.080000
   2825   2835     1   0.10190 328360.320000
   2828   2829     1   0.09730 310787.520000
   2833   2834     1   0.09730 310787.520000
   2836   2838     1   0.10969 276646.080000
   2837   2856     1   0.10969 276646.080000
   2839   2843     1   0.10969 276646.080000
   2840   2842     1   0.10969 276646.080000
   2841   2844     1   0.10961 277566.560000
   2845   2855     1   0.09730 310787.520000
   2846   2848     1   0.09730 310787.520000
   2847   2850     1   0.10969 276646.080000
   2847   2851     1   0.10969 276646.080000
   2849   2859     1   0.10190 328360.320000
   2852   2853     1   0.09730 310787.520000
   2857   2858     1   0.09730 310787.520000
   2861   2862     1   0.10129 337397.760000
   2863   2864     1   0.10969 276646.080000
   2863   2866     1   0.10969 276646.080000
   2865   2867     1   0.10969 276646.080000
   2865   2868     1   0.10969 276646.080000
   2869   2934     1   0.10304 312293.760000
   2870   2879     1   0.10969 276646.080000
   2870   2880     1   0.10969 276646.080000
   2871   2872     1   0.10969 276646.080000
   2871   2874     1   0.10969 276646.080000
   2873   2875     1   0.10969 276646.080000
   2873   2876     1   0.10969 276646.080000
   2881   2882     1   0.10969 276646.080000
   2881   2883     1   0.10969 276646.080000
   2886   2888     1   0.10969 276646.080000
   2887   2906     1   0.10969 276646.080000
   2889   2893     1   0.10969 276646.080000
   2890   2892     1   0.10969 276646.080000
   2891   2894     1   0.10961 277566.560000
   2895   2905     1   0.09730 310787.520000
   2896   2898     1   0.09730 310787.520000
   2897   2900     1   0.10969 276646.080000
   2897   2901     1   0.10969 276646.080000
   2899   2909     1   0.10190 328360.320000
   2902   2903     1   0.09730 310787.520000
   2907   2908     1   0.09730 310787.520000
   2910   2912     1   0.10969 276646.080000
   2911   2930     1   0.10969 276646.080000
   2913   2917     1   0.10969 276646.080000
   2914   2916     1   0.10969 276646.080000
   2915   2918     1   0.10961 277566.560000
   2919   2929     1   0.09730 310787.520000
   2920   2922     1   0.09730 310787.520000
   2921   2924     1   0.10969 276646.080000
   2921   2925     1   0.10969 276646.080000
   2923   2933     1   0.10190 328360.320000
   2926   2927     1   0.09730 310787.520000
   2931   2932     1   0.09730 310787.520000
   2935   2936     1   0.10129 337397.760000
   2937   2938     1   0.10969 276646.080000
   2937   2940     1   0.10969 276646.080000
   2939   2941     1   0.10969 276646.080000
   2939   2942     1   0.10969 276646.080000
   2943   3008     1   0.10304 312293.760000
   2944   2953     1   0.10969 276646.080000
   2944   2954     1   0.10969 276646.080000
   2945   2946     1   0.10969 276646.080000
   2945   2948     1   0.10969 276646.080000
   2947   2949     1   0.10969 276646.080000
   2947   2950     1   0.10969 276646.080000
   2955   2956     1   0.10969 276646.080000
   2955   2957     1   0.10969 276646.080000
   2960   2962     1   0.10969 276646.080000
   2961   2980     1   0.10969 276646.080000
   2963   2967     1   0.10969 276646.080000
   2964   2966     1   0.10969 276646.080000
   2965   2968     1   0.10961 277566.560000
   2969   2979     1   0.09730 310787.520000
   2970   2972     1   0.09730 310787.520000
   2971   2974     1   0.10969 276646.080000
   2971   2975     1   0.10969 276646.080000
   2973   2983     1   0.10190 328360.320000
   2976   2977     1   0.09730 310787.520000
   2981   2982     1   0.09730 310787.520000
   2984   2986     1   0.10969 276646.080000
   2985   3004     1   0.10969 276646.080000
   2987   2991     1   0.10969 276646.080000
   2988   2990     1   0.10969 276646.080000
   2989   2992     1   0.10961 277566.560000
   2993   3003     1   0.09730 310787.520000
   2994   2996     1   0.09730 310787.520000
   2995   2998     1   0.10969 276646.080000
   2995   2999     1   0.10969 276646.080000
   2997   3007     1   0.10190 328360.320000
   3000   3001     1   0.09730 310787.520000
   3005   3006     1   0.09730 310787.520000
   3009   3010     1   0.10129 337397.760000
   3011   3012     1   0.10969 276646.080000
   3011   3014     1   0.10969 276646.080000
   3013   3015     1   0.10969 276646.080000
   3013   3016     1   0.10969 276646.080000
   3017   3082     1   0.10304 312293.760000
   3018   3027     1   0.10969 276646.080000
   3018   3028     1   0.10969 276646.080000
   3019   3020     1   0.10969 276646.080000
   3019   3022     1   0.10969 276646.080000
   3021   3023     1   0.10969 276646.080000
   3021   3024     1   0.10969 276646.080000
   3029   3030     1   0.10969 276646.080000
   3029   3031     1   0.10969 276646.080000
   3034   3036     1   0.10969 276646.080000
   3035   3054     1   0.10969 276646.080000
   3037   3041     1   0.10969 276646.080000
   3038   3040     1   0.10969 276646.080000
   3039   3042     1   0.10961 277566.560000
   3043   3053     1   0.09730 310787.520000
   3044   3046     1   0.09730 310787.520000
   3045   3048     1   0.10969 276646.080000
   3045   3049     1   0.10969 276646.080000
   3047   3057     1   0.10190 328360.320000
   3050   3051     1   0.09730 310787.520000
   3055   3056     1   0.09730 310787.520000
   3058   3060     1   0.10969 276646.080000
   3059   3078     1   0.10969 276646.080000
   3061   3065     1   0.10969 276646.080000
   3062   3064     1   0.10969 276646.080000
   3063   3066     1   0.10961 277566.560000
   3067   3077     1   0.09730 310787.520000
   3068   3070     1   0.09730 310787.520000
   3069   3072     1   0.10969 276646.080000
   3069   3073     1   0.10969 276646.080000
   3071   3081     1   0.10190 328360.320000
   3074   3075     1   0.09730 310787.520000
   3079   3080     1   0.09730 310787.520000
   3083   3084     1   0.10129 337397.760000
   3085   3086     1   0.10969 276646.080000
   3085   3088     1   0.10969 276646.080000
   3087   3089     1   0.10969 276646.080000
   3087   3090     1   0.10969 276646.080000
   3091   3156     1   0.10304 312293.760000
   3092   3101     1   0.10969 276646.080000
   3092   3102     1   0.10969 276646.080000
   3093   3094     1   0.10969 276646.080000
   3093   3096     1   0.10969 276646.080000
   3095   3097     1   0.10969 276646.080000
   3095   3098     1   0.10969 276646.080000
   3103   3104     1   0.10969 276646.080000
   3103   3105     1   0.10969 276646.080000
   3108   3110     1   0.10969 276646.080000
   3109   3128     1   0.10969 276646.080000
   3111   3115     1   0.10969 276646.080000
   3112   3114     1   0.10969 276646.080000
   3113   3116     1   0.10961 277566.560000
   3117   3127     1   0.09730 310787.520000
   3118   3120     1   0.09730 310787.520000
   3119   3122     1   0.10969 276646.080000
   3119   3123     1   0.10969 276646.080000
   3121   3131     1   0.10190 328360.320000
   3124   3125     1   0.09730 310787.520000
   3129   3130     1   0.09730 310787.520000
   3132   3134     1   0.10969 276646.080000
   3133   3152     1   0.10969 276646.080000
   3135   3139     1   0.10969 276646.080000
   3136   3138     1   0.10969 276646.080000
   3137   3140     1   0.10961 277566.560000
   3141   3151     1   0.09730 310787.520000
   3142   3144     1   0.09730 310787.520000
   3143   3146     1   0.10969 276646.080000
   3143   3147     1   0.10969 276646.080000
   3145   3155     1   0.10190 328360.320000
   3148   3149     1   0.09730 310787.520000
   3153   3154     1   0.09730 310787.520000
   3157   3158     1   0.10129 337397.760000
   3159   3160     1   0.10969 276646.080000
   3159   3162     1   0.10969 276646.080000
   3161   3163     1   0.10969 276646.080000
   3161   3164     1   0.10969 276646.080000
   3165   3230     1   0.10304 312293.760000
   3166   3175     1   0.10969 276646.080000
   3166   3176     1   0.10969 276646.080000
   3167   3168     1   0.10969 276646.080000
   3167   3170     1   0.10969 276646.080000
   3169   3171     1   0.10969 276646.080000
   3169   3172     1   0.10969 276646.080000
   3177   3178     1   0.10969 276646.080000
   3177   3179     1   0.10969 276646.080000
   3182   3184     1   0.10969 276646.080000
   3183   3202     1   0.10969 276646.080000
   3185   3189     1   0.10969 276646.080000
   3186   3188     1   0.10969 276646.080000
   3187   3190     1   0.10961 277566.560000
   3191   3201     1   0.09730 310787.520000
   3192   3194     1   0.09730 310787.520000
   3193   3196     1   0.10969 276646.080000
   3193   3197     1   0.10969 276646.080000
   3195   3205     1   0.10190 328360.320000
   3198   3199     1   0.09730 310787.520000
   3203   3204     1   0.09730 310787.520000
   3206   3208     1   0.10969 276646.080000
   3207   3226     1   0.10969 276646.080000
   3209   3213     1   0.10969 276646.080000
   3210   3212     1   0.10969 276646.080000
   3211   3214     1   0.10961 277566.560000
   3215   3225     1   0.09730 310787.520000
   3216   3218     1   0.09730 310787.520000
   3217   3220     1   0.10969 276646.080000
   3217   3221     1   0.10969 276646.080000
   3219   3229     1   0.10190 328360.320000
   3222   3223     1   0.09730 310787.520000
   3227   3228     1   0.09730 310787.520000
   3231   3232     1   0.10129 337397.760000
   3233   3234     1   0.10969 276646.080000
   3233   3236     1   0.10969 276646.080000
   3235   3237     1   0.10969 276646.080000
   3235   3238     1   0.10969 276646.080000
   3239   3304     1   0.10304 312293.760000
   3240   3249     1   0.10969 276646.080000
   3240   3250     1   0.10969 276646.080000
   3241   3242     1   0.10969 276646.080000
   3241   3244     1   0.10969 276646.080000
   3243   3245     1   0.10969 276646.080000
   3243   3246     1   0.10969 276646.080000
   3251   3252     1   0.10969 276646.080000
   3251   3253     1   0.10969 276646.080000
   3256   3258     1   0.10969 276646.080000
   3257   3276     1   0.10969 276646.080000
   3259   3263     1   0.10969 276646.080000
   3260   3262     1   0.10969 276646.080000
   3261   3264     1   0.10961 277566.560000
   3265   3275     1   0.09730 310787.520000
   3266   3268     1   0.09730 310787.520000
   3267   3270     1   0.10969 276646.080000
   3267   3271     1   0.10969 276646.080000
   3269   3279     1   0.10190 328360.320000
   3272   3273     1   0.09730 310787.520000
   3277   3278     1   0.09730 310787.520000
   3280   3282     1   0.10969 276646.080000
   3281   3300     1   0.10969 276646.080000
   3283   3287     1   0.10969 276646.080000
   3284   3286     1   0.10969 276646.080000
   3285   3288     1   0.10961 277566.560000
   3289   3299     1   0.09730 310787.520000
   3290   3292     1   0.09730 310787.520000
   3291   3294     1   0.10969 276646.080000
   3291   3295     1   0.10969 276646.080000
   3293   3303     1   0.10190 328360.320000
   3296   3297     1   0.09730 310787.520000
   3301   3302     1   0.09730 310787.520000
   3305   3306     1   0.10129 337397.760000
   3307   3308     1   0.10969 276646.080000
   3307   3310     1   0.10969 276646.080000
   3309   3311     1   0.10969 276646.080000
   3309   3312     1   0.10969 276646.080000
   3313   3378     1   0.10304 312293.760000
   3314   3323     1   0.10969 276646.080000
   3314   3324     1   0.10969 276646.080000
   3315   3316     1   0.10969 276646.080000
   3315   3318     1   0.10969 276646.080000
   3317   3319     1   0.10969 276646.080000
   3317   3320     1   0.10969 276646.080000
   3325   3326     1   0.10969 276646.080000
   3325   3327     1   0.10969 276646.080000
   3330   3332     1   0.10969 276646.080000
   3331   3350     1   0.10969 276646.080000
   3333   3337     1   0.10969 276646.080000
   3334   3336     1   0.10969 276646.080000
   3335   3338     1   0.10961 277566.560000
   3339   3349     1   0.09730 310787.520000
   3340   3342     1   0.09730 310787.520000
   3341   3344     1   0.10969 276646.080000
   3341   3345     1   0.10969 276646.080000
   3343   3353     1   0.10190 328360.320000
   3346   3347     1   0.09730 310787.520000
   3351   3352     1   0.09730 310787.520000
   3354   3356     1   0.10969 276646.080000
   3355   3374     1   0.10969 276646.080000
   3357   3361     1   0.10969 276646.080000
   3358   3360     1   0.10969 276646.080000
   3359   3362     1   0.10961 277566.560000
   3363   3373     1   0.09730 310787.520000
   3364   3366     1   0.09730 310787.520000
   3365   3368     1   0.10969 276646.080000
   3365   3369     1   0.10969 276646.080000
   3367   3377     1   0.10190 328360.320000
   3370   3371     1   0.09730 310787.520000
   3375   3376     1   0.09730 310787.520000
   3379   3380     1   0.10129 337397.760000
   3381   3382     1   0.10969 276646.080000
   3381   3384     1   0.10969 276646.080000
   3383   3385     1   0.10969 276646.080000
   3383   3386     1   0.10969 276646.080000
   3387   3452     1   0.10304 312293.760000
   3388   3397     1   0.10969 276646.080000
   3388   3398     1   0.10969 276646.080000
   3389   3390     1   0.10969 276646.080000
   3389   3392     1   0.10969 276646.080000
   3391   3393     1   0.10969 276646.080000
   3391   3394     1   0.10969 276646.080000
   3399   3400     1   0.10969 276646.080000
   3399   3401     1   0.10969 276646.080000
   3404   3406     1   0.10969 276646.080000
   3405   3424     1   0.10969 276646.080000
   3407   3411     1   0.10969 276646.080000
   3408   3410     1   0.10969 276646.080000
   3409   3412     1   0.10961 277566.560000
   3413   3423     1   0.09730 310787.520000
   3414   3416     1   0.09730 310787.520000
   3415   3418     1   0.10969 276646.080000
   3415   3419     1   0.10969 276646.080000
   3417   3427     1   0.10190 328360.320000
   3420   3421     1   0.09730 310787.520000
   3425   3426     1   0.09730 310787.520000
   3428   3430     1   0.10969 276646.080000
   3429   3448     1   0.10969 276646.080000
   3431   3435     1   0.10969 276646.080000
   3432   3434     1   0.10969 276646.080000
   3433   3436     1   0.10961 277566.560000
   3437   3447     1   0.09730 310787.520000
   3438   3440     1   0.09730 310787.520000
   3439   3442     1   0.10969 276646.080000
   3439   3443     1   0.10969 276646.080000
   3441   3451     1   0.10190 328360.320000
   3444   3445     1   0.09730 310787.520000
   3449   3450     1   0.09730 310787.520000
   3453   3454     1   0.10129 337397.760000
   3455   3456     1   0.10969 276646.080000
   3455   3458     1   0.10969 276646.080000
   3457   3459     1   0.10969 276646.080000
   3457   3460     1   0.10969 276646.080000
   3461   3526     1   0.10304 312293.760000
   3462   3471     1   0.10969 276646.080000
   3462   3472     1   0.10969 276646.080000
   3463   3464     1   0.10969 276646.080000
   3463   3466     1   0.10969 276646.080000
   3465   3467     1   0.10969 276646.080000
   3465   3468     1   0.10969 276646.080000
   3473   3474     1   0.10969 276646.080000
   3473   3475     1   0.10969 276646.080000
   3478   3480     1   0.10969 276646.080000
   3479   3498     1   0.10969 276646.080000
   3481   3485     1   0.10969 276646.080000
   3482   3484     1   0.10969 276646.080000
   3483   3486     1   0.10961 277566.560000
   3487   3497     1   0.09730 310787.520000
   3488   3490     1   0.09730 310787.520000
   3489   3492     1   0.10969 276646.080000
   3489   3493     1   0.10969 276646.080000
   3491   3501     1   0.10190 328360.320000
   3494   3495     1   0.09730 310787.520000
   3499   3500     1   0.09730 310787.520000
   3502   3504     1   0.10969 276646.080000
   3503   3522     1   0.10969 276646.080000
   3505   3509     1   0.10969 276646.080000
   3506   3508     1   0.10969 276646.080000
   3507   3510     1   0.10961 277566.560000
   3511   3521     1   0.09730 310787.520000
   3512   3514     1   0.09730 310787.520000
   3513   3516     1   0.10969 276646.080000
   3513   3517     1   0.10969 276646.080000
   3515   3525     1   0.10190 328360.320000
   3518   3519     1   0.09730 310787.520000
   3523   3524     1   0.09730 310787.520000
   3527   3528     1   0.10129 337397.760000
   3529   3530     1   0.10969 276646.080000
   3529   3532     1   0.10969 276646.080000
   3531   3533     1   0.10969 276646.080000
   3531   3534     1   0.10969 276646.080000
   3535   3600     1   0.10304 312293.760000
   3536   3545     1   0.10969 276646.080000
   3536   3546     1   0.10969 276646.080000
   3537   3538     1   0.10969 276646.080000
   3537   3540     1   0.10969 276646.080000
   3539   3541     1   0.10969 276646.080000
   3539   3542     1   0.10969 276646.080000
   3547   3548     1   0.10969 276646.080000
   3547   3549     1   0.10969 276646.080000
   3552   3554     1   0.10969 276646.080000
   3553   3572     1   0.10969 276646.080000
   3555   3559     1   0.10969 276646.080000
   3556   3558     1   0.10969 276646.080000
   3557   3560     1   0.10961 277566.560000
   3561   3571     1   0.09730 310787.520000
   3562   3564     1   0.09730 310787.520000
   3563   3566     1   0.10969 276646.080000
   3563   3567     1   0.10969 276646.080000
   3565   3575     1   0.10190 328360.320000
   3568   3569     1   0.09730 310787.520000
   3573   3574     1   0.09730 310787.520000
   3576   3578     1   0.10969 276646.080000
   3577   3596     1   0.10969 276646.080000
   3579   3583     1   0.10969 276646.080000
   3580   3582     1   0.10969 276646.080000
   3581   3584     1   0.10961 277566.560000
   3585   3595     1   0.09730 310787.520000
   3586   3588     1   0.09730 310787.520000
   3587   3590     1   0.10969 276646.080000
   3587   3591     1   0.10969 276646.080000
   3589   3599     1   0.10190 328360.320000
   3592   3593     1   0.09730 310787.520000
   3597   3598     1   0.09730 310787.520000
   3601   3602     1   0.10129 337397.760000
   3603   3604     1   0.10969 276646.080000
   3603   3606     1   0.10969 276646.080000
   3605   3607     1   0.10969 276646.080000
   3605   3608     1   0.10969 276646.080000
   3609   3674     1   0.10304 312293.760000
   3610   3619     1   0.10969 276646.080000
   3610   3620     1   0.10969 276646.080000
   3611   3612     1   0.10969 276646.080000
   3611   3614     1   0.10969 276646.080000
   3613   3615     1   0.10969 276646.080000
   3613   3616     1   0.10969 276646.080000
   3621   3622     1   0.10969 276646.080000
   3621   3623     1   0.10969 276646.080000
   3626   3628     1   0.10969 276646.080000
   3627   3646     1   0.10969 276646.080000
   3629   3633     1   0.10969 276646.080000
   3630   3632     1   0.10969 276646.080000
   3631   3634     1   0.10961 277566.560000
   3635   3645     1   0.09730 310787.520000
   3636   3638     1   0.09730 310787.520000
   3637   3640     1   0.10969 276646.080000
   3637   3641     1   0.10969 276646.080000
   3639   3649     1   0.10190 328360.320000
   3642   3643     1   0.09730 310787.520000
   3647   3648     1   0.09730 310787.520000
   3650   3652     1   0.10969 276646.080000
   3651   3670     1   0.10969 276646.080000
   3653   3657     1   0.10969 276646.080000
   3654   3656     1   0.10969 276646.080000
   3655   3658     1   0.10961 277566.560000
   3659   3669     1   0.09730 310787.520000
   3660   3662     1   0.09730 310787.520000
   3661   3664     1   0.10969 276646.080000
   3661   3665     1   0.10969 276646.080000
   3663   3673     1   0.10190 328360.320000
   3666   3667     1   0.09730 310787.520000
   3671   3672     1   0.09730 310787.520000
   3675   3676     1   0.10129 337397.760000
   3677   3678     1   0.10969 276646.080000
   3677   3680     1   0.10969 276646.080000
   3679   3681     1   0.10969 276646.080000
   3679   3682     1   0.10969 276646.080000
   3683   3748     1   0.10304 312293.760000
   3684   3693     1   0.10969 276646.080000
   3684   3694     1   0.10969 276646.080000
   3685   3686     1   0.10969 276646.080000
   3685   3688     1   0.10969 276646.080000
   3687   3689     1   0.10969 276646.080000
   3687   3690     1   0.10969 276646.080000
   3695   3696     1   0.10969 276646.080000
   3695   3697     1   0.10969 276646.080000
   3700   3702     1   0.10969 276646.080000
   3701   3720     1   0.10969 276646.080000
   3703   3707     1   0.10969 276646.080000
   3704   3706     1   0.10969 276646.080000
   3705   3708     1   0.10961 277566.560000
   3709   3719     1   0.09730 310787.520000
   3710   3712     1   0.09730 310787.520000
   3711   3714     1   0.10969 276646.080000
   3711   3715     1   0.10969 276646.080000
   3713   3723     1   0.10190 328360.320000
   3716   3717     1   0.09730 310787.520000
   3721   3722     1   0.09730 310787.520000
   3724   3726     1   0.10969 276646.080000
   3725   3744     1   0.10969 276646.080000
   3727   3731     1   0.10969 276646.080000
   3728   3730     1   0.10969 276646.080000
   3729   3732     1   0.10961 277566.560000
   3733   3743     1   0.09730 310787.520000
   3734   3736     1   0.09730 310787.520000
   3735   3738     1   0.10969 276646.080000
   3735   3739     1   0.10969 276646.080000
   3737   3747     1   0.10190 328360.320000
   3740   3741     1   0.09730 310787.520000
   3745   3746     1   0.09730 310787.520000
   3749   3750     1   0.10129 337397.760000
   3751   3752     1   0.10969 276646.080000
   3751   3754     1   0.10969 276646.080000
   3753   3755     1   0.10969 276646.080000
   3753   3756     1   0.10969 276646.080000
   3757   3822     1   0.10304 312293.760000
   3758   3767     1   0.10969 276646.080000
   3758   3768     1   0.10969 276646.080000
   3759   3760     1   0.10969 276646.080000
   3759   3762     1   0.10969 276646.080000
   3761   3763     1   0.10969 276646.080000
   3761   3764     1   0.10969 276646.080000
   3769   3770     1   0.10969 276646.080000
   3769   3771     1   0.10969 276646.080000
   3774   3776     1   0.10969 276646.080000
   3775   3794     1   0.10969 276646.080000
   3777   3781     1   0.10969 276646.080000
   3778   3780     1   0.10969 276646.080000
   3779   3782     1   0.10961 277566.560000
   3783   3793     1   0.09730 310787.520000
   3784   3786     1   0.09730 310787.520000
   3785   3788     1   0.10969 276646.080000
   3785   3789     1   0.10969 276646.080000
   3787   3797     1   0.10190 328360.320000
   3790   3791     1   0.09730 310787.520000
   3795   3796     1   0.09730 310787.520000
   3798   3800     1   0.10969 276646.080000
   3799   3818     1   0.10969 276646.080000
   3801   3805     1   0.10969 276646.080000
   3802   3804     1   0.10969 276646.080000
   3803   3806     1   0.10961 277566.560000
   3807   3817     1   0.09730 310787.520000
   3808   3810     1   0.09730 310787.520000
   3809   3812     1   0.10969 276646.080000
   3809   3813     1   0.10969 276646.080000
   3811   3821     1   0.10190 328360.320000
   3814   3815     1   0.09730 310787.520000
   3819   3820     1   0.09730 310787.520000
   3823   3824     1   0.10129 337397.760000
   3825   3826     1   0.10969 276646.080000
   3825   3828     1   0.10969 276646.080000
   3827   3829     1   0.10969 276646.080000
   3827   3830     1   0.10969 276646.080000
   3831   3896     1   0.10304 312293.760000
   3832   3841     1   0.10969 276646.080000
   3832   3842     1   0.10969 276646.080000
   3833   3834     1   0.10969 276646.080000
   3833   3836     1   0.10969 276646.080000
   3835   3837     1   0.10969 276646.080000
   3835   3838     1   0.10969 276646.080000
   3843   3844     1   0.10969 276646.080000
   3843   3845     1   0.10969 276646.080000
   3848   3850     1   0.10969 276646.080000
   3849   3868     1   0.10969 276646.080000
   3851   3855     1   0.10969 276646.080000
   3852   3854     1   0.10969 276646.080000
   3853   3856     1   0.10961 277566.560000
   3857   3867     1   0.09730 310787.520000
   3858   3860     1   0.09730 310787.520000
   3859   3862     1   0.10969 276646.080000
   3859   3863     1   0.10969 276646.080000
   3861   3871     1   0.10190 328360.320000
   3864   3865     1   0.09730 310787.520000
   3869   3870     1   0.09730 310787.520000
   3872   3874     1   0.10969 276646.080000
   3873   3892     1   0.10969 276646.080000
   3875   3879     1   0.10969 276646.080000
   3876   3878     1   0.10969 276646.080000
   3877   3880     1   0.10961 277566.560000
   3881   3891     1   0.09730 310787.520000
   3882   3884     1   0.09730 310787.520000
   3883   3886     1   0.10969 276646.080000
   3883   3887     1   0.10969 276646.080000
   3885   3895     1   0.10190 328360.320000
   3888   3889     1   0.09730 310787.520000
   3893   3894     1   0.09730 310787.520000
   3897   3898     1   0.10129 337397.760000
   3899   3900     1   0.10969 276646.080000
   3899   3902     1   0.10969 276646.080000
   3901   3903     1   0.10969 276646.080000
   3901   3904     1   0.10969 276646.080000
   3905   3970     1   0.10304 312293.760000
   3906   3915     1   0.10969 276646.080000
   3906   3916     1   0.10969 276646.080000
   3907   3908     1   0.10969 276646.080000
   3907   3910     1   0.10969 276646.080000
   3909   3911     1   0.10969 276646.080000
   3909   3912     1   0.10969 276646.080000
   3917   3918     1   0.10969 276646.080000
   3917   3919     1   0.10969 276646.080000
   3922   3924     1   0.10969 276646.080000
   3923   3942     1   0.10969 276646.080000
   3925   3929     1   0.10969 276646.080000
   3926   3928     1   0.10969 276646.080000
   3927   3930     1   0.10961 277566.560000
   3931   3941     1   0.09730 310787.520000
   3932   3934     1   0.09730 310787.520000
   3933   3936     1   0.10969 276646.080000
   3933   3937     1   0.10969 276646.080000
   3935   3945     1   0.10190 328360.320000
   3938   3939     1   0.09730 310787.520000
   3943   3944     1   0.09730 310787.520000
   3946   3948     1   0.10969 276646.080000
   3947   3966     1   0.10969 276646.080000
   3949   3953     1   0.10969 276646.080000
   3950   3952     1   0.10969 276646.080000
   3951   3954     1   0.10961 277566.560000
   3955   3965     1   0.09730 310787.520000
   3956   3958     1   0.09730 310787.520000
   3957   3960     1   0.10969 276646.080000
   3957   3961     1   0.10969 276646.080000
   3959   3969     1   0.10190 328360.320000
   3962   3963     1   0.09730 310787.520000
   3967   3968     1   0.09730 310787.520000
   3971   3972     1   0.10129 337397.760000
   3973   3974     1   0.10969 276646.080000
   3973   3976     1   0.10969 276646.080000
   3975   3977     1   0.10969 276646.080000
   3975   3978     1   0.10969 276646.080000
   3979   4044     1   0.10304 312293.760000
   3980   3989     1   0.10969 276646.080000
   3980   3990     1   0.10969 276646.080000
   3981   3982     1   0.10969 276646.080000
   3981   3984     1   0.10969 276646.080000
   3983   3985     1   0.10969 276646.080000
   3983   3986     1   0.10969 276646.080000
   3991   3992     1   0.10969 276646.080000
   3991   3993     1   0.10969 276646.080000
   3996   3998     1   0.10969 276646.080000
   3997   4016     1   0.10969 276646.080000
   3999   4003     1   0.10969 276646.080000
   4000   4002     1   0.10969 276646.080000
   4001   4004     1   0.10961 277566.560000
   4005   4015     1   0.09730 310787.520000
   4006   4008     1   0.09730 310787.520000
   4007   4010     1   0.10969 276646.080000
   4007   4011     1   0.10969 276646.080000
   4009   4019     1   0.10190 328360.320000
   4012   4013     1   0.09730 310787.520000
   4017   4018     1   0.09730 310787.520000
   4020   4022     1   0.10969 276646.080000
   4021   4040     1   0.10969 276646.080000
   4023   4027     1   0.10969 276646.080000
   4024   4026     1   0.10969 276646.080000
   4025   4028     1   0.10961 277566.560000
   4029   4039     1   0.09730 310787.520000
   4030   4032     1   0.09730 310787.520000
   4031   4034     1   0.10969 276646.080000
   4031   4035     1   0.10969 276646.080000
   4033   4043     1   0.10190 328360.320000
   4036   4037     1   0.09730 310787.520000
   4041   4042     1   0.09730 310787.520000
   4045   4046     1   0.10129 337397.760000
   4047   4048     1   0.10969 276646.080000
   4047   4050     1   0.10969 276646.080000
   4049   4051     1   0.10969 276646.080000
   4049   4052     1   0.10969 276646.080000
   4053   4118     1   0.10304 312293.760000
   4054   4063     1   0.10969 276646.080000
   4054   4064     1   0.10969 276646.080000
   4055   4056     1   0.10969 276646.080000
   4055   4058     1   0.10969 276646.080000
   4057   4059     1   0.10969 276646.080000
   4057   4060     1   0.10969 276646.080000
   4065   4066     1   0.10969 276646.080000
   4065   4067     1   0.10969 276646.080000
   4070   4072     1   0.10969 276646.080000
   4071   4090     1   0.10969 276646.080000
   4073   4077     1   0.10969 276646.080000
   4074   4076     1   0.10969 276646.080000
   4075   4078     1   0.10961 277566.560000
   4079   4089     1   0.09730 310787.520000
   4080   4082     1   0.09730 310787.520000
   4081   4084     1   0.10969 276646.080000
   4081   4085     1   0.10969 276646.080000
   4083   4093     1   0.10190 328360.320000
   4086   4087     1   0.09730 310787.520000
   4091   4092     1   0.09730 310787.520000
   4094   4096     1   0.10969 276646.080000
   4095   4114     1   0.10969 276646.080000
   4097   4101     1   0.10969 276646.080000
   4098   4100     1   0.10969 276646.080000
   4099   4102     1   0.10961 277566.560000
   4103   4113     1   0.09730 310787.520000
   4104   4106     1   0.09730 310787.520000
   4105   4108     1   0.10969 276646.080000
   4105   4109     1   0.10969 276646.080000
   4107   4117     1   0.10190 328360.320000
   4110   4111     1   0.09730 310787.520000
   4115   4116     1   0.09730 310787.520000
   4119   4120     1   0.10129 337397.760000
   4121   4122     1   0.10969 276646.080000
   4121   4124     1   0.10969 276646.080000
   4123   4125     1   0.10969 276646.080000
   4123   4126     1   0.10969 276646.080000
   4127   4192     1   0.10304 312293.760000
   4128   4137     1   0.10969 276646.080000
   4128   4138     1   0.10969 276646.080000
   4129   4130     1   0.10969 276646.080000
   4129   4132     1   0.10969 276646.080000
   4131   4133     1   0.10969 276646.080000
   4131   4134     1   0.10969 276646.080000
   4139   4140     1   0.10969 276646.080000
   4139   4141     1   0.10969 276646.080000
   4144   4146     1   0.10969 276646.080000
   4145   4164     1   0.10969 276646.080000
   4147   4151     1   0.10969 276646.080000
   4148   4150     1   0.10969 276646.080000
   4149   4152     1   0.10961 277566.560000
   4153   4163     1   0.09730 310787.520000
   4154   4156     1   0.09730 310787.520000
   4155   4158     1   0.10969 276646.080000
   4155   4159     1   0.10969 276646.080000
   4157   4167     1   0.10190 328360.320000
   4160   4161     1   0.09730 310787.520000
   4165   4166     1   0.09730 310787.520000
   4168   4170     1   0.10969 276646.080000
   4169   4188     1   0.10969 276646.080000
   4171   4175     1   0.10969 276646.080000
   4172   4174     1   0.10969 276646.080000
   4173   4176     1   0.10961 277566.560000
   4177   4187     1   0.09730 310787.520000
   4178   4180     1   0.09730 310787.520000
   4179   4182     1   0.10969 276646.080000
   4179   4183     1   0.10969 276646.080000
   4181   4191     1   0.10190 328360.320000
   4184   4185     1   0.09730 310787.520000
   4189   4190     1   0.09730 310787.520000
   4193   4194     1   0.10129 337397.760000
   4195   4196     1   0.10969 276646.080000
   4195   4198     1   0.10969 276646.080000
   4197   4199     1   0.10969 276646.080000
   4197   4200     1   0.10969 276646.080000
   4201   4266     1   0.10304 312293.760000
   4202   4211     1   0.10969 276646.080000
   4202   4212     1   0.10969 276646.080000
   4203   4204     1   0.10969 276646.080000
   4203   4206     1   0.10969 276646.080000
   4205   4207     1   0.10969 276646.080000
   4205   4208     1   0.10969 276646.080000
   4213   4214     1   0.10969 276646.080000
   4213   4215     1   0.10969 276646.080000
   4218   4220     1   0.10969 276646.080000
   4219   4238     1   0.10969 276646.080000
   4221   4225     1   0.10969 276646.080000
   4222   4224     1   0.10969 276646.080000
   4223   4226     1   0.10961 277566.560000
   4227   4237     1   0.09730 310787.520000
   4228   4230     1   0.09730 310787.520000
   4229   4232     1   0.10969 276646.080000
   4229   4233     1   0.10969 276646.080000
   4231   4241     1   0.10190 328360.320000
   4234   4235     1   0.09730 310787.520000
   4239   4240     1   0.09730 310787.520000
   4242   4244     1   0.10969 276646.080000
   4243   4262     1   0.10969 276646.080000
   4245   4249     1   0.10969 276646.080000
   4246   4248     1   0.10969 276646.080000
   4247   4250     1   0.10961 277566.560000
   4251   4261     1   0.09730 310787.520000
   4252   4254     1   0.09730 310787.520000
   4253   4256     1   0.10969 276646.080000
   4253   4257     1   0.10969 276646.080000
   4255   4265     1   0.10190 328360.320000
   4258   4259     1   0.09730 310787.520000
   4263   4264     1   0.09730 310787.520000
   4267   4268     1   0.10129 337397.760000
   4269   4270     1   0.10969 276646.080000
   4269   4272     1   0.10969 276646.080000
   4271   4273     1   0.10969 276646.080000
   4271   4274     1   0.10969 276646.080000
   4275   4340     1   0.10304 312293.760000
   4276   4285     1   0.10969 276646.080000
   4276   4286     1   0.10969 276646.080000
   4277   4278     1   0.10969 276646.080000
   4277   4280     1   0.10969 276646.080000
   4279   4281     1   0.10969 276646.080000
   4279   4282     1   0.10969 276646.080000
   4287   4288     1   0.10969 276646.080000
   4287   4289     1   0.10969 276646.080000
   4292   4294     1   0.10969 276646.080000
   4293   4312     1   0.10969 276646.080000
   4295   4299     1   0.10969 276646.080000
   4296   4298     1   0.10969 276646.080000
   4297   4300     1   0.10961 277566.560000
   4301   4311     1   0.09730 310787.520000
   4302   4304     1   0.09730 310787.520000
   4303   4306     1   0.10969 276646.080000
   4303   4307     1   0.10969 276646.080000
   4305   4315     1   0.10190 328360.320000
   4308   4309     1   0.09730 310787.520000
   4313   4314     1   0.09730 310787.520000
   4316   4318     1   0.10969 276646.080000
   4317   4336     1   0.10969 276646.080000
   4319   4323     1   0.10969 276646.080000
   4320   4322     1   0.10969 276646.080000
   4321   4324     1   0.10961 277566.560000
   4325   4335     1   0.09730 310787.520000
   4326   4328     1   0.09730 310787.520000
   4327   4330     1   0.10969 276646.080000
   4327   4331     1   0.10969 276646.080000
   4329   4339     1   0.10190 328360.320000
   4332   4333     1   0.09730 310787.520000
   4337   4338     1   0.09730 310787.520000
   4341   4342     1   0.10129 337397.760000
   4343   4344     1   0.10969 276646.080000
   4343   4346     1   0.10969 276646.080000
   4345   4347     1   0.10969 276646.080000
   4345   4348     1   0.10969 276646.080000
   4349   4414     1   0.10304 312293.760000
   4350   4359     1   0.10969 276646.080000
   4350   4360     1   0.10969 276646.080000
   4351   4352     1   0.10969 276646.080000
   4351   4354     1   0.10969 276646.080000
   4353   4355     1   0.10969 276646.080000
   4353   4356     1   0.10969 276646.080000
   4361   4362     1   0.10969 276646.080000
   4361   4363     1   0.10969 276646.080000
   4366   4368     1   0.10969 276646.080000
   4367   4386     1   0.10969 276646.080000
   4369   4373     1   0.10969 276646.080000
   4370   4372     1   0.10969 276646.080000
   4371   4374     1   0.10961 277566.560000
   4375   4385     1   0.09730 310787.520000
   4376   4378     1   0.09730 310787.520000
   4377   4380     1   0.10969 276646.080000
   4377   4381     1   0.10969 276646.080000
   4379   4389     1   0.10190 328360.320000
   4382   4383     1   0.09730 310787.520000
   4387   4388     1   0.09730 310787.520000
   4390   4392     1   0.10969 276646.080000
   4391   4410     1   0.10969 276646.080000
   4393   4397     1   0.10969 276646.080000
   4394   4396     1   0.10969 276646.080000
   4395   4398     1   0.10961 277566.560000
   4399   4409     1   0.09730 310787.520000
   4400   4402     1   0.09730 310787.520000
   4401   4404     1   0.10969 276646.080000
   4401   4405     1   0.10969 276646.080000
   4403   4413     1   0.10190 328360.320000
   4406   4407     1   0.09730 310787.520000
   4411   4412     1   0.09730 310787.520000
   4415   4416     1   0.10129 337397.760000
   4417   4418     1   0.10969 276646.080000
   4417   4420     1   0.10969 276646.080000
   4419   4421     1   0.10969 276646.080000
   4419   4422     1   0.10969 276646.080000
   4423   4488     1   0.10304 312293.760000
   4424   4433     1   0.10969 276646.080000
   4424   4434     1   0.10969 276646.080000
   4425   4426     1   0.10969 276646.080000
   4425   4428     1   0.10969 276646.080000
   4427   4429     1   0.10969 276646.080000
   4427   4430     1   0.10969 276646.080000
   4435   4436     1   0.10969 276646.080000
   4435   4437     1   0.10969 276646.080000
   4440   4442     1   0.10969 276646.080000
   4441   4460     1   0.10969 276646.080000
   4443   4447     1   0.10969 276646.080000
   4444   4446     1   0.10969 276646.080000
   4445   4448     1   0.10961 277566.560000
   4449   4459     1   0.09730 310787.520000
   4450   4452     1   0.09730 310787.520000
   4451   4454     1   0.10969 276646.080000
   4451   4455     1   0.10969 276646.080000
   4453   4463     1   0.10190 328360.320000
   4456   4457     1   0.09730 310787.520000
   4461   4462     1   0.09730 310787.520000
   4464   4466     1   0.10969 276646.080000
   4465   4484     1   0.10969 276646.080000
   4467   4471     1   0.10969 276646.080000
   4468   4470     1   0.10969 276646.080000
   4469   4472     1   0.10961 277566.560000
   4473   4483     1   0.09730 310787.520000
   4474   4476     1   0.09730 310787.520000
   4475   4478     1   0.10969 276646.080000
   4475   4479     1   0.10969 276646.080000
   4477   4487     1   0.10190 328360.320000
   4480   4481     1   0.09730 310787.520000
   4485   4486     1   0.09730 310787.520000
   4489   4490     1   0.10129 337397.760000
   4491   4492     1   0.10969 276646.080000
   4491   4494     1   0.10969 276646.080000
   4493   4495     1   0.10969 276646.080000
   4493   4496     1   0.10969 276646.080000
   4497   4562     1   0.10304 312293.760000
   4498   4507     1   0.10969 276646.080000
   4498   4508     1   0.10969 276646.080000
   4499   4500     1   0.10969 276646.080000
   4499   4502     1   0.10969 276646.080000
   4501   4503     1   0.10969 276646.080000
   4501   4504     1   0.10969 276646.080000
   4509   4510     1   0.10969 276646.080000
   4509   4511     1   0.10969 276646.080000
   4514   4516     1   0.10969 276646.080000
   4515   4534     1   0.10969 276646.080000
   4517   4521     1   0.10969 276646.080000
   4518   4520     1   0.10969 276646.080000
   4519   4522     1   0.10961 277566.560000
   4523   4533     1   0.09730 310787.520000
   4524   4526     1   0.09730 310787.520000
   4525   4528     1   0.10969 276646.080000
   4525   4529     1   0.10969 276646.080000
   4527   4537     1   0.10190 328360.320000
   4530   4531     1   0.09730 310787.520000
   4535   4536     1   0.09730 310787.520000
   4538   4540     1   0.10969 276646.080000
   4539   4558     1   0.10969 276646.080000
   4541   4545     1   0.10969 276646.080000
   4542   4544     1   0.10969 276646.080000
   4543   4546     1   0.10961 277566.560000
   4547   4557     1   0.09730 310787.520000
   4548   4550     1   0.09730 310787.520000
   4549   4552     1   0.10969 276646.080000
   4549   4553     1   0.10969 276646.080000
   4551   4561     1   0.10190 328360.320000
   4554   4555     1   0.09730 310787.520000
   4559   4560     1   0.09730 310787.520000
   4563   4564     1   0.10129 337397.760000
   4565   4566     1   0.10969 276646.080000
   4565   4568     1   0.10969 276646.080000
   4567   4569     1   0.10969 276646.080000
   4567   4570     1   0.10969 276646.080000
   4571   4636     1   0.10304 312293.760000
   4572   4581     1   0.10969 276646.080000
   4572   4582     1   0.10969 276646.080000
   4573   4574     1   0.10969 276646.080000
   4573   4576     1   0.10969 276646.080000
   4575   4577     1   0.10969 276646.080000
   4575   4578     1   0.10969 276646.080000
   4583   4584     1   0.10969 276646.080000
   4583   4585     1   0.10969 276646.080000
   4588   4590     1   0.10969 276646.080000
   4589   4608     1   0.10969 276646.080000
   4591   4595     1   0.10969 276646.080000
   4592   4594     1   0.10969 276646.080000
   4593   4596     1   0.10961 277566.560000
   4597   4607     1   0.09730 310787.520000
   4598   4600     1   0.09730 310787.520000
   4599   4602     1   0.10969 276646.080000
   4599   4603     1   0.10969 276646.080000
   4601   4611     1   0.10190 328360.320000
   4604   4605     1   0.09730 310787.520000
   4609   4610     1   0.09730 310787.520000
   4612   4614     1   0.10969 276646.080000
   4613   4632     1   0.10969 276646.080000
   4615   4619     1   0.10969 276646.080000
   4616   4618     1   0.10969 276646.080000
   4617   4620     1   0.10961 277566.560000
   4621   4631     1   0.09730 310787.520000
   4622   4624     1   0.09730 310787.520000
   4623   4626     1   0.10969 276646.080000
   4623   4627     1   0.10969 276646.080000
   4625   4635     1   0.10190 328360.320000
   4628   4629     1   0.09730 310787.520000
   4633   4634     1   0.09730 310787.520000
   4637   4638     1   0.10129 337397.760000
   4639   4640     1   0.10969 276646.080000
   4639   4642     1   0.10969 276646.080000
   4641   4643     1   0.10969 276646.080000
   4641   4644     1   0.10969 276646.080000
   4645   4710     1   0.10304 312293.760000
   4646   4655     1   0.10969 276646.080000
   4646   4656     1   0.10969 276646.080000
   4647   4648     1   0.10969 276646.080000
   4647   4650     1   0.10969 276646.080000
   4649   4651     1   0.10969 276646.080000
   4649   4652     1   0.10969 276646.080000
   4657   4658     1   0.10969 276646.080000
   4657   4659     1   0.10969 276646.080000
   4662   4664     1   0.10969 276646.080000
   4663   4682     1   0.10969 276646.080000
   4665   4669     1   0.10969 276646.080000
   4666   4668     1   0.10969 276646.080000
   4667   4670     1   0.10961 277566.560000
   4671   4681     1   0.09730 310787.520000
   4672   4674     1   0.09730 310787.520000
   4673   4676     1   0.10969 276646.080000
   4673   4677     1   0.10969 276646.080000
   4675   4685     1   0.10190 328360.320000
   4678   4679     1   0.09730 310787.520000
   4683   4684     1   0.09730 310787.520000
   4686   4688     1   0.10969 276646.080000
   4687   4706     1   0.10969 276646.080000
   4689   4693     1   0.10969 276646.080000
   4690   4692     1   0.10969 276646.080000
   4691   4694     1   0.10961 277566.560000
   4695   4705     1   0.09730 310787.520000
   4696   4698     1   0.09730 310787.520000
   4697   4700     1   0.10969 276646.080000
   4697   4701     1   0.10969 276646.080000
   4699   4709     1   0.10190 328360.320000
   4702   4703     1   0.09730 310787.520000
   4707   4708     1   0.09730 310787.520000
   4711   4712     1   0.10129 337397.760000
   4713   4714     1   0.10969 276646.080000
   4713   4716     1   0.10969 276646.080000
   4715   4717     1   0.10969 276646.080000
   4715   4718     1   0.10969 276646.080000
   4719   4784     1   0.10304 312293.760000
   4720   4729     1   0.10969 276646.080000
   4720   4730     1   0.10969 276646.080000
   4721   4722     1   0.10969 276646.080000
   4721   4724     1   0.10969 276646.080000
   4723   4725     1   0.10969 276646.080000
   4723   4726     1   0.10969 276646.080000
   4731   4732     1   0.10969 276646.080000
   4731   4733     1   0.10969 276646.080000
   4736   4738     1   0.10969 276646.080000
   4737   4756     1   0.10969 276646.080000
   4739   4743     1   0.10969 276646.080000
   4740   4742     1   0.10969 276646.080000
   4741   4744     1   0.10961 277566.560000
   4745   4755     1   0.09730 310787.520000
   4746   4748     1   0.09730 310787.520000
   4747   4750     1   0.10969 276646.080000
   4747   4751     1   0.10969 276646.080000
   4749   4759     1   0.10190 328360.320000
   4752   4753     1   0.09730 310787.520000
   4757   4758     1   0.09730 310787.520000
   4760   4762     1   0.10969 276646.080000
   4761   4780     1   0.10969 276646.080000
   4763   4767     1   0.10969 276646.080000
   4764   4766     1   0.10969 276646.080000
   4765   4768     1   0.10961 277566.560000
   4769   4779     1   0.09730 310787.520000
   4770   4772     1   0.09730 310787.520000
   4771   4774     1   0.10969 276646.080000
   4771   4775     1   0.10969 276646.080000
   4773   4783     1   0.10190 328360.320000
   4776   4777     1   0.09730 310787.520000
   4781   4782     1   0.09730 310787.520000
   4785   4786     1   0.10129 337397.760000
   4787   4788     1   0.10969 276646.080000
   4787   4790     1   0.10969 276646.080000
   4789   4791     1   0.10969 276646.080000
   4789   4792     1   0.10969 276646.080000
   4793   4858     1   0.10304 312293.760000
   4794   4803     1   0.10969 276646.080000
   4794   4804     1   0.10969 276646.080000
   4795   4796     1   0.10969 276646.080000
   4795   4798     1   0.10969 276646.080000
   4797   4799     1   0.10969 276646.080000
   4797   4800     1   0.10969 276646.080000
   4805   4806     1   0.10969 276646.080000
   4805   4807     1   0.10969 276646.080000
   4810   4812     1   0.10969 276646.080000
   4811   4830     1   0.10969 276646.080000
   4813   4817     1   0.10969 276646.080000
   4814   4816     1   0.10969 276646.080000
   4815   4818     1   0.10961 277566.560000
   4819   4829     1   0.09730 310787.520000
   4820   4822     1   0.09730 310787.520000
   4821   4824     1   0.10969 276646.080000
   4821   4825     1   0.10969 276646.080000
   4823   4833     1   0.10190 328360.320000
   4826   4827     1   0.09730 310787.520000
   4831   4832     1   0.09730 310787.520000
   4834   4836     1   0.10969 276646.080000
   4835   4854     1   0.10969 276646.080000
   4837   4841     1   0.10969 276646.080000
   4838   4840     1   0.10969 276646.080000
   4839   4842     1   0.10961 277566.560000
   4843   4853     1   0.09730 310787.520000
   4844   4846     1   0.09730 310787.520000
   4845   4848     1   0.10969 276646.080000
   4845   4849     1   0.10969 276646.080000
   4847   4857     1   0.10190 328360.320000
   4850   4851     1   0.09730 310787.520000
   4855   4856     1   0.09730 310787.520000
   4859   4860     1   0.10129 337397.760000
   4861   4862     1   0.10969 276646.080000
   4861   4864     1   0.10969 276646.080000
   4863   4865     1   0.10969 276646.080000
   4863   4866     1   0.10969 276646.080000
   4867   4932     1   0.10304 312293.760000
   4868   4877     1   0.10969 276646.080000
   4868   4878     1   0.10969 276646.080000
   4869   4870     1   0.10969 276646.080000
   4869   4872     1   0.10969 276646.080000
   4871   4873     1   0.10969 276646.080000
   4871   4874     1   0.10969 276646.080000
   4879   4880     1   0.10969 276646.080000
   4879   4881     1   0.10969 276646.080000
   4884   4886     1   0.10969 276646.080000
   4885   4904     1   0.10969 276646.080000
   4887   4891     1   0.10969 276646.080000
   4888   4890     1   0.10969 276646.080000
   4889   4892     1   0.10961 277566.560000
   4893   4903     1   0.09730 310787.520000
   4894   4896     1   0.09730 310787.520000
   4895   4898     1   0.10969 276646.080000
   4895   4899     1   0.10969 276646.080000
   4897   4907     1   0.10190 328360.320000
   4900   4901     1   0.09730 310787.520000
   4905   4906     1   0.09730 310787.520000
   4908   4910     1   0.10969 276646.080000
   4909   4928     1   0.10969 276646.080000
   4911   4915     1   0.10969 276646.080000
   4912   4914     1   0.10969 276646.080000
   4913   4916     1   0.10961 277566.560000
   4917   4927     1   0.09730 310787.520000
   4918   4920     1   0.09730 310787.520000
   4919   4922     1   0.10969 276646.080000
   4919   4923     1   0.10969 276646.080000
   4921   4931     1   0.10190 328360.320000
   4924   4925     1   0.09730 310787.520000
   4929   4930     1   0.09730 310787.520000
   4933   4934     1   0.10129 337397.760000
   4935   4936     1   0.10969 276646.080000
   4935   4938     1   0.10969 276646.080000
   4937   4939     1   0.10969 276646.080000
   4937   4940     1   0.10969 276646.080000
   4941   5006     1   0.10304 312293.760000
   4942   4951     1   0.10969 276646.080000
   4942   4952     1   0.10969 276646.080000
   4943   4944     1   0.10969 276646.080000
   4943   4946     1   0.10969 276646.080000
   4945   4947     1   0.10969 276646.080000
   4945   4948     1   0.10969 276646.080000
   4953   4954     1   0.10969 276646.080000
   4953   4955     1   0.10969 276646.080000
   4958   4960     1   0.10969 276646.080000
   4959   4978     1   0.10969 276646.080000
   4961   4965     1   0.10969 276646.080000
   4962   4964     1   0.10969 276646.080000
   4963   4966     1   0.10961 277566.560000
   4967   4977     1   0.09730 310787.520000
   4968   4970     1   0.09730 310787.520000
   4969   4972     1   0.10969 276646.080000
   4969   4973     1   0.10969 276646.080000
   4971   4981     1   0.10190 328360.320000
   4974   4975     1   0.09730 310787.520000
   4979   4980     1   0.09730 310787.520000
   4982   4984     1   0.10969 276646.080000
   4983   5002     1   0.10969 276646.080000
   4985   4989     1   0.10969 276646.080000
   4986   4988     1   0.10969 276646.080000
   4987   4990     1   0.10961 277566.560000
   4991   5001     1   0.09730 310787.520000
   4992   4994     1   0.09730 310787.520000
   4993   4996     1   0.10969 276646.080000
   4993   4997     1   0.10969 276646.080000
   4995   5005     1   0.10190 328360.320000
   4998   4999     1   0.09730 310787.520000
   5003   5004     1   0.09730 310787.520000
   5007   5008     1   0.10129 337397.760000
   5009   5010     1   0.10969 276646.080000
   5009   5012     1   0.10969 276646.080000
   5011   5013     1   0.10969 276646.080000
   5011   5014     1   0.10969 276646.080000
   5015   5080     1   0.10304 312293.760000
   5016   5025     1   0.10969 276646.080000
   5016   5026     1   0.10969 276646.080000
   5017   5018     1   0.10969 276646.080000
   5017   5020     1   0.10969 276646.080000
   5019   5021     1   0.10969 276646.080000
   5019   5022     1   0.10969 276646.080000
   5027   5028     1   0.10969 276646.080000
   5027   5029     1   0.10969 276646.080000
   5032   5034     1   0.10969 276646.080000
   5033   5052     1   0.10969 276646.080000
   5035   5039     1   0.10969 276646.080000
   5036   5038     1   0.10969 276646.080000
   5037   5040     1   0.10961 277566.560000
   5041   5051     1   0.09730 310787.520000
   5042   5044     1   0.09730 310787.520000
   5043   5046     1   0.10969 276646.080000
   5043   5047     1   0.10969 276646.080000
   5045   5055     1   0.10190 328360.320000
   5048   5049     1   0.09730 310787.520000
   5053   5054     1   0.09730 310787.520000
   5056   5058     1   0.10969 276646.080000
   5057   5076     1   0.10969 276646.080000
   5059   5063     1   0.10969 276646.080000
   5060   5062     1   0.10969 276646.080000
   5061   5064     1   0.10961 277566.560000
   5065   5075     1   0.09730 310787.520000
   5066   5068     1   0.09730 310787.520000
   5067   5070     1   0.10969 276646.080000
   5067   5071     1   0.10969 276646.080000
   5069   5079     1   0.10190 328360.320000
   5072   5073     1   0.09730 310787.520000
   5077   5078     1   0.09730 310787.520000
   5081   5082     1   0.10129 337397.760000
   5083   5084     1   0.10969 276646.080000
   5083   5086     1   0.10969 276646.080000
   5085   5087     1   0.10969 276646.080000
   5085   5088     1   0.10969 276646.080000
   5089   5154     1   0.10304 312293.760000
   5090   5099     1   0.10969 276646.080000
   5090   5100     1   0.10969 276646.080000
   5091   5092     1   0.10969 276646.080000
   5091   5094     1   0.10969 276646.080000
   5093   5095     1   0.10969 276646.080000
   5093   5096     1   0.10969 276646.080000
   5101   5102     1   0.10969 276646.080000
   5101   5103     1   0.10969 276646.080000
   5106   5108     1   0.10969 276646.080000
   5107   5126     1   0.10969 276646.080000
   5109   5113     1   0.10969 276646.080000
   5110   5112     1   0.10969 276646.080000
   5111   5114     1   0.10961 277566.560000
   5115   5125     1   0.09730 310787.520000
   5116   5118     1   0.09730 310787.520000
   5117   5120     1   0.10969 276646.080000
   5117   5121     1   0.10969 276646.080000
   5119   5129     1   0.10190 328360.320000
   5122   5123     1   0.09730 310787.520000
   5127   5128     1   0.09730 310787.520000
   5130   5132     1   0.10969 276646.080000
   5131   5150     1   0.10969 276646.080000
   5133   5137     1   0.10969 276646.080000
   5134   5136     1   0.10969 276646.080000
   5135   5138     1   0.10961 277566.560000
   5139   5149     1   0.09730 310787.520000
   5140   5142     1   0.09730 310787.520000
   5141   5144     1   0.10969 276646.080000
   5141   5145     1   0.10969 276646.080000
   5143   5153     1   0.10190 328360.320000
   5146   5147     1   0.09730 310787.520000
   5151   5152     1   0.09730 310787.520000
   5155   5156     1   0.10129 337397.760000
   5157   5158     1   0.10969 276646.080000
   5157   5160     1   0.10969 276646.080000
   5159   5161     1   0.10969 276646.080000
   5159   5162     1   0.10969 276646.080000
   5163   5228     1   0.10304 312293.760000
   5164   5173     1   0.10969 276646.080000
   5164   5174     1   0.10969 276646.080000
   5165   5166     1   0.10969 276646.080000
   5165   5168     1   0.10969 276646.080000
   5167   5169     1   0.10969 276646.080000
   5167   5170     1   0.10969 276646.080000
   5175   5176     1   0.10969 276646.080000
   5175   5177     1   0.10969 276646.080000
   5180   5182     1   0.10969 276646.080000
   5181   5200     1   0.10969 276646.080000
   5183   5187     1   0.10969 276646.080000
   5184   5186     1   0.10969 276646.080000
   5185   5188     1   0.10961 277566.560000
   5189   5199     1   0.09730 310787.520000
   5190   5192     1   0.09730 310787.520000
   5191   5194     1   0.10969 276646.080000
   5191   5195     1   0.10969 276646.080000
   5193   5203     1   0.10190 328360.320000
   5196   5197     1   0.09730 310787.520000
   5201   5202     1   0.09730 310787.520000
   5204   5206     1   0.10969 276646.080000
   5205   5224     1   0.10969 276646.080000
   5207   5211     1   0.10969 276646.080000
   5208   5210     1   0.10969 276646.080000
   5209   5212     1   0.10961 277566.560000
   5213   5223     1   0.09730 310787.520000
   5214   5216     1   0.09730 310787.520000
   5215   5218     1   0.10969 276646.080000
   5215   5219     1   0.10969 276646.080000
   5217   5227     1   0.10190 328360.320000
   5220   5221     1   0.09730 310787.520000
   5225   5226     1   0.09730 310787.520000
   5229   5230     1   0.10129 337397.760000
   5231   5232     1   0.10969 276646.080000
   5231   5234     1   0.10969 276646.080000
   5233   5235     1   0.10969 276646.080000
   5233   5236     1   0.10969 276646.080000
   5237   5302     1   0.10304 312293.760000
   5238   5247     1   0.10969 276646.080000
   5238   5248     1   0.10969 276646.080000
   5239   5240     1   0.10969 276646.080000
   5239   5242     1   0.10969 276646.080000
   5241   5243     1   0.10969 276646.080000
   5241   5244     1   0.10969 276646.080000
   5249   5250     1   0.10969 276646.080000
   5249   5251     1   0.10969 276646.080000
   5254   5256     1   0.10969 276646.080000
   5255   5274     1   0.10969 276646.080000
   5257   5261     1   0.10969 276646.080000
   5258   5260     1   0.10969 276646.080000
   5259   5262     1   0.10961 277566.560000
   5263   5273     1   0.09730 310787.520000
   5264   5266     1   0.09730 310787.520000
   5265   5268     1   0.10969 276646.080000
   5265   5269     1   0.10969 276646.080000
   5267   5277     1   0.10190 328360.320000
   5270   5271     1   0.09730 310787.520000
   5275   5276     1   0.09730 310787.520000
   5278   5280     1   0.10969 276646.080000
   5279   5298     1   0.10969 276646.080000
   5281   5285     1   0.10969 276646.080000
   5282   5284     1   0.10969 276646.080000
   5283   5286     1   0.10961 277566.560000
   5287   5297     1   0.09730 310787.520000
   5288   5290     1   0.09730 310787.520000
   5289   5292     1   0.10969 276646.080000
   5289   5293     1   0.10969 276646.080000
   5291   5301     1   0.10190 328360.320000
   5294   5295     1   0.09730 310787.520000
   5299   5300     1   0.09730 310787.520000
   5303   5304     1   0.10129 337397.760000
   5305   5306     1   0.10969 276646.080000
   5305   5308     1   0.10969 276646.080000
   5307   5309     1   0.10969 276646.080000
   5307   5310     1   0.10969 276646.080000
   5311   5376     1   0.10304 312293.760000
   5312   5321     1   0.10969 276646.080000
   5312   5322     1   0.10969 276646.080000
   5313   5314     1   0.10969 276646.080000
   5313   5316     1   0.10969 276646.080000
   5315   5317     1   0.10969 276646.080000
   5315   5318     1   0.10969 276646.080000
   5323   5324     1   0.10969 276646.080000
   5323   5325     1   0.10969 276646.080000
   5328   5330     1   0.10969 276646.080000
   5329   5348     1   0.10969 276646.080000
   5331   5335     1   0.10969 276646.080000
   5332   5334     1   0.10969 276646.080000
   5333   5336     1   0.10961 277566.560000
   5337   5347     1   0.09730 310787.520000
   5338   5340     1   0.09730 310787.520000
   5339   5342     1   0.10969 276646.080000
   5339   5343     1   0.10969 276646.080000
   5341   5351     1   0.10190 328360.320000
   5344   5345     1   0.09730 310787.520000
   5349   5350     1   0.09730 310787.520000
   5352   5354     1   0.10969 276646.080000
   5353   5372     1   0.10969 276646.080000
   5355   5359     1   0.10969 276646.080000
   5356   5358     1   0.10969 276646.080000
   5357   5360     1   0.10961 277566.560000
   5361   5371     1   0.09730 310787.520000
   5362   5364     1   0.09730 310787.520000
   5363   5366     1   0.10969 276646.080000
   5363   5367     1   0.10969 276646.080000
   5365   5375     1   0.10190 328360.320000
   5368   5369     1   0.09730 310787.520000
   5373   5374     1   0.09730 310787.520000
   5377   5378     1   0.10129 337397.760000
   5379   5380     1   0.10969 276646.080000
   5379   5382     1   0.10969 276646.080000
   5381   5383     1   0.10969 276646.080000
   5381   5384     1   0.10969 276646.080000
   5385   5450     1   0.10304 312293.760000
   5386   5395     1   0.10969 276646.080000
   5386   5396     1   0.10969 276646.080000
   5387   5388     1   0.10969 276646.080000
   5387   5390     1   0.10969 276646.080000
   5389   5391     1   0.10969 276646.080000
   5389   5392     1   0.10969 276646.080000
   5397   5398     1   0.10969 276646.080000
   5397   5399     1   0.10969 276646.080000
   5402   5404     1   0.10969 276646.080000
   5403   5422     1   0.10969 276646.080000
   5405   5409     1   0.10969 276646.080000
   5406   5408     1   0.10969 276646.080000
   5407   5410     1   0.10961 277566.560000
   5411   5421     1   0.09730 310787.520000
   5412   5414     1   0.09730 310787.520000
   5413   5416     1   0.10969 276646.080000
   5413   5417     1   0.10969 276646.080000
   5415   5425     1   0.10190 328360.320000
   5418   5419     1   0.09730 310787.520000
   5423   5424     1   0.09730 310787.520000
   5426   5428     1   0.10969 276646.080000
   5427   5446     1   0.10969 276646.080000
   5429   5433     1   0.10969 276646.080000
   5430   5432     1   0.10969 276646.080000
   5431   5434     1   0.10961 277566.560000
   5435   5445     1   0.09730 310787.520000
   5436   5438     1   0.09730 310787.520000
   5437   5440     1   0.10969 276646.080000
   5437   5441     1   0.10969 276646.080000
   5439   5449     1   0.10190 328360.320000
   5442   5443     1   0.09730 310787.520000
   5447   5448     1   0.09730 310787.520000
   5451   5452     1   0.10129 337397.760000
   5453   5454     1   0.10969 276646.080000
   5453   5456     1   0.10969 276646.080000
   5455   5457     1   0.10969 276646.080000
   5455   5458     1   0.10969 276646.080000
   5459   5524     1   0.10304 312293.760000
   5460   5469     1   0.10969 276646.080000
   5460   5470     1   0.10969 276646.080000
   5461   5462     1   0.10969 276646.080000
   5461   5464     1   0.10969 276646.080000
   5463   5465     1   0.10969 276646.080000
   5463   5466     1   0.10969 276646.080000
   5471   5472     1   0.10969 276646.080000
   5471   5473     1   0.10969 276646.080000
   5476   5478     1   0.10969 276646.080000
   5477   5496     1   0.10969 276646.080000
   5479   5483     1   0.10969 276646.080000
   5480   5482     1   0.10969 276646.080000
   5481   5484     1   0.10961 277566.560000
   5485   5495     1   0.09730 310787.520000
   5486   5488     1   0.09730 310787.520000
   5487   5490     1   0.10969 276646.080000
   5487   5491     1   0.10969 276646.080000
   5489   5499     1   0.10190 328360.320000
   5492   5493     1   0.09730 310787.520000
   5497   5498     1   0.09730 310787.520000
   5500   5502     1   0.10969 276646.080000
   5501   5520     1   0.10969 276646.080000
   5503   5507     1   0.10969 276646.080000
   5504   5506     1   0.10969 276646.080000
   5505   5508     1   0.10961 277566.560000
   5509   5519     1   0.09730 310787.520000
   5510   5512     1   0.09730 310787.520000
   5511   5514     1   0.10969 276646.080000
   5511   5515     1   0.10969 276646.080000
   5513   5523     1   0.10190 328360.320000
   5516   5517     1   0.09730 310787.520000
   5521   5522     1   0.09730 310787.520000
   5525   5526     1   0.10129 337397.760000
   5527   5528     1   0.10969 276646.080000
   5527   5530     1   0.10969 276646.080000
   5529   5531     1   0.10969 276646.080000
   5529   5532     1   0.10969 276646.080000
   5533   5598     1   0.10304 312293.760000
   5534   5543     1   0.10969 276646.080000
   5534   5544     1   0.10969 276646.080000
   5535   5536     1   0.10969 276646.080000
   5535   5538     1   0.10969 276646.080000
   5537   5539     1   0.10969 276646.080000
   5537   5540     1   0.10969 276646.080000
   5545   5546     1   0.10969 276646.080000
   5545   5547     1   0.10969 276646.080000
   5550   5552     1   0.10969 276646.080000
   5551   5570     1   0.10969 276646.080000
   5553   5557     1   0.10969 276646.080000
   5554   5556     1   0.10969 276646.080000
   5555   5558     1   0.10961 277566.560000
   5559   5569     1   0.09730 310787.520000
   5560   5562     1   0.09730 310787.520000
   5561   5564     1   0.10969 276646.080000
   5561   5565     1   0.10969 276646.080000
   5563   5573     1   0.10190 328360.320000
   5566   5567     1   0.09730 310787.520000
   5571   5572     1   0.09730 310787.520000
   5574   5576     1   0.10969 276646.080000
   5575   5594     1   0.10969 276646.080000
   5577   5581     1   0.10969 276646.080000
   5578   5580     1   0.10969 276646.080000
   5579   5582     1   0.10961 277566.560000
   5583   5593     1   0.09730 310787.520000
   5584   5586     1   0.09730 310787.520000
   5585   5588     1   0.10969 276646.080000
   5585   5589     1   0.10969 276646.080000
   5587   5597     1   0.10190 328360.320000
   5590   5591     1   0.09730 310787.520000
   5595   5596     1   0.09730 310787.520000
   5599   5600     1   0.10129 337397.760000
   5601   5602     1   0.10969 276646.080000
   5601   5604     1   0.10969 276646.080000
   5603   5605     1   0.10969 276646.080000
   5603   5606     1   0.10969 276646.080000
   5607   5672     1   0.10304 312293.760000
   5608   5617     1   0.10969 276646.080000
   5608   5618     1   0.10969 276646.080000
   5609   5610     1   0.10969 276646.080000
   5609   5612     1   0.10969 276646.080000
   5611   5613     1   0.10969 276646.080000
   5611   5614     1   0.10969 276646.080000
   5619   5620     1   0.10969 276646.080000
   5619   5621     1   0.10969 276646.080000
   5624   5626     1   0.10969 276646.080000
   5625   5644     1   0.10969 276646.080000
   5627   5631     1   0.10969 276646.080000
   5628   5630     1   0.10969 276646.080000
   5629   5632     1   0.10961 277566.560000
   5633   5643     1   0.09730 310787.520000
   5634   5636     1   0.09730 310787.520000
   5635   5638     1   0.10969 276646.080000
   5635   5639     1   0.10969 276646.080000
   5637   5647     1   0.10190 328360.320000
   5640   5641     1   0.09730 310787.520000
   5645   5646     1   0.09730 310787.520000
   5648   5650     1   0.10969 276646.080000
   5649   5668     1   0.10969 276646.080000
   5651   5655     1   0.10969 276646.080000
   5652   5654     1   0.10969 276646.080000
   5653   5656     1   0.10961 277566.560000
   5657   5667     1   0.09730 310787.520000
   5658   5660     1   0.09730 310787.520000
   5659   5662     1   0.10969 276646.080000
   5659   5663     1   0.10969 276646.080000
   5661   5671     1   0.10190 328360.320000
   5664   5665     1   0.09730 310787.520000
   5669   5670     1   0.09730 310787.520000
   5673   5674     1   0.10129 337397.760000
   5675   5676     1   0.10969 276646.080000
   5675   5678     1   0.10969 276646.080000
   5677   5679     1   0.10969 276646.080000
   5677   5680     1   0.10969 276646.080000
   5681   5746     1   0.10304 312293.760000
   5682   5691     1   0.10969 276646.080000
   5682   5692     1   0.10969 276646.080000
   5683   5684     1   0.10969 276646.080000
   5683   5686     1   0.10969 276646.080000
   5685   5687     1   0.10969 276646.080000
   5685   5688     1   0.10969 276646.080000
   5693   5694     1   0.10969 276646.080000
   5693   5695     1   0.10969 276646.080000
   5698   5700     1   0.10969 276646.080000
   5699   5718     1   0.10969 276646.080000
   5701   5705     1   0.10969 276646.080000
   5702   5704     1   0.10969 276646.080000
   5703   5706     1   0.10961 277566.560000
   5707   5717     1   0.09730 310787.520000
   5708   5710     1   0.09730 310787.520000
   5709   5712     1   0.10969 276646.080000
   5709   5713     1   0.10969 276646.080000
   5711   5721     1   0.10190 328360.320000
   5714   5715     1   0.09730 310787.520000
   5719   5720     1   0.09730 310787.520000
   5722   5724     1   0.10969 276646.080000
   5723   5742     1   0.10969 276646.080000
   5725   5729     1   0.10969 276646.080000
   5726   5728     1   0.10969 276646.080000
   5727   5730     1   0.10961 277566.560000
   5731   5741     1   0.09730 310787.520000
   5732   5734     1   0.09730 310787.520000
   5733   5736     1   0.10969 276646.080000
   5733   5737     1   0.10969 276646.080000
   5735   5745     1   0.10190 328360.320000
   5738   5739     1   0.09730 310787.520000
   5743   5744     1   0.09730 310787.520000
   5747   5748     1   0.10129 337397.760000
   5749   5750     1   0.10969 276646.080000
   5749   5752     1   0.10969 276646.080000
   5751   5753     1   0.10969 276646.080000
   5751   5754     1   0.10969 276646.080000
   5755   5820     1   0.10304 312293.760000
   5756   5765     1   0.10969 276646.080000
   5756   5766     1   0.10969 276646.080000
   5757   5758     1   0.10969 276646.080000
   5757   5760     1   0.10969 276646.080000
   5759   5761     1   0.10969 276646.080000
   5759   5762     1   0.10969 276646.080000
   5767   5768     1   0.10969 276646.080000
   5767   5769     1   0.10969 276646.080000
   5772   5774     1   0.10969 276646.080000
   5773   5792     1   0.10969 276646.080000
   5775   5779     1   0.10969 276646.080000
   5776   5778     1   0.10969 276646.080000
   5777   5780     1   0.10961 277566.560000
   5781   5791     1   0.09730 310787.520000
   5782   5784     1   0.09730 310787.520000
   5783   5786     1   0.10969 276646.080000
   5783   5787     1   0.10969 276646.080000
   5785   5795     1   0.10190 328360.320000
   5788   5789     1   0.09730 310787.520000
   5793   5794     1   0.09730 310787.520000
   5796   5798     1   0.10969 276646.080000
   5797   5816     1   0.10969 276646.080000
   5799   5803     1   0.10969 276646.080000
   5800   5802     1   0.10969 276646.080000
   5801   5804     1   0.10961 277566.560000
   5805   5815     1   0.09730 310787.520000
   5806   5808     1   0.09730 310787.520000
   5807   5810     1   0.10969 276646.080000
   5807   5811     1   0.10969 276646.080000
   5809   5819     1   0.10190 328360.320000
   5812   5813     1   0.09730 310787.520000
   5817   5818     1   0.09730 310787.520000
   5821   5822     1   0.10129 337397.760000
   5823   5824     1   0.10969 276646.080000
   5823   5826     1   0.10969 276646.080000
   5825   5827     1   0.10969 276646.080000
   5825   5828     1   0.10969 276646.080000
   5829   5894     1   0.10304 312293.760000
   5830   5839     1   0.10969 276646.080000
   5830   5840     1   0.10969 276646.080000
   5831   5832     1   0.10969 276646.080000
   5831   5834     1   0.10969 276646.080000
   5833   5835     1   0.10969 276646.080000
   5833   5836     1   0.10969 276646.080000
   5841   5842     1   0.10969 276646.080000
   5841   5843     1   0.10969 276646.080000
   5846   5848     1   0.10969 276646.080000
   5847   5866     1   0.10969 276646.080000
   5849   5853     1   0.10969 276646.080000
   5850   5852     1   0.10969 276646.080000
   5851   5854     1   0.10961 277566.560000
   5855   5865     1   0.09730 310787.520000
   5856   5858     1   0.09730 310787.520000
   5857   5860     1   0.10969 276646.080000
   5857   5861     1   0.10969 276646.080000
   5859   5869     1   0.10190 328360.320000
   5862   5863     1   0.09730 310787.520000
   5867   5868     1   0.09730 310787.520000
   5870   5872     1   0.10969 276646.080000
   5871   5890     1   0.10969 276646.080000
   5873   5877     1   0.10969 276646.080000
   5874   5876     1   0.10969 276646.080000
   5875   5878     1   0.10961 277566.560000
   5879   5889     1   0.09730 310787.520000
   5880   5882     1   0.09730 310787.520000
   5881   5884     1   0.10969 276646.080000
   5881   5885     1   0.10969 276646.080000
   5883   5893     1   0.10190 328360.320000
   5886   5887     1   0.09730 310787.520000
   5891   5892     1   0.09730 310787.520000
   5895   5896     1   0.10129 337397.760000
   5897   5898     1   0.10969 276646.080000
   5897   5900     1   0.10969 276646.080000
   5899   5901     1   0.10969 276646.080000
   5899   5902     1   0.10969 276646.080000
   5903   5968     1   0.10304 312293.760000
   5904   5913     1   0.10969 276646.080000
   5904   5914     1   0.10969 276646.080000
   5905   5906     1   0.10969 276646.080000
   5905   5908     1   0.10969 276646.080000
   5907   5909     1   0.10969 276646.080000
   5907   5910     1   0.10969 276646.080000
   5915   5916     1   0.10969 276646.080000
   5915   5917     1   0.10969 276646.080000
   5920   5922     1   0.10969 276646.080000
   5921   5940     1   0.10969 276646.080000
   5923   5927     1   0.10969 276646.080000
   5924   5926     1   0.10969 276646.080000
   5925   5928     1   0.10961 277566.560000
   5929   5939     1   0.09730 310787.520000
   5930   5932     1   0.09730 310787.520000
   5931   5934     1   0.10969 276646.080000
   5931   5935     1   0.10969 276646.080000
   5933   5943     1   0.10190 328360.320000
   5936   5937     1   0.09730 310787.520000
   5941   5942     1   0.09730 310787.520000
   5944   5946     1   0.10969 276646.080000
   5945   5964     1   0.10969 276646.080000
   5947   5951     1   0.10969 276646.080000
   5948   5950     1   0.10969 276646.080000
   5949   5952     1   0.10961 277566.560000
   5953   5963     1   0.09730 310787.520000
   5954   5956     1   0.09730 310787.520000
   5955   5958     1   0.10969 276646.080000
   5955   5959     1   0.10969 276646.080000
   5957   5967     1   0.10190 328360.320000
   5960   5961     1   0.09730 310787.520000
   5965   5966     1   0.09730 310787.520000
   5969   5970     1   0.10129 337397.760000
   5971   5972     1   0.10969 276646.080000
   5971   5974     1   0.10969 276646.080000
   5973   5975     1   0.10969 276646.080000
   5973   5976     1   0.10969 276646.080000
   5977   6042     1   0.10304 312293.760000
   5978   5987     1   0.10969 276646.080000
   5978   5988     1   0.10969 276646.080000
   5979   5980     1   0.10969 276646.080000
   5979   5982     1   0.10969 276646.080000
   5981   5983     1   0.10969 276646.080000
   5981   5984     1   0.10969 276646.080000
   5989   5990     1   0.10969 276646.080000
   5989   5991     1   0.10969 276646.080000
   5994   5996     1   0.10969 276646.080000
   5995   6014     1   0.10969 276646.080000
   5997   6001     1   0.10969 276646.080000
   5998   6000     1   0.10969 276646.080000
   5999   6002     1   0.10961 277566.560000
   6003   6013     1   0.09730 310787.520000
   6004   6006     1   0.09730 310787.520000
   6005   6008     1   0.10969 276646.080000
   6005   6009     1   0.10969 276646.080000
   6007   6017     1   0.10190 328360.320000
   6010   6011     1   0.09730 310787.520000
   6015   6016     1   0.09730 310787.520000
   6018   6020     1   0.10969 276646.080000
   6019   6038     1   0.10969 276646.080000
   6021   6025     1   0.10969 276646.080000
   6022   6024     1   0.10969 276646.080000
   6023   6026     1   0.10961 277566.560000
   6027   6037     1   0.09730 310787.520000
   6028   6030     1   0.09730 310787.520000
   6029   6032     1   0.10969 276646.080000
   6029   6033     1   0.10969 276646.080000
   6031   6041     1   0.10190 328360.320000
   6034   6035     1   0.09730 310787.520000
   6039   6040     1   0.09730 310787.520000
   6043   6044     1   0.10129 337397.760000
   6045   6046     1   0.10969 276646.080000
   6045   6048     1   0.10969 276646.080000
   6047   6049     1   0.10969 276646.080000
   6047   6050     1   0.10969 276646.080000
   6051   6116     1   0.10304 312293.760000
   6052   6061     1   0.10969 276646.080000
   6052   6062     1   0.10969 276646.080000
   6053   6054     1   0.10969 276646.080000
   6053   6056     1   0.10969 276646.080000
   6055   6057     1   0.10969 276646.080000
   6055   6058     1   0.10969 276646.080000
   6063   6064     1   0.10969 276646.080000
   6063   6065     1   0.10969 276646.080000
   6068   6070     1   0.10969 276646.080000
   6069   6088     1   0.10969 276646.080000
   6071   6075     1   0.10969 276646.080000
   6072   6074     1   0.10969 276646.080000
   6073   6076     1   0.10961 277566.560000
   6077   6087     1   0.09730 310787.520000
   6078   6080     1   0.09730 310787.520000
   6079   6082     1   0.10969 276646.080000
   6079   6083     1   0.10969 276646.080000
   6081   6091     1   0.10190 328360.320000
   6084   6085     1   0.09730 310787.520000
   6089   6090     1   0.09730 310787.520000
   6092   6094     1   0.10969 276646.080000
   6093   6112     1   0.10969 276646.080000
   6095   6099     1   0.10969 276646.080000
   6096   6098     1   0.10969 276646.080000
   6097   6100     1   0.10961 277566.560000
   6101   6111     1   0.09730 310787.520000
   6102   6104     1   0.09730 310787.520000
   6103   6106     1   0.10969 276646.080000
   6103   6107     1   0.10969 276646.080000
   6105   6115     1   0.10190 328360.320000
   6108   6109     1   0.09730 310787.520000
   6113   6114     1   0.09730 310787.520000
   6117   6118     1   0.10129 337397.760000
   6119   6120     1   0.10969 276646.080000
   6119   6122     1   0.10969 276646.080000
   6121   6123     1   0.10969 276646.080000
   6121   6124     1   0.10969 276646.080000
   6125   6190     1   0.10304 312293.760000
   6126   6135     1   0.10969 276646.080000
   6126   6136     1   0.10969 276646.080000
   6127   6128     1   0.10969 276646.080000
   6127   6130     1   0.10969 276646.080000
   6129   6131     1   0.10969 276646.080000
   6129   6132     1   0.10969 276646.080000
   6137   6138     1   0.10969 276646.080000
   6137   6139     1   0.10969 276646.080000
   6142   6144     1   0.10969 276646.080000
   6143   6162     1   0.10969 276646.080000
   6145   6149     1   0.10969 276646.080000
   6146   6148     1   0.10969 276646.080000
   6147   6150     1   0.10961 277566.560000
   6151   6161     1   0.09730 310787.520000
   6152   6154     1   0.09730 310787.520000
   6153   6156     1   0.10969 276646.080000
   6153   6157     1   0.10969 276646.080000
   6155   6165     1   0.10190 328360.320000
   6158   6159     1   0.09730 310787.520000
   6163   6164     1   0.09730 310787.520000
   6166   6168     1   0.10969 276646.080000
   6167   6186     1   0.10969 276646.080000
   6169   6173     1   0.10969 276646.080000
   6170   6172     1   0.10969 276646.080000
   6171   6174     1   0.10961 277566.560000
   6175   6185     1   0.09730 310787.520000
   6176   6178     1   0.09730 310787.520000
   6177   6180     1   0.10969 276646.080000
   6177   6181     1   0.10969 276646.080000
   6179   6189     1   0.10190 328360.320000
   6182   6183     1   0.09730 310787.520000
   6187   6188     1   0.09730 310787.520000
   6191   6192     1   0.10129 337397.760000
   6193   6194     1   0.10969 276646.080000
   6193   6196     1   0.10969 276646.080000
   6195   6197     1   0.10969 276646.080000
   6195   6198     1   0.10969 276646.080000
   6199   6264     1   0.10304 312293.760000
   6200   6209     1   0.10969 276646.080000
   6200   6210     1   0.10969 276646.080000
   6201   6202     1   0.10969 276646.080000
   6201   6204     1   0.10969 276646.080000
   6203   6205     1   0.10969 276646.080000
   6203   6206     1   0.10969 276646.080000
   6211   6212     1   0.10969 276646.080000
   6211   6213     1   0.10969 276646.080000
   6216   6218     1   0.10969 276646.080000
   6217   6236     1   0.10969 276646.080000
   6219   6223     1   0.10969 276646.080000
   6220   6222     1   0.10969 276646.080000
   6221   6224     1   0.10961 277566.560000
   6225   6235     1   0.09730 310787.520000
   6226   6228     1   0.09730 310787.520000
   6227   6230     1   0.10969 276646.080000
   6227   6231     1   0.10969 276646.080000
   6229   6239     1   0.10190 328360.320000
   6232   6233     1   0.09730 310787.520000
   6237   6238     1   0.09730 310787.520000
   6240   6242     1   0.10969 276646.080000
   6241   6260     1   0.10969 276646.080000
   6243   6247     1   0.10969 276646.080000
   6244   6246     1   0.10969 276646.080000
   6245   6248     1   0.10961 277566.560000
   6249   6259     1   0.09730 310787.520000
   6250   6252     1   0.09730 310787.520000
   6251   6254     1   0.10969 276646.080000
   6251   6255     1   0.10969 276646.080000
   6253   6263     1   0.10190 328360.320000
   6256   6257     1   0.09730 310787.520000
   6261   6262     1   0.09730 310787.520000
   6265   6266     1   0.10129 337397.760000
   6267   6268     1   0.10969 276646.080000
   6267   6270     1   0.10969 276646.080000
   6269   6271     1   0.10969 276646.080000
   6269   6272     1   0.10969 276646.080000
   6273   6338     1   0.10304 312293.760000
   6274   6283     1   0.10969 276646.080000
   6274   6284     1   0.10969 276646.080000
   6275   6276     1   0.10969 276646.080000
   6275   6278     1   0.10969 276646.080000
   6277   6279     1   0.10969 276646.080000
   6277   6280     1   0.10969 276646.080000
   6285   6286     1   0.10969 276646.080000
   6285   6287     1   0.10969 276646.080000
   6290   6292     1   0.10969 276646.080000
   6291   6310     1   0.10969 276646.080000
   6293   6297     1   0.10969 276646.080000
   6294   6296     1   0.10969 276646.080000
   6295   6298     1   0.10961 277566.560000
   6299   6309     1   0.09730 310787.520000
   6300   6302     1   0.09730 310787.520000
   6301   6304     1   0.10969 276646.080000
   6301   6305     1   0.10969 276646.080000
   6303   6313     1   0.10190 328360.320000
   6306   6307     1   0.09730 310787.520000
   6311   6312     1   0.09730 310787.520000
   6314   6316     1   0.10969 276646.080000
   6315   6334     1   0.10969 276646.080000
   6317   6321     1   0.10969 276646.080000
   6318   6320     1   0.10969 276646.080000
   6319   6322     1   0.10961 277566.560000
   6323   6333     1   0.09730 310787.520000
   6324   6326     1   0.09730 310787.520000
   6325   6328     1   0.10969 276646.080000
   6325   6329     1   0.10969 276646.080000
   6327   6337     1   0.10190 328360.320000
   6330   6331     1   0.09730 310787.520000
   6335   6336     1   0.09730 310787.520000

[ pairs ]
;    ai     aj funct         c0         c1         c2         c3
      1      4     1
      1     14     1
      1     16     1
      2     13     1
      2     15     1
      2      5     1
      2      6     1
      7      3     1
      8      3     1
      3     11     1
      3      9     1
      4     12     1
      4     10     1
      5      9     1
      5     17     1
      5     78     1
      6     11     1
      6     18     1
      6     52     1
      7     15     1
      7     20     1
      7    104     1
      8     13     1
      8     19     1
      8    130     1
      9     51     1
     10     50     1
     11     77     1
     12     76     1
     13    103     1
     14    102     1
     15    129     1
     16    128     1
     17     77     1
     18     51     1
     19    129     1
     20    103     1
     43     47     1
     43     49     1
     43     52     1
     44     48     1
     44     51     1
     44     53     1
     44    156     1
     45     46     1
     45     51     1
     45     54     1
     45    182     1
     46     50     1
     46    155     1
     47    154     1
     48     50     1
     48    181     1
     49    180     1
     53    155     1
     54    181     1
     69     73     1
     69     75     1
     69     78     1
     70     74     1
     70     77     1
     70     79     1
     70    208     1
     71     72     1
     71     77     1
     71     80     1
     71    234     1
     72     76     1
     72    207     1
     73    206     1
     74     76     1
     74    233     1
     75    232     1
     79    207     1
     80    233     1
     95     99     1
     95    101     1
     95    104     1
     96    100     1
     96    103     1
     96    105     1
     96    260     1
     97     98     1
     97    103     1
     97    106     1
     97    286     1
     98    102     1
     98    259     1
     99    258     1
    100    102     1
    100    285     1
    101    284     1
    105    259     1
    106    285     1
    121    125     1
    121    127     1
    121    130     1
    122    126     1
    122    129     1
    122    131     1
    122    312     1
    123    124     1
    123    129     1
    123    132     1
    123    338     1
    124    128     1
    124    311     1
    125    310     1
    126    128     1
    126    337     1
    127    336     1
    131    311     1
    132    337     1
    147    151     1
    147    153     1
    147    156     1
    148    152     1
    148    155     1
    148    157     1
    148    364     1
    149    150     1
    149    155     1
    149    158     1
    149    390     1
    150    154     1
    150    363     1
    151    362     1
    152    154     1
    152    389     1
    153    388     1
    157    363     1
    158    389     1
    173    177     1
    173    179     1
    173    182     1
    174    178     1
    174    181     1
    174    183     1
    174    416     1
    175    176     1
    175    181     1
    175    184     1
    175    442     1
    176    180     1
    176    415     1
    177    414     1
    178    180     1
    178    441     1
    179    440     1
    183    415     1
    184    441     1
    199    203     1
    199    205     1
    199    208     1
    200    204     1
    200    207     1
    200    209     1
    200    468     1
    201    202     1
    201    207     1
    201    210     1
    201    494     1
    202    206     1
    202    467     1
    203    466     1
    204    206     1
    204    493     1
    205    492     1
    209    467     1
    210    493     1
    225    229     1
    225    231     1
    225    234     1
    226    230     1
    226    233     1
    226    235     1
    226    520     1
    227    228     1
    227    233     1
    227    236     1
    227    546     1
    228    232     1
    228    519     1
    229    518     1
    230    232     1
    230    545     1
    231    544     1
    235    519     1
    236    545     1
    251    255     1
    251    257     1
    251    260     1
    252    256     1
    252    259     1
    252    261     1
    252    572     1
    253    254     1
    253    259     1
    253    262     1
    253    598     1
    254    258     1
    254    571     1
    255    570     1
    256    258     1
    256    597     1
    257    596     1
    261    571     1
    262    597     1
    277    281     1
    277    283     1
    277    286     1
    278    282     1
    278    285     1
    278    287     1
    278    624     1
    279    280     1
    279    285     1
    279    288     1
    279    650     1
    280    284     1
    280    623     1
    281    622     1
    282    284     1
    282    649     1
    283    648     1
    287    623     1
    288    649     1
    303    307     1
    303    309     1
    303    312     1
    304    308     1
    304    311     1
    304    313     1
    304    676     1
    305    306     1
    305    311     1
    305    314     1
    305    702     1
    306    310     1
    306    675     1
    307    674     1
    308    310     1
    308    701     1
    309    700     1
    313    675     1
    314    701     1
    329    333     1
    329    335     1
    329    338     1
    330    334     1
    330    337     1
    330    339     1
    330    728     1
    331    332     1
    331    337     1
    331    340     1
    331    754     1
    332    336     1
    332    727     1
    333    726     1
    334    336     1
    334    753     1
    335    752     1
    339    727     1
    340    753     1
    355    359     1
    355    361     1
    355    364     1
    356    360     1
    356    363     1
    356    365     1
    356    780     1
    357    358     1
    357    363     1
    357    366     1
    357    806     1
    358    362     1
    358    779     1
    359    778     1
    360    362     1
    360    805     1
    361    804     1
    365    779     1
    366    805     1
    381    385     1
    381    387     1
    381    390     1
    382    386     1
    382    389     1
    382    391     1
    382    832     1
    383    384     1
    383    389     1
    383    392     1
    383    858     1
    384    388     1
    384    831     1
    385    830     1
    386    388     1
    386    857     1
    387    856     1
    391    831     1
    392    857     1
    407    411     1
    407    413     1
    407    416     1
    408    412     1
    408    415     1
    408    417     1
    408    884     1
    409    410     1
    409    415     1
    409    418     1
    409    910     1
    410    414     1
    410    883     1
    411    882     1
    412    414     1
    412    909     1
    413    908     1
    417    883     1
    418    909     1
    433    437     1
    433    439     1
    433    442     1
    434    438     1
    434    441     1
    434    443     1
    434    936     1
    435    436     1
    435    441     1
    435    444     1
    435    962     1
    436    440     1
    436    935     1
    437    934     1
    438    440     1
    438    961     1
    439    960     1
    443    935     1
    444    961     1
    459    463     1
    459    465     1
    459    468     1
    460    464     1
    460    467     1
    460    469     1
    460    988     1
    461    462     1
    461    467     1
    461    470     1
    461   1014     1
    462    466     1
    462    987     1
    463    986     1
    464    466     1
    464   1013     1
    465   1012     1
    469    987     1
    470   1013     1
    485    489     1
    485    491     1
    485    494     1
    486    490     1
    486    493     1
    486    495     1
    486   1040     1
    487    488     1
    487    493     1
    487    496     1
    487   1066     1
    488    492     1
    488   1039     1
    489   1038     1
    490    492     1
    490   1065     1
    491   1064     1
    495   1039     1
    496   1065     1
    511    515     1
    511    517     1
    511    520     1
    512    516     1
    512    519     1
    512    521     1
    512   1092     1
    513    514     1
    513    519     1
    513    522     1
    513   1118     1
    514    518     1
    514   1091     1
    515   1090     1
    516    518     1
    516   1117     1
    517   1116     1
    521   1091     1
    522   1117     1
    537    541     1
    537    543     1
    537    546     1
    538    542     1
    538    545     1
    538    547     1
    538   1144     1
    539    540     1
    539    545     1
    539    548     1
    539   1170     1
    540    544     1
    540   1143     1
    541   1142     1
    542    544     1
    542   1169     1
    543   1168     1
    547   1143     1
    548   1169     1
    563    567     1
    563    569     1
    563    572     1
    564    568     1
    564    571     1
    564    573     1
    564   1196     1
    565    566     1
    565    571     1
    565    574     1
    565   1222     1
    566    570     1
    566   1195     1
    567   1194     1
    568    570     1
    568   1221     1
    569   1220     1
    573   1195     1
    574   1221     1
    589    593     1
    589    595     1
    589    598     1
    590    594     1
    590    597     1
    590    599     1
    590   1248     1
    591    592     1
    591    597     1
    591    600     1
    591   1274     1
    592    596     1
    592   1247     1
    593   1246     1
    594    596     1
    594   1273     1
    595   1272     1
    599   1247     1
    600   1273     1
    615    619     1
    615    621     1
    615    624     1
    616    620     1
    616    623     1
    616    625     1
    616   1300     1
    617    618     1
    617    623     1
    617    626     1
    617   1326     1
    618    622     1
    618   1299     1
    619   1298     1
    620    622     1
    620   1325     1
    621   1324     1
    625   1299     1
    626   1325     1
    641    645     1
    641    647     1
    641    650     1
    642    646     1
    642    649     1
    642    651     1
    642   1352     1
    643    644     1
    643    649     1
    643    652     1
    643   1378     1
    644    648     1
    644   1351     1
    645   1350     1
    646    648     1
    646   1377     1
    647   1376     1
    651   1351     1
    652   1377     1
    667    671     1
    667    673     1
    667    676     1
    668    672     1
    668    675     1
    668    677     1
    668   1404     1
    669    670     1
    669    675     1
    669    678     1
    669   1430     1
    670    674     1
    670   1403     1
    671   1402     1
    672    674     1
    672   1429     1
    673   1428     1
    677   1403     1
    678   1429     1
    693    697     1
    693    699     1
    693    702     1
    694    698     1
    694    701     1
    694    703     1
    694   1456     1
    695    696     1
    695    701     1
    695    704     1
    695   1482     1
    696    700     1
    696   1455     1
    697   1454     1
    698    700     1
    698   1481     1
    699   1480     1
    703   1455     1
    704   1481     1
    719    723     1
    719    725     1
    719    728     1
    720    724     1
    720    727     1
    720    729     1
    720   1508     1
    721    722     1
    721    727     1
    721    730     1
    721   1534     1
    722    726     1
    722   1507     1
    723   1506     1
    724    726     1
    724   1533     1
    725   1532     1
    729   1507     1
    730   1533     1
    745    749     1
    745    751     1
    745    754     1
    746    750     1
    746    753     1
    746    755     1
    746   1560     1
    747    748     1
    747    753     1
    747    756     1
    747   1586     1
    748    752     1
    748   1559     1
    749   1558     1
    750    752     1
    750   1585     1
    751   1584     1
    755   1559     1
    756   1585     1
    771    775     1
    771    777     1
    771    780     1
    772    776     1
    772    779     1
    772   1603     1
    772    781     1
    773    774     1
    773    779     1
    773    782     1
    773   1677     1
    774    778     1
    774   1605     1
    775   1607     1
    776    778     1
    776   1679     1
    777   1681     1
    781   1605     1
    782   1679     1
    797    801     1
    797    803     1
    797    806     1
    798    802     1
    798    805     1
    798   1751     1
    798    807     1
    799    800     1
    799    805     1
    799    808     1
    799   1825     1
    800    804     1
    800   1753     1
    801   1755     1
    802    804     1
    802   1827     1
    803   1829     1
    807   1753     1
    808   1827     1
    823    827     1
    823    829     1
    823    832     1
    824    828     1
    824    831     1
    824   1899     1
    824    833     1
    825    826     1
    825    831     1
    825    834     1
    825   1973     1
    826    830     1
    826   1901     1
    827   1903     1
    828    830     1
    828   1975     1
    829   1977     1
    833   1901     1
    834   1975     1
    849    853     1
    849    855     1
    849    858     1
    850    854     1
    850    857     1
    850   2047     1
    850    859     1
    851    852     1
    851    857     1
    851    860     1
    851   2121     1
    852    856     1
    852   2049     1
    853   2051     1
    854    856     1
    854   2123     1
    855   2125     1
    859   2049     1
    860   2123     1
    875    879     1
    875    881     1
    875    884     1
    876    880     1
    876    883     1
    876   2195     1
    876    885     1
    877    878     1
    877    883     1
    877    886     1
    877   2269     1
    878    882     1
    878   2197     1
    879   2199     1
    880    882     1
    880   2271     1
    881   2273     1
    885   2197     1
    886   2271     1
    901    905     1
    901    907     1
    901    910     1
    902    906     1
    902    909     1
    902   2343     1
    902    911     1
    903    904     1
    903    909     1
    903    912     1
    903   2417     1
    904    908     1
    904   2345     1
    905   2347     1
    906    908     1
    906   2419     1
    907   2421     1
    911   2345     1
    912   2419     1
    927    931     1
    927    933     1
    927    936     1
    928    932     1
    928    935     1
    928   2491     1
    928    937     1
    929    930     1
    929    935     1
    929    938     1
    929   2565     1
    930    934     1
    930   2493     1
    931   2495     1
    932    934     1
    932   2567     1
    933   2569     1
    937   2493     1
    938   2567     1
    953    957     1
    953    959     1
    953    962     1
    954    958     1
    954    961     1
    954   2639     1
    954    963     1
    955    956     1
    955    961     1
    955    964     1
    955   2713     1
    956    960     1
    956   2641     1
    957   2643     1
    958    960     1
    958   2715     1
    959   2717     1
    963   2641     1
    964   2715     1
    979    983     1
    979    985     1
    979    988     1
    980    984     1
    980    987     1
    980   2787     1
    980    989     1
    981    982     1
    981    987     1
    981    990     1
    981   2861     1
    982    986     1
    982   2789     1
    983   2791     1
    984    986     1
    984   2863     1
    985   2865     1
    989   2789     1
    990   2863     1
   1005   1009     1
   1005   1011     1
   1005   1014     1
   1006   1010     1
   1006   1013     1
   1006   2935     1
   1006   1015     1
   1007   1008     1
   1007   1013     1
   1007   1016     1
   1007   3009     1
   1008   1012     1
   1008   2937     1
   1009   2939     1
   1010   1012     1
   1010   3011     1
   1011   3013     1
   1015   2937     1
   1016   3011     1
   1031   1035     1
   1031   1037     1
   1031   1040     1
   1032   1036     1
   1032   1039     1
   1032   3083     1
   1032   1041     1
   1033   1034     1
   1033   1039     1
   1033   1042     1
   1033   3157     1
   1034   1038     1
   1034   3085     1
   1035   3087     1
   1036   1038     1
   1036   3159     1
   1037   3161     1
   1041   3085     1
   1042   3159     1
   1057   1061     1
   1057   1063     1
   1057   1066     1
   1058   1062     1
   1058   1065     1
   1058   3231     1
   1058   1067     1
   1059   1060     1
   1059   1065     1
   1059   1068     1
   1059   3305     1
   1060   1064     1
   1060   3233     1
   1061   3235     1
   1062   1064     1
   1062   3307     1
   1063   3309     1
   1067   3233     1
   1068   3307     1
   1083   1087     1
   1083   1089     1
   1083   1092     1
   1084   1088     1
   1084   1091     1
   1084   3379     1
   1084   1093     1
   1085   1086     1
   1085   1091     1
   1085   1094     1
   1085   3453     1
   1086   1090     1
   1086   3381     1
   1087   3383     1
   1088   1090     1
   1088   3455     1
   1089   3457     1
   1093   3381     1
   1094   3455     1
   1109   1113     1
   1109   1115     1
   1109   1118     1
   1110   1114     1
   1110   1117     1
   1110   3527     1
   1110   1119     1
   1111   1112     1
   1111   1117     1
   1111   1120     1
   1111   3601     1
   1112   1116     1
   1112   3529     1
   1113   3531     1
   1114   1116     1
   1114   3603     1
   1115   3605     1
   1119   3529     1
   1120   3603     1
   1135   1139     1
   1135   1141     1
   1135   1144     1
   1136   1140     1
   1136   1143     1
   1136   3675     1
   1136   1145     1
   1137   1138     1
   1137   1143     1
   1137   1146     1
   1137   3749     1
   1138   1142     1
   1138   3677     1
   1139   3679     1
   1140   1142     1
   1140   3751     1
   1141   3753     1
   1145   3677     1
   1146   3751     1
   1161   1165     1
   1161   1167     1
   1161   1170     1
   1162   1166     1
   1162   1169     1
   1162   3823     1
   1162   1171     1
   1163   1164     1
   1163   1169     1
   1163   1172     1
   1163   3897     1
   1164   1168     1
   1164   3825     1
   1165   3827     1
   1166   1168     1
   1166   3899     1
   1167   3901     1
   1171   3825     1
   1172   3899     1
   1187   1191     1
   1187   1193     1
   1187   1196     1
   1188   1192     1
   1188   1195     1
   1188   3971     1
   1188   1197     1
   1189   1190     1
   1189   1195     1
   1189   1198     1
   1189   4045     1
   1190   1194     1
   1190   3973     1
   1191   3975     1
   1192   1194     1
   1192   4047     1
   1193   4049     1
   1197   3973     1
   1198   4047     1
   1213   1217     1
   1213   1219     1
   1213   1222     1
   1214   1218     1
   1214   1221     1
   1214   4119     1
   1214   1223     1
   1215   1216     1
   1215   1221     1
   1215   1224     1
   1215   4193     1
   1216   1220     1
   1216   4121     1
   1217   4123     1
   1218   1220     1
   1218   4195     1
   1219   4197     1
   1223   4121     1
   1224   4195     1
   1239   1243     1
   1239   1245     1
   1239   1248     1
   1240   1244     1
   1240   1247     1
   1240   4267     1
   1240   1249     1
   1241   1242     1
   1241   1247     1
   1241   1250     1
   1241   4341     1
   1242   1246     1
   1242   4269     1
   1243   4271     1
   1244   1246     1
   1244   4343     1
   1245   4345     1
   1249   4269     1
   1250   4343     1
   1265   1269     1
   1265   1271     1
   1265   1274     1
   1266   1270     1
   1266   1273     1
   1266   4415     1
   1266   1275     1
   1267   1268     1
   1267   1273     1
   1267   1276     1
   1267   4489     1
   1268   1272     1
   1268   4417     1
   1269   4419     1
   1270   1272     1
   1270   4491     1
   1271   4493     1
   1275   4417     1
   1276   4491     1
   1291   1295     1
   1291   1297     1
   1291   1300     1
   1292   1296     1
   1292   1299     1
   1292   4563     1
   1292   1301     1
   1293   1294     1
   1293   1299     1
   1293   1302     1
   1293   4637     1
   1294   1298     1
   1294   4565     1
   1295   4567     1
   1296   1298     1
   1296   4639     1
   1297   4641     1
   1301   4565     1
   1302   4639     1
   1317   1321     1
   1317   1323     1
   1317   1326     1
   1318   1322     1
   1318   1325     1
   1318   4711     1
   1318   1327     1
   1319   1320     1
   1319   1325     1
   1319   1328     1
   1319   4785     1
   1320   1324     1
   1320   4713     1
   1321   4715     1
   1322   1324     1
   1322   4787     1
   1323   4789     1
   1327   4713     1
   1328   4787     1
   1343   1347     1
   1343   1349     1
   1343   1352     1
   1344   1348     1
   1344   1351     1
   1344   4859     1
   1344   1353     1
   1345   1346     1
   1345   1351     1
   1345   1354     1
   1345   4933     1
   1346   1350     1
   1346   4861     1
   1347   4863     1
   1348   1350     1
   1348   4935     1
   1349   4937     1
   1353   4861     1
   1354   4935     1
   1369   1373     1
   1369   1375     1
   1369   1378     1
   1370   1374     1
   1370   1377     1
   1370   5007     1
   1370   1379     1
   1371   1372     1
   1371   1377     1
   1371   1380     1
   1371   5081     1
   1372   1376     1
   1372   5009     1
   1373   5011     1
   1374   1376     1
   1374   5083     1
   1375   5085     1
   1379   5009     1
   1380   5083     1
   1395   1399     1
   1395   1401     1
   1395   1404     1
   1396   1400     1
   1396   1403     1
   1396   5155     1
   1396   1405     1
   1397   1398     1
   1397   1403     1
   1397   1406     1
   1397   5229     1
   1398   1402     1
   1398   5157     1
   1399   5159     1
   1400   1402     1
   1400   5231     1
   1401   5233     1
   1405   5157     1
   1406   5231     1
   1421   1425     1
   1421   1427     1
   1421   1430     1
   1422   1426     1
   1422   1429     1
   1422   5303     1
   1422   1431     1
   1423   1424     1
   1423   1429     1
   1423   1432     1
   1423   5377     1
   1424   1428     1
   1424   5305     1
   1425   5307     1
   1426   1428     1
   1426   5379     1
   1427   5381     1
   1431   5305     1
   1432   5379     1
   1447   1451     1
   1447   1453     1
   1447   1456     1
   1448   1452     1
   1448   1455     1
   1448   5451     1
   1448   1457     1
   1449   1450     1
   1449   1455     1
   1449   1458     1
   1449   5525     1
   1450   1454     1
   1450   5453     1
   1451   5455     1
   1452   1454     1
   1452   5527     1
   1453   5529     1
   1457   5453     1
   1458   5527     1
   1473   1477     1
   1473   1479     1
   1473   1482     1
   1474   1478     1
   1474   1481     1
   1474   5599     1
   1474   1483     1
   1475   1476     1
   1475   1481     1
   1475   1484     1
   1475   5673     1
   1476   1480     1
   1476   5601     1
   1477   5603     1
   1478   1480     1
   1478   5675     1
   1479   5677     1
   1483   5601     1
   1484   5675     1
   1499   1503     1
   1499   1505     1
   1499   1508     1
   1500   1504     1
   1500   1507     1
   1500   5747     1
   1500   1509     1
   1501   1502     1
   1501   1507     1
   1501   1510     1
   1501   5821     1
   1502   1506     1
   1502   5749     1
   1503   5751     1
   1504   1506     1
   1504   5823     1
   1505   5825     1
   1509   5749     1
   1510   5823     1
   1525   1529     1
   1525   1531     1
   1525   1534     1
   1526   1530     1
   1526   1533     1
   1526   5895     1
   1526   1535     1
   1527   1528     1
   1527   1533     1
   1527   1536     1
   1527   5969     1
   1528   1532     1
   1528   5897     1
   1529   5899     1
   1530   1532     1
   1530   5971     1
   1531   5973     1
   1535   5897     1
   1536   5971     1
   1551   1555     1
   1551   1557     1
   1551   1560     1
   1552   1556     1
   1552   1559     1
   1552   6043     1
   1552   1561     1
   1553   1554     1
   1553   1559     1
   1553   1562     1
   1553   6117     1
   1554   1558     1
   1554   6045     1
   1555   6047     1
   1556   1558     1
   1556   6119     1
   1557   6121     1
   1561   6045     1
   1562   6119     1
   1577   1581     1
   1577   1583     1
   1577   1586     1
   1578   1582     1
   1578   1585     1
   1578   6191     1
   1578   1587     1
   1579   1580     1
   1579   1585     1
   1579   6265     1
   1579   1588     1
   1580   1584     1
   1580   6193     1
   1581   6195     1
   1582   1584     1
   1582   6267     1
   1583   6269     1
   1587   6193     1
   1588   6267     1
   1603   1611     1
   1605   1612     1
   1605   1613     1
   1607   1623     1
   1607   1615     1
   1611   1626     1
   1611   1619     1
   1612   1615     1
   1612   1627     1
   1612   1675     1
   1613   1623     1
   1613   1620     1
   1613   1651     1
   1615   1632     1
   1619   1631     1
   1619   1633     1
   1620   1632     1
   1623   1656     1
   1626   1655     1
   1626   1657     1
   1627   1656     1
   1628   1632     1
   1628   1638     1
   1628   1637     1
   1629   1644     1
   1629   1633     1
   1629   1651     1
   1631   1639     1
   1631   1646     1
   1631   1637     1
   1632   1649     1
   1633   1638     1
   1633   1639     1
   1637   1651     1
   1638   1649     1
   1638   1651     1
   1639   1649     1
   1644   1646     1
   1646   1649     1
   1646   1651     1
   1652   1656     1
   1652   1662     1
   1652   1661     1
   1653   1668     1
   1653   1657     1
   1653   1675     1
   1655   1663     1
   1655   1670     1
   1655   1661     1
   1656   1673     1
   1657   1662     1
   1657   1663     1
   1661   1675     1
   1662   1673     1
   1662   1675     1
   1663   1673     1
   1668   1670     1
   1670   1673     1
   1670   1675     1
   1677   1685     1
   1679   1686     1
   1679   1687     1
   1681   1697     1
   1681   1689     1
   1685   1700     1
   1685   1693     1
   1686   1701     1
   1686   1749     1
   1686   1689     1
   1687   1694     1
   1687   1725     1
   1687   1697     1
   1689   1706     1
   1693   1707     1
   1693   1705     1
   1694   1706     1
   1697   1730     1
   1700   1731     1
   1700   1729     1
   1701   1730     1
   1702   1706     1
   1702   1712     1
   1702   1711     1
   1703   1707     1
   1703   1725     1
   1703   1718     1
   1705   1711     1
   1705   1720     1
   1705   1713     1
   1706   1723     1
   1707   1713     1
   1707   1712     1
   1711   1725     1
   1712   1725     1
   1712   1723     1
   1713   1723     1
   1718   1720     1
   1720   1725     1
   1720   1723     1
   1726   1730     1
   1726   1736     1
   1726   1735     1
   1727   1731     1
   1727   1749     1
   1727   1742     1
   1729   1735     1
   1729   1744     1
   1729   1737     1
   1730   1747     1
   1731   1737     1
   1731   1736     1
   1735   1749     1
   1736   1749     1
   1736   1747     1
   1737   1747     1
   1742   1744     1
   1744   1749     1
   1744   1747     1
   1751   1759     1
   1753   1760     1
   1753   1761     1
   1755   1771     1
   1755   1763     1
   1759   1774     1
   1759   1767     1
   1760   1763     1
   1760   1775     1
   1760   1823     1
   1761   1771     1
   1761   1768     1
   1761   1799     1
   1763   1780     1
   1767   1779     1
   1767   1781     1
   1768   1780     1
   1771   1804     1
   1774   1803     1
   1774   1805     1
   1775   1804     1
   1776   1780     1
   1776   1786     1
   1776   1785     1
   1777   1792     1
   1777   1781     1
   1777   1799     1
   1779   1787     1
   1779   1794     1
   1779   1785     1
   1780   1797     1
   1781   1786     1
   1781   1787     1
   1785   1799     1
   1786   1797     1
   1786   1799     1
   1787   1797     1
   1792   1794     1
   1794   1797     1
   1794   1799     1
   1800   1804     1
   1800   1810     1
   1800   1809     1
   1801   1816     1
   1801   1805     1
   1801   1823     1
   1803   1811     1
   1803   1818     1
   1803   1809     1
   1804   1821     1
   1805   1810     1
   1805   1811     1
   1809   1823     1
   1810   1821     1
   1810   1823     1
   1811   1821     1
   1816   1818     1
   1818   1821     1
   1818   1823     1
   1825   1833     1
   1827   1834     1
   1827   1835     1
   1829   1845     1
   1829   1837     1
   1833   1848     1
   1833   1841     1
   1834   1849     1
   1834   1897     1
   1834   1837     1
   1835   1842     1
   1835   1873     1
   1835   1845     1
   1837   1854     1
   1841   1855     1
   1841   1853     1
   1842   1854     1
   1845   1878     1
   1848   1879     1
   1848   1877     1
   1849   1878     1
   1850   1854     1
   1850   1860     1
   1850   1859     1
   1851   1855     1
   1851   1873     1
   1851   1866     1
   1853   1859     1
   1853   1868     1
   1853   1861     1
   1854   1871     1
   1855   1861     1
   1855   1860     1
   1859   1873     1
   1860   1873     1
   1860   1871     1
   1861   1871     1
   1866   1868     1
   1868   1873     1
   1868   1871     1
   1874   1878     1
   1874   1884     1
   1874   1883     1
   1875   1879     1
   1875   1897     1
   1875   1890     1
   1877   1883     1
   1877   1892     1
   1877   1885     1
   1878   1895     1
   1879   1885     1
   1879   1884     1
   1883   1897     1
   1884   1897     1
   1884   1895     1
   1885   1895     1
   1890   1892     1
   1892   1897     1
   1892   1895     1
   1899   1907     1
   1901   1908     1
   1901   1909     1
   1903   1919     1
   1903   1911     1
   1907   1922     1
   1907   1915     1
   1908   1911     1
   1908   1923     1
   1908   1971     1
   1909   1919     1
   1909   1916     1
   1909   1947     1
   1911   1928     1
   1915   1927     1
   1915   1929     1
   1916   1928     1
   1919   1952     1
   1922   1951     1
   1922   1953     1
   1923   1952     1
   1924   1928     1
   1924   1934     1
   1924   1933     1
   1925   1940     1
   1925   1929     1
   1925   1947     1
   1927   1935     1
   1927   1942     1
   1927   1933     1
   1928   1945     1
   1929   1934     1
   1929   1935     1
   1933   1947     1
   1934   1945     1
   1934   1947     1
   1935   1945     1
   1940   1942     1
   1942   1945     1
   1942   1947     1
   1948   1952     1
   1948   1958     1
   1948   1957     1
   1949   1964     1
   1949   1953     1
   1949   1971     1
   1951   1959     1
   1951   1966     1
   1951   1957     1
   1952   1969     1
   1953   1958     1
   1953   1959     1
   1957   1971     1
   1958   1969     1
   1958   1971     1
   1959   1969     1
   1964   1966     1
   1966   1969     1
   1966   1971     1
   1973   1981     1
   1975   1982     1
   1975   1983     1
   1977   1993     1
   1977   1985     1
   1981   1996     1
   1981   1989     1
   1982   1997     1
   1982   2045     1
   1982   1985     1
   1983   1990     1
   1983   2021     1
   1983   1993     1
   1985   2002     1
   1989   2003     1
   1989   2001     1
   1990   2002     1
   1993   2026     1
   1996   2027     1
   1996   2025     1
   1997   2026     1
   1998   2002     1
   1998   2008     1
   1998   2007     1
   1999   2003     1
   1999   2021     1
   1999   2014     1
   2001   2007     1
   2001   2016     1
   2001   2009     1
   2002   2019     1
   2003   2009     1
   2003   2008     1
   2007   2021     1
   2008   2021     1
   2008   2019     1
   2009   2019     1
   2014   2016     1
   2016   2021     1
   2016   2019     1
   2022   2026     1
   2022   2032     1
   2022   2031     1
   2023   2027     1
   2023   2045     1
   2023   2038     1
   2025   2031     1
   2025   2040     1
   2025   2033     1
   2026   2043     1
   2027   2033     1
   2027   2032     1
   2031   2045     1
   2032   2045     1
   2032   2043     1
   2033   2043     1
   2038   2040     1
   2040   2045     1
   2040   2043     1
   2047   2055     1
   2049   2056     1
   2049   2057     1
   2051   2067     1
   2051   2059     1
   2055   2070     1
   2055   2063     1
   2056   2059     1
   2056   2071     1
   2056   2119     1
   2057   2067     1
   2057   2064     1
   2057   2095     1
   2059   2076     1
   2063   2075     1
   2063   2077     1
   2064   2076     1
   2067   2100     1
   2070   2099     1
   2070   2101     1
   2071   2100     1
   2072   2076     1
   2072   2082     1
   2072   2081     1
   2073   2088     1
   2073   2077     1
   2073   2095     1
   2075   2083     1
   2075   2090     1
   2075   2081     1
   2076   2093     1
   2077   2082     1
   2077   2083     1
   2081   2095     1
   2082   2093     1
   2082   2095     1
   2083   2093     1
   2088   2090     1
   2090   2093     1
   2090   2095     1
   2096   2100     1
   2096   2106     1
   2096   2105     1
   2097   2112     1
   2097   2101     1
   2097   2119     1
   2099   2107     1
   2099   2114     1
   2099   2105     1
   2100   2117     1
   2101   2106     1
   2101   2107     1
   2105   2119     1
   2106   2117     1
   2106   2119     1
   2107   2117     1
   2112   2114     1
   2114   2117     1
   2114   2119     1
   2121   2129     1
   2123   2130     1
   2123   2131     1
   2125   2141     1
   2125   2133     1
   2129   2144     1
   2129   2137     1
   2130   2145     1
   2130   2193     1
   2130   2133     1
   2131   2138     1
   2131   2169     1
   2131   2141     1
   2133   2150     1
   2137   2151     1
   2137   2149     1
   2138   2150     1
   2141   2174     1
   2144   2175     1
   2144   2173     1
   2145   2174     1
   2146   2150     1
   2146   2156     1
   2146   2155     1
   2147   2151     1
   2147   2169     1
   2147   2162     1
   2149   2155     1
   2149   2164     1
   2149   2157     1
   2150   2167     1
   2151   2157     1
   2151   2156     1
   2155   2169     1
   2156   2169     1
   2156   2167     1
   2157   2167     1
   2162   2164     1
   2164   2169     1
   2164   2167     1
   2170   2174     1
   2170   2180     1
   2170   2179     1
   2171   2175     1
   2171   2193     1
   2171   2186     1
   2173   2179     1
   2173   2188     1
   2173   2181     1
   2174   2191     1
   2175   2181     1
   2175   2180     1
   2179   2193     1
   2180   2193     1
   2180   2191     1
   2181   2191     1
   2186   2188     1
   2188   2193     1
   2188   2191     1
   2195   2203     1
   2197   2204     1
   2197   2205     1
   2199   2215     1
   2199   2207     1
   2203   2218     1
   2203   2211     1
   2204   2207     1
   2204   2219     1
   2204   2267     1
   2205   2215     1
   2205   2212     1
   2205   2243     1
   2207   2224     1
   2211   2223     1
   2211   2225     1
   2212   2224     1
   2215   2248     1
   2218   2247     1
   2218   2249     1
   2219   2248     1
   2220   2224     1
   2220   2230     1
   2220   2229     1
   2221   2236     1
   2221   2225     1
   2221   2243     1
   2223   2231     1
   2223   2238     1
   2223   2229     1
   2224   2241     1
   2225   2230     1
   2225   2231     1
   2229   2243     1
   2230   2241     1
   2230   2243     1
   2231   2241     1
   2236   2238     1
   2238   2241     1
   2238   2243     1
   2244   2248     1
   2244   2254     1
   2244   2253     1
   2245   2260     1
   2245   2249     1
   2245   2267     1
   2247   2255     1
   2247   2262     1
   2247   2253     1
   2248   2265     1
   2249   2254     1
   2249   2255     1
   2253   2267     1
   2254   2265     1
   2254   2267     1
   2255   2265     1
   2260   2262     1
   2262   2265     1
   2262   2267     1
   2269   2277     1
   2271   2278     1
   2271   2279     1
   2273   2289     1
   2273   2281     1
   2277   2292     1
   2277   2285     1
   2278   2293     1
   2278   2341     1
   2278   2281     1
   2279   2286     1
   2279   2317     1
   2279   2289     1
   2281   2298     1
   2285   2299     1
   2285   2297     1
   2286   2298     1
   2289   2322     1
   2292   2323     1
   2292   2321     1
   2293   2322     1
   2294   2298     1
   2294   2304     1
   2294   2303     1
   2295   2299     1
   2295   2317     1
   2295   2310     1
   2297   2303     1
   2297   2312     1
   2297   2305     1
   2298   2315     1
   2299   2305     1
   2299   2304     1
   2303   2317     1
   2304   2317     1
   2304   2315     1
   2305   2315     1
   2310   2312     1
   2312   2317     1
   2312   2315     1
   2318   2322     1
   2318   2328     1
   2318   2327     1
   2319   2323     1
   2319   2341     1
   2319   2334     1
   2321   2327     1
   2321   2336     1
   2321   2329     1
   2322   2339     1
   2323   2329     1
   2323   2328     1
   2327   2341     1
   2328   2341     1
   2328   2339     1
   2329   2339     1
   2334   2336     1
   2336   2341     1
   2336   2339     1
   2343   2351     1
   2345   2352     1
   2345   2353     1
   2347   2363     1
   2347   2355     1
   2351   2366     1
   2351   2359     1
   2352   2355     1
   2352   2367     1
   2352   2415     1
   2353   2363     1
   2353   2360     1
   2353   2391     1
   2355   2372     1
   2359   2371     1
   2359   2373     1
   2360   2372     1
   2363   2396     1
   2366   2395     1
   2366   2397     1
   2367   2396     1
   2368   2372     1
   2368   2378     1
   2368   2377     1
   2369   2384     1
   2369   2373     1
   2369   2391     1
   2371   2379     1
   2371   2386     1
   2371   2377     1
   2372   2389     1
   2373   2378     1
   2373   2379     1
   2377   2391     1
   2378   2389     1
   2378   2391     1
   2379   2389     1
   2384   2386     1
   2386   2389     1
   2386   2391     1
   2392   2396     1
   2392   2402     1
   2392   2401     1
   2393   2408     1
   2393   2397     1
   2393   2415     1
   2395   2403     1
   2395   2410     1
   2395   2401     1
   2396   2413     1
   2397   2402     1
   2397   2403     1
   2401   2415     1
   2402   2413     1
   2402   2415     1
   2403   2413     1
   2408   2410     1
   2410   2413     1
   2410   2415     1
   2417   2425     1
   2419   2426     1
   2419   2427     1
   2421   2437     1
   2421   2429     1
   2425   2440     1
   2425   2433     1
   2426   2441     1
   2426   2489     1
   2426   2429     1
   2427   2434     1
   2427   2465     1
   2427   2437     1
   2429   2446     1
   2433   2447     1
   2433   2445     1
   2434   2446     1
   2437   2470     1
   2440   2471     1
   2440   2469     1
   2441   2470     1
   2442   2446     1
   2442   2452     1
   2442   2451     1
   2443   2447     1
   2443   2465     1
   2443   2458     1
   2445   2451     1
   2445   2460     1
   2445   2453     1
   2446   2463     1
   2447   2453     1
   2447   2452     1
   2451   2465     1
   2452   2465     1
   2452   2463     1
   2453   2463     1
   2458   2460     1
   2460   2465     1
   2460   2463     1
   2466   2470     1
   2466   2476     1
   2466   2475     1
   2467   2471     1
   2467   2489     1
   2467   2482     1
   2469   2475     1
   2469   2484     1
   2469   2477     1
   2470   2487     1
   2471   2477     1
   2471   2476     1
   2475   2489     1
   2476   2489     1
   2476   2487     1
   2477   2487     1
   2482   2484     1
   2484   2489     1
   2484   2487     1
   2491   2499     1
   2493   2500     1
   2493   2501     1
   2495   2511     1
   2495   2503     1
   2499   2514     1
   2499   2507     1
   2500   2503     1
   2500   2515     1
   2500   2563     1
   2501   2511     1
   2501   2508     1
   2501   2539     1
   2503   2520     1
   2507   2519     1
   2507   2521     1
   2508   2520     1
   2511   2544     1
   2514   2543     1
   2514   2545     1
   2515   2544     1
   2516   2520     1
   2516   2526     1
   2516   2525     1
   2517   2532     1
   2517   2521     1
   2517   2539     1
   2519   2527     1
   2519   2534     1
   2519   2525     1
   2520   2537     1
   2521   2526     1
   2521   2527     1
   2525   2539     1
   2526   2537     1
   2526   2539     1
   2527   2537     1
   2532   2534     1
   2534   2537     1
   2534   2539     1
   2540   2544     1
   2540   2550     1
   2540   2549     1
   2541   2556     1
   2541   2545     1
   2541   2563     1
   2543   2551     1
   2543   2558     1
   2543   2549     1
   2544   2561     1
   2545   2550     1
   2545   2551     1
   2549   2563     1
   2550   2561     1
   2550   2563     1
   2551   2561     1
   2556   2558     1
   2558   2561     1
   2558   2563     1
   2565   2573     1
   2567   2574     1
   2567   2575     1
   2569   2585     1
   2569   2577     1
   2573   2588     1
   2573   2581     1
   2574   2589     1
   2574   2637     1
   2574   2577     1
   2575   2582     1
   2575   2613     1
   2575   2585     1
   2577   2594     1
   2581   2595     1
   2581   2593     1
   2582   2594     1
   2585   2618     1
   2588   2619     1
   2588   2617     1
   2589   2618     1
   2590   2594     1
   2590   2600     1
   2590   2599     1
   2591   2595     1
   2591   2613     1
   2591   2606     1
   2593   2599     1
   2593   2608     1
   2593   2601     1
   2594   2611     1
   2595   2601     1
   2595   2600     1
   2599   2613     1
   2600   2613     1
   2600   2611     1
   2601   2611     1
   2606   2608     1
   2608   2613     1
   2608   2611     1
   2614   2618     1
   2614   2624     1
   2614   2623     1
   2615   2619     1
   2615   2637     1
   2615   2630     1
   2617   2623     1
   2617   2632     1
   2617   2625     1
   2618   2635     1
   2619   2625     1
   2619   2624     1
   2623   2637     1
   2624   2637     1
   2624   2635     1
   2625   2635     1
   2630   2632     1
   2632   2637     1
   2632   2635     1
   2639   2647     1
   2641   2648     1
   2641   2649     1
   2643   2659     1
   2643   2651     1
   2647   2662     1
   2647   2655     1
   2648   2651     1
   2648   2663     1
   2648   2711     1
   2649   2659     1
   2649   2656     1
   2649   2687     1
   2651   2668     1
   2655   2667     1
   2655   2669     1
   2656   2668     1
   2659   2692     1
   2662   2691     1
   2662   2693     1
   2663   2692     1
   2664   2668     1
   2664   2674     1
   2664   2673     1
   2665   2680     1
   2665   2669     1
   2665   2687     1
   2667   2675     1
   2667   2682     1
   2667   2673     1
   2668   2685     1
   2669   2674     1
   2669   2675     1
   2673   2687     1
   2674   2685     1
   2674   2687     1
   2675   2685     1
   2680   2682     1
   2682   2685     1
   2682   2687     1
   2688   2692     1
   2688   2698     1
   2688   2697     1
   2689   2704     1
   2689   2693     1
   2689   2711     1
   2691   2699     1
   2691   2706     1
   2691   2697     1
   2692   2709     1
   2693   2698     1
   2693   2699     1
   2697   2711     1
   2698   2709     1
   2698   2711     1
   2699   2709     1
   2704   2706     1
   2706   2709     1
   2706   2711     1
   2713   2721     1
   2715   2722     1
   2715   2723     1
   2717   2733     1
   2717   2725     1
   2721   2736     1
   2721   2729     1
   2722   2737     1
   2722   2785     1
   2722   2725     1
   2723   2730     1
   2723   2761     1
   2723   2733     1
   2725   2742     1
   2729   2743     1
   2729   2741     1
   2730   2742     1
   2733   2766     1
   2736   2767     1
   2736   2765     1
   2737   2766     1
   2738   2742     1
   2738   2748     1
   2738   2747     1
   2739   2743     1
   2739   2761     1
   2739   2754     1
   2741   2747     1
   2741   2756     1
   2741   2749     1
   2742   2759     1
   2743   2749     1
   2743   2748     1
   2747   2761     1
   2748   2761     1
   2748   2759     1
   2749   2759     1
   2754   2756     1
   2756   2761     1
   2756   2759     1
   2762   2766     1
   2762   2772     1
   2762   2771     1
   2763   2767     1
   2763   2785     1
   2763   2778     1
   2765   2771     1
   2765   2780     1
   2765   2773     1
   2766   2783     1
   2767   2773     1
   2767   2772     1
   2771   2785     1
   2772   2785     1
   2772   2783     1
   2773   2783     1
   2778   2780     1
   2780   2785     1
   2780   2783     1
   2787   2795     1
   2789   2796     1
   2789   2797     1
   2791   2807     1
   2791   2799     1
   2795   2810     1
   2795   2803     1
   2796   2799     1
   2796   2811     1
   2796   2859     1
   2797   2807     1
   2797   2804     1
   2797   2835     1
   2799   2816     1
   2803   2815     1
   2803   2817     1
   2804   2816     1
   2807   2840     1
   2810   2839     1
   2810   2841     1
   2811   2840     1
   2812   2816     1
   2812   2822     1
   2812   2821     1
   2813   2828     1
   2813   2817     1
   2813   2835     1
   2815   2823     1
   2815   2830     1
   2815   2821     1
   2816   2833     1
   2817   2822     1
   2817   2823     1
   2821   2835     1
   2822   2833     1
   2822   2835     1
   2823   2833     1
   2828   2830     1
   2830   2833     1
   2830   2835     1
   2836   2840     1
   2836   2846     1
   2836   2845     1
   2837   2852     1
   2837   2841     1
   2837   2859     1
   2839   2847     1
   2839   2854     1
   2839   2845     1
   2840   2857     1
   2841   2846     1
   2841   2847     1
   2845   2859     1
   2846   2857     1
   2846   2859     1
   2847   2857     1
   2852   2854     1
   2854   2857     1
   2854   2859     1
   2861   2869     1
   2863   2870     1
   2863   2871     1
   2865   2881     1
   2865   2873     1
   2869   2884     1
   2869   2877     1
   2870   2885     1
   2870   2933     1
   2870   2873     1
   2871   2878     1
   2871   2909     1
   2871   2881     1
   2873   2890     1
   2877   2891     1
   2877   2889     1
   2878   2890     1
   2881   2914     1
   2884   2915     1
   2884   2913     1
   2885   2914     1
   2886   2890     1
   2886   2896     1
   2886   2895     1
   2887   2891     1
   2887   2909     1
   2887   2902     1
   2889   2895     1
   2889   2904     1
   2889   2897     1
   2890   2907     1
   2891   2897     1
   2891   2896     1
   2895   2909     1
   2896   2909     1
   2896   2907     1
   2897   2907     1
   2902   2904     1
   2904   2909     1
   2904   2907     1
   2910   2914     1
   2910   2920     1
   2910   2919     1
   2911   2915     1
   2911   2933     1
   2911   2926     1
   2913   2919     1
   2913   2928     1
   2913   2921     1
   2914   2931     1
   2915   2921     1
   2915   2920     1
   2919   2933     1
   2920   2933     1
   2920   2931     1
   2921   2931     1
   2926   2928     1
   2928   2933     1
   2928   2931     1
   2935   2943     1
   2937   2944     1
   2937   2945     1
   2939   2955     1
   2939   2947     1
   2943   2958     1
   2943   2951     1
   2944   2947     1
   2944   2959     1
   2944   3007     1
   2945   2955     1
   2945   2952     1
   2945   2983     1
   2947   2964     1
   2951   2963     1
   2951   2965     1
   2952   2964     1
   2955   2988     1
   2958   2987     1
   2958   2989     1
   2959   2988     1
   2960   2964     1
   2960   2970     1
   2960   2969     1
   2961   2976     1
   2961   2965     1
   2961   2983     1
   2963   2971     1
   2963   2978     1
   2963   2969     1
   2964   2981     1
   2965   2970     1
   2965   2971     1
   2969   2983     1
   2970   2981     1
   2970   2983     1
   2971   2981     1
   2976   2978     1
   2978   2981     1
   2978   2983     1
   2984   2988     1
   2984   2994     1
   2984   2993     1
   2985   3000     1
   2985   2989     1
   2985   3007     1
   2987   2995     1
   2987   3002     1
   2987   2993     1
   2988   3005     1
   2989   2994     1
   2989   2995     1
   2993   3007     1
   2994   3005     1
   2994   3007     1
   2995   3005     1
   3000   3002     1
   3002   3005     1
   3002   3007     1
   3009   3017     1
   3011   3018     1
   3011   3019     1
   3013   3029     1
   3013   3021     1
   3017   3032     1
   3017   3025     1
   3018   3033     1
   3018   3081     1
   3018   3021     1
   3019   3026     1
   3019   3057     1
   3019   3029     1
   3021   3038     1
   3025   3039     1
   3025   3037     1
   3026   3038     1
   3029   3062     1
   3032   3063     1
   3032   3061     1
   3033   3062     1
   3034   3038     1
   3034   3044     1
   3034   3043     1
   3035   3039     1
   3035   3057     1
   3035   3050     1
   3037   3043     1
   3037   3052     1
   3037   3045     1
   3038   3055     1
   3039   3045     1
   3039   3044     1
   3043   3057     1
   3044   3057     1
   3044   3055     1
   3045   3055     1
   3050   3052     1
   3052   3057     1
   3052   3055     1
   3058   3062     1
   3058   3068     1
   3058   3067     1
   3059   3063     1
   3059   3081     1
   3059   3074     1
   3061   3067     1
   3061   3076     1
   3061   3069     1
   3062   3079     1
   3063   3069     1
   3063   3068     1
   3067   3081     1
   3068   3081     1
   3068   3079     1
   3069   3079     1
   3074   3076     1
   3076   3081     1
   3076   3079     1
   3083   3091     1
   3085   3092     1
   3085   3093     1
   3087   3103     1
   3087   3095     1
   3091   3106     1
   3091   3099     1
   3092   3095     1
   3092   3107     1
   3092   3155     1
   3093   3103     1
   3093   3100     1
   3093   3131     1
   3095   3112     1
   3099   3111     1
   3099   3113     1
   3100   3112     1
   3103   3136     1
   3106   3135     1
   3106   3137     1
   3107   3136     1
   3108   3112     1
   3108   3118     1
   3108   3117     1
   3109   3124     1
   3109   3113     1
   3109   3131     1
   3111   3119     1
   3111   3126     1
   3111   3117     1
   3112   3129     1
   3113   3118     1
   3113   3119     1
   3117   3131     1
   3118   3129     1
   3118   3131     1
   3119   3129     1
   3124   3126     1
   3126   3129     1
   3126   3131     1
   3132   3136     1
   3132   3142     1
   3132   3141     1
   3133   3148     1
   3133   3137     1
   3133   3155     1
   3135   3143     1
   3135   3150     1
   3135   3141     1
   3136   3153     1
   3137   3142     1
   3137   3143     1
   3141   3155     1
   3142   3153     1
   3142   3155     1
   3143   3153     1
   3148   3150     1
   3150   3153     1
   3150   3155     1
   3157   3165     1
   3159   3166     1
   3159   3167     1
   3161   3177     1
   3161   3169     1
   3165   3180     1
   3165   3173     1
   3166   3181     1
   3166   3229     1
   3166   3169     1
   3167   3174     1
   3167   3205     1
   3167   3177     1
   3169   3186     1
   3173   3187     1
   3173   3185     1
   3174   3186     1
   3177   3210     1
   3180   3211     1
   3180   3209     1
   3181   3210     1
   3182   3186     1
   3182   3192     1
   3182   3191     1
   3183   3187     1
   3183   3205     1
   3183   3198     1
   3185   3191     1
   3185   3200     1
   3185   3193     1
   3186   3203     1
   3187   3193     1
   3187   3192     1
   3191   3205     1
   3192   3205     1
   3192   3203     1
   3193   3203     1
   3198   3200     1
   3200   3205     1
   3200   3203     1
   3206   3210     1
   3206   3216     1
   3206   3215     1
   3207   3211     1
   3207   3229     1
   3207   3222     1
   3209   3215     1
   3209   3224     1
   3209   3217     1
   3210   3227     1
   3211   3217     1
   3211   3216     1
   3215   3229     1
   3216   3229     1
   3216   3227     1
   3217   3227     1
   3222   3224     1
   3224   3229     1
   3224   3227     1
   3231   3239     1
   3233   3240     1
   3233   3241     1
   3235   3251     1
   3235   3243     1
   3239   3254     1
   3239   3247     1
   3240   3243     1
   3240   3255     1
   3240   3303     1
   3241   3251     1
   3241   3248     1
   3241   3279     1
   3243   3260     1
   3247   3259     1
   3247   3261     1
   3248   3260     1
   3251   3284     1
   3254   3283     1
   3254   3285     1
   3255   3284     1
   3256   3260     1
   3256   3266     1
   3256   3265     1
   3257   3272     1
   3257   3261     1
   3257   3279     1
   3259   3267     1
   3259   3274     1
   3259   3265     1
   3260   3277     1
   3261   3266     1
   3261   3267     1
   3265   3279     1
   3266   3277     1
   3266   3279     1
   3267   3277     1
   3272   3274     1
   3274   3277     1
   3274   3279     1
   3280   3284     1
   3280   3290     1
   3280   3289     1
   3281   3296     1
   3281   3285     1
   3281   3303     1
   3283   3291     1
   3283   3298     1
   3283   3289     1
   3284   3301     1
   3285   3290     1
   3285   3291     1
   3289   3303     1
   3290   3301     1
   3290   3303     1
   3291   3301     1
   3296   3298     1
   3298   3301     1
   3298   3303     1
   3305   3313     1
   3307   3314     1
   3307   3315     1
   3309   3325     1
   3309   3317     1
   3313   3328     1
   3313   3321     1
   3314   3329     1
   3314   3377     1
   3314   3317     1
   3315   3322     1
   3315   3353     1
   3315   3325     1
   3317   3334     1
   3321   3335     1
   3321   3333     1
   3322   3334     1
   3325   3358     1
   3328   3359     1
   3328   3357     1
   3329   3358     1
   3330   3334     1
   3330   3340     1
   3330   3339     1
   3331   3335     1
   3331   3353     1
   3331   3346     1
   3333   3339     1
   3333   3348     1
   3333   3341     1
   3334   3351     1
   3335   3341     1
   3335   3340     1
   3339   3353     1
   3340   3353     1
   3340   3351     1
   3341   3351     1
   3346   3348     1
   3348   3353     1
   3348   3351     1
   3354   3358     1
   3354   3364     1
   3354   3363     1
   3355   3359     1
   3355   3377     1
   3355   3370     1
   3357   3363     1
   3357   3372     1
   3357   3365     1
   3358   3375     1
   3359   3365     1
   3359   3364     1
   3363   3377     1
   3364   3377     1
   3364   3375     1
   3365   3375     1
   3370   3372     1
   3372   3377     1
   3372   3375     1
   3379   3387     1
   3381   3388     1
   3381   3389     1
   3383   3399     1
   3383   3391     1
   3387   3402     1
   3387   3395     1
   3388   3391     1
   3388   3403     1
   3388   3451     1
   3389   3399     1
   3389   3396     1
   3389   3427     1
   3391   3408     1
   3395   3407     1
   3395   3409     1
   3396   3408     1
   3399   3432     1
   3402   3431     1
   3402   3433     1
   3403   3432     1
   3404   3408     1
   3404   3414     1
   3404   3413     1
   3405   3420     1
   3405   3409     1
   3405   3427     1
   3407   3415     1
   3407   3422     1
   3407   3413     1
   3408   3425     1
   3409   3414     1
   3409   3415     1
   3413   3427     1
   3414   3425     1
   3414   3427     1
   3415   3425     1
   3420   3422     1
   3422   3425     1
   3422   3427     1
   3428   3432     1
   3428   3438     1
   3428   3437     1
   3429   3444     1
   3429   3433     1
   3429   3451     1
   3431   3439     1
   3431   3446     1
   3431   3437     1
   3432   3449     1
   3433   3438     1
   3433   3439     1
   3437   3451     1
   3438   3449     1
   3438   3451     1
   3439   3449     1
   3444   3446     1
   3446   3449     1
   3446   3451     1
   3453   3461     1
   3455   3462     1
   3455   3463     1
   3457   3473     1
   3457   3465     1
   3461   3476     1
   3461   3469     1
   3462   3477     1
   3462   3525     1
   3462   3465     1
   3463   3470     1
   3463   3501     1
   3463   3473     1
   3465   3482     1
   3469   3483     1
   3469   3481     1
   3470   3482     1
   3473   3506     1
   3476   3507     1
   3476   3505     1
   3477   3506     1
   3478   3482     1
   3478   3488     1
   3478   3487     1
   3479   3483     1
   3479   3501     1
   3479   3494     1
   3481   3487     1
   3481   3496     1
   3481   3489     1
   3482   3499     1
   3483   3489     1
   3483   3488     1
   3487   3501     1
   3488   3501     1
   3488   3499     1
   3489   3499     1
   3494   3496     1
   3496   3501     1
   3496   3499     1
   3502   3506     1
   3502   3512     1
   3502   3511     1
   3503   3507     1
   3503   3525     1
   3503   3518     1
   3505   3511     1
   3505   3520     1
   3505   3513     1
   3506   3523     1
   3507   3513     1
   3507   3512     1
   3511   3525     1
   3512   3525     1
   3512   3523     1
   3513   3523     1
   3518   3520     1
   3520   3525     1
   3520   3523     1
   3527   3535     1
   3529   3536     1
   3529   3537     1
   3531   3547     1
   3531   3539     1
   3535   3550     1
   3535   3543     1
   3536   3539     1
   3536   3551     1
   3536   3599     1
   3537   3547     1
   3537   3544     1
   3537   3575     1
   3539   3556     1
   3543   3555     1
   3543   3557     1
   3544   3556     1
   3547   3580     1
   3550   3579     1
   3550   3581     1
   3551   3580     1
   3552   3556     1
   3552   3562     1
   3552   3561     1
   3553   3568     1
   3553   3557     1
   3553   3575     1
   3555   3563     1
   3555   3570     1
   3555   3561     1
   3556   3573     1
   3557   3562     1
   3557   3563     1
   3561   3575     1
   3562   3573     1
   3562   3575     1
   3563   3573     1
   3568   3570     1
   3570   3573     1
   3570   3575     1
   3576   3580     1
   3576   3586     1
   3576   3585     1
   3577   3592     1
   3577   3581     1
   3577   3599     1
   3579   3587     1
   3579   3594     1
   3579   3585     1
   3580   3597     1
   3581   3586     1
   3581   3587     1
   3585   3599     1
   3586   3597     1
   3586   3599     1
   3587   3597     1
   3592   3594     1
   3594   3597     1
   3594   3599     1
   3601   3609     1
   3603   3610     1
   3603   3611     1
   3605   3621     1
   3605   3613     1
   3609   3624     1
   3609   3617     1
   3610   3625     1
   3610   3673     1
   3610   3613     1
   3611   3618     1
   3611   3649     1
   3611   3621     1
   3613   3630     1
   3617   3631     1
   3617   3629     1
   3618   3630     1
   3621   3654     1
   3624   3655     1
   3624   3653     1
   3625   3654     1
   3626   3630     1
   3626   3636     1
   3626   3635     1
   3627   3631     1
   3627   3649     1
   3627   3642     1
   3629   3635     1
   3629   3644     1
   3629   3637     1
   3630   3647     1
   3631   3637     1
   3631   3636     1
   3635   3649     1
   3636   3649     1
   3636   3647     1
   3637   3647     1
   3642   3644     1
   3644   3649     1
   3644   3647     1
   3650   3654     1
   3650   3660     1
   3650   3659     1
   3651   3655     1
   3651   3673     1
   3651   3666     1
   3653   3659     1
   3653   3668     1
   3653   3661     1
   3654   3671     1
   3655   3661     1
   3655   3660     1
   3659   3673     1
   3660   3673     1
   3660   3671     1
   3661   3671     1
   3666   3668     1
   3668   3673     1
   3668   3671     1
   3675   3683     1
   3677   3684     1
   3677   3685     1
   3679   3695     1
   3679   3687     1
   3683   3698     1
   3683   3691     1
   3684   3687     1
   3684   3699     1
   3684   3747     1
   3685   3695     1
   3685   3692     1
   3685   3723     1
   3687   3704     1
   3691   3703     1
   3691   3705     1
   3692   3704     1
   3695   3728     1
   3698   3727     1
   3698   3729     1
   3699   3728     1
   3700   3704     1
   3700   3710     1
   3700   3709     1
   3701   3716     1
   3701   3705     1
   3701   3723     1
   3703   3711     1
   3703   3718     1
   3703   3709     1
   3704   3721     1
   3705   3710     1
   3705   3711     1
   3709   3723     1
   3710   3721     1
   3710   3723     1
   3711   3721     1
   3716   3718     1
   3718   3721     1
   3718   3723     1
   3724   3728     1
   3724   3734     1
   3724   3733     1
   3725   3740     1
   3725   3729     1
   3725   3747     1
   3727   3735     1
   3727   3742     1
   3727   3733     1
   3728   3745     1
   3729   3734     1
   3729   3735     1
   3733   3747     1
   3734   3745     1
   3734   3747     1
   3735   3745     1
   3740   3742     1
   3742   3745     1
   3742   3747     1
   3749   3757     1
   3751   3758     1
   3751   3759     1
   3753   3769     1
   3753   3761     1
   3757   3772     1
   3757   3765     1
   3758   3773     1
   3758   3821     1
   3758   3761     1
   3759   3766     1
   3759   3797     1
   3759   3769     1
   3761   3778     1
   3765   3779     1
   3765   3777     1
   3766   3778     1
   3769   3802     1
   3772   3803     1
   3772   3801     1
   3773   3802     1
   3774   3778     1
   3774   3784     1
   3774   3783     1
   3775   3779     1
   3775   3797     1
   3775   3790     1
   3777   3783     1
   3777   3792     1
   3777   3785     1
   3778   3795     1
   3779   3785     1
   3779   3784     1
   3783   3797     1
   3784   3797     1
   3784   3795     1
   3785   3795     1
   3790   3792     1
   3792   3797     1
   3792   3795     1
   3798   3802     1
   3798   3808     1
   3798   3807     1
   3799   3803     1
   3799   3821     1
   3799   3814     1
   3801   3807     1
   3801   3816     1
   3801   3809     1
   3802   3819     1
   3803   3809     1
   3803   3808     1
   3807   3821     1
   3808   3821     1
   3808   3819     1
   3809   3819     1
   3814   3816     1
   3816   3821     1
   3816   3819     1
   3823   3831     1
   3825   3832     1
   3825   3833     1
   3827   3843     1
   3827   3835     1
   3831   3846     1
   3831   3839     1
   3832   3835     1
   3832   3847     1
   3832   3895     1
   3833   3843     1
   3833   3840     1
   3833   3871     1
   3835   3852     1
   3839   3851     1
   3839   3853     1
   3840   3852     1
   3843   3876     1
   3846   3875     1
   3846   3877     1
   3847   3876     1
   3848   3852     1
   3848   3858     1
   3848   3857     1
   3849   3864     1
   3849   3853     1
   3849   3871     1
   3851   3859     1
   3851   3866     1
   3851   3857     1
   3852   3869     1
   3853   3858     1
   3853   3859     1
   3857   3871     1
   3858   3869     1
   3858   3871     1
   3859   3869     1
   3864   3866     1
   3866   3869     1
   3866   3871     1
   3872   3876     1
   3872   3882     1
   3872   3881     1
   3873   3888     1
   3873   3877     1
   3873   3895     1
   3875   3883     1
   3875   3890     1
   3875   3881     1
   3876   3893     1
   3877   3882     1
   3877   3883     1
   3881   3895     1
   3882   3893     1
   3882   3895     1
   3883   3893     1
   3888   3890     1
   3890   3893     1
   3890   3895     1
   3897   3905     1
   3899   3906     1
   3899   3907     1
   3901   3917     1
   3901   3909     1
   3905   3920     1
   3905   3913     1
   3906   3921     1
   3906   3969     1
   3906   3909     1
   3907   3914     1
   3907   3945     1
   3907   3917     1
   3909   3926     1
   3913   3927     1
   3913   3925     1
   3914   3926     1
   3917   3950     1
   3920   3951     1
   3920   3949     1
   3921   3950     1
   3922   3926     1
   3922   3932     1
   3922   3931     1
   3923   3927     1
   3923   3945     1
   3923   3938     1
   3925   3931     1
   3925   3940     1
   3925   3933     1
   3926   3943     1
   3927   3933     1
   3927   3932     1
   3931   3945     1
   3932   3945     1
   3932   3943     1
   3933   3943     1
   3938   3940     1
   3940   3945     1
   3940   3943     1
   3946   3950     1
   3946   3956     1
   3946   3955     1
   3947   3951     1
   3947   3969     1
   3947   3962     1
   3949   3955     1
   3949   3964     1
   3949   3957     1
   3950   3967     1
   3951   3957     1
   3951   3956     1
   3955   3969     1
   3956   3969     1
   3956   3967     1
   3957   3967     1
   3962   3964     1
   3964   3969     1
   3964   3967     1
   3971   3979     1
   3973   3980     1
   3973   3981     1
   3975   3991     1
   3975   3983     1
   3979   3994     1
   3979   3987     1
   3980   3983     1
   3980   3995     1
   3980   4043     1
   3981   3991     1
   3981   3988     1
   3981   4019     1
   3983   4000     1
   3987   3999     1
   3987   4001     1
   3988   4000     1
   3991   4024     1
   3994   4023     1
   3994   4025     1
   3995   4024     1
   3996   4000     1
   3996   4006     1
   3996   4005     1
   3997   4012     1
   3997   4001     1
   3997   4019     1
   3999   4007     1
   3999   4014     1
   3999   4005     1
   4000   4017     1
   4001   4006     1
   4001   4007     1
   4005   4019     1
   4006   4017     1
   4006   4019     1
   4007   4017     1
   4012   4014     1
   4014   4017     1
   4014   4019     1
   4020   4024     1
   4020   4030     1
   4020   4029     1
   4021   4036     1
   4021   4025     1
   4021   4043     1
   4023   4031     1
   4023   4038     1
   4023   4029     1
   4024   4041     1
   4025   4030     1
   4025   4031     1
   4029   4043     1
   4030   4041     1
   4030   4043     1
   4031   4041     1
   4036   4038     1
   4038   4041     1
   4038   4043     1
   4045   4053     1
   4047   4054     1
   4047   4055     1
   4049   4065     1
   4049   4057     1
   4053   4068     1
   4053   4061     1
   4054   4069     1
   4054   4117     1
   4054   4057     1
   4055   4062     1
   4055   4093     1
   4055   4065     1
   4057   4074     1
   4061   4075     1
   4061   4073     1
   4062   4074     1
   4065   4098     1
   4068   4099     1
   4068   4097     1
   4069   4098     1
   4070   4074     1
   4070   4080     1
   4070   4079     1
   4071   4075     1
   4071   4093     1
   4071   4086     1
   4073   4079     1
   4073   4088     1
   4073   4081     1
   4074   4091     1
   4075   4081     1
   4075   4080     1
   4079   4093     1
   4080   4093     1
   4080   4091     1
   4081   4091     1
   4086   4088     1
   4088   4093     1
   4088   4091     1
   4094   4098     1
   4094   4104     1
   4094   4103     1
   4095   4099     1
   4095   4117     1
   4095   4110     1
   4097   4103     1
   4097   4112     1
   4097   4105     1
   4098   4115     1
   4099   4105     1
   4099   4104     1
   4103   4117     1
   4104   4117     1
   4104   4115     1
   4105   4115     1
   4110   4112     1
   4112   4117     1
   4112   4115     1
   4119   4127     1
   4121   4128     1
   4121   4129     1
   4123   4139     1
   4123   4131     1
   4127   4142     1
   4127   4135     1
   4128   4131     1
   4128   4143     1
   4128   4191     1
   4129   4139     1
   4129   4136     1
   4129   4167     1
   4131   4148     1
   4135   4147     1
   4135   4149     1
   4136   4148     1
   4139   4172     1
   4142   4171     1
   4142   4173     1
   4143   4172     1
   4144   4148     1
   4144   4154     1
   4144   4153     1
   4145   4160     1
   4145   4149     1
   4145   4167     1
   4147   4155     1
   4147   4162     1
   4147   4153     1
   4148   4165     1
   4149   4154     1
   4149   4155     1
   4153   4167     1
   4154   4165     1
   4154   4167     1
   4155   4165     1
   4160   4162     1
   4162   4165     1
   4162   4167     1
   4168   4172     1
   4168   4178     1
   4168   4177     1
   4169   4184     1
   4169   4173     1
   4169   4191     1
   4171   4179     1
   4171   4186     1
   4171   4177     1
   4172   4189     1
   4173   4178     1
   4173   4179     1
   4177   4191     1
   4178   4189     1
   4178   4191     1
   4179   4189     1
   4184   4186     1
   4186   4189     1
   4186   4191     1
   4193   4201     1
   4195   4202     1
   4195   4203     1
   4197   4213     1
   4197   4205     1
   4201   4216     1
   4201   4209     1
   4202   4217     1
   4202   4265     1
   4202   4205     1
   4203   4210     1
   4203   4241     1
   4203   4213     1
   4205   4222     1
   4209   4223     1
   4209   4221     1
   4210   4222     1
   4213   4246     1
   4216   4247     1
   4216   4245     1
   4217   4246     1
   4218   4222     1
   4218   4228     1
   4218   4227     1
   4219   4223     1
   4219   4241     1
   4219   4234     1
   4221   4227     1
   4221   4236     1
   4221   4229     1
   4222   4239     1
   4223   4229     1
   4223   4228     1
   4227   4241     1
   4228   4241     1
   4228   4239     1
   4229   4239     1
   4234   4236     1
   4236   4241     1
   4236   4239     1
   4242   4246     1
   4242   4252     1
   4242   4251     1
   4243   4247     1
   4243   4265     1
   4243   4258     1
   4245   4251     1
   4245   4260     1
   4245   4253     1
   4246   4263     1
   4247   4253     1
   4247   4252     1
   4251   4265     1
   4252   4265     1
   4252   4263     1
   4253   4263     1
   4258   4260     1
   4260   4265     1
   4260   4263     1
   4267   4275     1
   4269   4276     1
   4269   4277     1
   4271   4287     1
   4271   4279     1
   4275   4290     1
   4275   4283     1
   4276   4279     1
   4276   4291     1
   4276   4339     1
   4277   4287     1
   4277   4284     1
   4277   4315     1
   4279   4296     1
   4283   4295     1
   4283   4297     1
   4284   4296     1
   4287   4320     1
   4290   4319     1
   4290   4321     1
   4291   4320     1
   4292   4296     1
   4292   4302     1
   4292   4301     1
   4293   4308     1
   4293   4297     1
   4293   4315     1
   4295   4303     1
   4295   4310     1
   4295   4301     1
   4296   4313     1
   4297   4302     1
   4297   4303     1
   4301   4315     1
   4302   4313     1
   4302   4315     1
   4303   4313     1
   4308   4310     1
   4310   4313     1
   4310   4315     1
   4316   4320     1
   4316   4326     1
   4316   4325     1
   4317   4332     1
   4317   4321     1
   4317   4339     1
   4319   4327     1
   4319   4334     1
   4319   4325     1
   4320   4337     1
   4321   4326     1
   4321   4327     1
   4325   4339     1
   4326   4337     1
   4326   4339     1
   4327   4337     1
   4332   4334     1
   4334   4337     1
   4334   4339     1
   4341   4349     1
   4343   4350     1
   4343   4351     1
   4345   4361     1
   4345   4353     1
   4349   4364     1
   4349   4357     1
   4350   4365     1
   4350   4413     1
   4350   4353     1
   4351   4358     1
   4351   4389     1
   4351   4361     1
   4353   4370     1
   4357   4371     1
   4357   4369     1
   4358   4370     1
   4361   4394     1
   4364   4395     1
   4364   4393     1
   4365   4394     1
   4366   4370     1
   4366   4376     1
   4366   4375     1
   4367   4371     1
   4367   4389     1
   4367   4382     1
   4369   4375     1
   4369   4384     1
   4369   4377     1
   4370   4387     1
   4371   4377     1
   4371   4376     1
   4375   4389     1
   4376   4389     1
   4376   4387     1
   4377   4387     1
   4382   4384     1
   4384   4389     1
   4384   4387     1
   4390   4394     1
   4390   4400     1
   4390   4399     1
   4391   4395     1
   4391   4413     1
   4391   4406     1
   4393   4399     1
   4393   4408     1
   4393   4401     1
   4394   4411     1
   4395   4401     1
   4395   4400     1
   4399   4413     1
   4400   4413     1
   4400   4411     1
   4401   4411     1
   4406   4408     1
   4408   4413     1
   4408   4411     1
   4415   4423     1
   4417   4424     1
   4417   4425     1
   4419   4435     1
   4419   4427     1
   4423   4438     1
   4423   4431     1
   4424   4427     1
   4424   4439     1
   4424   4487     1
   4425   4435     1
   4425   4432     1
   4425   4463     1
   4427   4444     1
   4431   4443     1
   4431   4445     1
   4432   4444     1
   4435   4468     1
   4438   4467     1
   4438   4469     1
   4439   4468     1
   4440   4444     1
   4440   4450     1
   4440   4449     1
   4441   4456     1
   4441   4445     1
   4441   4463     1
   4443   4451     1
   4443   4458     1
   4443   4449     1
   4444   4461     1
   4445   4450     1
   4445   4451     1
   4449   4463     1
   4450   4461     1
   4450   4463     1
   4451   4461     1
   4456   4458     1
   4458   4461     1
   4458   4463     1
   4464   4468     1
   4464   4474     1
   4464   4473     1
   4465   4480     1
   4465   4469     1
   4465   4487     1
   4467   4475     1
   4467   4482     1
   4467   4473     1
   4468   4485     1
   4469   4474     1
   4469   4475     1
   4473   4487     1
   4474   4485     1
   4474   4487     1
   4475   4485     1
   4480   4482     1
   4482   4485     1
   4482   4487     1
   4489   4497     1
   4491   4498     1
   4491   4499     1
   4493   4509     1
   4493   4501     1
   4497   4512     1
   4497   4505     1
   4498   4513     1
   4498   4561     1
   4498   4501     1
   4499   4506     1
   4499   4537     1
   4499   4509     1
   4501   4518     1
   4505   4519     1
   4505   4517     1
   4506   4518     1
   4509   4542     1
   4512   4543     1
   4512   4541     1
   4513   4542     1
   4514   4518     1
   4514   4524     1
   4514   4523     1
   4515   4519     1
   4515   4537     1
   4515   4530     1
   4517   4523     1
   4517   4532     1
   4517   4525     1
   4518   4535     1
   4519   4525     1
   4519   4524     1
   4523   4537     1
   4524   4537     1
   4524   4535     1
   4525   4535     1
   4530   4532     1
   4532   4537     1
   4532   4535     1
   4538   4542     1
   4538   4548     1
   4538   4547     1
   4539   4543     1
   4539   4561     1
   4539   4554     1
   4541   4547     1
   4541   4556     1
   4541   4549     1
   4542   4559     1
   4543   4549     1
   4543   4548     1
   4547   4561     1
   4548   4561     1
   4548   4559     1
   4549   4559     1
   4554   4556     1
   4556   4561     1
   4556   4559     1
   4563   4571     1
   4565   4572     1
   4565   4573     1
   4567   4583     1
   4567   4575     1
   4571   4586     1
   4571   4579     1
   4572   4575     1
   4572   4587     1
   4572   4635     1
   4573   4583     1
   4573   4580     1
   4573   4611     1
   4575   4592     1
   4579   4591     1
   4579   4593     1
   4580   4592     1
   4583   4616     1
   4586   4615     1
   4586   4617     1
   4587   4616     1
   4588   4592     1
   4588   4598     1
   4588   4597     1
   4589   4604     1
   4589   4593     1
   4589   4611     1
   4591   4599     1
   4591   4606     1
   4591   4597     1
   4592   4609     1
   4593   4598     1
   4593   4599     1
   4597   4611     1
   4598   4609     1
   4598   4611     1
   4599   4609     1
   4604   4606     1
   4606   4609     1
   4606   4611     1
   4612   4616     1
   4612   4622     1
   4612   4621     1
   4613   4628     1
   4613   4617     1
   4613   4635     1
   4615   4623     1
   4615   4630     1
   4615   4621     1
   4616   4633     1
   4617   4622     1
   4617   4623     1
   4621   4635     1
   4622   4633     1
   4622   4635     1
   4623   4633     1
   4628   4630     1
   4630   4633     1
   4630   4635     1
   4637   4645     1
   4639   4646     1
   4639   4647     1
   4641   4657     1
   4641   4649     1
   4645   4660     1
   4645   4653     1
   4646   4661     1
   4646   4709     1
   4646   4649     1
   4647   4654     1
   4647   4685     1
   4647   4657     1
   4649   4666     1
   4653   4667     1
   4653   4665     1
   4654   4666     1
   4657   4690     1
   4660   4691     1
   4660   4689     1
   4661   4690     1
   4662   4666     1
   4662   4672     1
   4662   4671     1
   4663   4667     1
   4663   4685     1
   4663   4678     1
   4665   4671     1
   4665   4680     1
   4665   4673     1
   4666   4683     1
   4667   4673     1
   4667   4672     1
   4671   4685     1
   4672   4685     1
   4672   4683     1
   4673   4683     1
   4678   4680     1
   4680   4685     1
   4680   4683     1
   4686   4690     1
   4686   4696     1
   4686   4695     1
   4687   4691     1
   4687   4709     1
   4687   4702     1
   4689   4695     1
   4689   4704     1
   4689   4697     1
   4690   4707     1
   4691   4697     1
   4691   4696     1
   4695   4709     1
   4696   4709     1
   4696   4707     1
   4697   4707     1
   4702   4704     1
   4704   4709     1
   4704   4707     1
   4711   4719     1
   4713   4720     1
   4713   4721     1
   4715   4731     1
   4715   4723     1
   4719   4734     1
   4719   4727     1
   4720   4723     1
   4720   4735     1
   4720   4783     1
   4721   4731     1
   4721   4728     1
   4721   4759     1
   4723   4740     1
   4727   4739     1
   4727   4741     1
   4728   4740     1
   4731   4764     1
   4734   4763     1
   4734   4765     1
   4735   4764     1
   4736   4740     1
   4736   4746     1
   4736   4745     1
   4737   4752     1
   4737   4741     1
   4737   4759     1
   4739   4747     1
   4739   4754     1
   4739   4745     1
   4740   4757     1
   4741   4746     1
   4741   4747     1
   4745   4759     1
   4746   4757     1
   4746   4759     1
   4747   4757     1
   4752   4754     1
   4754   4757     1
   4754   4759     1
   4760   4764     1
   4760   4770     1
   4760   4769     1
   4761   4776     1
   4761   4765     1
   4761   4783     1
   4763   4771     1
   4763   4778     1
   4763   4769     1
   4764   4781     1
   4765   4770     1
   4765   4771     1
   4769   4783     1
   4770   4781     1
   4770   4783     1
   4771   4781     1
   4776   4778     1
   4778   4781     1
   4778   4783     1
   4785   4793     1
   4787   4794     1
   4787   4795     1
   4789   4805     1
   4789   4797     1
   4793   4808     1
   4793   4801     1
   4794   4809     1
   4794   4857     1
   4794   4797     1
   4795   4802     1
   4795   4833     1
   4795   4805     1
   4797   4814     1
   4801   4815     1
   4801   4813     1
   4802   4814     1
   4805   4838     1
   4808   4839     1
   4808   4837     1
   4809   4838     1
   4810   4814     1
   4810   4820     1
   4810   4819     1
   4811   4815     1
   4811   4833     1
   4811   4826     1
   4813   4819     1
   4813   4828     1
   4813   4821     1
   4814   4831     1
   4815   4821     1
   4815   4820     1
   4819   4833     1
   4820   4833     1
   4820   4831     1
   4821   4831     1
   4826   4828     1
   4828   4833     1
   4828   4831     1
   4834   4838     1
   4834   4844     1
   4834   4843     1
   4835   4839     1
   4835   4857     1
   4835   4850     1
   4837   4843     1
   4837   4852     1
   4837   4845     1
   4838   4855     1
   4839   4845     1
   4839   4844     1
   4843   4857     1
   4844   4857     1
   4844   4855     1
   4845   4855     1
   4850   4852     1
   4852   4857     1
   4852   4855     1
   4859   4867     1
   4861   4868     1
   4861   4869     1
   4863   4879     1
   4863   4871     1
   4867   4882     1
   4867   4875     1
   4868   4871     1
   4868   4883     1
   4868   4931     1
   4869   4879     1
   4869   4876     1
   4869   4907     1
   4871   4888     1
   4875   4887     1
   4875   4889     1
   4876   4888     1
   4879   4912     1
   4882   4911     1
   4882   4913     1
   4883   4912     1
   4884   4888     1
   4884   4894     1
   4884   4893     1
   4885   4900     1
   4885   4889     1
   4885   4907     1
   4887   4895     1
   4887   4902     1
   4887   4893     1
   4888   4905     1
   4889   4894     1
   4889   4895     1
   4893   4907     1
   4894   4905     1
   4894   4907     1
   4895   4905     1
   4900   4902     1
   4902   4905     1
   4902   4907     1
   4908   4912     1
   4908   4918     1
   4908   4917     1
   4909   4924     1
   4909   4913     1
   4909   4931     1
   4911   4919     1
   4911   4926     1
   4911   4917     1
   4912   4929     1
   4913   4918     1
   4913   4919     1
   4917   4931     1
   4918   4929     1
   4918   4931     1
   4919   4929     1
   4924   4926     1
   4926   4929     1
   4926   4931     1
   4933   4941     1
   4935   4942     1
   4935   4943     1
   4937   4953     1
   4937   4945     1
   4941   4956     1
   4941   4949     1
   4942   4957     1
   4942   5005     1
   4942   4945     1
   4943   4950     1
   4943   4981     1
   4943   4953     1
   4945   4962     1
   4949   4963     1
   4949   4961     1
   4950   4962     1
   4953   4986     1
   4956   4987     1
   4956   4985     1
   4957   4986     1
   4958   4962     1
   4958   4968     1
   4958   4967     1
   4959   4963     1
   4959   4981     1
   4959   4974     1
   4961   4967     1
   4961   4976     1
   4961   4969     1
   4962   4979     1
   4963   4969     1
   4963   4968     1
   4967   4981     1
   4968   4981     1
   4968   4979     1
   4969   4979     1
   4974   4976     1
   4976   4981     1
   4976   4979     1
   4982   4986     1
   4982   4992     1
   4982   4991     1
   4983   4987     1
   4983   5005     1
   4983   4998     1
   4985   4991     1
   4985   5000     1
   4985   4993     1
   4986   5003     1
   4987   4993     1
   4987   4992     1
   4991   5005     1
   4992   5005     1
   4992   5003     1
   4993   5003     1
   4998   5000     1
   5000   5005     1
   5000   5003     1
   5007   5015     1
   5009   5016     1
   5009   5017     1
   5011   5027     1
   5011   5019     1
   5015   5030     1
   5015   5023     1
   5016   5019     1
   5016   5031     1
   5016   5079     1
   5017   5027     1
   5017   5024     1
   5017   5055     1
   5019   5036     1
   5023   5035     1
   5023   5037     1
   5024   5036     1
   5027   5060     1
   5030   5059     1
   5030   5061     1
   5031   5060     1
   5032   5036     1
   5032   5042     1
   5032   5041     1
   5033   5048     1
   5033   5037     1
   5033   5055     1
   5035   5043     1
   5035   5050     1
   5035   5041     1
   5036   5053     1
   5037   5042     1
   5037   5043     1
   5041   5055     1
   5042   5053     1
   5042   5055     1
   5043   5053     1
   5048   5050     1
   5050   5053     1
   5050   5055     1
   5056   5060     1
   5056   5066     1
   5056   5065     1
   5057   5072     1
   5057   5061     1
   5057   5079     1
   5059   5067     1
   5059   5074     1
   5059   5065     1
   5060   5077     1
   5061   5066     1
   5061   5067     1
   5065   5079     1
   5066   5077     1
   5066   5079     1
   5067   5077     1
   5072   5074     1
   5074   5077     1
   5074   5079     1
   5081   5089     1
   5083   5090     1
   5083   5091     1
   5085   5101     1
   5085   5093     1
   5089   5104     1
   5089   5097     1
   5090   5105     1
   5090   5153     1
   5090   5093     1
   5091   5098     1
   5091   5129     1
   5091   5101     1
   5093   5110     1
   5097   5111     1
   5097   5109     1
   5098   5110     1
   5101   5134     1
   5104   5135     1
   5104   5133     1
   5105   5134     1
   5106   5110     1
   5106   5116     1
   5106   5115     1
   5107   5111     1
   5107   5129     1
   5107   5122     1
   5109   5115     1
   5109   5124     1
   5109   5117     1
   5110   5127     1
   5111   5117     1
   5111   5116     1
   5115   5129     1
   5116   5129     1
   5116   5127     1
   5117   5127     1
   5122   5124     1
   5124   5129     1
   5124   5127     1
   5130   5134     1
   5130   5140     1
   5130   5139     1
   5131   5135     1
   5131   5153     1
   5131   5146     1
   5133   5139     1
   5133   5148     1
   5133   5141     1
   5134   5151     1
   5135   5141     1
   5135   5140     1
   5139   5153     1
   5140   5153     1
   5140   5151     1
   5141   5151     1
   5146   5148     1
   5148   5153     1
   5148   5151     1
   5155   5163     1
   5157   5164     1
   5157   5165     1
   5159   5175     1
   5159   5167     1
   5163   5178     1
   5163   5171     1
   5164   5167     1
   5164   5179     1
   5164   5227     1
   5165   5175     1
   5165   5172     1
   5165   5203     1
   5167   5184     1
   5171   5183     1
   5171   5185     1
   5172   5184     1
   5175   5208     1
   5178   5207     1
   5178   5209     1
   5179   5208     1
   5180   5184     1
   5180   5190     1
   5180   5189     1
   5181   5196     1
   5181   5185     1
   5181   5203     1
   5183   5191     1
   5183   5198     1
   5183   5189     1
   5184   5201     1
   5185   5190     1
   5185   5191     1
   5189   5203     1
   5190   5201     1
   5190   5203     1
   5191   5201     1
   5196   5198     1
   5198   5201     1
   5198   5203     1
   5204   5208     1
   5204   5214     1
   5204   5213     1
   5205   5220     1
   5205   5209     1
   5205   5227     1
   5207   5215     1
   5207   5222     1
   5207   5213     1
   5208   5225     1
   5209   5214     1
   5209   5215     1
   5213   5227     1
   5214   5225     1
   5214   5227     1
   5215   5225     1
   5220   5222     1
   5222   5225     1
   5222   5227     1
   5229   5237     1
   5231   5238     1
   5231   5239     1
   5233   5249     1
   5233   5241     1
   5237   5252     1
   5237   5245     1
   5238   5253     1
   5238   5301     1
   5238   5241     1
   5239   5246     1
   5239   5277     1
   5239   5249     1
   5241   5258     1
   5245   5259     1
   5245   5257     1
   5246   5258     1
   5249   5282     1
   5252   5283     1
   5252   5281     1
   5253   5282     1
   5254   5258     1
   5254   5264     1
   5254   5263     1
   5255   5259     1
   5255   5277     1
   5255   5270     1
   5257   5263     1
   5257   5272     1
   5257   5265     1
   5258   5275     1
   5259   5265     1
   5259   5264     1
   5263   5277     1
   5264   5277     1
   5264   5275     1
   5265   5275     1
   5270   5272     1
   5272   5277     1
   5272   5275     1
   5278   5282     1
   5278   5288     1
   5278   5287     1
   5279   5283     1
   5279   5301     1
   5279   5294     1
   5281   5287     1
   5281   5296     1
   5281   5289     1
   5282   5299     1
   5283   5289     1
   5283   5288     1
   5287   5301     1
   5288   5301     1
   5288   5299     1
   5289   5299     1
   5294   5296     1
   5296   5301     1
   5296   5299     1
   5303   5311     1
   5305   5312     1
   5305   5313     1
   5307   5323     1
   5307   5315     1
   5311   5326     1
   5311   5319     1
   5312   5315     1
   5312   5327     1
   5312   5375     1
   5313   5323     1
   5313   5320     1
   5313   5351     1
   5315   5332     1
   5319   5331     1
   5319   5333     1
   5320   5332     1
   5323   5356     1
   5326   5355     1
   5326   5357     1
   5327   5356     1
   5328   5332     1
   5328   5338     1
   5328   5337     1
   5329   5344     1
   5329   5333     1
   5329   5351     1
   5331   5339     1
   5331   5346     1
   5331   5337     1
   5332   5349     1
   5333   5338     1
   5333   5339     1
   5337   5351     1
   5338   5349     1
   5338   5351     1
   5339   5349     1
   5344   5346     1
   5346   5349     1
   5346   5351     1
   5352   5356     1
   5352   5362     1
   5352   5361     1
   5353   5368     1
   5353   5357     1
   5353   5375     1
   5355   5363     1
   5355   5370     1
   5355   5361     1
   5356   5373     1
   5357   5362     1
   5357   5363     1
   5361   5375     1
   5362   5373     1
   5362   5375     1
   5363   5373     1
   5368   5370     1
   5370   5373     1
   5370   5375     1
   5377   5385     1
   5379   5386     1
   5379   5387     1
   5381   5397     1
   5381   5389     1
   5385   5400     1
   5385   5393     1
   5386   5401     1
   5386   5449     1
   5386   5389     1
   5387   5394     1
   5387   5425     1
   5387   5397     1
   5389   5406     1
   5393   5407     1
   5393   5405     1
   5394   5406     1
   5397   5430     1
   5400   5431     1
   5400   5429     1
   5401   5430     1
   5402   5406     1
   5402   5412     1
   5402   5411     1
   5403   5407     1
   5403   5425     1
   5403   5418     1
   5405   5411     1
   5405   5420     1
   5405   5413     1
   5406   5423     1
   5407   5413     1
   5407   5412     1
   5411   5425     1
   5412   5425     1
   5412   5423     1
   5413   5423     1
   5418   5420     1
   5420   5425     1
   5420   5423     1
   5426   5430     1
   5426   5436     1
   5426   5435     1
   5427   5431     1
   5427   5449     1
   5427   5442     1
   5429   5435     1
   5429   5444     1
   5429   5437     1
   5430   5447     1
   5431   5437     1
   5431   5436     1
   5435   5449     1
   5436   5449     1
   5436   5447     1
   5437   5447     1
   5442   5444     1
   5444   5449     1
   5444   5447     1
   5451   5459     1
   5453   5460     1
   5453   5461     1
   5455   5471     1
   5455   5463     1
   5459   5474     1
   5459   5467     1
   5460   5463     1
   5460   5475     1
   5460   5523     1
   5461   5471     1
   5461   5468     1
   5461   5499     1
   5463   5480     1
   5467   5479     1
   5467   5481     1
   5468   5480     1
   5471   5504     1
   5474   5503     1
   5474   5505     1
   5475   5504     1
   5476   5480     1
   5476   5486     1
   5476   5485     1
   5477   5492     1
   5477   5481     1
   5477   5499     1
   5479   5487     1
   5479   5494     1
   5479   5485     1
   5480   5497     1
   5481   5486     1
   5481   5487     1
   5485   5499     1
   5486   5497     1
   5486   5499     1
   5487   5497     1
   5492   5494     1
   5494   5497     1
   5494   5499     1
   5500   5504     1
   5500   5510     1
   5500   5509     1
   5501   5516     1
   5501   5505     1
   5501   5523     1
   5503   5511     1
   5503   5518     1
   5503   5509     1
   5504   5521     1
   5505   5510     1
   5505   5511     1
   5509   5523     1
   5510   5521     1
   5510   5523     1
   5511   5521     1
   5516   5518     1
   5518   5521     1
   5518   5523     1
   5525   5533     1
   5527   5534     1
   5527   5535     1
   5529   5545     1
   5529   5537     1
   5533   5548     1
   5533   5541     1
   5534   5549     1
   5534   5597     1
   5534   5537     1
   5535   5542     1
   5535   5573     1
   5535   5545     1
   5537   5554     1
   5541   5555     1
   5541   5553     1
   5542   5554     1
   5545   5578     1
   5548   5579     1
   5548   5577     1
   5549   5578     1
   5550   5554     1
   5550   5560     1
   5550   5559     1
   5551   5555     1
   5551   5573     1
   5551   5566     1
   5553   5559     1
   5553   5568     1
   5553   5561     1
   5554   5571     1
   5555   5561     1
   5555   5560     1
   5559   5573     1
   5560   5573     1
   5560   5571     1
   5561   5571     1
   5566   5568     1
   5568   5573     1
   5568   5571     1
   5574   5578     1
   5574   5584     1
   5574   5583     1
   5575   5579     1
   5575   5597     1
   5575   5590     1
   5577   5583     1
   5577   5592     1
   5577   5585     1
   5578   5595     1
   5579   5585     1
   5579   5584     1
   5583   5597     1
   5584   5597     1
   5584   5595     1
   5585   5595     1
   5590   5592     1
   5592   5597     1
   5592   5595     1
   5599   5607     1
   5601   5608     1
   5601   5609     1
   5603   5619     1
   5603   5611     1
   5607   5622     1
   5607   5615     1
   5608   5611     1
   5608   5623     1
   5608   5671     1
   5609   5619     1
   5609   5616     1
   5609   5647     1
   5611   5628     1
   5615   5627     1
   5615   5629     1
   5616   5628     1
   5619   5652     1
   5622   5651     1
   5622   5653     1
   5623   5652     1
   5624   5628     1
   5624   5634     1
   5624   5633     1
   5625   5640     1
   5625   5629     1
   5625   5647     1
   5627   5635     1
   5627   5642     1
   5627   5633     1
   5628   5645     1
   5629   5634     1
   5629   5635     1
   5633   5647     1
   5634   5645     1
   5634   5647     1
   5635   5645     1
   5640   5642     1
   5642   5645     1
   5642   5647     1
   5648   5652     1
   5648   5658     1
   5648   5657     1
   5649   5664     1
   5649   5653     1
   5649   5671     1
   5651   5659     1
   5651   5666     1
   5651   5657     1
   5652   5669     1
   5653   5658     1
   5653   5659     1
   5657   5671     1
   5658   5669     1
   5658   5671     1
   5659   5669     1
   5664   5666     1
   5666   5669     1
   5666   5671     1
   5673   5681     1
   5675   5682     1
   5675   5683     1
   5677   5693     1
   5677   5685     1
   5681   5696     1
   5681   5689     1
   5682   5697     1
   5682   5745     1
   5682   5685     1
   5683   5690     1
   5683   5721     1
   5683   5693     1
   5685   5702     1
   5689   5703     1
   5689   5701     1
   5690   5702     1
   5693   5726     1
   5696   5727     1
   5696   5725     1
   5697   5726     1
   5698   5702     1
   5698   5708     1
   5698   5707     1
   5699   5703     1
   5699   5721     1
   5699   5714     1
   5701   5707     1
   5701   5716     1
   5701   5709     1
   5702   5719     1
   5703   5709     1
   5703   5708     1
   5707   5721     1
   5708   5721     1
   5708   5719     1
   5709   5719     1
   5714   5716     1
   5716   5721     1
   5716   5719     1
   5722   5726     1
   5722   5732     1
   5722   5731     1
   5723   5727     1
   5723   5745     1
   5723   5738     1
   5725   5731     1
   5725   5740     1
   5725   5733     1
   5726   5743     1
   5727   5733     1
   5727   5732     1
   5731   5745     1
   5732   5745     1
   5732   5743     1
   5733   5743     1
   5738   5740     1
   5740   5745     1
   5740   5743     1
   5747   5755     1
   5749   5756     1
   5749   5757     1
   5751   5767     1
   5751   5759     1
   5755   5770     1
   5755   5763     1
   5756   5759     1
   5756   5771     1
   5756   5819     1
   5757   5767     1
   5757   5764     1
   5757   5795     1
   5759   5776     1
   5763   5775     1
   5763   5777     1
   5764   5776     1
   5767   5800     1
   5770   5799     1
   5770   5801     1
   5771   5800     1
   5772   5776     1
   5772   5782     1
   5772   5781     1
   5773   5788     1
   5773   5777     1
   5773   5795     1
   5775   5783     1
   5775   5790     1
   5775   5781     1
   5776   5793     1
   5777   5782     1
   5777   5783     1
   5781   5795     1
   5782   5793     1
   5782   5795     1
   5783   5793     1
   5788   5790     1
   5790   5793     1
   5790   5795     1
   5796   5800     1
   5796   5806     1
   5796   5805     1
   5797   5812     1
   5797   5801     1
   5797   5819     1
   5799   5807     1
   5799   5814     1
   5799   5805     1
   5800   5817     1
   5801   5806     1
   5801   5807     1
   5805   5819     1
   5806   5817     1
   5806   5819     1
   5807   5817     1
   5812   5814     1
   5814   5817     1
   5814   5819     1
   5821   5829     1
   5823   5830     1
   5823   5831     1
   5825   5841     1
   5825   5833     1
   5829   5844     1
   5829   5837     1
   5830   5845     1
   5830   5893     1
   5830   5833     1
   5831   5838     1
   5831   5869     1
   5831   5841     1
   5833   5850     1
   5837   5851     1
   5837   5849     1
   5838   5850     1
   5841   5874     1
   5844   5875     1
   5844   5873     1
   5845   5874     1
   5846   5850     1
   5846   5856     1
   5846   5855     1
   5847   5851     1
   5847   5869     1
   5847   5862     1
   5849   5855     1
   5849   5864     1
   5849   5857     1
   5850   5867     1
   5851   5857     1
   5851   5856     1
   5855   5869     1
   5856   5869     1
   5856   5867     1
   5857   5867     1
   5862   5864     1
   5864   5869     1
   5864   5867     1
   5870   5874     1
   5870   5880     1
   5870   5879     1
   5871   5875     1
   5871   5893     1
   5871   5886     1
   5873   5879     1
   5873   5888     1
   5873   5881     1
   5874   5891     1
   5875   5881     1
   5875   5880     1
   5879   5893     1
   5880   5893     1
   5880   5891     1
   5881   5891     1
   5886   5888     1
   5888   5893     1
   5888   5891     1
   5895   5903     1
   5897   5904     1
   5897   5905     1
   5899   5915     1
   5899   5907     1
   5903   5918     1
   5903   5911     1
   5904   5907     1
   5904   5919     1
   5904   5967     1
   5905   5915     1
   5905   5912     1
   5905   5943     1
   5907   5924     1
   5911   5923     1
   5911   5925     1
   5912   5924     1
   5915   5948     1
   5918   5947     1
   5918   5949     1
   5919   5948     1
   5920   5924     1
   5920   5930     1
   5920   5929     1
   5921   5936     1
   5921   5925     1
   5921   5943     1
   5923   5931     1
   5923   5938     1
   5923   5929     1
   5924   5941     1
   5925   5930     1
   5925   5931     1
   5929   5943     1
   5930   5941     1
   5930   5943     1
   5931   5941     1
   5936   5938     1
   5938   5941     1
   5938   5943     1
   5944   5948     1
   5944   5954     1
   5944   5953     1
   5945   5960     1
   5945   5949     1
   5945   5967     1
   5947   5955     1
   5947   5962     1
   5947   5953     1
   5948   5965     1
   5949   5954     1
   5949   5955     1
   5953   5967     1
   5954   5965     1
   5954   5967     1
   5955   5965     1
   5960   5962     1
   5962   5965     1
   5962   5967     1
   5969   5977     1
   5971   5978     1
   5971   5979     1
   5973   5989     1
   5973   5981     1
   5977   5992     1
   5977   5985     1
   5978   5993     1
   5978   6041     1
   5978   5981     1
   5979   5986     1
   5979   6017     1
   5979   5989     1
   5981   5998     1
   5985   5999     1
   5985   5997     1
   5986   5998     1
   5989   6022     1
   5992   6023     1
   5992   6021     1
   5993   6022     1
   5994   5998     1
   5994   6004     1
   5994   6003     1
   5995   5999     1
   5995   6017     1
   5995   6010     1
   5997   6003     1
   5997   6012     1
   5997   6005     1
   5998   6015     1
   5999   6005     1
   5999   6004     1
   6003   6017     1
   6004   6017     1
   6004   6015     1
   6005   6015     1
   6010   6012     1
   6012   6017     1
   6012   6015     1
   6018   6022     1
   6018   6028     1
   6018   6027     1
   6019   6023     1
   6019   6041     1
   6019   6034     1
   6021   6027     1
   6021   6036     1
   6021   6029     1
   6022   6039     1
   6023   6029     1
   6023   6028     1
   6027   6041     1
   6028   6041     1
   6028   6039     1
   6029   6039     1
   6034   6036     1
   6036   6041     1
   6036   6039     1
   6043   6051     1
   6045   6052     1
   6045   6053     1
   6047   6063     1
   6047   6055     1
   6051   6066     1
   6051   6059     1
   6052   6055     1
   6052   6067     1
   6052   6115     1
   6053   6063     1
   6053   6060     1
   6053   6091     1
   6055   6072     1
   6059   6071     1
   6059   6073     1
   6060   6072     1
   6063   6096     1
   6066   6095     1
   6066   6097     1
   6067   6096     1
   6068   6072     1
   6068   6078     1
   6068   6077     1
   6069   6084     1
   6069   6073     1
   6069   6091     1
   6071   6079     1
   6071   6086     1
   6071   6077     1
   6072   6089     1
   6073   6078     1
   6073   6079     1
   6077   6091     1
   6078   6089     1
   6078   6091     1
   6079   6089     1
   6084   6086     1
   6086   6089     1
   6086   6091     1
   6092   6096     1
   6092   6102     1
   6092   6101     1
   6093   6108     1
   6093   6097     1
   6093   6115     1
   6095   6103     1
   6095   6110     1
   6095   6101     1
   6096   6113     1
   6097   6102     1
   6097   6103     1
   6101   6115     1
   6102   6113     1
   6102   6115     1
   6103   6113     1
   6108   6110     1
   6110   6113     1
   6110   6115     1
   6117   6125     1
   6119   6126     1
   6119   6127     1
   6121   6137     1
   6121   6129     1
   6125   6140     1
   6125   6133     1
   6126   6141     1
   6126   6189     1
   6126   6129     1
   6127   6134     1
   6127   6165     1
   6127   6137     1
   6129   6146     1
   6133   6147     1
   6133   6145     1
   6134   6146     1
   6137   6170     1
   6140   6171     1
   6140   6169     1
   6141   6170     1
   6142   6146     1
   6142   6152     1
   6142   6151     1
   6143   6147     1
   6143   6165     1
   6143   6158     1
   6145   6151     1
   6145   6160     1
   6145   6153     1
   6146   6163     1
   6147   6153     1
   6147   6152     1
   6151   6165     1
   6152   6165     1
   6152   6163     1
   6153   6163     1
   6158   6160     1
   6160   6165     1
   6160   6163     1
   6166   6170     1
   6166   6176     1
   6166   6175     1
   6167   6171     1
   6167   6189     1
   6167   6182     1
   6169   6175     1
   6169   6184     1
   6169   6177     1
   6170   6187     1
   6171   6177     1
   6171   6176     1
   6175   6189     1
   6176   6189     1
   6176   6187     1
   6177   6187     1
   6182   6184     1
   6184   6189     1
   6184   6187     1
   6191   6199     1
   6193   6200     1
   6193   6201     1
   6195   6211     1
   6195   6203     1
   6199   6214     1
   6199   6207     1
   6200   6203     1
   6200   6215     1
   6200   6263     1
   6201   6211     1
   6201   6208     1
   6201   6239     1
   6203   6220     1
   6207   6219     1
   6207   6221     1
   6208   6220     1
   6211   6244     1
   6214   6243     1
   6214   6245     1
   6215   6244     1
   6216   6220     1
   6216   6226     1
   6216   6225     1
   6217   6232     1
   6217   6221     1
   6217   6239     1
   6219   6227     1
   6219   6234     1
   6219   6225     1
   6220   6237     1
   6221   6226     1
   6221   6227     1
   6225   6239     1
   6226   6237     1
   6226   6239     1
   6227   6237     1
   6232   6234     1
   6234   6237     1
   6234   6239     1
   6240   6244     1
   6240   6250     1
   6240   6249     1
   6241   6256     1
   6241   6245     1
   6241   6263     1
   6243   6251     1
   6243   6258     1
   6243   6249     1
   6244   6261     1
   6245   6250     1
   6245   6251     1
   6249   6263     1
   6250   6261     1
   6250   6263     1
   6251   6261     1
   6256   6258     1
   6258   6261     1
   6258   6263     1
   6265   6273     1
   6267   6274     1
   6267   6275     1
   6269   6285     1
   6269   6277     1
   6273   6288     1
   6273   6281     1
   6274   6289     1
   6274   6337     1
   6274   6277     1
   6275   6282     1
   6275   6313     1
   6275   6285     1
   6277   6294     1
   6281   6295     1
   6281   6293     1
   6282   6294     1
   6285   6318     1
   6288   6319     1
   6288   6317     1
   6289   6318     1
   6290   6294     1
   6290   6300     1
   6290   6299     1
   6291   6295     1
   6291   6313     1
   6291   6306     1
   6293   6299     1
   6293   6308     1
   6293   6301     1
   6294   6311     1
   6295   6301     1
   6295   6300     1
   6299   6313     1
   6300   6313     1
   6300   6311     1
   6301   6311     1
   6306   6308     1
   6308   6313     1
   6308   6311     1
   6314   6318     1
   6314   6324     1
   6314   6323     1
   6315   6319     1
   6315   6337     1
   6315   6330     1
   6317   6323     1
   6317   6332     1
   6317   6325     1
   6318   6335     1
   6319   6325     1
   6319   6324     1
   6323   6337     1
   6324   6337     1
   6324   6335     1
   6325   6335     1
   6330   6332     1
   6332   6337     1
   6332   6335     1
      1     23     1
      1     24     1
      1     37     1
      1     38     1
      1     39     1
      1     40     1
      2     29     1
      2     30     1
      2     31     1
      2     32     1
      2     42     1
     41      3     1
      3     25     1
      3     26     1
      3     27     1
      3     28     1
      4     21     1
      4     22     1
      4     35     1
      4     36     1
      4     33     1
      4     34     1
      5     23     1
      5     24     1
      5     27     1
      5     28     1
      6     23     1
      6     24     1
      6     25     1
      6     26     1
      7     21     1
      7     22     1
      7     31     1
      7     32     1
      8     21     1
      8     22     1
      8     29     1
      8     30     1
      9     42     1
      9     67     1
     10     27     1
     10     28     1
     10     65     1
     10     66     1
     11     42     1
     11     93     1
     12     25     1
     12     26     1
     12     91     1
     12     92     1
     41     13     1
     13    119     1
     14     29     1
     14     30     1
     14    117     1
     14    118     1
     41     15     1
     15    145     1
     16     31     1
     16     32     1
     16    143     1
     16    144     1
     17     35     1
     17     36     1
     17     93     1
     18     33     1
     18     34     1
     18     67     1
     19     39     1
     19     40     1
     19    145     1
     20     37     1
     20     38     1
     20    119     1
     41     21     1
     21     23     1
     21     24     1
     41     22     1
     22     23     1
     22     24     1
     23     42     1
     24     42     1
     25     42     1
     25     35     1
     25     36     1
     26     42     1
     26     35     1
     26     36     1
     27     42     1
     27     33     1
     27     34     1
     28     42     1
     28     33     1
     28     34     1
     41     29     1
     29     37     1
     29     38     1
     41     30     1
     30     37     1
     30     38     1
     41     31     1
     31     39     1
     31     40     1
     41     32     1
     32     39     1
     32     40     1
     33     52     1
     34     52     1
     35     78     1
     36     78     1
     37    104     1
     38    104     1
     39    130     1
     40    130     1
     43     59     1
     43     60     1
     43     61     1
     43     62     1
     43     65     1
     43     66     1
     44     57     1
     44     58     1
     44     63     1
     44     64     1
     45     55     1
     45     56     1
     45     63     1
     45     64     1
     46     68     1
     46    171     1
     47     55     1
     47     56     1
     47    169     1
     47    170     1
     48     68     1
     48    197     1
     49     57     1
     49     58     1
     49    195     1
     49    196     1
     50     55     1
     50     56     1
     50     57     1
     50     58     1
     50     67     1
     51     68     1
     52     63     1
     52     64     1
     53     59     1
     53     60     1
     53    171     1
     54     61     1
     54     62     1
     54    197     1
     55     68     1
     55     59     1
     55     60     1
     56     68     1
     56     59     1
     56     60     1
     57     68     1
     57     61     1
     57     62     1
     58     68     1
     58     61     1
     58     62     1
     59    156     1
     60    156     1
     61    182     1
     62    182     1
     63     68     1
     63     65     1
     63     66     1
     64     68     1
     64     65     1
     64     66     1
     65     67     1
     66     67     1
     69     85     1
     69     86     1
     69     87     1
     69     88     1
     69     91     1
     69     92     1
     70     83     1
     70     84     1
     70     89     1
     70     90     1
     71     81     1
     71     82     1
     71     89     1
     71     90     1
     72     94     1
     72    223     1
     73     81     1
     73     82     1
     73    221     1
     73    222     1
     74     94     1
     74    249     1
     75     83     1
     75     84     1
     75    247     1
     75    248     1
     76     81     1
     76     82     1
     76     83     1
     76     84     1
     76     93     1
     77     94     1
     78     89     1
     78     90     1
     79     85     1
     79     86     1
     79    223     1
     80     87     1
     80     88     1
     80    249     1
     81     94     1
     81     85     1
     81     86     1
     82     94     1
     82     85     1
     82     86     1
     83     94     1
     83     87     1
     83     88     1
     84     94     1
     84     87     1
     84     88     1
     85    208     1
     86    208     1
     87    234     1
     88    234     1
     89     94     1
     89     91     1
     89     92     1
     90     94     1
     90     91     1
     90     92     1
     91     93     1
     92     93     1
     95    111     1
     95    112     1
     95    113     1
     95    114     1
     95    117     1
     95    118     1
     96    109     1
     96    110     1
     96    115     1
     96    116     1
     97    107     1
     97    108     1
     97    115     1
     97    116     1
     98    120     1
     98    275     1
     99    107     1
     99    108     1
     99    273     1
     99    274     1
    100    120     1
    100    301     1
    101    109     1
    101    110     1
    101    299     1
    101    300     1
    102    107     1
    102    108     1
    102    109     1
    102    110     1
    102    119     1
    103    120     1
    104    115     1
    104    116     1
    105    111     1
    105    112     1
    105    275     1
    106    113     1
    106    114     1
    106    301     1
    107    120     1
    107    111     1
    107    112     1
    108    120     1
    108    111     1
    108    112     1
    109    120     1
    109    113     1
    109    114     1
    110    120     1
    110    113     1
    110    114     1
    111    260     1
    112    260     1
    113    286     1
    114    286     1
    115    120     1
    115    117     1
    115    118     1
    116    120     1
    116    117     1
    116    118     1
    117    119     1
    118    119     1
    121    137     1
    121    138     1
    121    139     1
    121    140     1
    121    143     1
    121    144     1
    122    135     1
    122    136     1
    122    141     1
    122    142     1
    123    133     1
    123    134     1
    123    141     1
    123    142     1
    124    146     1
    124    327     1
    125    133     1
    125    134     1
    125    325     1
    125    326     1
    126    146     1
    126    353     1
    127    135     1
    127    136     1
    127    351     1
    127    352     1
    128    133     1
    128    134     1
    128    135     1
    128    136     1
    128    145     1
    129    146     1
    130    141     1
    130    142     1
    131    137     1
    131    138     1
    131    327     1
    132    139     1
    132    140     1
    132    353     1
    133    146     1
    133    137     1
    133    138     1
    134    146     1
    134    137     1
    134    138     1
    135    146     1
    135    139     1
    135    140     1
    136    146     1
    136    139     1
    136    140     1
    137    312     1
    138    312     1
    139    338     1
    140    338     1
    141    146     1
    141    143     1
    141    144     1
    142    146     1
    142    143     1
    142    144     1
    143    145     1
    144    145     1
    147    163     1
    147    164     1
    147    165     1
    147    166     1
    147    169     1
    147    170     1
    148    161     1
    148    162     1
    148    167     1
    148    168     1
    149    159     1
    149    160     1
    149    167     1
    149    168     1
    150    172     1
    150    379     1
    151    159     1
    151    160     1
    151    377     1
    151    378     1
    152    172     1
    152    405     1
    153    161     1
    153    162     1
    153    403     1
    153    404     1
    154    159     1
    154    160     1
    154    161     1
    154    162     1
    154    171     1
    155    172     1
    156    167     1
    156    168     1
    157    163     1
    157    164     1
    157    379     1
    158    165     1
    158    166     1
    158    405     1
    159    172     1
    159    163     1
    159    164     1
    160    172     1
    160    163     1
    160    164     1
    161    172     1
    161    165     1
    161    166     1
    162    172     1
    162    165     1
    162    166     1
    163    364     1
    164    364     1
    165    390     1
    166    390     1
    167    172     1
    167    169     1
    167    170     1
    168    172     1
    168    169     1
    168    170     1
    169    171     1
    170    171     1
    173    189     1
    173    190     1
    173    191     1
    173    192     1
    173    195     1
    173    196     1
    174    187     1
    174    188     1
    174    193     1
    174    194     1
    175    185     1
    175    186     1
    175    193     1
    175    194     1
    176    198     1
    176    431     1
    177    185     1
    177    186     1
    177    429     1
    177    430     1
    178    198     1
    178    457     1
    179    187     1
    179    188     1
    179    455     1
    179    456     1
    180    185     1
    180    186     1
    180    187     1
    180    188     1
    180    197     1
    181    198     1
    182    193     1
    182    194     1
    183    189     1
    183    190     1
    183    431     1
    184    191     1
    184    192     1
    184    457     1
    185    198     1
    185    189     1
    185    190     1
    186    198     1
    186    189     1
    186    190     1
    187    198     1
    187    191     1
    187    192     1
    188    198     1
    188    191     1
    188    192     1
    189    416     1
    190    416     1
    191    442     1
    192    442     1
    193    198     1
    193    195     1
    193    196     1
    194    198     1
    194    195     1
    194    196     1
    195    197     1
    196    197     1
    199    215     1
    199    216     1
    199    217     1
    199    218     1
    199    221     1
    199    222     1
    200    213     1
    200    214     1
    200    219     1
    200    220     1
    201    211     1
    201    212     1
    201    219     1
    201    220     1
    202    224     1
    202    483     1
    203    211     1
    203    212     1
    203    481     1
    203    482     1
    204    224     1
    204    509     1
    205    213     1
    205    214     1
    205    507     1
    205    508     1
    206    211     1
    206    212     1
    206    213     1
    206    214     1
    206    223     1
    207    224     1
    208    219     1
    208    220     1
    209    215     1
    209    216     1
    209    483     1
    210    217     1
    210    218     1
    210    509     1
    211    224     1
    211    215     1
    211    216     1
    212    224     1
    212    215     1
    212    216     1
    213    224     1
    213    217     1
    213    218     1
    214    224     1
    214    217     1
    214    218     1
    215    468     1
    216    468     1
    217    494     1
    218    494     1
    219    224     1
    219    221     1
    219    222     1
    220    224     1
    220    221     1
    220    222     1
    221    223     1
    222    223     1
    225    241     1
    225    242     1
    225    243     1
    225    244     1
    225    247     1
    225    248     1
    226    239     1
    226    240     1
    226    245     1
    226    246     1
    227    237     1
    227    238     1
    227    245     1
    227    246     1
    228    250     1
    228    535     1
    229    237     1
    229    238     1
    229    533     1
    229    534     1
    230    250     1
    230    561     1
    231    239     1
    231    240     1
    231    559     1
    231    560     1
    232    237     1
    232    238     1
    232    239     1
    232    240     1
    232    249     1
    233    250     1
    234    245     1
    234    246     1
    235    241     1
    235    242     1
    235    535     1
    236    243     1
    236    244     1
    236    561     1
    237    250     1
    237    241     1
    237    242     1
    238    250     1
    238    241     1
    238    242     1
    239    250     1
    239    243     1
    239    244     1
    240    250     1
    240    243     1
    240    244     1
    241    520     1
    242    520     1
    243    546     1
    244    546     1
    245    250     1
    245    247     1
    245    248     1
    246    250     1
    246    247     1
    246    248     1
    247    249     1
    248    249     1
    251    267     1
    251    268     1
    251    269     1
    251    270     1
    251    273     1
    251    274     1
    252    265     1
    252    266     1
    252    271     1
    252    272     1
    253    263     1
    253    264     1
    253    271     1
    253    272     1
    254    276     1
    254    587     1
    255    263     1
    255    264     1
    255    585     1
    255    586     1
    256    276     1
    256    613     1
    257    265     1
    257    266     1
    257    611     1
    257    612     1
    258    263     1
    258    264     1
    258    265     1
    258    266     1
    258    275     1
    259    276     1
    260    271     1
    260    272     1
    261    267     1
    261    268     1
    261    587     1
    262    269     1
    262    270     1
    262    613     1
    263    276     1
    263    267     1
    263    268     1
    264    276     1
    264    267     1
    264    268     1
    265    276     1
    265    269     1
    265    270     1
    266    276     1
    266    269     1
    266    270     1
    267    572     1
    268    572     1
    269    598     1
    270    598     1
    271    276     1
    271    273     1
    271    274     1
    272    276     1
    272    273     1
    272    274     1
    273    275     1
    274    275     1
    277    293     1
    277    294     1
    277    295     1
    277    296     1
    277    299     1
    277    300     1
    278    291     1
    278    292     1
    278    297     1
    278    298     1
    279    289     1
    279    290     1
    279    297     1
    279    298     1
    280    302     1
    280    639     1
    281    289     1
    281    290     1
    281    637     1
    281    638     1
    282    302     1
    282    665     1
    283    291     1
    283    292     1
    283    663     1
    283    664     1
    284    289     1
    284    290     1
    284    291     1
    284    292     1
    284    301     1
    285    302     1
    286    297     1
    286    298     1
    287    293     1
    287    294     1
    287    639     1
    288    295     1
    288    296     1
    288    665     1
    289    302     1
    289    293     1
    289    294     1
    290    302     1
    290    293     1
    290    294     1
    291    302     1
    291    295     1
    291    296     1
    292    302     1
    292    295     1
    292    296     1
    293    624     1
    294    624     1
    295    650     1
    296    650     1
    297    302     1
    297    299     1
    297    300     1
    298    302     1
    298    299     1
    298    300     1
    299    301     1
    300    301     1
    303    319     1
    303    320     1
    303    321     1
    303    322     1
    303    325     1
    303    326     1
    304    317     1
    304    318     1
    304    323     1
    304    324     1
    305    315     1
    305    316     1
    305    323     1
    305    324     1
    306    328     1
    306    691     1
    307    315     1
    307    316     1
    307    689     1
    307    690     1
    308    328     1
    308    717     1
    309    317     1
    309    318     1
    309    715     1
    309    716     1
    310    315     1
    310    316     1
    310    317     1
    310    318     1
    310    327     1
    311    328     1
    312    323     1
    312    324     1
    313    319     1
    313    320     1
    313    691     1
    314    321     1
    314    322     1
    314    717     1
    315    328     1
    315    319     1
    315    320     1
    316    328     1
    316    319     1
    316    320     1
    317    328     1
    317    321     1
    317    322     1
    318    328     1
    318    321     1
    318    322     1
    319    676     1
    320    676     1
    321    702     1
    322    702     1
    323    328     1
    323    325     1
    323    326     1
    324    328     1
    324    325     1
    324    326     1
    325    327     1
    326    327     1
    329    345     1
    329    346     1
    329    347     1
    329    348     1
    329    351     1
    329    352     1
    330    343     1
    330    344     1
    330    349     1
    330    350     1
    331    341     1
    331    342     1
    331    349     1
    331    350     1
    332    354     1
    332    743     1
    333    341     1
    333    342     1
    333    741     1
    333    742     1
    334    354     1
    334    769     1
    335    343     1
    335    344     1
    335    767     1
    335    768     1
    336    341     1
    336    342     1
    336    343     1
    336    344     1
    336    353     1
    337    354     1
    338    349     1
    338    350     1
    339    345     1
    339    346     1
    339    743     1
    340    347     1
    340    348     1
    340    769     1
    341    354     1
    341    345     1
    341    346     1
    342    354     1
    342    345     1
    342    346     1
    343    354     1
    343    347     1
    343    348     1
    344    354     1
    344    347     1
    344    348     1
    345    728     1
    346    728     1
    347    754     1
    348    754     1
    349    354     1
    349    351     1
    349    352     1
    350    354     1
    350    351     1
    350    352     1
    351    353     1
    352    353     1
    355    371     1
    355    372     1
    355    373     1
    355    374     1
    355    377     1
    355    378     1
    356    369     1
    356    370     1
    356    375     1
    356    376     1
    357    367     1
    357    368     1
    357    375     1
    357    376     1
    358    380     1
    358    795     1
    359    367     1
    359    368     1
    359    793     1
    359    794     1
    360    380     1
    360    821     1
    361    369     1
    361    370     1
    361    819     1
    361    820     1
    362    367     1
    362    368     1
    362    369     1
    362    370     1
    362    379     1
    363    380     1
    364    375     1
    364    376     1
    365    371     1
    365    372     1
    365    795     1
    366    373     1
    366    374     1
    366    821     1
    367    380     1
    367    371     1
    367    372     1
    368    380     1
    368    371     1
    368    372     1
    369    380     1
    369    373     1
    369    374     1
    370    380     1
    370    373     1
    370    374     1
    371    780     1
    372    780     1
    373    806     1
    374    806     1
    375    380     1
    375    377     1
    375    378     1
    376    380     1
    376    377     1
    376    378     1
    377    379     1
    378    379     1
    381    397     1
    381    398     1
    381    399     1
    381    400     1
    381    403     1
    381    404     1
    382    395     1
    382    396     1
    382    401     1
    382    402     1
    383    393     1
    383    394     1
    383    401     1
    383    402     1
    384    406     1
    384    847     1
    385    393     1
    385    394     1
    385    845     1
    385    846     1
    386    406     1
    386    873     1
    387    395     1
    387    396     1
    387    871     1
    387    872     1
    388    393     1
    388    394     1
    388    395     1
    388    396     1
    388    405     1
    389    406     1
    390    401     1
    390    402     1
    391    397     1
    391    398     1
    391    847     1
    392    399     1
    392    400     1
    392    873     1
    393    406     1
    393    397     1
    393    398     1
    394    406     1
    394    397     1
    394    398     1
    395    406     1
    395    399     1
    395    400     1
    396    406     1
    396    399     1
    396    400     1
    397    832     1
    398    832     1
    399    858     1
    400    858     1
    401    406     1
    401    403     1
    401    404     1
    402    406     1
    402    403     1
    402    404     1
    403    405     1
    404    405     1
    407    423     1
    407    424     1
    407    425     1
    407    426     1
    407    429     1
    407    430     1
    408    421     1
    408    422     1
    408    427     1
    408    428     1
    409    419     1
    409    420     1
    409    427     1
    409    428     1
    410    432     1
    410    899     1
    411    419     1
    411    420     1
    411    897     1
    411    898     1
    412    432     1
    412    925     1
    413    421     1
    413    422     1
    413    923     1
    413    924     1
    414    419     1
    414    420     1
    414    421     1
    414    422     1
    414    431     1
    415    432     1
    416    427     1
    416    428     1
    417    423     1
    417    424     1
    417    899     1
    418    425     1
    418    426     1
    418    925     1
    419    432     1
    419    423     1
    419    424     1
    420    432     1
    420    423     1
    420    424     1
    421    432     1
    421    425     1
    421    426     1
    422    432     1
    422    425     1
    422    426     1
    423    884     1
    424    884     1
    425    910     1
    426    910     1
    427    432     1
    427    429     1
    427    430     1
    428    432     1
    428    429     1
    428    430     1
    429    431     1
    430    431     1
    433    449     1
    433    450     1
    433    451     1
    433    452     1
    433    455     1
    433    456     1
    434    447     1
    434    448     1
    434    453     1
    434    454     1
    435    445     1
    435    446     1
    435    453     1
    435    454     1
    436    458     1
    436    951     1
    437    445     1
    437    446     1
    437    949     1
    437    950     1
    438    458     1
    438    977     1
    439    447     1
    439    448     1
    439    975     1
    439    976     1
    440    445     1
    440    446     1
    440    447     1
    440    448     1
    440    457     1
    441    458     1
    442    453     1
    442    454     1
    443    449     1
    443    450     1
    443    951     1
    444    451     1
    444    452     1
    444    977     1
    445    458     1
    445    449     1
    445    450     1
    446    458     1
    446    449     1
    446    450     1
    447    458     1
    447    451     1
    447    452     1
    448    458     1
    448    451     1
    448    452     1
    449    936     1
    450    936     1
    451    962     1
    452    962     1
    453    458     1
    453    455     1
    453    456     1
    454    458     1
    454    455     1
    454    456     1
    455    457     1
    456    457     1
    459    475     1
    459    476     1
    459    477     1
    459    478     1
    459    481     1
    459    482     1
    460    473     1
    460    474     1
    460    479     1
    460    480     1
    461    471     1
    461    472     1
    461    479     1
    461    480     1
    462    484     1
    462   1003     1
    463    471     1
    463    472     1
    463   1001     1
    463   1002     1
    464    484     1
    464   1029     1
    465    473     1
    465    474     1
    465   1027     1
    465   1028     1
    466    471     1
    466    472     1
    466    473     1
    466    474     1
    466    483     1
    467    484     1
    468    479     1
    468    480     1
    469    475     1
    469    476     1
    469   1003     1
    470    477     1
    470    478     1
    470   1029     1
    471    484     1
    471    475     1
    471    476     1
    472    484     1
    472    475     1
    472    476     1
    473    484     1
    473    477     1
    473    478     1
    474    484     1
    474    477     1
    474    478     1
    475    988     1
    476    988     1
    477   1014     1
    478   1014     1
    479    484     1
    479    481     1
    479    482     1
    480    484     1
    480    481     1
    480    482     1
    481    483     1
    482    483     1
    485    501     1
    485    502     1
    485    503     1
    485    504     1
    485    507     1
    485    508     1
    486    499     1
    486    500     1
    486    505     1
    486    506     1
    487    497     1
    487    498     1
    487    505     1
    487    506     1
    488    510     1
    488   1055     1
    489    497     1
    489    498     1
    489   1053     1
    489   1054     1
    490    510     1
    490   1081     1
    491    499     1
    491    500     1
    491   1079     1
    491   1080     1
    492    497     1
    492    498     1
    492    499     1
    492    500     1
    492    509     1
    493    510     1
    494    505     1
    494    506     1
    495    501     1
    495    502     1
    495   1055     1
    496    503     1
    496    504     1
    496   1081     1
    497    510     1
    497    501     1
    497    502     1
    498    510     1
    498    501     1
    498    502     1
    499    510     1
    499    503     1
    499    504     1
    500    510     1
    500    503     1
    500    504     1
    501   1040     1
    502   1040     1
    503   1066     1
    504   1066     1
    505    510     1
    505    507     1
    505    508     1
    506    510     1
    506    507     1
    506    508     1
    507    509     1
    508    509     1
    511    527     1
    511    528     1
    511    529     1
    511    530     1
    511    533     1
    511    534     1
    512    525     1
    512    526     1
    512    531     1
    512    532     1
    513    523     1
    513    524     1
    513    531     1
    513    532     1
    514    536     1
    514   1107     1
    515    523     1
    515    524     1
    515   1105     1
    515   1106     1
    516    536     1
    516   1133     1
    517    525     1
    517    526     1
    517   1131     1
    517   1132     1
    518    523     1
    518    524     1
    518    525     1
    518    526     1
    518    535     1
    519    536     1
    520    531     1
    520    532     1
    521    527     1
    521    528     1
    521   1107     1
    522    529     1
    522    530     1
    522   1133     1
    523    536     1
    523    527     1
    523    528     1
    524    536     1
    524    527     1
    524    528     1
    525    536     1
    525    529     1
    525    530     1
    526    536     1
    526    529     1
    526    530     1
    527   1092     1
    528   1092     1
    529   1118     1
    530   1118     1
    531    536     1
    531    533     1
    531    534     1
    532    536     1
    532    533     1
    532    534     1
    533    535     1
    534    535     1
    537    553     1
    537    554     1
    537    555     1
    537    556     1
    537    559     1
    537    560     1
    538    551     1
    538    552     1
    538    557     1
    538    558     1
    539    549     1
    539    550     1
    539    557     1
    539    558     1
    540    562     1
    540   1159     1
    541    549     1
    541    550     1
    541   1157     1
    541   1158     1
    542    562     1
    542   1185     1
    543    551     1
    543    552     1
    543   1183     1
    543   1184     1
    544    549     1
    544    550     1
    544    551     1
    544    552     1
    544    561     1
    545    562     1
    546    557     1
    546    558     1
    547    553     1
    547    554     1
    547   1159     1
    548    555     1
    548    556     1
    548   1185     1
    549    562     1
    549    553     1
    549    554     1
    550    562     1
    550    553     1
    550    554     1
    551    562     1
    551    555     1
    551    556     1
    552    562     1
    552    555     1
    552    556     1
    553   1144     1
    554   1144     1
    555   1170     1
    556   1170     1
    557    562     1
    557    559     1
    557    560     1
    558    562     1
    558    559     1
    558    560     1
    559    561     1
    560    561     1
    563    579     1
    563    580     1
    563    581     1
    563    582     1
    563    585     1
    563    586     1
    564    577     1
    564    578     1
    564    583     1
    564    584     1
    565    575     1
    565    576     1
    565    583     1
    565    584     1
    566    588     1
    566   1211     1
    567    575     1
    567    576     1
    567   1209     1
    567   1210     1
    568    588     1
    568   1237     1
    569    577     1
    569    578     1
    569   1235     1
    569   1236     1
    570    575     1
    570    576     1
    570    577     1
    570    578     1
    570    587     1
    571    588     1
    572    583     1
    572    584     1
    573    579     1
    573    580     1
    573   1211     1
    574    581     1
    574    582     1
    574   1237     1
    575    588     1
    575    579     1
    575    580     1
    576    588     1
    576    579     1
    576    580     1
    577    588     1
    577    581     1
    577    582     1
    578    588     1
    578    581     1
    578    582     1
    579   1196     1
    580   1196     1
    581   1222     1
    582   1222     1
    583    588     1
    583    585     1
    583    586     1
    584    588     1
    584    585     1
    584    586     1
    585    587     1
    586    587     1
    589    605     1
    589    606     1
    589    607     1
    589    608     1
    589    611     1
    589    612     1
    590    603     1
    590    604     1
    590    609     1
    590    610     1
    591    601     1
    591    602     1
    591    609     1
    591    610     1
    592    614     1
    592   1263     1
    593    601     1
    593    602     1
    593   1261     1
    593   1262     1
    594    614     1
    594   1289     1
    595    603     1
    595    604     1
    595   1287     1
    595   1288     1
    596    601     1
    596    602     1
    596    603     1
    596    604     1
    596    613     1
    597    614     1
    598    609     1
    598    610     1
    599    605     1
    599    606     1
    599   1263     1
    600    607     1
    600    608     1
    600   1289     1
    601    614     1
    601    605     1
    601    606     1
    602    614     1
    602    605     1
    602    606     1
    603    614     1
    603    607     1
    603    608     1
    604    614     1
    604    607     1
    604    608     1
    605   1248     1
    606   1248     1
    607   1274     1
    608   1274     1
    609    614     1
    609    611     1
    609    612     1
    610    614     1
    610    611     1
    610    612     1
    611    613     1
    612    613     1
    615    631     1
    615    632     1
    615    633     1
    615    634     1
    615    637     1
    615    638     1
    616    629     1
    616    630     1
    616    635     1
    616    636     1
    617    627     1
    617    628     1
    617    635     1
    617    636     1
    618    640     1
    618   1315     1
    619    627     1
    619    628     1
    619   1313     1
    619   1314     1
    620    640     1
    620   1341     1
    621    629     1
    621    630     1
    621   1339     1
    621   1340     1
    622    627     1
    622    628     1
    622    629     1
    622    630     1
    622    639     1
    623    640     1
    624    635     1
    624    636     1
    625    631     1
    625    632     1
    625   1315     1
    626    633     1
    626    634     1
    626   1341     1
    627    640     1
    627    631     1
    627    632     1
    628    640     1
    628    631     1
    628    632     1
    629    640     1
    629    633     1
    629    634     1
    630    640     1
    630    633     1
    630    634     1
    631   1300     1
    632   1300     1
    633   1326     1
    634   1326     1
    635    640     1
    635    637     1
    635    638     1
    636    640     1
    636    637     1
    636    638     1
    637    639     1
    638    639     1
    641    657     1
    641    658     1
    641    659     1
    641    660     1
    641    663     1
    641    664     1
    642    655     1
    642    656     1
    642    661     1
    642    662     1
    643    653     1
    643    654     1
    643    661     1
    643    662     1
    644    666     1
    644   1367     1
    645    653     1
    645    654     1
    645   1365     1
    645   1366     1
    646    666     1
    646   1393     1
    647    655     1
    647    656     1
    647   1391     1
    647   1392     1
    648    653     1
    648    654     1
    648    655     1
    648    656     1
    648    665     1
    649    666     1
    650    661     1
    650    662     1
    651    657     1
    651    658     1
    651   1367     1
    652    659     1
    652    660     1
    652   1393     1
    653    666     1
    653    657     1
    653    658     1
    654    666     1
    654    657     1
    654    658     1
    655    666     1
    655    659     1
    655    660     1
    656    666     1
    656    659     1
    656    660     1
    657   1352     1
    658   1352     1
    659   1378     1
    660   1378     1
    661    666     1
    661    663     1
    661    664     1
    662    666     1
    662    663     1
    662    664     1
    663    665     1
    664    665     1
    667    683     1
    667    684     1
    667    685     1
    667    686     1
    667    689     1
    667    690     1
    668    681     1
    668    682     1
    668    687     1
    668    688     1
    669    679     1
    669    680     1
    669    687     1
    669    688     1
    670    692     1
    670   1419     1
    671    679     1
    671    680     1
    671   1417     1
    671   1418     1
    672    692     1
    672   1445     1
    673    681     1
    673    682     1
    673   1443     1
    673   1444     1
    674    679     1
    674    680     1
    674    681     1
    674    682     1
    674    691     1
    675    692     1
    676    687     1
    676    688     1
    677    683     1
    677    684     1
    677   1419     1
    678    685     1
    678    686     1
    678   1445     1
    679    692     1
    679    683     1
    679    684     1
    680    692     1
    680    683     1
    680    684     1
    681    692     1
    681    685     1
    681    686     1
    682    692     1
    682    685     1
    682    686     1
    683   1404     1
    684   1404     1
    685   1430     1
    686   1430     1
    687    692     1
    687    689     1
    687    690     1
    688    692     1
    688    689     1
    688    690     1
    689    691     1
    690    691     1
    693    709     1
    693    710     1
    693    711     1
    693    712     1
    693    715     1
    693    716     1
    694    707     1
    694    708     1
    694    713     1
    694    714     1
    695    705     1
    695    706     1
    695    713     1
    695    714     1
    696    718     1
    696   1471     1
    697    705     1
    697    706     1
    697   1469     1
    697   1470     1
    698    718     1
    698   1497     1
    699    707     1
    699    708     1
    699   1495     1
    699   1496     1
    700    705     1
    700    706     1
    700    707     1
    700    708     1
    700    717     1
    701    718     1
    702    713     1
    702    714     1
    703    709     1
    703    710     1
    703   1471     1
    704    711     1
    704    712     1
    704   1497     1
    705    718     1
    705    709     1
    705    710     1
    706    718     1
    706    709     1
    706    710     1
    707    718     1
    707    711     1
    707    712     1
    708    718     1
    708    711     1
    708    712     1
    709   1456     1
    710   1456     1
    711   1482     1
    712   1482     1
    713    718     1
    713    715     1
    713    716     1
    714    718     1
    714    715     1
    714    716     1
    715    717     1
    716    717     1
    719    735     1
    719    736     1
    719    737     1
    719    738     1
    719    741     1
    719    742     1
    720    733     1
    720    734     1
    720    739     1
    720    740     1
    721    731     1
    721    732     1
    721    739     1
    721    740     1
    722    744     1
    722   1523     1
    723    731     1
    723    732     1
    723   1521     1
    723   1522     1
    724    744     1
    724   1549     1
    725    733     1
    725    734     1
    725   1547     1
    725   1548     1
    726    731     1
    726    732     1
    726    733     1
    726    734     1
    726    743     1
    727    744     1
    728    739     1
    728    740     1
    729    735     1
    729    736     1
    729   1523     1
    730    737     1
    730    738     1
    730   1549     1
    731    744     1
    731    735     1
    731    736     1
    732    744     1
    732    735     1
    732    736     1
    733    744     1
    733    737     1
    733    738     1
    734    744     1
    734    737     1
    734    738     1
    735   1508     1
    736   1508     1
    737   1534     1
    738   1534     1
    739    744     1
    739    741     1
    739    742     1
    740    744     1
    740    741     1
    740    742     1
    741    743     1
    742    743     1
    745    761     1
    745    762     1
    745    763     1
    745    764     1
    745    767     1
    745    768     1
    746    759     1
    746    760     1
    746    765     1
    746    766     1
    747    757     1
    747    758     1
    747    765     1
    747    766     1
    748    770     1
    748   1575     1
    749    757     1
    749    758     1
    749   1573     1
    749   1574     1
    750    770     1
    750   1601     1
    751    759     1
    751    760     1
    751   1599     1
    751   1600     1
    752    757     1
    752    758     1
    752    759     1
    752    760     1
    752    769     1
    753    770     1
    754    765     1
    754    766     1
    755    761     1
    755    762     1
    755   1575     1
    756    763     1
    756    764     1
    756   1601     1
    757    770     1
    757    761     1
    757    762     1
    758    770     1
    758    761     1
    758    762     1
    759    770     1
    759    763     1
    759    764     1
    760    770     1
    760    763     1
    760    764     1
    761   1560     1
    762   1560     1
    763   1586     1
    764   1586     1
    765    770     1
    765    767     1
    765    768     1
    766    770     1
    766    767     1
    766    768     1
    767    769     1
    768    769     1
    771    787     1
    771    788     1
    771    789     1
    771    790     1
    771    793     1
    771    794     1
    772    785     1
    772    786     1
    772    791     1
    772    792     1
    773    783     1
    773    784     1
    773    791     1
    773    792     1
    774    796     1
    774   1604     1
    775    783     1
    775    784     1
    775   1606     1
    775   1608     1
    776    796     1
    776   1678     1
    777    785     1
    777    786     1
    777   1680     1
    777   1682     1
    778    783     1
    778    784     1
    778    785     1
    778    786     1
    778    795     1
    779    796     1
    780    791     1
    780    792     1
    781    787     1
    781    788     1
    781   1604     1
    782    789     1
    782    790     1
    782   1678     1
    783    796     1
    783    787     1
    783    788     1
    784    796     1
    784    787     1
    784    788     1
    785    796     1
    785    789     1
    785    790     1
    786    796     1
    786    789     1
    786    790     1
    787   1603     1
    788   1603     1
    789   1677     1
    790   1677     1
    791    796     1
    791    793     1
    791    794     1
    792    796     1
    792    793     1
    792    794     1
    793    795     1
    794    795     1
    797    813     1
    797    814     1
    797    815     1
    797    816     1
    797    819     1
    797    820     1
    798    811     1
    798    812     1
    798    817     1
    798    818     1
    799    809     1
    799    810     1
    799    817     1
    799    818     1
    800    822     1
    800   1752     1
    801    809     1
    801    810     1
    801   1754     1
    801   1756     1
    802    822     1
    802   1826     1
    803    811     1
    803    812     1
    803   1828     1
    803   1830     1
    804    809     1
    804    810     1
    804    811     1
    804    812     1
    804    821     1
    805    822     1
    806    817     1
    806    818     1
    807    813     1
    807    814     1
    807   1752     1
    808    815     1
    808    816     1
    808   1826     1
    809    822     1
    809    813     1
    809    814     1
    810    822     1
    810    813     1
    810    814     1
    811    822     1
    811    815     1
    811    816     1
    812    822     1
    812    815     1
    812    816     1
    813   1751     1
    814   1751     1
    815   1825     1
    816   1825     1
    817    822     1
    817    819     1
    817    820     1
    818    822     1
    818    819     1
    818    820     1
    819    821     1
    820    821     1
    823    839     1
    823    840     1
    823    841     1
    823    842     1
    823    845     1
    823    846     1
    824    837     1
    824    838     1
    824    843     1
    824    844     1
    825    835     1
    825    836     1
    825    843     1
    825    844     1
    826    848     1
    826   1900     1
    827    835     1
    827    836     1
    827   1902     1
    827   1904     1
    828    848     1
    828   1974     1
    829    837     1
    829    838     1
    829   1976     1
    829   1978     1
    830    835     1
    830    836     1
    830    837     1
    830    838     1
    830    847     1
    831    848     1
    832    843     1
    832    844     1
    833    839     1
    833    840     1
    833   1900     1
    834    841     1
    834    842     1
    834   1974     1
    835    848     1
    835    839     1
    835    840     1
    836    848     1
    836    839     1
    836    840     1
    837    848     1
    837    841     1
    837    842     1
    838    848     1
    838    841     1
    838    842     1
    839   1899     1
    840   1899     1
    841   1973     1
    842   1973     1
    843    848     1
    843    845     1
    843    846     1
    844    848     1
    844    845     1
    844    846     1
    845    847     1
    846    847     1
    849    865     1
    849    866     1
    849    867     1
    849    868     1
    849    871     1
    849    872     1
    850    863     1
    850    864     1
    850    869     1
    850    870     1
    851    861     1
    851    862     1
    851    869     1
    851    870     1
    852    874     1
    852   2048     1
    853    861     1
    853    862     1
    853   2050     1
    853   2052     1
    854    874     1
    854   2122     1
    855    863     1
    855    864     1
    855   2124     1
    855   2126     1
    856    861     1
    856    862     1
    856    863     1
    856    864     1
    856    873     1
    857    874     1
    858    869     1
    858    870     1
    859    865     1
    859    866     1
    859   2048     1
    860    867     1
    860    868     1
    860   2122     1
    861    874     1
    861    865     1
    861    866     1
    862    874     1
    862    865     1
    862    866     1
    863    874     1
    863    867     1
    863    868     1
    864    874     1
    864    867     1
    864    868     1
    865   2047     1
    866   2047     1
    867   2121     1
    868   2121     1
    869    874     1
    869    871     1
    869    872     1
    870    874     1
    870    871     1
    870    872     1
    871    873     1
    872    873     1
    875    891     1
    875    892     1
    875    893     1
    875    894     1
    875    897     1
    875    898     1
    876    889     1
    876    890     1
    876    895     1
    876    896     1
    877    887     1
    877    888     1
    877    895     1
    877    896     1
    878    900     1
    878   2196     1
    879    887     1
    879    888     1
    879   2198     1
    879   2200     1
    880    900     1
    880   2270     1
    881    889     1
    881    890     1
    881   2272     1
    881   2274     1
    882    887     1
    882    888     1
    882    889     1
    882    890     1
    882    899     1
    883    900     1
    884    895     1
    884    896     1
    885    891     1
    885    892     1
    885   2196     1
    886    893     1
    886    894     1
    886   2270     1
    887    900     1
    887    891     1
    887    892     1
    888    900     1
    888    891     1
    888    892     1
    889    900     1
    889    893     1
    889    894     1
    890    900     1
    890    893     1
    890    894     1
    891   2195     1
    892   2195     1
    893   2269     1
    894   2269     1
    895    900     1
    895    897     1
    895    898     1
    896    900     1
    896    897     1
    896    898     1
    897    899     1
    898    899     1
    901    917     1
    901    918     1
    901    919     1
    901    920     1
    901    923     1
    901    924     1
    902    915     1
    902    916     1
    902    921     1
    902    922     1
    903    913     1
    903    914     1
    903    921     1
    903    922     1
    904    926     1
    904   2344     1
    905    913     1
    905    914     1
    905   2346     1
    905   2348     1
    906    926     1
    906   2418     1
    907    915     1
    907    916     1
    907   2420     1
    907   2422     1
    908    913     1
    908    914     1
    908    915     1
    908    916     1
    908    925     1
    909    926     1
    910    921     1
    910    922     1
    911    917     1
    911    918     1
    911   2344     1
    912    919     1
    912    920     1
    912   2418     1
    913    926     1
    913    917     1
    913    918     1
    914    926     1
    914    917     1
    914    918     1
    915    926     1
    915    919     1
    915    920     1
    916    926     1
    916    919     1
    916    920     1
    917   2343     1
    918   2343     1
    919   2417     1
    920   2417     1
    921    926     1
    921    923     1
    921    924     1
    922    926     1
    922    923     1
    922    924     1
    923    925     1
    924    925     1
    927    943     1
    927    944     1
    927    945     1
    927    946     1
    927    949     1
    927    950     1
    928    941     1
    928    942     1
    928    947     1
    928    948     1
    929    939     1
    929    940     1
    929    947     1
    929    948     1
    930    952     1
    930   2492     1
    931    939     1
    931    940     1
    931   2494     1
    931   2496     1
    932    952     1
    932   2566     1
    933    941     1
    933    942     1
    933   2568     1
    933   2570     1
    934    939     1
    934    940     1
    934    941     1
    934    942     1
    934    951     1
    935    952     1
    936    947     1
    936    948     1
    937    943     1
    937    944     1
    937   2492     1
    938    945     1
    938    946     1
    938   2566     1
    939    952     1
    939    943     1
    939    944     1
    940    952     1
    940    943     1
    940    944     1
    941    952     1
    941    945     1
    941    946     1
    942    952     1
    942    945     1
    942    946     1
    943   2491     1
    944   2491     1
    945   2565     1
    946   2565     1
    947    952     1
    947    949     1
    947    950     1
    948    952     1
    948    949     1
    948    950     1
    949    951     1
    950    951     1
    953    969     1
    953    970     1
    953    971     1
    953    972     1
    953    975     1
    953    976     1
    954    967     1
    954    968     1
    954    973     1
    954    974     1
    955    965     1
    955    966     1
    955    973     1
    955    974     1
    956    978     1
    956   2640     1
    957    965     1
    957    966     1
    957   2642     1
    957   2644     1
    958    978     1
    958   2714     1
    959    967     1
    959    968     1
    959   2716     1
    959   2718     1
    960    965     1
    960    966     1
    960    967     1
    960    968     1
    960    977     1
    961    978     1
    962    973     1
    962    974     1
    963    969     1
    963    970     1
    963   2640     1
    964    971     1
    964    972     1
    964   2714     1
    965    978     1
    965    969     1
    965    970     1
    966    978     1
    966    969     1
    966    970     1
    967    978     1
    967    971     1
    967    972     1
    968    978     1
    968    971     1
    968    972     1
    969   2639     1
    970   2639     1
    971   2713     1
    972   2713     1
    973    978     1
    973    975     1
    973    976     1
    974    978     1
    974    975     1
    974    976     1
    975    977     1
    976    977     1
    979    995     1
    979    996     1
    979    997     1
    979    998     1
    979   1001     1
    979   1002     1
    980    993     1
    980    994     1
    980    999     1
    980   1000     1
    981    991     1
    981    992     1
    981    999     1
    981   1000     1
    982   1004     1
    982   2788     1
    983    991     1
    983    992     1
    983   2790     1
    983   2792     1
    984   1004     1
    984   2862     1
    985    993     1
    985    994     1
    985   2864     1
    985   2866     1
    986    991     1
    986    992     1
    986    993     1
    986    994     1
    986   1003     1
    987   1004     1
    988    999     1
    988   1000     1
    989    995     1
    989    996     1
    989   2788     1
    990    997     1
    990    998     1
    990   2862     1
    991   1004     1
    991    995     1
    991    996     1
    992   1004     1
    992    995     1
    992    996     1
    993   1004     1
    993    997     1
    993    998     1
    994   1004     1
    994    997     1
    994    998     1
    995   2787     1
    996   2787     1
    997   2861     1
    998   2861     1
    999   1004     1
    999   1001     1
    999   1002     1
   1000   1004     1
   1000   1001     1
   1000   1002     1
   1001   1003     1
   1002   1003     1
   1005   1021     1
   1005   1022     1
   1005   1023     1
   1005   1024     1
   1005   1027     1
   1005   1028     1
   1006   1019     1
   1006   1020     1
   1006   1025     1
   1006   1026     1
   1007   1017     1
   1007   1018     1
   1007   1025     1
   1007   1026     1
   1008   1030     1
   1008   2936     1
   1009   1017     1
   1009   1018     1
   1009   2938     1
   1009   2940     1
   1010   1030     1
   1010   3010     1
   1011   1019     1
   1011   1020     1
   1011   3012     1
   1011   3014     1
   1012   1017     1
   1012   1018     1
   1012   1019     1
   1012   1020     1
   1012   1029     1
   1013   1030     1
   1014   1025     1
   1014   1026     1
   1015   1021     1
   1015   1022     1
   1015   2936     1
   1016   1023     1
   1016   1024     1
   1016   3010     1
   1017   1030     1
   1017   1021     1
   1017   1022     1
   1018   1030     1
   1018   1021     1
   1018   1022     1
   1019   1030     1
   1019   1023     1
   1019   1024     1
   1020   1030     1
   1020   1023     1
   1020   1024     1
   1021   2935     1
   1022   2935     1
   1023   3009     1
   1024   3009     1
   1025   1030     1
   1025   1027     1
   1025   1028     1
   1026   1030     1
   1026   1027     1
   1026   1028     1
   1027   1029     1
   1028   1029     1
   1031   1047     1
   1031   1048     1
   1031   1049     1
   1031   1050     1
   1031   1053     1
   1031   1054     1
   1032   1045     1
   1032   1046     1
   1032   1051     1
   1032   1052     1
   1033   1043     1
   1033   1044     1
   1033   1051     1
   1033   1052     1
   1034   1056     1
   1034   3084     1
   1035   1043     1
   1035   1044     1
   1035   3086     1
   1035   3088     1
   1036   1056     1
   1036   3158     1
   1037   1045     1
   1037   1046     1
   1037   3160     1
   1037   3162     1
   1038   1043     1
   1038   1044     1
   1038   1045     1
   1038   1046     1
   1038   1055     1
   1039   1056     1
   1040   1051     1
   1040   1052     1
   1041   1047     1
   1041   1048     1
   1041   3084     1
   1042   1049     1
   1042   1050     1
   1042   3158     1
   1043   1056     1
   1043   1047     1
   1043   1048     1
   1044   1056     1
   1044   1047     1
   1044   1048     1
   1045   1056     1
   1045   1049     1
   1045   1050     1
   1046   1056     1
   1046   1049     1
   1046   1050     1
   1047   3083     1
   1048   3083     1
   1049   3157     1
   1050   3157     1
   1051   1056     1
   1051   1053     1
   1051   1054     1
   1052   1056     1
   1052   1053     1
   1052   1054     1
   1053   1055     1
   1054   1055     1
   1057   1073     1
   1057   1074     1
   1057   1075     1
   1057   1076     1
   1057   1079     1
   1057   1080     1
   1058   1071     1
   1058   1072     1
   1058   1077     1
   1058   1078     1
   1059   1069     1
   1059   1070     1
   1059   1077     1
   1059   1078     1
   1060   1082     1
   1060   3232     1
   1061   1069     1
   1061   1070     1
   1061   3234     1
   1061   3236     1
   1062   1082     1
   1062   3306     1
   1063   1071     1
   1063   1072     1
   1063   3308     1
   1063   3310     1
   1064   1069     1
   1064   1070     1
   1064   1071     1
   1064   1072     1
   1064   1081     1
   1065   1082     1
   1066   1077     1
   1066   1078     1
   1067   1073     1
   1067   1074     1
   1067   3232     1
   1068   1075     1
   1068   1076     1
   1068   3306     1
   1069   1082     1
   1069   1073     1
   1069   1074     1
   1070   1082     1
   1070   1073     1
   1070   1074     1
   1071   1082     1
   1071   1075     1
   1071   1076     1
   1072   1082     1
   1072   1075     1
   1072   1076     1
   1073   3231     1
   1074   3231     1
   1075   3305     1
   1076   3305     1
   1077   1082     1
   1077   1079     1
   1077   1080     1
   1078   1082     1
   1078   1079     1
   1078   1080     1
   1079   1081     1
   1080   1081     1
   1083   1099     1
   1083   1100     1
   1083   1101     1
   1083   1102     1
   1083   1105     1
   1083   1106     1
   1084   1097     1
   1084   1098     1
   1084   1103     1
   1084   1104     1
   1085   1095     1
   1085   1096     1
   1085   1103     1
   1085   1104     1
   1086   1108     1
   1086   3380     1
   1087   1095     1
   1087   1096     1
   1087   3382     1
   1087   3384     1
   1088   1108     1
   1088   3454     1
   1089   1097     1
   1089   1098     1
   1089   3456     1
   1089   3458     1
   1090   1095     1
   1090   1096     1
   1090   1097     1
   1090   1098     1
   1090   1107     1
   1091   1108     1
   1092   1103     1
   1092   1104     1
   1093   1099     1
   1093   1100     1
   1093   3380     1
   1094   1101     1
   1094   1102     1
   1094   3454     1
   1095   1108     1
   1095   1099     1
   1095   1100     1
   1096   1108     1
   1096   1099     1
   1096   1100     1
   1097   1108     1
   1097   1101     1
   1097   1102     1
   1098   1108     1
   1098   1101     1
   1098   1102     1
   1099   3379     1
   1100   3379     1
   1101   3453     1
   1102   3453     1
   1103   1108     1
   1103   1105     1
   1103   1106     1
   1104   1108     1
   1104   1105     1
   1104   1106     1
   1105   1107     1
   1106   1107     1
   1109   1125     1
   1109   1126     1
   1109   1127     1
   1109   1128     1
   1109   1131     1
   1109   1132     1
   1110   1123     1
   1110   1124     1
   1110   1129     1
   1110   1130     1
   1111   1121     1
   1111   1122     1
   1111   1129     1
   1111   1130     1
   1112   1134     1
   1112   3528     1
   1113   1121     1
   1113   1122     1
   1113   3530     1
   1113   3532     1
   1114   1134     1
   1114   3602     1
   1115   1123     1
   1115   1124     1
   1115   3604     1
   1115   3606     1
   1116   1121     1
   1116   1122     1
   1116   1123     1
   1116   1124     1
   1116   1133     1
   1117   1134     1
   1118   1129     1
   1118   1130     1
   1119   1125     1
   1119   1126     1
   1119   3528     1
   1120   1127     1
   1120   1128     1
   1120   3602     1
   1121   1134     1
   1121   1125     1
   1121   1126     1
   1122   1134     1
   1122   1125     1
   1122   1126     1
   1123   1134     1
   1123   1127     1
   1123   1128     1
   1124   1134     1
   1124   1127     1
   1124   1128     1
   1125   3527     1
   1126   3527     1
   1127   3601     1
   1128   3601     1
   1129   1134     1
   1129   1131     1
   1129   1132     1
   1130   1134     1
   1130   1131     1
   1130   1132     1
   1131   1133     1
   1132   1133     1
   1135   1151     1
   1135   1152     1
   1135   1153     1
   1135   1154     1
   1135   1157     1
   1135   1158     1
   1136   1149     1
   1136   1150     1
   1136   1155     1
   1136   1156     1
   1137   1147     1
   1137   1148     1
   1137   1155     1
   1137   1156     1
   1138   1160     1
   1138   3676     1
   1139   1147     1
   1139   1148     1
   1139   3678     1
   1139   3680     1
   1140   1160     1
   1140   3750     1
   1141   1149     1
   1141   1150     1
   1141   3752     1
   1141   3754     1
   1142   1147     1
   1142   1148     1
   1142   1149     1
   1142   1150     1
   1142   1159     1
   1143   1160     1
   1144   1155     1
   1144   1156     1
   1145   1151     1
   1145   1152     1
   1145   3676     1
   1146   1153     1
   1146   1154     1
   1146   3750     1
   1147   1160     1
   1147   1151     1
   1147   1152     1
   1148   1160     1
   1148   1151     1
   1148   1152     1
   1149   1160     1
   1149   1153     1
   1149   1154     1
   1150   1160     1
   1150   1153     1
   1150   1154     1
   1151   3675     1
   1152   3675     1
   1153   3749     1
   1154   3749     1
   1155   1160     1
   1155   1157     1
   1155   1158     1
   1156   1160     1
   1156   1157     1
   1156   1158     1
   1157   1159     1
   1158   1159     1
   1161   1177     1
   1161   1178     1
   1161   1179     1
   1161   1180     1
   1161   1183     1
   1161   1184     1
   1162   1175     1
   1162   1176     1
   1162   1181     1
   1162   1182     1
   1163   1173     1
   1163   1174     1
   1163   1181     1
   1163   1182     1
   1164   1186     1
   1164   3824     1
   1165   1173     1
   1165   1174     1
   1165   3826     1
   1165   3828     1
   1166   1186     1
   1166   3898     1
   1167   1175     1
   1167   1176     1
   1167   3900     1
   1167   3902     1
   1168   1173     1
   1168   1174     1
   1168   1175     1
   1168   1176     1
   1168   1185     1
   1169   1186     1
   1170   1181     1
   1170   1182     1
   1171   1177     1
   1171   1178     1
   1171   3824     1
   1172   1179     1
   1172   1180     1
   1172   3898     1
   1173   1186     1
   1173   1177     1
   1173   1178     1
   1174   1186     1
   1174   1177     1
   1174   1178     1
   1175   1186     1
   1175   1179     1
   1175   1180     1
   1176   1186     1
   1176   1179     1
   1176   1180     1
   1177   3823     1
   1178   3823     1
   1179   3897     1
   1180   3897     1
   1181   1186     1
   1181   1183     1
   1181   1184     1
   1182   1186     1
   1182   1183     1
   1182   1184     1
   1183   1185     1
   1184   1185     1
   1187   1203     1
   1187   1204     1
   1187   1205     1
   1187   1206     1
   1187   1209     1
   1187   1210     1
   1188   1201     1
   1188   1202     1
   1188   1207     1
   1188   1208     1
   1189   1199     1
   1189   1200     1
   1189   1207     1
   1189   1208     1
   1190   1212     1
   1190   3972     1
   1191   1199     1
   1191   1200     1
   1191   3974     1
   1191   3976     1
   1192   1212     1
   1192   4046     1
   1193   1201     1
   1193   1202     1
   1193   4048     1
   1193   4050     1
   1194   1199     1
   1194   1200     1
   1194   1201     1
   1194   1202     1
   1194   1211     1
   1195   1212     1
   1196   1207     1
   1196   1208     1
   1197   1203     1
   1197   1204     1
   1197   3972     1
   1198   1205     1
   1198   1206     1
   1198   4046     1
   1199   1212     1
   1199   1203     1
   1199   1204     1
   1200   1212     1
   1200   1203     1
   1200   1204     1
   1201   1212     1
   1201   1205     1
   1201   1206     1
   1202   1212     1
   1202   1205     1
   1202   1206     1
   1203   3971     1
   1204   3971     1
   1205   4045     1
   1206   4045     1
   1207   1212     1
   1207   1209     1
   1207   1210     1
   1208   1212     1
   1208   1209     1
   1208   1210     1
   1209   1211     1
   1210   1211     1
   1213   1229     1
   1213   1230     1
   1213   1231     1
   1213   1232     1
   1213   1235     1
   1213   1236     1
   1214   1227     1
   1214   1228     1
   1214   1233     1
   1214   1234     1
   1215   1225     1
   1215   1226     1
   1215   1233     1
   1215   1234     1
   1216   1238     1
   1216   4120     1
   1217   1225     1
   1217   1226     1
   1217   4122     1
   1217   4124     1
   1218   1238     1
   1218   4194     1
   1219   1227     1
   1219   1228     1
   1219   4196     1
   1219   4198     1
   1220   1225     1
   1220   1226     1
   1220   1227     1
   1220   1228     1
   1220   1237     1
   1221   1238     1
   1222   1233     1
   1222   1234     1
   1223   1229     1
   1223   1230     1
   1223   4120     1
   1224   1231     1
   1224   1232     1
   1224   4194     1
   1225   1238     1
   1225   1229     1
   1225   1230     1
   1226   1238     1
   1226   1229     1
   1226   1230     1
   1227   1238     1
   1227   1231     1
   1227   1232     1
   1228   1238     1
   1228   1231     1
   1228   1232     1
   1229   4119     1
   1230   4119     1
   1231   4193     1
   1232   4193     1
   1233   1238     1
   1233   1235     1
   1233   1236     1
   1234   1238     1
   1234   1235     1
   1234   1236     1
   1235   1237     1
   1236   1237     1
   1239   1255     1
   1239   1256     1
   1239   1257     1
   1239   1258     1
   1239   1261     1
   1239   1262     1
   1240   1253     1
   1240   1254     1
   1240   1259     1
   1240   1260     1
   1241   1251     1
   1241   1252     1
   1241   1259     1
   1241   1260     1
   1242   1264     1
   1242   4268     1
   1243   1251     1
   1243   1252     1
   1243   4270     1
   1243   4272     1
   1244   1264     1
   1244   4342     1
   1245   1253     1
   1245   1254     1
   1245   4344     1
   1245   4346     1
   1246   1251     1
   1246   1252     1
   1246   1253     1
   1246   1254     1
   1246   1263     1
   1247   1264     1
   1248   1259     1
   1248   1260     1
   1249   1255     1
   1249   1256     1
   1249   4268     1
   1250   1257     1
   1250   1258     1
   1250   4342     1
   1251   1264     1
   1251   1255     1
   1251   1256     1
   1252   1264     1
   1252   1255     1
   1252   1256     1
   1253   1264     1
   1253   1257     1
   1253   1258     1
   1254   1264     1
   1254   1257     1
   1254   1258     1
   1255   4267     1
   1256   4267     1
   1257   4341     1
   1258   4341     1
   1259   1264     1
   1259   1261     1
   1259   1262     1
   1260   1264     1
   1260   1261     1
   1260   1262     1
   1261   1263     1
   1262   1263     1
   1265   1281     1
   1265   1282     1
   1265   1283     1
   1265   1284     1
   1265   1287     1
   1265   1288     1
   1266   1279     1
   1266   1280     1
   1266   1285     1
   1266   1286     1
   1267   1277     1
   1267   1278     1
   1267   1285     1
   1267   1286     1
   1268   1290     1
   1268   4416     1
   1269   1277     1
   1269   1278     1
   1269   4418     1
   1269   4420     1
   1270   1290     1
   1270   4490     1
   1271   1279     1
   1271   1280     1
   1271   4492     1
   1271   4494     1
   1272   1277     1
   1272   1278     1
   1272   1279     1
   1272   1280     1
   1272   1289     1
   1273   1290     1
   1274   1285     1
   1274   1286     1
   1275   1281     1
   1275   1282     1
   1275   4416     1
   1276   1283     1
   1276   1284     1
   1276   4490     1
   1277   1290     1
   1277   1281     1
   1277   1282     1
   1278   1290     1
   1278   1281     1
   1278   1282     1
   1279   1290     1
   1279   1283     1
   1279   1284     1
   1280   1290     1
   1280   1283     1
   1280   1284     1
   1281   4415     1
   1282   4415     1
   1283   4489     1
   1284   4489     1
   1285   1290     1
   1285   1287     1
   1285   1288     1
   1286   1290     1
   1286   1287     1
   1286   1288     1
   1287   1289     1
   1288   1289     1
   1291   1307     1
   1291   1308     1
   1291   1309     1
   1291   1310     1
   1291   1313     1
   1291   1314     1
   1292   1305     1
   1292   1306     1
   1292   1311     1
   1292   1312     1
   1293   1303     1
   1293   1304     1
   1293   1311     1
   1293   1312     1
   1294   1316     1
   1294   4564     1
   1295   1303     1
   1295   1304     1
   1295   4566     1
   1295   4568     1
   1296   1316     1
   1296   4638     1
   1297   1305     1
   1297   1306     1
   1297   4640     1
   1297   4642     1
   1298   1303     1
   1298   1304     1
   1298   1305     1
   1298   1306     1
   1298   1315     1
   1299   1316     1
   1300   1311     1
   1300   1312     1
   1301   1307     1
   1301   1308     1
   1301   4564     1
   1302   1309     1
   1302   1310     1
   1302   4638     1
   1303   1316     1
   1303   1307     1
   1303   1308     1
   1304   1316     1
   1304   1307     1
   1304   1308     1
   1305   1316     1
   1305   1309     1
   1305   1310     1
   1306   1316     1
   1306   1309     1
   1306   1310     1
   1307   4563     1
   1308   4563     1
   1309   4637     1
   1310   4637     1
   1311   1316     1
   1311   1313     1
   1311   1314     1
   1312   1316     1
   1312   1313     1
   1312   1314     1
   1313   1315     1
   1314   1315     1
   1317   1333     1
   1317   1334     1
   1317   1335     1
   1317   1336     1
   1317   1339     1
   1317   1340     1
   1318   1331     1
   1318   1332     1
   1318   1337     1
   1318   1338     1
   1319   1329     1
   1319   1330     1
   1319   1337     1
   1319   1338     1
   1320   1342     1
   1320   4712     1
   1321   1329     1
   1321   1330     1
   1321   4714     1
   1321   4716     1
   1322   1342     1
   1322   4786     1
   1323   1331     1
   1323   1332     1
   1323   4788     1
   1323   4790     1
   1324   1329     1
   1324   1330     1
   1324   1331     1
   1324   1332     1
   1324   1341     1
   1325   1342     1
   1326   1337     1
   1326   1338     1
   1327   1333     1
   1327   1334     1
   1327   4712     1
   1328   1335     1
   1328   1336     1
   1328   4786     1
   1329   1342     1
   1329   1333     1
   1329   1334     1
   1330   1342     1
   1330   1333     1
   1330   1334     1
   1331   1342     1
   1331   1335     1
   1331   1336     1
   1332   1342     1
   1332   1335     1
   1332   1336     1
   1333   4711     1
   1334   4711     1
   1335   4785     1
   1336   4785     1
   1337   1342     1
   1337   1339     1
   1337   1340     1
   1338   1342     1
   1338   1339     1
   1338   1340     1
   1339   1341     1
   1340   1341     1
   1343   1359     1
   1343   1360     1
   1343   1361     1
   1343   1362     1
   1343   1365     1
   1343   1366     1
   1344   1357     1
   1344   1358     1
   1344   1363     1
   1344   1364     1
   1345   1355     1
   1345   1356     1
   1345   1363     1
   1345   1364     1
   1346   1368     1
   1346   4860     1
   1347   1355     1
   1347   1356     1
   1347   4862     1
   1347   4864     1
   1348   1368     1
   1348   4934     1
   1349   1357     1
   1349   1358     1
   1349   4936     1
   1349   4938     1
   1350   1355     1
   1350   1356     1
   1350   1357     1
   1350   1358     1
   1350   1367     1
   1351   1368     1
   1352   1363     1
   1352   1364     1
   1353   1359     1
   1353   1360     1
   1353   4860     1
   1354   1361     1
   1354   1362     1
   1354   4934     1
   1355   1368     1
   1355   1359     1
   1355   1360     1
   1356   1368     1
   1356   1359     1
   1356   1360     1
   1357   1368     1
   1357   1361     1
   1357   1362     1
   1358   1368     1
   1358   1361     1
   1358   1362     1
   1359   4859     1
   1360   4859     1
   1361   4933     1
   1362   4933     1
   1363   1368     1
   1363   1365     1
   1363   1366     1
   1364   1368     1
   1364   1365     1
   1364   1366     1
   1365   1367     1
   1366   1367     1
   1369   1385     1
   1369   1386     1
   1369   1387     1
   1369   1388     1
   1369   1391     1
   1369   1392     1
   1370   1383     1
   1370   1384     1
   1370   1389     1
   1370   1390     1
   1371   1381     1
   1371   1382     1
   1371   1389     1
   1371   1390     1
   1372   1394     1
   1372   5008     1
   1373   1381     1
   1373   1382     1
   1373   5010     1
   1373   5012     1
   1374   1394     1
   1374   5082     1
   1375   1383     1
   1375   1384     1
   1375   5084     1
   1375   5086     1
   1376   1381     1
   1376   1382     1
   1376   1383     1
   1376   1384     1
   1376   1393     1
   1377   1394     1
   1378   1389     1
   1378   1390     1
   1379   1385     1
   1379   1386     1
   1379   5008     1
   1380   1387     1
   1380   1388     1
   1380   5082     1
   1381   1394     1
   1381   1385     1
   1381   1386     1
   1382   1394     1
   1382   1385     1
   1382   1386     1
   1383   1394     1
   1383   1387     1
   1383   1388     1
   1384   1394     1
   1384   1387     1
   1384   1388     1
   1385   5007     1
   1386   5007     1
   1387   5081     1
   1388   5081     1
   1389   1394     1
   1389   1391     1
   1389   1392     1
   1390   1394     1
   1390   1391     1
   1390   1392     1
   1391   1393     1
   1392   1393     1
   1395   1411     1
   1395   1412     1
   1395   1413     1
   1395   1414     1
   1395   1417     1
   1395   1418     1
   1396   1409     1
   1396   1410     1
   1396   1415     1
   1396   1416     1
   1397   1407     1
   1397   1408     1
   1397   1415     1
   1397   1416     1
   1398   1420     1
   1398   5156     1
   1399   1407     1
   1399   1408     1
   1399   5158     1
   1399   5160     1
   1400   1420     1
   1400   5230     1
   1401   1409     1
   1401   1410     1
   1401   5232     1
   1401   5234     1
   1402   1407     1
   1402   1408     1
   1402   1409     1
   1402   1410     1
   1402   1419     1
   1403   1420     1
   1404   1415     1
   1404   1416     1
   1405   1411     1
   1405   1412     1
   1405   5156     1
   1406   1413     1
   1406   1414     1
   1406   5230     1
   1407   1420     1
   1407   1411     1
   1407   1412     1
   1408   1420     1
   1408   1411     1
   1408   1412     1
   1409   1420     1
   1409   1413     1
   1409   1414     1
   1410   1420     1
   1410   1413     1
   1410   1414     1
   1411   5155     1
   1412   5155     1
   1413   5229     1
   1414   5229     1
   1415   1420     1
   1415   1417     1
   1415   1418     1
   1416   1420     1
   1416   1417     1
   1416   1418     1
   1417   1419     1
   1418   1419     1
   1421   1437     1
   1421   1438     1
   1421   1439     1
   1421   1440     1
   1421   1443     1
   1421   1444     1
   1422   1435     1
   1422   1436     1
   1422   1441     1
   1422   1442     1
   1423   1433     1
   1423   1434     1
   1423   1441     1
   1423   1442     1
   1424   1446     1
   1424   5304     1
   1425   1433     1
   1425   1434     1
   1425   5306     1
   1425   5308     1
   1426   1446     1
   1426   5378     1
   1427   1435     1
   1427   1436     1
   1427   5380     1
   1427   5382     1
   1428   1433     1
   1428   1434     1
   1428   1435     1
   1428   1436     1
   1428   1445     1
   1429   1446     1
   1430   1441     1
   1430   1442     1
   1431   1437     1
   1431   1438     1
   1431   5304     1
   1432   1439     1
   1432   1440     1
   1432   5378     1
   1433   1446     1
   1433   1437     1
   1433   1438     1
   1434   1446     1
   1434   1437     1
   1434   1438     1
   1435   1446     1
   1435   1439     1
   1435   1440     1
   1436   1446     1
   1436   1439     1
   1436   1440     1
   1437   5303     1
   1438   5303     1
   1439   5377     1
   1440   5377     1
   1441   1446     1
   1441   1443     1
   1441   1444     1
   1442   1446     1
   1442   1443     1
   1442   1444     1
   1443   1445     1
   1444   1445     1
   1447   1463     1
   1447   1464     1
   1447   1465     1
   1447   1466     1
   1447   1469     1
   1447   1470     1
   1448   1461     1
   1448   1462     1
   1448   1467     1
   1448   1468     1
   1449   1459     1
   1449   1460     1
   1449   1467     1
   1449   1468     1
   1450   1472     1
   1450   5452     1
   1451   1459     1
   1451   1460     1
   1451   5454     1
   1451   5456     1
   1452   1472     1
   1452   5526     1
   1453   1461     1
   1453   1462     1
   1453   5528     1
   1453   5530     1
   1454   1459     1
   1454   1460     1
   1454   1461     1
   1454   1462     1
   1454   1471     1
   1455   1472     1
   1456   1467     1
   1456   1468     1
   1457   1463     1
   1457   1464     1
   1457   5452     1
   1458   1465     1
   1458   1466     1
   1458   5526     1
   1459   1472     1
   1459   1463     1
   1459   1464     1
   1460   1472     1
   1460   1463     1
   1460   1464     1
   1461   1472     1
   1461   1465     1
   1461   1466     1
   1462   1472     1
   1462   1465     1
   1462   1466     1
   1463   5451     1
   1464   5451     1
   1465   5525     1
   1466   5525     1
   1467   1472     1
   1467   1469     1
   1467   1470     1
   1468   1472     1
   1468   1469     1
   1468   1470     1
   1469   1471     1
   1470   1471     1
   1473   1489     1
   1473   1490     1
   1473   1491     1
   1473   1492     1
   1473   1495     1
   1473   1496     1
   1474   1487     1
   1474   1488     1
   1474   1493     1
   1474   1494     1
   1475   1485     1
   1475   1486     1
   1475   1493     1
   1475   1494     1
   1476   1498     1
   1476   5600     1
   1477   1485     1
   1477   1486     1
   1477   5602     1
   1477   5604     1
   1478   1498     1
   1478   5674     1
   1479   1487     1
   1479   1488     1
   1479   5676     1
   1479   5678     1
   1480   1485     1
   1480   1486     1
   1480   1487     1
   1480   1488     1
   1480   1497     1
   1481   1498     1
   1482   1493     1
   1482   1494     1
   1483   1489     1
   1483   1490     1
   1483   5600     1
   1484   1491     1
   1484   1492     1
   1484   5674     1
   1485   1498     1
   1485   1489     1
   1485   1490     1
   1486   1498     1
   1486   1489     1
   1486   1490     1
   1487   1498     1
   1487   1491     1
   1487   1492     1
   1488   1498     1
   1488   1491     1
   1488   1492     1
   1489   5599     1
   1490   5599     1
   1491   5673     1
   1492   5673     1
   1493   1498     1
   1493   1495     1
   1493   1496     1
   1494   1498     1
   1494   1495     1
   1494   1496     1
   1495   1497     1
   1496   1497     1
   1499   1515     1
   1499   1516     1
   1499   1517     1
   1499   1518     1
   1499   1521     1
   1499   1522     1
   1500   1513     1
   1500   1514     1
   1500   1519     1
   1500   1520     1
   1501   1511     1
   1501   1512     1
   1501   1519     1
   1501   1520     1
   1502   1524     1
   1502   5748     1
   1503   1511     1
   1503   1512     1
   1503   5750     1
   1503   5752     1
   1504   1524     1
   1504   5822     1
   1505   1513     1
   1505   1514     1
   1505   5824     1
   1505   5826     1
   1506   1511     1
   1506   1512     1
   1506   1513     1
   1506   1514     1
   1506   1523     1
   1507   1524     1
   1508   1519     1
   1508   1520     1
   1509   1515     1
   1509   1516     1
   1509   5748     1
   1510   1517     1
   1510   1518     1
   1510   5822     1
   1511   1524     1
   1511   1515     1
   1511   1516     1
   1512   1524     1
   1512   1515     1
   1512   1516     1
   1513   1524     1
   1513   1517     1
   1513   1518     1
   1514   1524     1
   1514   1517     1
   1514   1518     1
   1515   5747     1
   1516   5747     1
   1517   5821     1
   1518   5821     1
   1519   1524     1
   1519   1521     1
   1519   1522     1
   1520   1524     1
   1520   1521     1
   1520   1522     1
   1521   1523     1
   1522   1523     1
   1525   1541     1
   1525   1542     1
   1525   1543     1
   1525   1544     1
   1525   1547     1
   1525   1548     1
   1526   1539     1
   1526   1540     1
   1526   1545     1
   1526   1546     1
   1527   1537     1
   1527   1538     1
   1527   1545     1
   1527   1546     1
   1528   1550     1
   1528   5896     1
   1529   1537     1
   1529   1538     1
   1529   5898     1
   1529   5900     1
   1530   1550     1
   1530   5970     1
   1531   1539     1
   1531   1540     1
   1531   5972     1
   1531   5974     1
   1532   1537     1
   1532   1538     1
   1532   1539     1
   1532   1540     1
   1532   1549     1
   1533   1550     1
   1534   1545     1
   1534   1546     1
   1535   1541     1
   1535   1542     1
   1535   5896     1
   1536   1543     1
   1536   1544     1
   1536   5970     1
   1537   1550     1
   1537   1541     1
   1537   1542     1
   1538   1550     1
   1538   1541     1
   1538   1542     1
   1539   1550     1
   1539   1543     1
   1539   1544     1
   1540   1550     1
   1540   1543     1
   1540   1544     1
   1541   5895     1
   1542   5895     1
   1543   5969     1
   1544   5969     1
   1545   1550     1
   1545   1547     1
   1545   1548     1
   1546   1550     1
   1546   1547     1
   1546   1548     1
   1547   1549     1
   1548   1549     1
   1551   1567     1
   1551   1568     1
   1551   1569     1
   1551   1570     1
   1551   1573     1
   1551   1574     1
   1552   1565     1
   1552   1566     1
   1552   1571     1
   1552   1572     1
   1553   1563     1
   1553   1564     1
   1553   1571     1
   1553   1572     1
   1554   1576     1
   1554   6044     1
   1555   1563     1
   1555   1564     1
   1555   6046     1
   1555   6048     1
   1556   1576     1
   1556   6118     1
   1557   1565     1
   1557   1566     1
   1557   6120     1
   1557   6122     1
   1558   1563     1
   1558   1564     1
   1558   1565     1
   1558   1566     1
   1558   1575     1
   1559   1576     1
   1560   1571     1
   1560   1572     1
   1561   1567     1
   1561   1568     1
   1561   6044     1
   1562   1569     1
   1562   1570     1
   1562   6118     1
   1563   1576     1
   1563   1567     1
   1563   1568     1
   1564   1576     1
   1564   1567     1
   1564   1568     1
   1565   1576     1
   1565   1569     1
   1565   1570     1
   1566   1576     1
   1566   1569     1
   1566   1570     1
   1567   6043     1
   1568   6043     1
   1569   6117     1
   1570   6117     1
   1571   1576     1
   1571   1573     1
   1571   1574     1
   1572   1576     1
   1572   1573     1
   1572   1574     1
   1573   1575     1
   1574   1575     1
   1577   1593     1
   1577   1594     1
   1577   1595     1
   1577   1596     1
   1577   1599     1
   1577   1600     1
   1578   1591     1
   1578   1592     1
   1578   1597     1
   1578   1598     1
   1579   1589     1
   1579   1590     1
   1579   1597     1
   1579   1598     1
   1580   1602     1
   1580   6192     1
   1581   1589     1
   1581   1590     1
   1581   6194     1
   1581   6196     1
   1582   1602     1
   1582   6266     1
   1583   1591     1
   1583   1592     1
   1583   6268     1
   1583   6270     1
   1584   1589     1
   1584   1590     1
   1584   1591     1
   1584   1592     1
   1584   1601     1
   1585   1602     1
   1586   1597     1
   1586   1598     1
   1587   1593     1
   1587   1594     1
   1587   6192     1
   1588   1595     1
   1588   1596     1
   1588   6266     1
   1589   1602     1
   1589   1593     1
   1589   1594     1
   1590   1602     1
   1590   1593     1
   1590   1594     1
   1591   1602     1
   1591   1595     1
   1591   1596     1
   1592   1602     1
   1592   1595     1
   1592   1596     1
   1593   6191     1
   1594   6191     1
   1595   6265     1
   1596   6265     1
   1597   1602     1
   1597   1599     1
   1597   1600     1
   1598   1602     1
   1598   1599     1
   1598   1600     1
   1599   1601     1
   1600   1601     1
   1603   1609     1
   1603   1610     1
   1604   1607     1
   1604   1606     1
   1604   1608     1
   1605   1676     1
   1606   1611     1
   1606   1609     1
   1606   1610     1
   1607   1621     1
   1607   1622     1
   1607   1614     1
   1607   1616     1
   1608   1611     1
   1608   1609     1
   1608   1610     1
   1609   1612     1
   1609   1613     1
   1609   1676     1
   1610   1612     1
   1610   1613     1
   1610   1676     1
   1611   1624     1
   1611   1625     1
   1611   1617     1
   1611   1618     1
   1612   1614     1
   1612   1616     1
   1613   1621     1
   1613   1622     1
   1614   1676     1
   1614   1619     1
   1614   1617     1
   1614   1618     1
   1615   1676     1
   1615   1641     1
   1616   1676     1
   1616   1619     1
   1616   1617     1
   1616   1618     1
   1617   1620     1
   1617   1651     1
   1618   1620     1
   1618   1651     1
   1619   1634     1
   1620   1641     1
   1621   1676     1
   1621   1626     1
   1621   1624     1
   1621   1625     1
   1622   1676     1
   1622   1626     1
   1622   1624     1
   1622   1625     1
   1623   1676     1
   1623   1665     1
   1624   1627     1
   1624   1675     1
   1625   1627     1
   1625   1675     1
   1626   1658     1
   1627   1665     1
   1628   1635     1
   1628   1650     1
   1628   1645     1
   1628   1636     1
   1629   1642     1
   1629   1643     1
   1629   1634     1
   1629   1640     1
   1630   1631     1
   1630   1649     1
   1630   1648     1
   1630   1644     1
   1630   1642     1
   1630   1643     1
   1630   1633     1
   1631   1650     1
   1631   1636     1
   1631   1641     1
   1632   1648     1
   1632   1640     1
   1632   1647     1
   1633   1635     1
   1633   1641     1
   1634   1638     1
   1634   1635     1
   1634   1637     1
   1634   1646     1
   1634   1636     1
   1634   1641     1
   1635   1649     1
   1635   1648     1
   1635   1651     1
   1635   1640     1
   1636   1651     1
   1636   1647     1
   1638   1648     1
   1639   1648     1
   1642   1646     1
   1642   1645     1
   1643   1646     1
   1643   1645     1
   1646   1648     1
   1646   1647     1
   1648   1650     1
   1652   1659     1
   1652   1674     1
   1652   1669     1
   1652   1660     1
   1653   1666     1
   1653   1667     1
   1653   1658     1
   1653   1664     1
   1654   1655     1
   1654   1673     1
   1654   1672     1
   1654   1668     1
   1654   1666     1
   1654   1667     1
   1654   1657     1
   1655   1674     1
   1655   1660     1
   1655   1665     1
   1656   1672     1
   1656   1664     1
   1656   1671     1
   1657   1659     1
   1657   1665     1
   1658   1662     1
   1658   1659     1
   1658   1661     1
   1658   1670     1
   1658   1660     1
   1658   1665     1
   1659   1673     1
   1659   1672     1
   1659   1675     1
   1659   1664     1
   1660   1675     1
   1660   1671     1
   1662   1672     1
   1663   1672     1
   1666   1670     1
   1666   1669     1
   1667   1670     1
   1667   1669     1
   1670   1672     1
   1670   1671     1
   1672   1674     1
   1677   1683     1
   1677   1684     1
   1678   1681     1
   1678   1680     1
   1678   1682     1
   1679   1750     1
   1680   1685     1
   1680   1683     1
   1680   1684     1
   1681   1695     1
   1681   1696     1
   1681   1688     1
   1681   1690     1
   1682   1685     1
   1682   1683     1
   1682   1684     1
   1683   1686     1
   1683   1687     1
   1683   1750     1
   1684   1686     1
   1684   1687     1
   1684   1750     1
   1685   1698     1
   1685   1699     1
   1685   1691     1
   1685   1692     1
   1686   1688     1
   1686   1690     1
   1687   1695     1
   1687   1696     1
   1688   1693     1
   1688   1691     1
   1688   1692     1
   1688   1750     1
   1689   1715     1
   1689   1750     1
   1690   1693     1
   1690   1691     1
   1690   1692     1
   1690   1750     1
   1691   1694     1
   1691   1725     1
   1692   1694     1
   1692   1725     1
   1693   1708     1
   1694   1715     1
   1695   1700     1
   1695   1698     1
   1695   1699     1
   1695   1750     1
   1696   1700     1
   1696   1698     1
   1696   1699     1
   1696   1750     1
   1697   1739     1
   1697   1750     1
   1698   1701     1
   1698   1749     1
   1699   1701     1
   1699   1749     1
   1700   1732     1
   1701   1739     1
   1702   1709     1
   1702   1724     1
   1702   1719     1
   1702   1710     1
   1703   1708     1
   1703   1714     1
   1703   1716     1
   1703   1717     1
   1704   1705     1
   1704   1723     1
   1704   1722     1
   1704   1718     1
   1704   1716     1
   1704   1717     1
   1704   1707     1
   1705   1710     1
   1705   1715     1
   1705   1724     1
   1706   1721     1
   1706   1714     1
   1706   1722     1
   1707   1715     1
   1707   1709     1
   1708   1711     1
   1708   1720     1
   1708   1710     1
   1708   1715     1
   1708   1712     1
   1708   1709     1
   1709   1725     1
   1709   1714     1
   1709   1723     1
   1709   1722     1
   1710   1721     1
   1710   1725     1
   1712   1722     1
   1713   1722     1
   1716   1719     1
   1716   1720     1
   1717   1719     1
   1717   1720     1
   1720   1721     1
   1720   1722     1
   1722   1724     1
   1726   1733     1
   1726   1748     1
   1726   1743     1
   1726   1734     1
   1727   1732     1
   1727   1738     1
   1727   1740     1
   1727   1741     1
   1728   1729     1
   1728   1747     1
   1728   1746     1
   1728   1742     1
   1728   1740     1
   1728   1741     1
   1728   1731     1
   1729   1734     1
   1729   1739     1
   1729   1748     1
   1730   1745     1
   1730   1738     1
   1730   1746     1
   1731   1739     1
   1731   1733     1
   1732   1735     1
   1732   1744     1
   1732   1734     1
   1732   1739     1
   1732   1736     1
   1732   1733     1
   1733   1749     1
   1733   1738     1
   1733   1747     1
   1733   1746     1
   1734   1745     1
   1734   1749     1
   1736   1746     1
   1737   1746     1
   1740   1743     1
   1740   1744     1
   1741   1743     1
   1741   1744     1
   1744   1745     1
   1744   1746     1
   1746   1748     1
   1751   1757     1
   1751   1758     1
   1752   1755     1
   1752   1754     1
   1752   1756     1
   1753   1824     1
   1754   1759     1
   1754   1757     1
   1754   1758     1
   1755   1769     1
   1755   1770     1
   1755   1762     1
   1755   1764     1
   1756   1759     1
   1756   1757     1
   1756   1758     1
   1757   1760     1
   1757   1761     1
   1757   1824     1
   1758   1760     1
   1758   1761     1
   1758   1824     1
   1759   1772     1
   1759   1773     1
   1759   1765     1
   1759   1766     1
   1760   1762     1
   1760   1764     1
   1761   1769     1
   1761   1770     1
   1762   1824     1
   1762   1767     1
   1762   1765     1
   1762   1766     1
   1763   1824     1
   1763   1789     1
   1764   1824     1
   1764   1767     1
   1764   1765     1
   1764   1766     1
   1765   1768     1
   1765   1799     1
   1766   1768     1
   1766   1799     1
   1767   1782     1
   1768   1789     1
   1769   1824     1
   1769   1774     1
   1769   1772     1
   1769   1773     1
   1770   1824     1
   1770   1774     1
   1770   1772     1
   1770   1773     1
   1771   1824     1
   1771   1813     1
   1772   1775     1
   1772   1823     1
   1773   1775     1
   1773   1823     1
   1774   1806     1
   1775   1813     1
   1776   1783     1
   1776   1798     1
   1776   1793     1
   1776   1784     1
   1777   1790     1
   1777   1791     1
   1777   1782     1
   1777   1788     1
   1778   1779     1
   1778   1797     1
   1778   1796     1
   1778   1792     1
   1778   1790     1
   1778   1791     1
   1778   1781     1
   1779   1798     1
   1779   1784     1
   1779   1789     1
   1780   1796     1
   1780   1788     1
   1780   1795     1
   1781   1783     1
   1781   1789     1
   1782   1786     1
   1782   1783     1
   1782   1785     1
   1782   1794     1
   1782   1784     1
   1782   1789     1
   1783   1797     1
   1783   1796     1
   1783   1799     1
   1783   1788     1
   1784   1799     1
   1784   1795     1
   1786   1796     1
   1787   1796     1
   1790   1794     1
   1790   1793     1
   1791   1794     1
   1791   1793     1
   1794   1796     1
   1794   1795     1
   1796   1798     1
   1800   1807     1
   1800   1822     1
   1800   1817     1
   1800   1808     1
   1801   1814     1
   1801   1815     1
   1801   1806     1
   1801   1812     1
   1802   1803     1
   1802   1821     1
   1802   1820     1
   1802   1816     1
   1802   1814     1
   1802   1815     1
   1802   1805     1
   1803   1822     1
   1803   1808     1
   1803   1813     1
   1804   1820     1
   1804   1812     1
   1804   1819     1
   1805   1807     1
   1805   1813     1
   1806   1810     1
   1806   1807     1
   1806   1809     1
   1806   1818     1
   1806   1808     1
   1806   1813     1
   1807   1821     1
   1807   1820     1
   1807   1823     1
   1807   1812     1
   1808   1823     1
   1808   1819     1
   1810   1820     1
   1811   1820     1
   1814   1818     1
   1814   1817     1
   1815   1818     1
   1815   1817     1
   1818   1820     1
   1818   1819     1
   1820   1822     1
   1825   1831     1
   1825   1832     1
   1826   1829     1
   1826   1828     1
   1826   1830     1
   1827   1898     1
   1828   1833     1
   1828   1831     1
   1828   1832     1
   1829   1843     1
   1829   1844     1
   1829   1836     1
   1829   1838     1
   1830   1833     1
   1830   1831     1
   1830   1832     1
   1831   1834     1
   1831   1835     1
   1831   1898     1
   1832   1834     1
   1832   1835     1
   1832   1898     1
   1833   1846     1
   1833   1847     1
   1833   1839     1
   1833   1840     1
   1834   1836     1
   1834   1838     1
   1835   1843     1
   1835   1844     1
   1836   1841     1
   1836   1839     1
   1836   1840     1
   1836   1898     1
   1837   1863     1
   1837   1898     1
   1838   1841     1
   1838   1839     1
   1838   1840     1
   1838   1898     1
   1839   1842     1
   1839   1873     1
   1840   1842     1
   1840   1873     1
   1841   1856     1
   1842   1863     1
   1843   1848     1
   1843   1846     1
   1843   1847     1
   1843   1898     1
   1844   1848     1
   1844   1846     1
   1844   1847     1
   1844   1898     1
   1845   1887     1
   1845   1898     1
   1846   1849     1
   1846   1897     1
   1847   1849     1
   1847   1897     1
   1848   1880     1
   1849   1887     1
   1850   1857     1
   1850   1872     1
   1850   1867     1
   1850   1858     1
   1851   1856     1
   1851   1862     1
   1851   1864     1
   1851   1865     1
   1852   1853     1
   1852   1871     1
   1852   1870     1
   1852   1866     1
   1852   1864     1
   1852   1865     1
   1852   1855     1
   1853   1858     1
   1853   1863     1
   1853   1872     1
   1854   1869     1
   1854   1862     1
   1854   1870     1
   1855   1863     1
   1855   1857     1
   1856   1859     1
   1856   1868     1
   1856   1858     1
   1856   1863     1
   1856   1860     1
   1856   1857     1
   1857   1873     1
   1857   1862     1
   1857   1871     1
   1857   1870     1
   1858   1869     1
   1858   1873     1
   1860   1870     1
   1861   1870     1
   1864   1867     1
   1864   1868     1
   1865   1867     1
   1865   1868     1
   1868   1869     1
   1868   1870     1
   1870   1872     1
   1874   1881     1
   1874   1896     1
   1874   1891     1
   1874   1882     1
   1875   1880     1
   1875   1886     1
   1875   1888     1
   1875   1889     1
   1876   1877     1
   1876   1895     1
   1876   1894     1
   1876   1890     1
   1876   1888     1
   1876   1889     1
   1876   1879     1
   1877   1882     1
   1877   1887     1
   1877   1896     1
   1878   1893     1
   1878   1886     1
   1878   1894     1
   1879   1887     1
   1879   1881     1
   1880   1883     1
   1880   1892     1
   1880   1882     1
   1880   1887     1
   1880   1884     1
   1880   1881     1
   1881   1897     1
   1881   1886     1
   1881   1895     1
   1881   1894     1
   1882   1893     1
   1882   1897     1
   1884   1894     1
   1885   1894     1
   1888   1891     1
   1888   1892     1
   1889   1891     1
   1889   1892     1
   1892   1893     1
   1892   1894     1
   1894   1896     1
   1899   1905     1
   1899   1906     1
   1900   1903     1
   1900   1902     1
   1900   1904     1
   1901   1972     1
   1902   1907     1
   1902   1905     1
   1902   1906     1
   1903   1917     1
   1903   1918     1
   1903   1910     1
   1903   1912     1
   1904   1907     1
   1904   1905     1
   1904   1906     1
   1905   1908     1
   1905   1909     1
   1905   1972     1
   1906   1908     1
   1906   1909     1
   1906   1972     1
   1907   1920     1
   1907   1921     1
   1907   1913     1
   1907   1914     1
   1908   1910     1
   1908   1912     1
   1909   1917     1
   1909   1918     1
   1910   1972     1
   1910   1915     1
   1910   1913     1
   1910   1914     1
   1911   1972     1
   1911   1937     1
   1912   1972     1
   1912   1915     1
   1912   1913     1
   1912   1914     1
   1913   1916     1
   1913   1947     1
   1914   1916     1
   1914   1947     1
   1915   1930     1
   1916   1937     1
   1917   1972     1
   1917   1922     1
   1917   1920     1
   1917   1921     1
   1918   1972     1
   1918   1922     1
   1918   1920     1
   1918   1921     1
   1919   1972     1
   1919   1961     1
   1920   1923     1
   1920   1971     1
   1921   1923     1
   1921   1971     1
   1922   1954     1
   1923   1961     1
   1924   1931     1
   1924   1946     1
   1924   1941     1
   1924   1932     1
   1925   1938     1
   1925   1939     1
   1925   1930     1
   1925   1936     1
   1926   1927     1
   1926   1945     1
   1926   1944     1
   1926   1940     1
   1926   1938     1
   1926   1939     1
   1926   1929     1
   1927   1946     1
   1927   1932     1
   1927   1937     1
   1928   1944     1
   1928   1936     1
   1928   1943     1
   1929   1931     1
   1929   1937     1
   1930   1934     1
   1930   1931     1
   1930   1933     1
   1930   1942     1
   1930   1932     1
   1930   1937     1
   1931   1945     1
   1931   1944     1
   1931   1947     1
   1931   1936     1
   1932   1947     1
   1932   1943     1
   1934   1944     1
   1935   1944     1
   1938   1942     1
   1938   1941     1
   1939   1942     1
   1939   1941     1
   1942   1944     1
   1942   1943     1
   1944   1946     1
   1948   1955     1
   1948   1970     1
   1948   1965     1
   1948   1956     1
   1949   1962     1
   1949   1963     1
   1949   1954     1
   1949   1960     1
   1950   1951     1
   1950   1969     1
   1950   1968     1
   1950   1964     1
   1950   1962     1
   1950   1963     1
   1950   1953     1
   1951   1970     1
   1951   1956     1
   1951   1961     1
   1952   1968     1
   1952   1960     1
   1952   1967     1
   1953   1955     1
   1953   1961     1
   1954   1958     1
   1954   1955     1
   1954   1957     1
   1954   1966     1
   1954   1956     1
   1954   1961     1
   1955   1969     1
   1955   1968     1
   1955   1971     1
   1955   1960     1
   1956   1971     1
   1956   1967     1
   1958   1968     1
   1959   1968     1
   1962   1966     1
   1962   1965     1
   1963   1966     1
   1963   1965     1
   1966   1968     1
   1966   1967     1
   1968   1970     1
   1973   1979     1
   1973   1980     1
   1974   1977     1
   1974   1976     1
   1974   1978     1
   1975   2046     1
   1976   1981     1
   1976   1979     1
   1976   1980     1
   1977   1991     1
   1977   1992     1
   1977   1984     1
   1977   1986     1
   1978   1981     1
   1978   1979     1
   1978   1980     1
   1979   1982     1
   1979   1983     1
   1979   2046     1
   1980   1982     1
   1980   1983     1
   1980   2046     1
   1981   1994     1
   1981   1995     1
   1981   1987     1
   1981   1988     1
   1982   1984     1
   1982   1986     1
   1983   1991     1
   1983   1992     1
   1984   1989     1
   1984   1987     1
   1984   1988     1
   1984   2046     1
   1985   2011     1
   1985   2046     1
   1986   1989     1
   1986   1987     1
   1986   1988     1
   1986   2046     1
   1987   1990     1
   1987   2021     1
   1988   1990     1
   1988   2021     1
   1989   2004     1
   1990   2011     1
   1991   1996     1
   1991   1994     1
   1991   1995     1
   1991   2046     1
   1992   1996     1
   1992   1994     1
   1992   1995     1
   1992   2046     1
   1993   2035     1
   1993   2046     1
   1994   1997     1
   1994   2045     1
   1995   1997     1
   1995   2045     1
   1996   2028     1
   1997   2035     1
   1998   2005     1
   1998   2020     1
   1998   2015     1
   1998   2006     1
   1999   2004     1
   1999   2010     1
   1999   2012     1
   1999   2013     1
   2000   2001     1
   2000   2019     1
   2000   2018     1
   2000   2014     1
   2000   2012     1
   2000   2013     1
   2000   2003     1
   2001   2006     1
   2001   2011     1
   2001   2020     1
   2002   2017     1
   2002   2010     1
   2002   2018     1
   2003   2011     1
   2003   2005     1
   2004   2007     1
   2004   2016     1
   2004   2006     1
   2004   2011     1
   2004   2008     1
   2004   2005     1
   2005   2021     1
   2005   2010     1
   2005   2019     1
   2005   2018     1
   2006   2017     1
   2006   2021     1
   2008   2018     1
   2009   2018     1
   2012   2015     1
   2012   2016     1
   2013   2015     1
   2013   2016     1
   2016   2017     1
   2016   2018     1
   2018   2020     1
   2022   2029     1
   2022   2044     1
   2022   2039     1
   2022   2030     1
   2023   2028     1
   2023   2034     1
   2023   2036     1
   2023   2037     1
   2024   2025     1
   2024   2043     1
   2024   2042     1
   2024   2038     1
   2024   2036     1
   2024   2037     1
   2024   2027     1
   2025   2030     1
   2025   2035     1
   2025   2044     1
   2026   2041     1
   2026   2034     1
   2026   2042     1
   2027   2035     1
   2027   2029     1
   2028   2031     1
   2028   2040     1
   2028   2030     1
   2028   2035     1
   2028   2032     1
   2028   2029     1
   2029   2045     1
   2029   2034     1
   2029   2043     1
   2029   2042     1
   2030   2041     1
   2030   2045     1
   2032   2042     1
   2033   2042     1
   2036   2039     1
   2036   2040     1
   2037   2039     1
   2037   2040     1
   2040   2041     1
   2040   2042     1
   2042   2044     1
   2047   2053     1
   2047   2054     1
   2048   2051     1
   2048   2050     1
   2048   2052     1
   2049   2120     1
   2050   2055     1
   2050   2053     1
   2050   2054     1
   2051   2065     1
   2051   2066     1
   2051   2058     1
   2051   2060     1
   2052   2055     1
   2052   2053     1
   2052   2054     1
   2053   2056     1
   2053   2057     1
   2053   2120     1
   2054   2056     1
   2054   2057     1
   2054   2120     1
   2055   2068     1
   2055   2069     1
   2055   2061     1
   2055   2062     1
   2056   2058     1
   2056   2060     1
   2057   2065     1
   2057   2066     1
   2058   2120     1
   2058   2063     1
   2058   2061     1
   2058   2062     1
   2059   2120     1
   2059   2085     1
   2060   2120     1
   2060   2063     1
   2060   2061     1
   2060   2062     1
   2061   2064     1
   2061   2095     1
   2062   2064     1
   2062   2095     1
   2063   2078     1
   2064   2085     1
   2065   2120     1
   2065   2070     1
   2065   2068     1
   2065   2069     1
   2066   2120     1
   2066   2070     1
   2066   2068     1
   2066   2069     1
   2067   2120     1
   2067   2109     1
   2068   2071     1
   2068   2119     1
   2069   2071     1
   2069   2119     1
   2070   2102     1
   2071   2109     1
   2072   2079     1
   2072   2094     1
   2072   2089     1
   2072   2080     1
   2073   2086     1
   2073   2087     1
   2073   2078     1
   2073   2084     1
   2074   2075     1
   2074   2093     1
   2074   2092     1
   2074   2088     1
   2074   2086     1
   2074   2087     1
   2074   2077     1
   2075   2094     1
   2075   2080     1
   2075   2085     1
   2076   2092     1
   2076   2084     1
   2076   2091     1
   2077   2079     1
   2077   2085     1
   2078   2082     1
   2078   2079     1
   2078   2081     1
   2078   2090     1
   2078   2080     1
   2078   2085     1
   2079   2093     1
   2079   2092     1
   2079   2095     1
   2079   2084     1
   2080   2095     1
   2080   2091     1
   2082   2092     1
   2083   2092     1
   2086   2090     1
   2086   2089     1
   2087   2090     1
   2087   2089     1
   2090   2092     1
   2090   2091     1
   2092   2094     1
   2096   2103     1
   2096   2118     1
   2096   2113     1
   2096   2104     1
   2097   2110     1
   2097   2111     1
   2097   2102     1
   2097   2108     1
   2098   2099     1
   2098   2117     1
   2098   2116     1
   2098   2112     1
   2098   2110     1
   2098   2111     1
   2098   2101     1
   2099   2118     1
   2099   2104     1
   2099   2109     1
   2100   2116     1
   2100   2108     1
   2100   2115     1
   2101   2103     1
   2101   2109     1
   2102   2106     1
   2102   2103     1
   2102   2105     1
   2102   2114     1
   2102   2104     1
   2102   2109     1
   2103   2117     1
   2103   2116     1
   2103   2119     1
   2103   2108     1
   2104   2119     1
   2104   2115     1
   2106   2116     1
   2107   2116     1
   2110   2114     1
   2110   2113     1
   2111   2114     1
   2111   2113     1
   2114   2116     1
   2114   2115     1
   2116   2118     1
   2121   2127     1
   2121   2128     1
   2122   2125     1
   2122   2124     1
   2122   2126     1
   2123   2194     1
   2124   2129     1
   2124   2127     1
   2124   2128     1
   2125   2139     1
   2125   2140     1
   2125   2132     1
   2125   2134     1
   2126   2129     1
   2126   2127     1
   2126   2128     1
   2127   2130     1
   2127   2131     1
   2127   2194     1
   2128   2130     1
   2128   2131     1
   2128   2194     1
   2129   2142     1
   2129   2143     1
   2129   2135     1
   2129   2136     1
   2130   2132     1
   2130   2134     1
   2131   2139     1
   2131   2140     1
   2132   2137     1
   2132   2135     1
   2132   2136     1
   2132   2194     1
   2133   2159     1
   2133   2194     1
   2134   2137     1
   2134   2135     1
   2134   2136     1
   2134   2194     1
   2135   2138     1
   2135   2169     1
   2136   2138     1
   2136   2169     1
   2137   2152     1
   2138   2159     1
   2139   2144     1
   2139   2142     1
   2139   2143     1
   2139   2194     1
   2140   2144     1
   2140   2142     1
   2140   2143     1
   2140   2194     1
   2141   2183     1
   2141   2194     1
   2142   2145     1
   2142   2193     1
   2143   2145     1
   2143   2193     1
   2144   2176     1
   2145   2183     1
   2146   2153     1
   2146   2168     1
   2146   2163     1
   2146   2154     1
   2147   2152     1
   2147   2158     1
   2147   2160     1
   2147   2161     1
   2148   2149     1
   2148   2167     1
   2148   2166     1
   2148   2162     1
   2148   2160     1
   2148   2161     1
   2148   2151     1
   2149   2154     1
   2149   2159     1
   2149   2168     1
   2150   2165     1
   2150   2158     1
   2150   2166     1
   2151   2159     1
   2151   2153     1
   2152   2155     1
   2152   2164     1
   2152   2154     1
   2152   2159     1
   2152   2156     1
   2152   2153     1
   2153   2169     1
   2153   2158     1
   2153   2167     1
   2153   2166     1
   2154   2165     1
   2154   2169     1
   2156   2166     1
   2157   2166     1
   2160   2163     1
   2160   2164     1
   2161   2163     1
   2161   2164     1
   2164   2165     1
   2164   2166     1
   2166   2168     1
   2170   2177     1
   2170   2192     1
   2170   2187     1
   2170   2178     1
   2171   2176     1
   2171   2182     1
   2171   2184     1
   2171   2185     1
   2172   2173     1
   2172   2191     1
   2172   2190     1
   2172   2186     1
   2172   2184     1
   2172   2185     1
   2172   2175     1
   2173   2178     1
   2173   2183     1
   2173   2192     1
   2174   2189     1
   2174   2182     1
   2174   2190     1
   2175   2183     1
   2175   2177     1
   2176   2179     1
   2176   2188     1
   2176   2178     1
   2176   2183     1
   2176   2180     1
   2176   2177     1
   2177   2193     1
   2177   2182     1
   2177   2191     1
   2177   2190     1
   2178   2189     1
   2178   2193     1
   2180   2190     1
   2181   2190     1
   2184   2187     1
   2184   2188     1
   2185   2187     1
   2185   2188     1
   2188   2189     1
   2188   2190     1
   2190   2192     1
   2195   2201     1
   2195   2202     1
   2196   2199     1
   2196   2198     1
   2196   2200     1
   2197   2268     1
   2198   2203     1
   2198   2201     1
   2198   2202     1
   2199   2213     1
   2199   2214     1
   2199   2206     1
   2199   2208     1
   2200   2203     1
   2200   2201     1
   2200   2202     1
   2201   2204     1
   2201   2205     1
   2201   2268     1
   2202   2204     1
   2202   2205     1
   2202   2268     1
   2203   2216     1
   2203   2217     1
   2203   2209     1
   2203   2210     1
   2204   2206     1
   2204   2208     1
   2205   2213     1
   2205   2214     1
   2206   2268     1
   2206   2211     1
   2206   2209     1
   2206   2210     1
   2207   2268     1
   2207   2233     1
   2208   2268     1
   2208   2211     1
   2208   2209     1
   2208   2210     1
   2209   2212     1
   2209   2243     1
   2210   2212     1
   2210   2243     1
   2211   2226     1
   2212   2233     1
   2213   2268     1
   2213   2218     1
   2213   2216     1
   2213   2217     1
   2214   2268     1
   2214   2218     1
   2214   2216     1
   2214   2217     1
   2215   2268     1
   2215   2257     1
   2216   2219     1
   2216   2267     1
   2217   2219     1
   2217   2267     1
   2218   2250     1
   2219   2257     1
   2220   2227     1
   2220   2242     1
   2220   2237     1
   2220   2228     1
   2221   2234     1
   2221   2235     1
   2221   2226     1
   2221   2232     1
   2222   2223     1
   2222   2241     1
   2222   2240     1
   2222   2236     1
   2222   2234     1
   2222   2235     1
   2222   2225     1
   2223   2242     1
   2223   2228     1
   2223   2233     1
   2224   2240     1
   2224   2232     1
   2224   2239     1
   2225   2227     1
   2225   2233     1
   2226   2230     1
   2226   2227     1
   2226   2229     1
   2226   2238     1
   2226   2228     1
   2226   2233     1
   2227   2241     1
   2227   2240     1
   2227   2243     1
   2227   2232     1
   2228   2243     1
   2228   2239     1
   2230   2240     1
   2231   2240     1
   2234   2238     1
   2234   2237     1
   2235   2238     1
   2235   2237     1
   2238   2240     1
   2238   2239     1
   2240   2242     1
   2244   2251     1
   2244   2266     1
   2244   2261     1
   2244   2252     1
   2245   2258     1
   2245   2259     1
   2245   2250     1
   2245   2256     1
   2246   2247     1
   2246   2265     1
   2246   2264     1
   2246   2260     1
   2246   2258     1
   2246   2259     1
   2246   2249     1
   2247   2266     1
   2247   2252     1
   2247   2257     1
   2248   2264     1
   2248   2256     1
   2248   2263     1
   2249   2251     1
   2249   2257     1
   2250   2254     1
   2250   2251     1
   2250   2253     1
   2250   2262     1
   2250   2252     1
   2250   2257     1
   2251   2265     1
   2251   2264     1
   2251   2267     1
   2251   2256     1
   2252   2267     1
   2252   2263     1
   2254   2264     1
   2255   2264     1
   2258   2262     1
   2258   2261     1
   2259   2262     1
   2259   2261     1
   2262   2264     1
   2262   2263     1
   2264   2266     1
   2269   2275     1
   2269   2276     1
   2270   2273     1
   2270   2272     1
   2270   2274     1
   2271   2342     1
   2272   2277     1
   2272   2275     1
   2272   2276     1
   2273   2287     1
   2273   2288     1
   2273   2280     1
   2273   2282     1
   2274   2277     1
   2274   2275     1
   2274   2276     1
   2275   2278     1
   2275   2279     1
   2275   2342     1
   2276   2278     1
   2276   2279     1
   2276   2342     1
   2277   2290     1
   2277   2291     1
   2277   2283     1
   2277   2284     1
   2278   2280     1
   2278   2282     1
   2279   2287     1
   2279   2288     1
   2280   2285     1
   2280   2283     1
   2280   2284     1
   2280   2342     1
   2281   2307     1
   2281   2342     1
   2282   2285     1
   2282   2283     1
   2282   2284     1
   2282   2342     1
   2283   2286     1
   2283   2317     1
   2284   2286     1
   2284   2317     1
   2285   2300     1
   2286   2307     1
   2287   2292     1
   2287   2290     1
   2287   2291     1
   2287   2342     1
   2288   2292     1
   2288   2290     1
   2288   2291     1
   2288   2342     1
   2289   2331     1
   2289   2342     1
   2290   2293     1
   2290   2341     1
   2291   2293     1
   2291   2341     1
   2292   2324     1
   2293   2331     1
   2294   2301     1
   2294   2316     1
   2294   2311     1
   2294   2302     1
   2295   2300     1
   2295   2306     1
   2295   2308     1
   2295   2309     1
   2296   2297     1
   2296   2315     1
   2296   2314     1
   2296   2310     1
   2296   2308     1
   2296   2309     1
   2296   2299     1
   2297   2302     1
   2297   2307     1
   2297   2316     1
   2298   2313     1
   2298   2306     1
   2298   2314     1
   2299   2307     1
   2299   2301     1
   2300   2303     1
   2300   2312     1
   2300   2302     1
   2300   2307     1
   2300   2304     1
   2300   2301     1
   2301   2317     1
   2301   2306     1
   2301   2315     1
   2301   2314     1
   2302   2313     1
   2302   2317     1
   2304   2314     1
   2305   2314     1
   2308   2311     1
   2308   2312     1
   2309   2311     1
   2309   2312     1
   2312   2313     1
   2312   2314     1
   2314   2316     1
   2318   2325     1
   2318   2340     1
   2318   2335     1
   2318   2326     1
   2319   2324     1
   2319   2330     1
   2319   2332     1
   2319   2333     1
   2320   2321     1
   2320   2339     1
   2320   2338     1
   2320   2334     1
   2320   2332     1
   2320   2333     1
   2320   2323     1
   2321   2326     1
   2321   2331     1
   2321   2340     1
   2322   2337     1
   2322   2330     1
   2322   2338     1
   2323   2331     1
   2323   2325     1
   2324   2327     1
   2324   2336     1
   2324   2326     1
   2324   2331     1
   2324   2328     1
   2324   2325     1
   2325   2341     1
   2325   2330     1
   2325   2339     1
   2325   2338     1
   2326   2337     1
   2326   2341     1
   2328   2338     1
   2329   2338     1
   2332   2335     1
   2332   2336     1
   2333   2335     1
   2333   2336     1
   2336   2337     1
   2336   2338     1
   2338   2340     1
   2343   2349     1
   2343   2350     1
   2344   2347     1
   2344   2346     1
   2344   2348     1
   2345   2416     1
   2346   2351     1
   2346   2349     1
   2346   2350     1
   2347   2361     1
   2347   2362     1
   2347   2354     1
   2347   2356     1
   2348   2351     1
   2348   2349     1
   2348   2350     1
   2349   2352     1
   2349   2353     1
   2349   2416     1
   2350   2352     1
   2350   2353     1
   2350   2416     1
   2351   2364     1
   2351   2365     1
   2351   2357     1
   2351   2358     1
   2352   2354     1
   2352   2356     1
   2353   2361     1
   2353   2362     1
   2354   2416     1
   2354   2359     1
   2354   2357     1
   2354   2358     1
   2355   2416     1
   2355   2381     1
   2356   2416     1
   2356   2359     1
   2356   2357     1
   2356   2358     1
   2357   2360     1
   2357   2391     1
   2358   2360     1
   2358   2391     1
   2359   2374     1
   2360   2381     1
   2361   2416     1
   2361   2366     1
   2361   2364     1
   2361   2365     1
   2362   2416     1
   2362   2366     1
   2362   2364     1
   2362   2365     1
   2363   2416     1
   2363   2405     1
   2364   2367     1
   2364   2415     1
   2365   2367     1
   2365   2415     1
   2366   2398     1
   2367   2405     1
   2368   2375     1
   2368   2390     1
   2368   2385     1
   2368   2376     1
   2369   2382     1
   2369   2383     1
   2369   2374     1
   2369   2380     1
   2370   2371     1
   2370   2389     1
   2370   2388     1
   2370   2384     1
   2370   2382     1
   2370   2383     1
   2370   2373     1
   2371   2390     1
   2371   2376     1
   2371   2381     1
   2372   2388     1
   2372   2380     1
   2372   2387     1
   2373   2375     1
   2373   2381     1
   2374   2378     1
   2374   2375     1
   2374   2377     1
   2374   2386     1
   2374   2376     1
   2374   2381     1
   2375   2389     1
   2375   2388     1
   2375   2391     1
   2375   2380     1
   2376   2391     1
   2376   2387     1
   2378   2388     1
   2379   2388     1
   2382   2386     1
   2382   2385     1
   2383   2386     1
   2383   2385     1
   2386   2388     1
   2386   2387     1
   2388   2390     1
   2392   2399     1
   2392   2414     1
   2392   2409     1
   2392   2400     1
   2393   2406     1
   2393   2407     1
   2393   2398     1
   2393   2404     1
   2394   2395     1
   2394   2413     1
   2394   2412     1
   2394   2408     1
   2394   2406     1
   2394   2407     1
   2394   2397     1
   2395   2414     1
   2395   2400     1
   2395   2405     1
   2396   2412     1
   2396   2404     1
   2396   2411     1
   2397   2399     1
   2397   2405     1
   2398   2402     1
   2398   2399     1
   2398   2401     1
   2398   2410     1
   2398   2400     1
   2398   2405     1
   2399   2413     1
   2399   2412     1
   2399   2415     1
   2399   2404     1
   2400   2415     1
   2400   2411     1
   2402   2412     1
   2403   2412     1
   2406   2410     1
   2406   2409     1
   2407   2410     1
   2407   2409     1
   2410   2412     1
   2410   2411     1
   2412   2414     1
   2417   2423     1
   2417   2424     1
   2418   2421     1
   2418   2420     1
   2418   2422     1
   2419   2490     1
   2420   2425     1
   2420   2423     1
   2420   2424     1
   2421   2435     1
   2421   2436     1
   2421   2428     1
   2421   2430     1
   2422   2425     1
   2422   2423     1
   2422   2424     1
   2423   2426     1
   2423   2427     1
   2423   2490     1
   2424   2426     1
   2424   2427     1
   2424   2490     1
   2425   2438     1
   2425   2439     1
   2425   2431     1
   2425   2432     1
   2426   2428     1
   2426   2430     1
   2427   2435     1
   2427   2436     1
   2428   2433     1
   2428   2431     1
   2428   2432     1
   2428   2490     1
   2429   2455     1
   2429   2490     1
   2430   2433     1
   2430   2431     1
   2430   2432     1
   2430   2490     1
   2431   2434     1
   2431   2465     1
   2432   2434     1
   2432   2465     1
   2433   2448     1
   2434   2455     1
   2435   2440     1
   2435   2438     1
   2435   2439     1
   2435   2490     1
   2436   2440     1
   2436   2438     1
   2436   2439     1
   2436   2490     1
   2437   2479     1
   2437   2490     1
   2438   2441     1
   2438   2489     1
   2439   2441     1
   2439   2489     1
   2440   2472     1
   2441   2479     1
   2442   2449     1
   2442   2464     1
   2442   2459     1
   2442   2450     1
   2443   2448     1
   2443   2454     1
   2443   2456     1
   2443   2457     1
   2444   2445     1
   2444   2463     1
   2444   2462     1
   2444   2458     1
   2444   2456     1
   2444   2457     1
   2444   2447     1
   2445   2450     1
   2445   2455     1
   2445   2464     1
   2446   2461     1
   2446   2454     1
   2446   2462     1
   2447   2455     1
   2447   2449     1
   2448   2451     1
   2448   2460     1
   2448   2450     1
   2448   2455     1
   2448   2452     1
   2448   2449     1
   2449   2465     1
   2449   2454     1
   2449   2463     1
   2449   2462     1
   2450   2461     1
   2450   2465     1
   2452   2462     1
   2453   2462     1
   2456   2459     1
   2456   2460     1
   2457   2459     1
   2457   2460     1
   2460   2461     1
   2460   2462     1
   2462   2464     1
   2466   2473     1
   2466   2488     1
   2466   2483     1
   2466   2474     1
   2467   2472     1
   2467   2478     1
   2467   2480     1
   2467   2481     1
   2468   2469     1
   2468   2487     1
   2468   2486     1
   2468   2482     1
   2468   2480     1
   2468   2481     1
   2468   2471     1
   2469   2474     1
   2469   2479     1
   2469   2488     1
   2470   2485     1
   2470   2478     1
   2470   2486     1
   2471   2479     1
   2471   2473     1
   2472   2475     1
   2472   2484     1
   2472   2474     1
   2472   2479     1
   2472   2476     1
   2472   2473     1
   2473   2489     1
   2473   2478     1
   2473   2487     1
   2473   2486     1
   2474   2485     1
   2474   2489     1
   2476   2486     1
   2477   2486     1
   2480   2483     1
   2480   2484     1
   2481   2483     1
   2481   2484     1
   2484   2485     1
   2484   2486     1
   2486   2488     1
   2491   2497     1
   2491   2498     1
   2492   2495     1
   2492   2494     1
   2492   2496     1
   2493   2564     1
   2494   2499     1
   2494   2497     1
   2494   2498     1
   2495   2509     1
   2495   2510     1
   2495   2502     1
   2495   2504     1
   2496   2499     1
   2496   2497     1
   2496   2498     1
   2497   2500     1
   2497   2501     1
   2497   2564     1
   2498   2500     1
   2498   2501     1
   2498   2564     1
   2499   2512     1
   2499   2513     1
   2499   2505     1
   2499   2506     1
   2500   2502     1
   2500   2504     1
   2501   2509     1
   2501   2510     1
   2502   2564     1
   2502   2507     1
   2502   2505     1
   2502   2506     1
   2503   2564     1
   2503   2529     1
   2504   2564     1
   2504   2507     1
   2504   2505     1
   2504   2506     1
   2505   2508     1
   2505   2539     1
   2506   2508     1
   2506   2539     1
   2507   2522     1
   2508   2529     1
   2509   2564     1
   2509   2514     1
   2509   2512     1
   2509   2513     1
   2510   2564     1
   2510   2514     1
   2510   2512     1
   2510   2513     1
   2511   2564     1
   2511   2553     1
   2512   2515     1
   2512   2563     1
   2513   2515     1
   2513   2563     1
   2514   2546     1
   2515   2553     1
   2516   2523     1
   2516   2538     1
   2516   2533     1
   2516   2524     1
   2517   2530     1
   2517   2531     1
   2517   2522     1
   2517   2528     1
   2518   2519     1
   2518   2537     1
   2518   2536     1
   2518   2532     1
   2518   2530     1
   2518   2531     1
   2518   2521     1
   2519   2538     1
   2519   2524     1
   2519   2529     1
   2520   2536     1
   2520   2528     1
   2520   2535     1
   2521   2523     1
   2521   2529     1
   2522   2526     1
   2522   2523     1
   2522   2525     1
   2522   2534     1
   2522   2524     1
   2522   2529     1
   2523   2537     1
   2523   2536     1
   2523   2539     1
   2523   2528     1
   2524   2539     1
   2524   2535     1
   2526   2536     1
   2527   2536     1
   2530   2534     1
   2530   2533     1
   2531   2534     1
   2531   2533     1
   2534   2536     1
   2534   2535     1
   2536   2538     1
   2540   2547     1
   2540   2562     1
   2540   2557     1
   2540   2548     1
   2541   2554     1
   2541   2555     1
   2541   2546     1
   2541   2552     1
   2542   2543     1
   2542   2561     1
   2542   2560     1
   2542   2556     1
   2542   2554     1
   2542   2555     1
   2542   2545     1
   2543   2562     1
   2543   2548     1
   2543   2553     1
   2544   2560     1
   2544   2552     1
   2544   2559     1
   2545   2547     1
   2545   2553     1
   2546   2550     1
   2546   2547     1
   2546   2549     1
   2546   2558     1
   2546   2548     1
   2546   2553     1
   2547   2561     1
   2547   2560     1
   2547   2563     1
   2547   2552     1
   2548   2563     1
   2548   2559     1
   2550   2560     1
   2551   2560     1
   2554   2558     1
   2554   2557     1
   2555   2558     1
   2555   2557     1
   2558   2560     1
   2558   2559     1
   2560   2562     1
   2565   2571     1
   2565   2572     1
   2566   2569     1
   2566   2568     1
   2566   2570     1
   2567   2638     1
   2568   2573     1
   2568   2571     1
   2568   2572     1
   2569   2583     1
   2569   2584     1
   2569   2576     1
   2569   2578     1
   2570   2573     1
   2570   2571     1
   2570   2572     1
   2571   2574     1
   2571   2575     1
   2571   2638     1
   2572   2574     1
   2572   2575     1
   2572   2638     1
   2573   2586     1
   2573   2587     1
   2573   2579     1
   2573   2580     1
   2574   2576     1
   2574   2578     1
   2575   2583     1
   2575   2584     1
   2576   2581     1
   2576   2579     1
   2576   2580     1
   2576   2638     1
   2577   2603     1
   2577   2638     1
   2578   2581     1
   2578   2579     1
   2578   2580     1
   2578   2638     1
   2579   2582     1
   2579   2613     1
   2580   2582     1
   2580   2613     1
   2581   2596     1
   2582   2603     1
   2583   2588     1
   2583   2586     1
   2583   2587     1
   2583   2638     1
   2584   2588     1
   2584   2586     1
   2584   2587     1
   2584   2638     1
   2585   2627     1
   2585   2638     1
   2586   2589     1
   2586   2637     1
   2587   2589     1
   2587   2637     1
   2588   2620     1
   2589   2627     1
   2590   2597     1
   2590   2612     1
   2590   2607     1
   2590   2598     1
   2591   2596     1
   2591   2602     1
   2591   2604     1
   2591   2605     1
   2592   2593     1
   2592   2611     1
   2592   2610     1
   2592   2606     1
   2592   2604     1
   2592   2605     1
   2592   2595     1
   2593   2598     1
   2593   2603     1
   2593   2612     1
   2594   2609     1
   2594   2602     1
   2594   2610     1
   2595   2603     1
   2595   2597     1
   2596   2599     1
   2596   2608     1
   2596   2598     1
   2596   2603     1
   2596   2600     1
   2596   2597     1
   2597   2613     1
   2597   2602     1
   2597   2611     1
   2597   2610     1
   2598   2609     1
   2598   2613     1
   2600   2610     1
   2601   2610     1
   2604   2607     1
   2604   2608     1
   2605   2607     1
   2605   2608     1
   2608   2609     1
   2608   2610     1
   2610   2612     1
   2614   2621     1
   2614   2636     1
   2614   2631     1
   2614   2622     1
   2615   2620     1
   2615   2626     1
   2615   2628     1
   2615   2629     1
   2616   2617     1
   2616   2635     1
   2616   2634     1
   2616   2630     1
   2616   2628     1
   2616   2629     1
   2616   2619     1
   2617   2622     1
   2617   2627     1
   2617   2636     1
   2618   2633     1
   2618   2626     1
   2618   2634     1
   2619   2627     1
   2619   2621     1
   2620   2623     1
   2620   2632     1
   2620   2622     1
   2620   2627     1
   2620   2624     1
   2620   2621     1
   2621   2637     1
   2621   2626     1
   2621   2635     1
   2621   2634     1
   2622   2633     1
   2622   2637     1
   2624   2634     1
   2625   2634     1
   2628   2631     1
   2628   2632     1
   2629   2631     1
   2629   2632     1
   2632   2633     1
   2632   2634     1
   2634   2636     1
   2639   2645     1
   2639   2646     1
   2640   2643     1
   2640   2642     1
   2640   2644     1
   2641   2712     1
   2642   2647     1
   2642   2645     1
   2642   2646     1
   2643   2657     1
   2643   2658     1
   2643   2650     1
   2643   2652     1
   2644   2647     1
   2644   2645     1
   2644   2646     1
   2645   2648     1
   2645   2649     1
   2645   2712     1
   2646   2648     1
   2646   2649     1
   2646   2712     1
   2647   2660     1
   2647   2661     1
   2647   2653     1
   2647   2654     1
   2648   2650     1
   2648   2652     1
   2649   2657     1
   2649   2658     1
   2650   2712     1
   2650   2655     1
   2650   2653     1
   2650   2654     1
   2651   2712     1
   2651   2677     1
   2652   2712     1
   2652   2655     1
   2652   2653     1
   2652   2654     1
   2653   2656     1
   2653   2687     1
   2654   2656     1
   2654   2687     1
   2655   2670     1
   2656   2677     1
   2657   2712     1
   2657   2662     1
   2657   2660     1
   2657   2661     1
   2658   2712     1
   2658   2662     1
   2658   2660     1
   2658   2661     1
   2659   2712     1
   2659   2701     1
   2660   2663     1
   2660   2711     1
   2661   2663     1
   2661   2711     1
   2662   2694     1
   2663   2701     1
   2664   2671     1
   2664   2686     1
   2664   2681     1
   2664   2672     1
   2665   2678     1
   2665   2679     1
   2665   2670     1
   2665   2676     1
   2666   2667     1
   2666   2685     1
   2666   2684     1
   2666   2680     1
   2666   2678     1
   2666   2679     1
   2666   2669     1
   2667   2686     1
   2667   2672     1
   2667   2677     1
   2668   2684     1
   2668   2676     1
   2668   2683     1
   2669   2671     1
   2669   2677     1
   2670   2674     1
   2670   2671     1
   2670   2673     1
   2670   2682     1
   2670   2672     1
   2670   2677     1
   2671   2685     1
   2671   2684     1
   2671   2687     1
   2671   2676     1
   2672   2687     1
   2672   2683     1
   2674   2684     1
   2675   2684     1
   2678   2682     1
   2678   2681     1
   2679   2682     1
   2679   2681     1
   2682   2684     1
   2682   2683     1
   2684   2686     1
   2688   2695     1
   2688   2710     1
   2688   2705     1
   2688   2696     1
   2689   2702     1
   2689   2703     1
   2689   2694     1
   2689   2700     1
   2690   2691     1
   2690   2709     1
   2690   2708     1
   2690   2704     1
   2690   2702     1
   2690   2703     1
   2690   2693     1
   2691   2710     1
   2691   2696     1
   2691   2701     1
   2692   2708     1
   2692   2700     1
   2692   2707     1
   2693   2695     1
   2693   2701     1
   2694   2698     1
   2694   2695     1
   2694   2697     1
   2694   2706     1
   2694   2696     1
   2694   2701     1
   2695   2709     1
   2695   2708     1
   2695   2711     1
   2695   2700     1
   2696   2711     1
   2696   2707     1
   2698   2708     1
   2699   2708     1
   2702   2706     1
   2702   2705     1
   2703   2706     1
   2703   2705     1
   2706   2708     1
   2706   2707     1
   2708   2710     1
   2713   2719     1
   2713   2720     1
   2714   2717     1
   2714   2716     1
   2714   2718     1
   2715   2786     1
   2716   2721     1
   2716   2719     1
   2716   2720     1
   2717   2731     1
   2717   2732     1
   2717   2724     1
   2717   2726     1
   2718   2721     1
   2718   2719     1
   2718   2720     1
   2719   2722     1
   2719   2723     1
   2719   2786     1
   2720   2722     1
   2720   2723     1
   2720   2786     1
   2721   2734     1
   2721   2735     1
   2721   2727     1
   2721   2728     1
   2722   2724     1
   2722   2726     1
   2723   2731     1
   2723   2732     1
   2724   2729     1
   2724   2727     1
   2724   2728     1
   2724   2786     1
   2725   2751     1
   2725   2786     1
   2726   2729     1
   2726   2727     1
   2726   2728     1
   2726   2786     1
   2727   2730     1
   2727   2761     1
   2728   2730     1
   2728   2761     1
   2729   2744     1
   2730   2751     1
   2731   2736     1
   2731   2734     1
   2731   2735     1
   2731   2786     1
   2732   2736     1
   2732   2734     1
   2732   2735     1
   2732   2786     1
   2733   2775     1
   2733   2786     1
   2734   2737     1
   2734   2785     1
   2735   2737     1
   2735   2785     1
   2736   2768     1
   2737   2775     1
   2738   2745     1
   2738   2760     1
   2738   2755     1
   2738   2746     1
   2739   2744     1
   2739   2750     1
   2739   2752     1
   2739   2753     1
   2740   2741     1
   2740   2759     1
   2740   2758     1
   2740   2754     1
   2740   2752     1
   2740   2753     1
   2740   2743     1
   2741   2746     1
   2741   2751     1
   2741   2760     1
   2742   2757     1
   2742   2750     1
   2742   2758     1
   2743   2751     1
   2743   2745     1
   2744   2747     1
   2744   2756     1
   2744   2746     1
   2744   2751     1
   2744   2748     1
   2744   2745     1
   2745   2761     1
   2745   2750     1
   2745   2759     1
   2745   2758     1
   2746   2757     1
   2746   2761     1
   2748   2758     1
   2749   2758     1
   2752   2755     1
   2752   2756     1
   2753   2755     1
   2753   2756     1
   2756   2757     1
   2756   2758     1
   2758   2760     1
   2762   2769     1
   2762   2784     1
   2762   2779     1
   2762   2770     1
   2763   2768     1
   2763   2774     1
   2763   2776     1
   2763   2777     1
   2764   2765     1
   2764   2783     1
   2764   2782     1
   2764   2778     1
   2764   2776     1
   2764   2777     1
   2764   2767     1
   2765   2770     1
   2765   2775     1
   2765   2784     1
   2766   2781     1
   2766   2774     1
   2766   2782     1
   2767   2775     1
   2767   2769     1
   2768   2771     1
   2768   2780     1
   2768   2770     1
   2768   2775     1
   2768   2772     1
   2768   2769     1
   2769   2785     1
   2769   2774     1
   2769   2783     1
   2769   2782     1
   2770   2781     1
   2770   2785     1
   2772   2782     1
   2773   2782     1
   2776   2779     1
   2776   2780     1
   2777   2779     1
   2777   2780     1
   2780   2781     1
   2780   2782     1
   2782   2784     1
   2787   2793     1
   2787   2794     1
   2788   2791     1
   2788   2790     1
   2788   2792     1
   2789   2860     1
   2790   2795     1
   2790   2793     1
   2790   2794     1
   2791   2805     1
   2791   2806     1
   2791   2798     1
   2791   2800     1
   2792   2795     1
   2792   2793     1
   2792   2794     1
   2793   2796     1
   2793   2797     1
   2793   2860     1
   2794   2796     1
   2794   2797     1
   2794   2860     1
   2795   2808     1
   2795   2809     1
   2795   2801     1
   2795   2802     1
   2796   2798     1
   2796   2800     1
   2797   2805     1
   2797   2806     1
   2798   2860     1
   2798   2803     1
   2798   2801     1
   2798   2802     1
   2799   2860     1
   2799   2825     1
   2800   2860     1
   2800   2803     1
   2800   2801     1
   2800   2802     1
   2801   2804     1
   2801   2835     1
   2802   2804     1
   2802   2835     1
   2803   2818     1
   2804   2825     1
   2805   2860     1
   2805   2810     1
   2805   2808     1
   2805   2809     1
   2806   2860     1
   2806   2810     1
   2806   2808     1
   2806   2809     1
   2807   2860     1
   2807   2849     1
   2808   2811     1
   2808   2859     1
   2809   2811     1
   2809   2859     1
   2810   2842     1
   2811   2849     1
   2812   2819     1
   2812   2834     1
   2812   2829     1
   2812   2820     1
   2813   2826     1
   2813   2827     1
   2813   2818     1
   2813   2824     1
   2814   2815     1
   2814   2833     1
   2814   2832     1
   2814   2828     1
   2814   2826     1
   2814   2827     1
   2814   2817     1
   2815   2834     1
   2815   2820     1
   2815   2825     1
   2816   2832     1
   2816   2824     1
   2816   2831     1
   2817   2819     1
   2817   2825     1
   2818   2822     1
   2818   2819     1
   2818   2821     1
   2818   2830     1
   2818   2820     1
   2818   2825     1
   2819   2833     1
   2819   2832     1
   2819   2835     1
   2819   2824     1
   2820   2835     1
   2820   2831     1
   2822   2832     1
   2823   2832     1
   2826   2830     1
   2826   2829     1
   2827   2830     1
   2827   2829     1
   2830   2832     1
   2830   2831     1
   2832   2834     1
   2836   2843     1
   2836   2858     1
   2836   2853     1
   2836   2844     1
   2837   2850     1
   2837   2851     1
   2837   2842     1
   2837   2848     1
   2838   2839     1
   2838   2857     1
   2838   2856     1
   2838   2852     1
   2838   2850     1
   2838   2851     1
   2838   2841     1
   2839   2858     1
   2839   2844     1
   2839   2849     1
   2840   2856     1
   2840   2848     1
   2840   2855     1
   2841   2843     1
   2841   2849     1
   2842   2846     1
   2842   2843     1
   2842   2845     1
   2842   2854     1
   2842   2844     1
   2842   2849     1
   2843   2857     1
   2843   2856     1
   2843   2859     1
   2843   2848     1
   2844   2859     1
   2844   2855     1
   2846   2856     1
   2847   2856     1
   2850   2854     1
   2850   2853     1
   2851   2854     1
   2851   2853     1
   2854   2856     1
   2854   2855     1
   2856   2858     1
   2861   2867     1
   2861   2868     1
   2862   2865     1
   2862   2864     1
   2862   2866     1
   2863   2934     1
   2864   2869     1
   2864   2867     1
   2864   2868     1
   2865   2879     1
   2865   2880     1
   2865   2872     1
   2865   2874     1
   2866   2869     1
   2866   2867     1
   2866   2868     1
   2867   2870     1
   2867   2871     1
   2867   2934     1
   2868   2870     1
   2868   2871     1
   2868   2934     1
   2869   2882     1
   2869   2883     1
   2869   2875     1
   2869   2876     1
   2870   2872     1
   2870   2874     1
   2871   2879     1
   2871   2880     1
   2872   2877     1
   2872   2875     1
   2872   2876     1
   2872   2934     1
   2873   2899     1
   2873   2934     1
   2874   2877     1
   2874   2875     1
   2874   2876     1
   2874   2934     1
   2875   2878     1
   2875   2909     1
   2876   2878     1
   2876   2909     1
   2877   2892     1
   2878   2899     1
   2879   2884     1
   2879   2882     1
   2879   2883     1
   2879   2934     1
   2880   2884     1
   2880   2882     1
   2880   2883     1
   2880   2934     1
   2881   2923     1
   2881   2934     1
   2882   2885     1
   2882   2933     1
   2883   2885     1
   2883   2933     1
   2884   2916     1
   2885   2923     1
   2886   2893     1
   2886   2908     1
   2886   2903     1
   2886   2894     1
   2887   2892     1
   2887   2898     1
   2887   2900     1
   2887   2901     1
   2888   2889     1
   2888   2907     1
   2888   2906     1
   2888   2902     1
   2888   2900     1
   2888   2901     1
   2888   2891     1
   2889   2894     1
   2889   2899     1
   2889   2908     1
   2890   2905     1
   2890   2898     1
   2890   2906     1
   2891   2899     1
   2891   2893     1
   2892   2895     1
   2892   2904     1
   2892   2894     1
   2892   2899     1
   2892   2896     1
   2892   2893     1
   2893   2909     1
   2893   2898     1
   2893   2907     1
   2893   2906     1
   2894   2905     1
   2894   2909     1
   2896   2906     1
   2897   2906     1
   2900   2903     1
   2900   2904     1
   2901   2903     1
   2901   2904     1
   2904   2905     1
   2904   2906     1
   2906   2908     1
   2910   2917     1
   2910   2932     1
   2910   2927     1
   2910   2918     1
   2911   2916     1
   2911   2922     1
   2911   2924     1
   2911   2925     1
   2912   2913     1
   2912   2931     1
   2912   2930     1
   2912   2926     1
   2912   2924     1
   2912   2925     1
   2912   2915     1
   2913   2918     1
   2913   2923     1
   2913   2932     1
   2914   2929     1
   2914   2922     1
   2914   2930     1
   2915   2923     1
   2915   2917     1
   2916   2919     1
   2916   2928     1
   2916   2918     1
   2916   2923     1
   2916   2920     1
   2916   2917     1
   2917   2933     1
   2917   2922     1
   2917   2931     1
   2917   2930     1
   2918   2929     1
   2918   2933     1
   2920   2930     1
   2921   2930     1
   2924   2927     1
   2924   2928     1
   2925   2927     1
   2925   2928     1
   2928   2929     1
   2928   2930     1
   2930   2932     1
   2935   2941     1
   2935   2942     1
   2936   2939     1
   2936   2938     1
   2936   2940     1
   2937   3008     1
   2938   2943     1
   2938   2941     1
   2938   2942     1
   2939   2953     1
   2939   2954     1
   2939   2946     1
   2939   2948     1
   2940   2943     1
   2940   2941     1
   2940   2942     1
   2941   2944     1
   2941   2945     1
   2941   3008     1
   2942   2944     1
   2942   2945     1
   2942   3008     1
   2943   2956     1
   2943   2957     1
   2943   2949     1
   2943   2950     1
   2944   2946     1
   2944   2948     1
   2945   2953     1
   2945   2954     1
   2946   3008     1
   2946   2951     1
   2946   2949     1
   2946   2950     1
   2947   3008     1
   2947   2973     1
   2948   3008     1
   2948   2951     1
   2948   2949     1
   2948   2950     1
   2949   2952     1
   2949   2983     1
   2950   2952     1
   2950   2983     1
   2951   2966     1
   2952   2973     1
   2953   3008     1
   2953   2958     1
   2953   2956     1
   2953   2957     1
   2954   3008     1
   2954   2958     1
   2954   2956     1
   2954   2957     1
   2955   3008     1
   2955   2997     1
   2956   2959     1
   2956   3007     1
   2957   2959     1
   2957   3007     1
   2958   2990     1
   2959   2997     1
   2960   2967     1
   2960   2982     1
   2960   2977     1
   2960   2968     1
   2961   2974     1
   2961   2975     1
   2961   2966     1
   2961   2972     1
   2962   2963     1
   2962   2981     1
   2962   2980     1
   2962   2976     1
   2962   2974     1
   2962   2975     1
   2962   2965     1
   2963   2982     1
   2963   2968     1
   2963   2973     1
   2964   2980     1
   2964   2972     1
   2964   2979     1
   2965   2967     1
   2965   2973     1
   2966   2970     1
   2966   2967     1
   2966   2969     1
   2966   2978     1
   2966   2968     1
   2966   2973     1
   2967   2981     1
   2967   2980     1
   2967   2983     1
   2967   2972     1
   2968   2983     1
   2968   2979     1
   2970   2980     1
   2971   2980     1
   2974   2978     1
   2974   2977     1
   2975   2978     1
   2975   2977     1
   2978   2980     1
   2978   2979     1
   2980   2982     1
   2984   2991     1
   2984   3006     1
   2984   3001     1
   2984   2992     1
   2985   2998     1
   2985   2999     1
   2985   2990     1
   2985   2996     1
   2986   2987     1
   2986   3005     1
   2986   3004     1
   2986   3000     1
   2986   2998     1
   2986   2999     1
   2986   2989     1
   2987   3006     1
   2987   2992     1
   2987   2997     1
   2988   3004     1
   2988   2996     1
   2988   3003     1
   2989   2991     1
   2989   2997     1
   2990   2994     1
   2990   2991     1
   2990   2993     1
   2990   3002     1
   2990   2992     1
   2990   2997     1
   2991   3005     1
   2991   3004     1
   2991   3007     1
   2991   2996     1
   2992   3007     1
   2992   3003     1
   2994   3004     1
   2995   3004     1
   2998   3002     1
   2998   3001     1
   2999   3002     1
   2999   3001     1
   3002   3004     1
   3002   3003     1
   3004   3006     1
   3009   3015     1
   3009   3016     1
   3010   3013     1
   3010   3012     1
   3010   3014     1
   3011   3082     1
   3012   3017     1
   3012   3015     1
   3012   3016     1
   3013   3027     1
   3013   3028     1
   3013   3020     1
   3013   3022     1
   3014   3017     1
   3014   3015     1
   3014   3016     1
   3015   3018     1
   3015   3019     1
   3015   3082     1
   3016   3018     1
   3016   3019     1
   3016   3082     1
   3017   3030     1
   3017   3031     1
   3017   3023     1
   3017   3024     1
   3018   3020     1
   3018   3022     1
   3019   3027     1
   3019   3028     1
   3020   3025     1
   3020   3023     1
   3020   3024     1
   3020   3082     1
   3021   3047     1
   3021   3082     1
   3022   3025     1
   3022   3023     1
   3022   3024     1
   3022   3082     1
   3023   3026     1
   3023   3057     1
   3024   3026     1
   3024   3057     1
   3025   3040     1
   3026   3047     1
   3027   3032     1
   3027   3030     1
   3027   3031     1
   3027   3082     1
   3028   3032     1
   3028   3030     1
   3028   3031     1
   3028   3082     1
   3029   3071     1
   3029   3082     1
   3030   3033     1
   3030   3081     1
   3031   3033     1
   3031   3081     1
   3032   3064     1
   3033   3071     1
   3034   3041     1
   3034   3056     1
   3034   3051     1
   3034   3042     1
   3035   3040     1
   3035   3046     1
   3035   3048     1
   3035   3049     1
   3036   3037     1
   3036   3055     1
   3036   3054     1
   3036   3050     1
   3036   3048     1
   3036   3049     1
   3036   3039     1
   3037   3042     1
   3037   3047     1
   3037   3056     1
   3038   3053     1
   3038   3046     1
   3038   3054     1
   3039   3047     1
   3039   3041     1
   3040   3043     1
   3040   3052     1
   3040   3042     1
   3040   3047     1
   3040   3044     1
   3040   3041     1
   3041   3057     1
   3041   3046     1
   3041   3055     1
   3041   3054     1
   3042   3053     1
   3042   3057     1
   3044   3054     1
   3045   3054     1
   3048   3051     1
   3048   3052     1
   3049   3051     1
   3049   3052     1
   3052   3053     1
   3052   3054     1
   3054   3056     1
   3058   3065     1
   3058   3080     1
   3058   3075     1
   3058   3066     1
   3059   3064     1
   3059   3070     1
   3059   3072     1
   3059   3073     1
   3060   3061     1
   3060   3079     1
   3060   3078     1
   3060   3074     1
   3060   3072     1
   3060   3073     1
   3060   3063     1
   3061   3066     1
   3061   3071     1
   3061   3080     1
   3062   3077     1
   3062   3070     1
   3062   3078     1
   3063   3071     1
   3063   3065     1
   3064   3067     1
   3064   3076     1
   3064   3066     1
   3064   3071     1
   3064   3068     1
   3064   3065     1
   3065   3081     1
   3065   3070     1
   3065   3079     1
   3065   3078     1
   3066   3077     1
   3066   3081     1
   3068   3078     1
   3069   3078     1
   3072   3075     1
   3072   3076     1
   3073   3075     1
   3073   3076     1
   3076   3077     1
   3076   3078     1
   3078   3080     1
   3083   3089     1
   3083   3090     1
   3084   3087     1
   3084   3086     1
   3084   3088     1
   3085   3156     1
   3086   3091     1
   3086   3089     1
   3086   3090     1
   3087   3101     1
   3087   3102     1
   3087   3094     1
   3087   3096     1
   3088   3091     1
   3088   3089     1
   3088   3090     1
   3089   3092     1
   3089   3093     1
   3089   3156     1
   3090   3092     1
   3090   3093     1
   3090   3156     1
   3091   3104     1
   3091   3105     1
   3091   3097     1
   3091   3098     1
   3092   3094     1
   3092   3096     1
   3093   3101     1
   3093   3102     1
   3094   3156     1
   3094   3099     1
   3094   3097     1
   3094   3098     1
   3095   3156     1
   3095   3121     1
   3096   3156     1
   3096   3099     1
   3096   3097     1
   3096   3098     1
   3097   3100     1
   3097   3131     1
   3098   3100     1
   3098   3131     1
   3099   3114     1
   3100   3121     1
   3101   3156     1
   3101   3106     1
   3101   3104     1
   3101   3105     1
   3102   3156     1
   3102   3106     1
   3102   3104     1
   3102   3105     1
   3103   3156     1
   3103   3145     1
   3104   3107     1
   3104   3155     1
   3105   3107     1
   3105   3155     1
   3106   3138     1
   3107   3145     1
   3108   3115     1
   3108   3130     1
   3108   3125     1
   3108   3116     1
   3109   3122     1
   3109   3123     1
   3109   3114     1
   3109   3120     1
   3110   3111     1
   3110   3129     1
   3110   3128     1
   3110   3124     1
   3110   3122     1
   3110   3123     1
   3110   3113     1
   3111   3130     1
   3111   3116     1
   3111   3121     1
   3112   3128     1
   3112   3120     1
   3112   3127     1
   3113   3115     1
   3113   3121     1
   3114   3118     1
   3114   3115     1
   3114   3117     1
   3114   3126     1
   3114   3116     1
   3114   3121     1
   3115   3129     1
   3115   3128     1
   3115   3131     1
   3115   3120     1
   3116   3131     1
   3116   3127     1
   3118   3128     1
   3119   3128     1
   3122   3126     1
   3122   3125     1
   3123   3126     1
   3123   3125     1
   3126   3128     1
   3126   3127     1
   3128   3130     1
   3132   3139     1
   3132   3154     1
   3132   3149     1
   3132   3140     1
   3133   3146     1
   3133   3147     1
   3133   3138     1
   3133   3144     1
   3134   3135     1
   3134   3153     1
   3134   3152     1
   3134   3148     1
   3134   3146     1
   3134   3147     1
   3134   3137     1
   3135   3154     1
   3135   3140     1
   3135   3145     1
   3136   3152     1
   3136   3144     1
   3136   3151     1
   3137   3139     1
   3137   3145     1
   3138   3142     1
   3138   3139     1
   3138   3141     1
   3138   3150     1
   3138   3140     1
   3138   3145     1
   3139   3153     1
   3139   3152     1
   3139   3155     1
   3139   3144     1
   3140   3155     1
   3140   3151     1
   3142   3152     1
   3143   3152     1
   3146   3150     1
   3146   3149     1
   3147   3150     1
   3147   3149     1
   3150   3152     1
   3150   3151     1
   3152   3154     1
   3157   3163     1
   3157   3164     1
   3158   3161     1
   3158   3160     1
   3158   3162     1
   3159   3230     1
   3160   3165     1
   3160   3163     1
   3160   3164     1
   3161   3175     1
   3161   3176     1
   3161   3168     1
   3161   3170     1
   3162   3165     1
   3162   3163     1
   3162   3164     1
   3163   3166     1
   3163   3167     1
   3163   3230     1
   3164   3166     1
   3164   3167     1
   3164   3230     1
   3165   3178     1
   3165   3179     1
   3165   3171     1
   3165   3172     1
   3166   3168     1
   3166   3170     1
   3167   3175     1
   3167   3176     1
   3168   3173     1
   3168   3171     1
   3168   3172     1
   3168   3230     1
   3169   3195     1
   3169   3230     1
   3170   3173     1
   3170   3171     1
   3170   3172     1
   3170   3230     1
   3171   3174     1
   3171   3205     1
   3172   3174     1
   3172   3205     1
   3173   3188     1
   3174   3195     1
   3175   3180     1
   3175   3178     1
   3175   3179     1
   3175   3230     1
   3176   3180     1
   3176   3178     1
   3176   3179     1
   3176   3230     1
   3177   3219     1
   3177   3230     1
   3178   3181     1
   3178   3229     1
   3179   3181     1
   3179   3229     1
   3180   3212     1
   3181   3219     1
   3182   3189     1
   3182   3204     1
   3182   3199     1
   3182   3190     1
   3183   3188     1
   3183   3194     1
   3183   3196     1
   3183   3197     1
   3184   3185     1
   3184   3203     1
   3184   3202     1
   3184   3198     1
   3184   3196     1
   3184   3197     1
   3184   3187     1
   3185   3190     1
   3185   3195     1
   3185   3204     1
   3186   3201     1
   3186   3194     1
   3186   3202     1
   3187   3195     1
   3187   3189     1
   3188   3191     1
   3188   3200     1
   3188   3190     1
   3188   3195     1
   3188   3192     1
   3188   3189     1
   3189   3205     1
   3189   3194     1
   3189   3203     1
   3189   3202     1
   3190   3201     1
   3190   3205     1
   3192   3202     1
   3193   3202     1
   3196   3199     1
   3196   3200     1
   3197   3199     1
   3197   3200     1
   3200   3201     1
   3200   3202     1
   3202   3204     1
   3206   3213     1
   3206   3228     1
   3206   3223     1
   3206   3214     1
   3207   3212     1
   3207   3218     1
   3207   3220     1
   3207   3221     1
   3208   3209     1
   3208   3227     1
   3208   3226     1
   3208   3222     1
   3208   3220     1
   3208   3221     1
   3208   3211     1
   3209   3214     1
   3209   3219     1
   3209   3228     1
   3210   3225     1
   3210   3218     1
   3210   3226     1
   3211   3219     1
   3211   3213     1
   3212   3215     1
   3212   3224     1
   3212   3214     1
   3212   3219     1
   3212   3216     1
   3212   3213     1
   3213   3229     1
   3213   3218     1
   3213   3227     1
   3213   3226     1
   3214   3225     1
   3214   3229     1
   3216   3226     1
   3217   3226     1
   3220   3223     1
   3220   3224     1
   3221   3223     1
   3221   3224     1
   3224   3225     1
   3224   3226     1
   3226   3228     1
   3231   3237     1
   3231   3238     1
   3232   3235     1
   3232   3234     1
   3232   3236     1
   3233   3304     1
   3234   3239     1
   3234   3237     1
   3234   3238     1
   3235   3249     1
   3235   3250     1
   3235   3242     1
   3235   3244     1
   3236   3239     1
   3236   3237     1
   3236   3238     1
   3237   3240     1
   3237   3241     1
   3237   3304     1
   3238   3240     1
   3238   3241     1
   3238   3304     1
   3239   3252     1
   3239   3253     1
   3239   3245     1
   3239   3246     1
   3240   3242     1
   3240   3244     1
   3241   3249     1
   3241   3250     1
   3242   3304     1
   3242   3247     1
   3242   3245     1
   3242   3246     1
   3243   3304     1
   3243   3269     1
   3244   3304     1
   3244   3247     1
   3244   3245     1
   3244   3246     1
   3245   3248     1
   3245   3279     1
   3246   3248     1
   3246   3279     1
   3247   3262     1
   3248   3269     1
   3249   3304     1
   3249   3254     1
   3249   3252     1
   3249   3253     1
   3250   3304     1
   3250   3254     1
   3250   3252     1
   3250   3253     1
   3251   3304     1
   3251   3293     1
   3252   3255     1
   3252   3303     1
   3253   3255     1
   3253   3303     1
   3254   3286     1
   3255   3293     1
   3256   3263     1
   3256   3278     1
   3256   3273     1
   3256   3264     1
   3257   3270     1
   3257   3271     1
   3257   3262     1
   3257   3268     1
   3258   3259     1
   3258   3277     1
   3258   3276     1
   3258   3272     1
   3258   3270     1
   3258   3271     1
   3258   3261     1
   3259   3278     1
   3259   3264     1
   3259   3269     1
   3260   3276     1
   3260   3268     1
   3260   3275     1
   3261   3263     1
   3261   3269     1
   3262   3266     1
   3262   3263     1
   3262   3265     1
   3262   3274     1
   3262   3264     1
   3262   3269     1
   3263   3277     1
   3263   3276     1
   3263   3279     1
   3263   3268     1
   3264   3279     1
   3264   3275     1
   3266   3276     1
   3267   3276     1
   3270   3274     1
   3270   3273     1
   3271   3274     1
   3271   3273     1
   3274   3276     1
   3274   3275     1
   3276   3278     1
   3280   3287     1
   3280   3302     1
   3280   3297     1
   3280   3288     1
   3281   3294     1
   3281   3295     1
   3281   3286     1
   3281   3292     1
   3282   3283     1
   3282   3301     1
   3282   3300     1
   3282   3296     1
   3282   3294     1
   3282   3295     1
   3282   3285     1
   3283   3302     1
   3283   3288     1
   3283   3293     1
   3284   3300     1
   3284   3292     1
   3284   3299     1
   3285   3287     1
   3285   3293     1
   3286   3290     1
   3286   3287     1
   3286   3289     1
   3286   3298     1
   3286   3288     1
   3286   3293     1
   3287   3301     1
   3287   3300     1
   3287   3303     1
   3287   3292     1
   3288   3303     1
   3288   3299     1
   3290   3300     1
   3291   3300     1
   3294   3298     1
   3294   3297     1
   3295   3298     1
   3295   3297     1
   3298   3300     1
   3298   3299     1
   3300   3302     1
   3305   3311     1
   3305   3312     1
   3306   3309     1
   3306   3308     1
   3306   3310     1
   3307   3378     1
   3308   3313     1
   3308   3311     1
   3308   3312     1
   3309   3323     1
   3309   3324     1
   3309   3316     1
   3309   3318     1
   3310   3313     1
   3310   3311     1
   3310   3312     1
   3311   3314     1
   3311   3315     1
   3311   3378     1
   3312   3314     1
   3312   3315     1
   3312   3378     1
   3313   3326     1
   3313   3327     1
   3313   3319     1
   3313   3320     1
   3314   3316     1
   3314   3318     1
   3315   3323     1
   3315   3324     1
   3316   3321     1
   3316   3319     1
   3316   3320     1
   3316   3378     1
   3317   3343     1
   3317   3378     1
   3318   3321     1
   3318   3319     1
   3318   3320     1
   3318   3378     1
   3319   3322     1
   3319   3353     1
   3320   3322     1
   3320   3353     1
   3321   3336     1
   3322   3343     1
   3323   3328     1
   3323   3326     1
   3323   3327     1
   3323   3378     1
   3324   3328     1
   3324   3326     1
   3324   3327     1
   3324   3378     1
   3325   3367     1
   3325   3378     1
   3326   3329     1
   3326   3377     1
   3327   3329     1
   3327   3377     1
   3328   3360     1
   3329   3367     1
   3330   3337     1
   3330   3352     1
   3330   3347     1
   3330   3338     1
   3331   3336     1
   3331   3342     1
   3331   3344     1
   3331   3345     1
   3332   3333     1
   3332   3351     1
   3332   3350     1
   3332   3346     1
   3332   3344     1
   3332   3345     1
   3332   3335     1
   3333   3338     1
   3333   3343     1
   3333   3352     1
   3334   3349     1
   3334   3342     1
   3334   3350     1
   3335   3343     1
   3335   3337     1
   3336   3339     1
   3336   3348     1
   3336   3338     1
   3336   3343     1
   3336   3340     1
   3336   3337     1
   3337   3353     1
   3337   3342     1
   3337   3351     1
   3337   3350     1
   3338   3349     1
   3338   3353     1
   3340   3350     1
   3341   3350     1
   3344   3347     1
   3344   3348     1
   3345   3347     1
   3345   3348     1
   3348   3349     1
   3348   3350     1
   3350   3352     1
   3354   3361     1
   3354   3376     1
   3354   3371     1
   3354   3362     1
   3355   3360     1
   3355   3366     1
   3355   3368     1
   3355   3369     1
   3356   3357     1
   3356   3375     1
   3356   3374     1
   3356   3370     1
   3356   3368     1
   3356   3369     1
   3356   3359     1
   3357   3362     1
   3357   3367     1
   3357   3376     1
   3358   3373     1
   3358   3366     1
   3358   3374     1
   3359   3367     1
   3359   3361     1
   3360   3363     1
   3360   3372     1
   3360   3362     1
   3360   3367     1
   3360   3364     1
   3360   3361     1
   3361   3377     1
   3361   3366     1
   3361   3375     1
   3361   3374     1
   3362   3373     1
   3362   3377     1
   3364   3374     1
   3365   3374     1
   3368   3371     1
   3368   3372     1
   3369   3371     1
   3369   3372     1
   3372   3373     1
   3372   3374     1
   3374   3376     1
   3379   3385     1
   3379   3386     1
   3380   3383     1
   3380   3382     1
   3380   3384     1
   3381   3452     1
   3382   3387     1
   3382   3385     1
   3382   3386     1
   3383   3397     1
   3383   3398     1
   3383   3390     1
   3383   3392     1
   3384   3387     1
   3384   3385     1
   3384   3386     1
   3385   3388     1
   3385   3389     1
   3385   3452     1
   3386   3388     1
   3386   3389     1
   3386   3452     1
   3387   3400     1
   3387   3401     1
   3387   3393     1
   3387   3394     1
   3388   3390     1
   3388   3392     1
   3389   3397     1
   3389   3398     1
   3390   3452     1
   3390   3395     1
   3390   3393     1
   3390   3394     1
   3391   3452     1
   3391   3417     1
   3392   3452     1
   3392   3395     1
   3392   3393     1
   3392   3394     1
   3393   3396     1
   3393   3427     1
   3394   3396     1
   3394   3427     1
   3395   3410     1
   3396   3417     1
   3397   3452     1
   3397   3402     1
   3397   3400     1
   3397   3401     1
   3398   3452     1
   3398   3402     1
   3398   3400     1
   3398   3401     1
   3399   3452     1
   3399   3441     1
   3400   3403     1
   3400   3451     1
   3401   3403     1
   3401   3451     1
   3402   3434     1
   3403   3441     1
   3404   3411     1
   3404   3426     1
   3404   3421     1
   3404   3412     1
   3405   3418     1
   3405   3419     1
   3405   3410     1
   3405   3416     1
   3406   3407     1
   3406   3425     1
   3406   3424     1
   3406   3420     1
   3406   3418     1
   3406   3419     1
   3406   3409     1
   3407   3426     1
   3407   3412     1
   3407   3417     1
   3408   3424     1
   3408   3416     1
   3408   3423     1
   3409   3411     1
   3409   3417     1
   3410   3414     1
   3410   3411     1
   3410   3413     1
   3410   3422     1
   3410   3412     1
   3410   3417     1
   3411   3425     1
   3411   3424     1
   3411   3427     1
   3411   3416     1
   3412   3427     1
   3412   3423     1
   3414   3424     1
   3415   3424     1
   3418   3422     1
   3418   3421     1
   3419   3422     1
   3419   3421     1
   3422   3424     1
   3422   3423     1
   3424   3426     1
   3428   3435     1
   3428   3450     1
   3428   3445     1
   3428   3436     1
   3429   3442     1
   3429   3443     1
   3429   3434     1
   3429   3440     1
   3430   3431     1
   3430   3449     1
   3430   3448     1
   3430   3444     1
   3430   3442     1
   3430   3443     1
   3430   3433     1
   3431   3450     1
   3431   3436     1
   3431   3441     1
   3432   3448     1
   3432   3440     1
   3432   3447     1
   3433   3435     1
   3433   3441     1
   3434   3438     1
   3434   3435     1
   3434   3437     1
   3434   3446     1
   3434   3436     1
   3434   3441     1
   3435   3449     1
   3435   3448     1
   3435   3451     1
   3435   3440     1
   3436   3451     1
   3436   3447     1
   3438   3448     1
   3439   3448     1
   3442   3446     1
   3442   3445     1
   3443   3446     1
   3443   3445     1
   3446   3448     1
   3446   3447     1
   3448   3450     1
   3453   3459     1
   3453   3460     1
   3454   3457     1
   3454   3456     1
   3454   3458     1
   3455   3526     1
   3456   3461     1
   3456   3459     1
   3456   3460     1
   3457   3471     1
   3457   3472     1
   3457   3464     1
   3457   3466     1
   3458   3461     1
   3458   3459     1
   3458   3460     1
   3459   3462     1
   3459   3463     1
   3459   3526     1
   3460   3462     1
   3460   3463     1
   3460   3526     1
   3461   3474     1
   3461   3475     1
   3461   3467     1
   3461   3468     1
   3462   3464     1
   3462   3466     1
   3463   3471     1
   3463   3472     1
   3464   3469     1
   3464   3467     1
   3464   3468     1
   3464   3526     1
   3465   3491     1
   3465   3526     1
   3466   3469     1
   3466   3467     1
   3466   3468     1
   3466   3526     1
   3467   3470     1
   3467   3501     1
   3468   3470     1
   3468   3501     1
   3469   3484     1
   3470   3491     1
   3471   3476     1
   3471   3474     1
   3471   3475     1
   3471   3526     1
   3472   3476     1
   3472   3474     1
   3472   3475     1
   3472   3526     1
   3473   3515     1
   3473   3526     1
   3474   3477     1
   3474   3525     1
   3475   3477     1
   3475   3525     1
   3476   3508     1
   3477   3515     1
   3478   3485     1
   3478   3500     1
   3478   3495     1
   3478   3486     1
   3479   3484     1
   3479   3490     1
   3479   3492     1
   3479   3493     1
   3480   3481     1
   3480   3499     1
   3480   3498     1
   3480   3494     1
   3480   3492     1
   3480   3493     1
   3480   3483     1
   3481   3486     1
   3481   3491     1
   3481   3500     1
   3482   3497     1
   3482   3490     1
   3482   3498     1
   3483   3491     1
   3483   3485     1
   3484   3487     1
   3484   3496     1
   3484   3486     1
   3484   3491     1
   3484   3488     1
   3484   3485     1
   3485   3501     1
   3485   3490     1
   3485   3499     1
   3485   3498     1
   3486   3497     1
   3486   3501     1
   3488   3498     1
   3489   3498     1
   3492   3495     1
   3492   3496     1
   3493   3495     1
   3493   3496     1
   3496   3497     1
   3496   3498     1
   3498   3500     1
   3502   3509     1
   3502   3524     1
   3502   3519     1
   3502   3510     1
   3503   3508     1
   3503   3514     1
   3503   3516     1
   3503   3517     1
   3504   3505     1
   3504   3523     1
   3504   3522     1
   3504   3518     1
   3504   3516     1
   3504   3517     1
   3504   3507     1
   3505   3510     1
   3505   3515     1
   3505   3524     1
   3506   3521     1
   3506   3514     1
   3506   3522     1
   3507   3515     1
   3507   3509     1
   3508   3511     1
   3508   3520     1
   3508   3510     1
   3508   3515     1
   3508   3512     1
   3508   3509     1
   3509   3525     1
   3509   3514     1
   3509   3523     1
   3509   3522     1
   3510   3521     1
   3510   3525     1
   3512   3522     1
   3513   3522     1
   3516   3519     1
   3516   3520     1
   3517   3519     1
   3517   3520     1
   3520   3521     1
   3520   3522     1
   3522   3524     1
   3527   3533     1
   3527   3534     1
   3528   3531     1
   3528   3530     1
   3528   3532     1
   3529   3600     1
   3530   3535     1
   3530   3533     1
   3530   3534     1
   3531   3545     1
   3531   3546     1
   3531   3538     1
   3531   3540     1
   3532   3535     1
   3532   3533     1
   3532   3534     1
   3533   3536     1
   3533   3537     1
   3533   3600     1
   3534   3536     1
   3534   3537     1
   3534   3600     1
   3535   3548     1
   3535   3549     1
   3535   3541     1
   3535   3542     1
   3536   3538     1
   3536   3540     1
   3537   3545     1
   3537   3546     1
   3538   3600     1
   3538   3543     1
   3538   3541     1
   3538   3542     1
   3539   3600     1
   3539   3565     1
   3540   3600     1
   3540   3543     1
   3540   3541     1
   3540   3542     1
   3541   3544     1
   3541   3575     1
   3542   3544     1
   3542   3575     1
   3543   3558     1
   3544   3565     1
   3545   3600     1
   3545   3550     1
   3545   3548     1
   3545   3549     1
   3546   3600     1
   3546   3550     1
   3546   3548     1
   3546   3549     1
   3547   3600     1
   3547   3589     1
   3548   3551     1
   3548   3599     1
   3549   3551     1
   3549   3599     1
   3550   3582     1
   3551   3589     1
   3552   3559     1
   3552   3574     1
   3552   3569     1
   3552   3560     1
   3553   3566     1
   3553   3567     1
   3553   3558     1
   3553   3564     1
   3554   3555     1
   3554   3573     1
   3554   3572     1
   3554   3568     1
   3554   3566     1
   3554   3567     1
   3554   3557     1
   3555   3574     1
   3555   3560     1
   3555   3565     1
   3556   3572     1
   3556   3564     1
   3556   3571     1
   3557   3559     1
   3557   3565     1
   3558   3562     1
   3558   3559     1
   3558   3561     1
   3558   3570     1
   3558   3560     1
   3558   3565     1
   3559   3573     1
   3559   3572     1
   3559   3575     1
   3559   3564     1
   3560   3575     1
   3560   3571     1
   3562   3572     1
   3563   3572     1
   3566   3570     1
   3566   3569     1
   3567   3570     1
   3567   3569     1
   3570   3572     1
   3570   3571     1
   3572   3574     1
   3576   3583     1
   3576   3598     1
   3576   3593     1
   3576   3584     1
   3577   3590     1
   3577   3591     1
   3577   3582     1
   3577   3588     1
   3578   3579     1
   3578   3597     1
   3578   3596     1
   3578   3592     1
   3578   3590     1
   3578   3591     1
   3578   3581     1
   3579   3598     1
   3579   3584     1
   3579   3589     1
   3580   3596     1
   3580   3588     1
   3580   3595     1
   3581   3583     1
   3581   3589     1
   3582   3586     1
   3582   3583     1
   3582   3585     1
   3582   3594     1
   3582   3584     1
   3582   3589     1
   3583   3597     1
   3583   3596     1
   3583   3599     1
   3583   3588     1
   3584   3599     1
   3584   3595     1
   3586   3596     1
   3587   3596     1
   3590   3594     1
   3590   3593     1
   3591   3594     1
   3591   3593     1
   3594   3596     1
   3594   3595     1
   3596   3598     1
   3601   3607     1
   3601   3608     1
   3602   3605     1
   3602   3604     1
   3602   3606     1
   3603   3674     1
   3604   3609     1
   3604   3607     1
   3604   3608     1
   3605   3619     1
   3605   3620     1
   3605   3612     1
   3605   3614     1
   3606   3609     1
   3606   3607     1
   3606   3608     1
   3607   3610     1
   3607   3611     1
   3607   3674     1
   3608   3610     1
   3608   3611     1
   3608   3674     1
   3609   3622     1
   3609   3623     1
   3609   3615     1
   3609   3616     1
   3610   3612     1
   3610   3614     1
   3611   3619     1
   3611   3620     1
   3612   3617     1
   3612   3615     1
   3612   3616     1
   3612   3674     1
   3613   3639     1
   3613   3674     1
   3614   3617     1
   3614   3615     1
   3614   3616     1
   3614   3674     1
   3615   3618     1
   3615   3649     1
   3616   3618     1
   3616   3649     1
   3617   3632     1
   3618   3639     1
   3619   3624     1
   3619   3622     1
   3619   3623     1
   3619   3674     1
   3620   3624     1
   3620   3622     1
   3620   3623     1
   3620   3674     1
   3621   3663     1
   3621   3674     1
   3622   3625     1
   3622   3673     1
   3623   3625     1
   3623   3673     1
   3624   3656     1
   3625   3663     1
   3626   3633     1
   3626   3648     1
   3626   3643     1
   3626   3634     1
   3627   3632     1
   3627   3638     1
   3627   3640     1
   3627   3641     1
   3628   3629     1
   3628   3647     1
   3628   3646     1
   3628   3642     1
   3628   3640     1
   3628   3641     1
   3628   3631     1
   3629   3634     1
   3629   3639     1
   3629   3648     1
   3630   3645     1
   3630   3638     1
   3630   3646     1
   3631   3639     1
   3631   3633     1
   3632   3635     1
   3632   3644     1
   3632   3634     1
   3632   3639     1
   3632   3636     1
   3632   3633     1
   3633   3649     1
   3633   3638     1
   3633   3647     1
   3633   3646     1
   3634   3645     1
   3634   3649     1
   3636   3646     1
   3637   3646     1
   3640   3643     1
   3640   3644     1
   3641   3643     1
   3641   3644     1
   3644   3645     1
   3644   3646     1
   3646   3648     1
   3650   3657     1
   3650   3672     1
   3650   3667     1
   3650   3658     1
   3651   3656     1
   3651   3662     1
   3651   3664     1
   3651   3665     1
   3652   3653     1
   3652   3671     1
   3652   3670     1
   3652   3666     1
   3652   3664     1
   3652   3665     1
   3652   3655     1
   3653   3658     1
   3653   3663     1
   3653   3672     1
   3654   3669     1
   3654   3662     1
   3654   3670     1
   3655   3663     1
   3655   3657     1
   3656   3659     1
   3656   3668     1
   3656   3658     1
   3656   3663     1
   3656   3660     1
   3656   3657     1
   3657   3673     1
   3657   3662     1
   3657   3671     1
   3657   3670     1
   3658   3669     1
   3658   3673     1
   3660   3670     1
   3661   3670     1
   3664   3667     1
   3664   3668     1
   3665   3667     1
   3665   3668     1
   3668   3669     1
   3668   3670     1
   3670   3672     1
   3675   3681     1
   3675   3682     1
   3676   3679     1
   3676   3678     1
   3676   3680     1
   3677   3748     1
   3678   3683     1
   3678   3681     1
   3678   3682     1
   3679   3693     1
   3679   3694     1
   3679   3686     1
   3679   3688     1
   3680   3683     1
   3680   3681     1
   3680   3682     1
   3681   3684     1
   3681   3685     1
   3681   3748     1
   3682   3684     1
   3682   3685     1
   3682   3748     1
   3683   3696     1
   3683   3697     1
   3683   3689     1
   3683   3690     1
   3684   3686     1
   3684   3688     1
   3685   3693     1
   3685   3694     1
   3686   3748     1
   3686   3691     1
   3686   3689     1
   3686   3690     1
   3687   3748     1
   3687   3713     1
   3688   3748     1
   3688   3691     1
   3688   3689     1
   3688   3690     1
   3689   3692     1
   3689   3723     1
   3690   3692     1
   3690   3723     1
   3691   3706     1
   3692   3713     1
   3693   3748     1
   3693   3698     1
   3693   3696     1
   3693   3697     1
   3694   3748     1
   3694   3698     1
   3694   3696     1
   3694   3697     1
   3695   3748     1
   3695   3737     1
   3696   3699     1
   3696   3747     1
   3697   3699     1
   3697   3747     1
   3698   3730     1
   3699   3737     1
   3700   3707     1
   3700   3722     1
   3700   3717     1
   3700   3708     1
   3701   3714     1
   3701   3715     1
   3701   3706     1
   3701   3712     1
   3702   3703     1
   3702   3721     1
   3702   3720     1
   3702   3716     1
   3702   3714     1
   3702   3715     1
   3702   3705     1
   3703   3722     1
   3703   3708     1
   3703   3713     1
   3704   3720     1
   3704   3712     1
   3704   3719     1
   3705   3707     1
   3705   3713     1
   3706   3710     1
   3706   3707     1
   3706   3709     1
   3706   3718     1
   3706   3708     1
   3706   3713     1
   3707   3721     1
   3707   3720     1
   3707   3723     1
   3707   3712     1
   3708   3723     1
   3708   3719     1
   3710   3720     1
   3711   3720     1
   3714   3718     1
   3714   3717     1
   3715   3718     1
   3715   3717     1
   3718   3720     1
   3718   3719     1
   3720   3722     1
   3724   3731     1
   3724   3746     1
   3724   3741     1
   3724   3732     1
   3725   3738     1
   3725   3739     1
   3725   3730     1
   3725   3736     1
   3726   3727     1
   3726   3745     1
   3726   3744     1
   3726   3740     1
   3726   3738     1
   3726   3739     1
   3726   3729     1
   3727   3746     1
   3727   3732     1
   3727   3737     1
   3728   3744     1
   3728   3736     1
   3728   3743     1
   3729   3731     1
   3729   3737     1
   3730   3734     1
   3730   3731     1
   3730   3733     1
   3730   3742     1
   3730   3732     1
   3730   3737     1
   3731   3745     1
   3731   3744     1
   3731   3747     1
   3731   3736     1
   3732   3747     1
   3732   3743     1
   3734   3744     1
   3735   3744     1
   3738   3742     1
   3738   3741     1
   3739   3742     1
   3739   3741     1
   3742   3744     1
   3742   3743     1
   3744   3746     1
   3749   3755     1
   3749   3756     1
   3750   3753     1
   3750   3752     1
   3750   3754     1
   3751   3822     1
   3752   3757     1
   3752   3755     1
   3752   3756     1
   3753   3767     1
   3753   3768     1
   3753   3760     1
   3753   3762     1
   3754   3757     1
   3754   3755     1
   3754   3756     1
   3755   3758     1
   3755   3759     1
   3755   3822     1
   3756   3758     1
   3756   3759     1
   3756   3822     1
   3757   3770     1
   3757   3771     1
   3757   3763     1
   3757   3764     1
   3758   3760     1
   3758   3762     1
   3759   3767     1
   3759   3768     1
   3760   3765     1
   3760   3763     1
   3760   3764     1
   3760   3822     1
   3761   3787     1
   3761   3822     1
   3762   3765     1
   3762   3763     1
   3762   3764     1
   3762   3822     1
   3763   3766     1
   3763   3797     1
   3764   3766     1
   3764   3797     1
   3765   3780     1
   3766   3787     1
   3767   3772     1
   3767   3770     1
   3767   3771     1
   3767   3822     1
   3768   3772     1
   3768   3770     1
   3768   3771     1
   3768   3822     1
   3769   3811     1
   3769   3822     1
   3770   3773     1
   3770   3821     1
   3771   3773     1
   3771   3821     1
   3772   3804     1
   3773   3811     1
   3774   3781     1
   3774   3796     1
   3774   3791     1
   3774   3782     1
   3775   3780     1
   3775   3786     1
   3775   3788     1
   3775   3789     1
   3776   3777     1
   3776   3795     1
   3776   3794     1
   3776   3790     1
   3776   3788     1
   3776   3789     1
   3776   3779     1
   3777   3782     1
   3777   3787     1
   3777   3796     1
   3778   3793     1
   3778   3786     1
   3778   3794     1
   3779   3787     1
   3779   3781     1
   3780   3783     1
   3780   3792     1
   3780   3782     1
   3780   3787     1
   3780   3784     1
   3780   3781     1
   3781   3797     1
   3781   3786     1
   3781   3795     1
   3781   3794     1
   3782   3793     1
   3782   3797     1
   3784   3794     1
   3785   3794     1
   3788   3791     1
   3788   3792     1
   3789   3791     1
   3789   3792     1
   3792   3793     1
   3792   3794     1
   3794   3796     1
   3798   3805     1
   3798   3820     1
   3798   3815     1
   3798   3806     1
   3799   3804     1
   3799   3810     1
   3799   3812     1
   3799   3813     1
   3800   3801     1
   3800   3819     1
   3800   3818     1
   3800   3814     1
   3800   3812     1
   3800   3813     1
   3800   3803     1
   3801   3806     1
   3801   3811     1
   3801   3820     1
   3802   3817     1
   3802   3810     1
   3802   3818     1
   3803   3811     1
   3803   3805     1
   3804   3807     1
   3804   3816     1
   3804   3806     1
   3804   3811     1
   3804   3808     1
   3804   3805     1
   3805   3821     1
   3805   3810     1
   3805   3819     1
   3805   3818     1
   3806   3817     1
   3806   3821     1
   3808   3818     1
   3809   3818     1
   3812   3815     1
   3812   3816     1
   3813   3815     1
   3813   3816     1
   3816   3817     1
   3816   3818     1
   3818   3820     1
   3823   3829     1
   3823   3830     1
   3824   3827     1
   3824   3826     1
   3824   3828     1
   3825   3896     1
   3826   3831     1
   3826   3829     1
   3826   3830     1
   3827   3841     1
   3827   3842     1
   3827   3834     1
   3827   3836     1
   3828   3831     1
   3828   3829     1
   3828   3830     1
   3829   3832     1
   3829   3833     1
   3829   3896     1
   3830   3832     1
   3830   3833     1
   3830   3896     1
   3831   3844     1
   3831   3845     1
   3831   3837     1
   3831   3838     1
   3832   3834     1
   3832   3836     1
   3833   3841     1
   3833   3842     1
   3834   3896     1
   3834   3839     1
   3834   3837     1
   3834   3838     1
   3835   3896     1
   3835   3861     1
   3836   3896     1
   3836   3839     1
   3836   3837     1
   3836   3838     1
   3837   3840     1
   3837   3871     1
   3838   3840     1
   3838   3871     1
   3839   3854     1
   3840   3861     1
   3841   3896     1
   3841   3846     1
   3841   3844     1
   3841   3845     1
   3842   3896     1
   3842   3846     1
   3842   3844     1
   3842   3845     1
   3843   3896     1
   3843   3885     1
   3844   3847     1
   3844   3895     1
   3845   3847     1
   3845   3895     1
   3846   3878     1
   3847   3885     1
   3848   3855     1
   3848   3870     1
   3848   3865     1
   3848   3856     1
   3849   3862     1
   3849   3863     1
   3849   3854     1
   3849   3860     1
   3850   3851     1
   3850   3869     1
   3850   3868     1
   3850   3864     1
   3850   3862     1
   3850   3863     1
   3850   3853     1
   3851   3870     1
   3851   3856     1
   3851   3861     1
   3852   3868     1
   3852   3860     1
   3852   3867     1
   3853   3855     1
   3853   3861     1
   3854   3858     1
   3854   3855     1
   3854   3857     1
   3854   3866     1
   3854   3856     1
   3854   3861     1
   3855   3869     1
   3855   3868     1
   3855   3871     1
   3855   3860     1
   3856   3871     1
   3856   3867     1
   3858   3868     1
   3859   3868     1
   3862   3866     1
   3862   3865     1
   3863   3866     1
   3863   3865     1
   3866   3868     1
   3866   3867     1
   3868   3870     1
   3872   3879     1
   3872   3894     1
   3872   3889     1
   3872   3880     1
   3873   3886     1
   3873   3887     1
   3873   3878     1
   3873   3884     1
   3874   3875     1
   3874   3893     1
   3874   3892     1
   3874   3888     1
   3874   3886     1
   3874   3887     1
   3874   3877     1
   3875   3894     1
   3875   3880     1
   3875   3885     1
   3876   3892     1
   3876   3884     1
   3876   3891     1
   3877   3879     1
   3877   3885     1
   3878   3882     1
   3878   3879     1
   3878   3881     1
   3878   3890     1
   3878   3880     1
   3878   3885     1
   3879   3893     1
   3879   3892     1
   3879   3895     1
   3879   3884     1
   3880   3895     1
   3880   3891     1
   3882   3892     1
   3883   3892     1
   3886   3890     1
   3886   3889     1
   3887   3890     1
   3887   3889     1
   3890   3892     1
   3890   3891     1
   3892   3894     1
   3897   3903     1
   3897   3904     1
   3898   3901     1
   3898   3900     1
   3898   3902     1
   3899   3970     1
   3900   3905     1
   3900   3903     1
   3900   3904     1
   3901   3915     1
   3901   3916     1
   3901   3908     1
   3901   3910     1
   3902   3905     1
   3902   3903     1
   3902   3904     1
   3903   3906     1
   3903   3907     1
   3903   3970     1
   3904   3906     1
   3904   3907     1
   3904   3970     1
   3905   3918     1
   3905   3919     1
   3905   3911     1
   3905   3912     1
   3906   3908     1
   3906   3910     1
   3907   3915     1
   3907   3916     1
   3908   3913     1
   3908   3911     1
   3908   3912     1
   3908   3970     1
   3909   3935     1
   3909   3970     1
   3910   3913     1
   3910   3911     1
   3910   3912     1
   3910   3970     1
   3911   3914     1
   3911   3945     1
   3912   3914     1
   3912   3945     1
   3913   3928     1
   3914   3935     1
   3915   3920     1
   3915   3918     1
   3915   3919     1
   3915   3970     1
   3916   3920     1
   3916   3918     1
   3916   3919     1
   3916   3970     1
   3917   3959     1
   3917   3970     1
   3918   3921     1
   3918   3969     1
   3919   3921     1
   3919   3969     1
   3920   3952     1
   3921   3959     1
   3922   3929     1
   3922   3944     1
   3922   3939     1
   3922   3930     1
   3923   3928     1
   3923   3934     1
   3923   3936     1
   3923   3937     1
   3924   3925     1
   3924   3943     1
   3924   3942     1
   3924   3938     1
   3924   3936     1
   3924   3937     1
   3924   3927     1
   3925   3930     1
   3925   3935     1
   3925   3944     1
   3926   3941     1
   3926   3934     1
   3926   3942     1
   3927   3935     1
   3927   3929     1
   3928   3931     1
   3928   3940     1
   3928   3930     1
   3928   3935     1
   3928   3932     1
   3928   3929     1
   3929   3945     1
   3929   3934     1
   3929   3943     1
   3929   3942     1
   3930   3941     1
   3930   3945     1
   3932   3942     1
   3933   3942     1
   3936   3939     1
   3936   3940     1
   3937   3939     1
   3937   3940     1
   3940   3941     1
   3940   3942     1
   3942   3944     1
   3946   3953     1
   3946   3968     1
   3946   3963     1
   3946   3954     1
   3947   3952     1
   3947   3958     1
   3947   3960     1
   3947   3961     1
   3948   3949     1
   3948   3967     1
   3948   3966     1
   3948   3962     1
   3948   3960     1
   3948   3961     1
   3948   3951     1
   3949   3954     1
   3949   3959     1
   3949   3968     1
   3950   3965     1
   3950   3958     1
   3950   3966     1
   3951   3959     1
   3951   3953     1
   3952   3955     1
   3952   3964     1
   3952   3954     1
   3952   3959     1
   3952   3956     1
   3952   3953     1
   3953   3969     1
   3953   3958     1
   3953   3967     1
   3953   3966     1
   3954   3965     1
   3954   3969     1
   3956   3966     1
   3957   3966     1
   3960   3963     1
   3960   3964     1
   3961   3963     1
   3961   3964     1
   3964   3965     1
   3964   3966     1
   3966   3968     1
   3971   3977     1
   3971   3978     1
   3972   3975     1
   3972   3974     1
   3972   3976     1
   3973   4044     1
   3974   3979     1
   3974   3977     1
   3974   3978     1
   3975   3989     1
   3975   3990     1
   3975   3982     1
   3975   3984     1
   3976   3979     1
   3976   3977     1
   3976   3978     1
   3977   3980     1
   3977   3981     1
   3977   4044     1
   3978   3980     1
   3978   3981     1
   3978   4044     1
   3979   3992     1
   3979   3993     1
   3979   3985     1
   3979   3986     1
   3980   3982     1
   3980   3984     1
   3981   3989     1
   3981   3990     1
   3982   4044     1
   3982   3987     1
   3982   3985     1
   3982   3986     1
   3983   4044     1
   3983   4009     1
   3984   4044     1
   3984   3987     1
   3984   3985     1
   3984   3986     1
   3985   3988     1
   3985   4019     1
   3986   3988     1
   3986   4019     1
   3987   4002     1
   3988   4009     1
   3989   4044     1
   3989   3994     1
   3989   3992     1
   3989   3993     1
   3990   4044     1
   3990   3994     1
   3990   3992     1
   3990   3993     1
   3991   4044     1
   3991   4033     1
   3992   3995     1
   3992   4043     1
   3993   3995     1
   3993   4043     1
   3994   4026     1
   3995   4033     1
   3996   4003     1
   3996   4018     1
   3996   4013     1
   3996   4004     1
   3997   4010     1
   3997   4011     1
   3997   4002     1
   3997   4008     1
   3998   3999     1
   3998   4017     1
   3998   4016     1
   3998   4012     1
   3998   4010     1
   3998   4011     1
   3998   4001     1
   3999   4018     1
   3999   4004     1
   3999   4009     1
   4000   4016     1
   4000   4008     1
   4000   4015     1
   4001   4003     1
   4001   4009     1
   4002   4006     1
   4002   4003     1
   4002   4005     1
   4002   4014     1
   4002   4004     1
   4002   4009     1
   4003   4017     1
   4003   4016     1
   4003   4019     1
   4003   4008     1
   4004   4019     1
   4004   4015     1
   4006   4016     1
   4007   4016     1
   4010   4014     1
   4010   4013     1
   4011   4014     1
   4011   4013     1
   4014   4016     1
   4014   4015     1
   4016   4018     1
   4020   4027     1
   4020   4042     1
   4020   4037     1
   4020   4028     1
   4021   4034     1
   4021   4035     1
   4021   4026     1
   4021   4032     1
   4022   4023     1
   4022   4041     1
   4022   4040     1
   4022   4036     1
   4022   4034     1
   4022   4035     1
   4022   4025     1
   4023   4042     1
   4023   4028     1
   4023   4033     1
   4024   4040     1
   4024   4032     1
   4024   4039     1
   4025   4027     1
   4025   4033     1
   4026   4030     1
   4026   4027     1
   4026   4029     1
   4026   4038     1
   4026   4028     1
   4026   4033     1
   4027   4041     1
   4027   4040     1
   4027   4043     1
   4027   4032     1
   4028   4043     1
   4028   4039     1
   4030   4040     1
   4031   4040     1
   4034   4038     1
   4034   4037     1
   4035   4038     1
   4035   4037     1
   4038   4040     1
   4038   4039     1
   4040   4042     1
   4045   4051     1
   4045   4052     1
   4046   4049     1
   4046   4048     1
   4046   4050     1
   4047   4118     1
   4048   4053     1
   4048   4051     1
   4048   4052     1
   4049   4063     1
   4049   4064     1
   4049   4056     1
   4049   4058     1
   4050   4053     1
   4050   4051     1
   4050   4052     1
   4051   4054     1
   4051   4055     1
   4051   4118     1
   4052   4054     1
   4052   4055     1
   4052   4118     1
   4053   4066     1
   4053   4067     1
   4053   4059     1
   4053   4060     1
   4054   4056     1
   4054   4058     1
   4055   4063     1
   4055   4064     1
   4056   4061     1
   4056   4059     1
   4056   4060     1
   4056   4118     1
   4057   4083     1
   4057   4118     1
   4058   4061     1
   4058   4059     1
   4058   4060     1
   4058   4118     1
   4059   4062     1
   4059   4093     1
   4060   4062     1
   4060   4093     1
   4061   4076     1
   4062   4083     1
   4063   4068     1
   4063   4066     1
   4063   4067     1
   4063   4118     1
   4064   4068     1
   4064   4066     1
   4064   4067     1
   4064   4118     1
   4065   4107     1
   4065   4118     1
   4066   4069     1
   4066   4117     1
   4067   4069     1
   4067   4117     1
   4068   4100     1
   4069   4107     1
   4070   4077     1
   4070   4092     1
   4070   4087     1
   4070   4078     1
   4071   4076     1
   4071   4082     1
   4071   4084     1
   4071   4085     1
   4072   4073     1
   4072   4091     1
   4072   4090     1
   4072   4086     1
   4072   4084     1
   4072   4085     1
   4072   4075     1
   4073   4078     1
   4073   4083     1
   4073   4092     1
   4074   4089     1
   4074   4082     1
   4074   4090     1
   4075   4083     1
   4075   4077     1
   4076   4079     1
   4076   4088     1
   4076   4078     1
   4076   4083     1
   4076   4080     1
   4076   4077     1
   4077   4093     1
   4077   4082     1
   4077   4091     1
   4077   4090     1
   4078   4089     1
   4078   4093     1
   4080   4090     1
   4081   4090     1
   4084   4087     1
   4084   4088     1
   4085   4087     1
   4085   4088     1
   4088   4089     1
   4088   4090     1
   4090   4092     1
   4094   4101     1
   4094   4116     1
   4094   4111     1
   4094   4102     1
   4095   4100     1
   4095   4106     1
   4095   4108     1
   4095   4109     1
   4096   4097     1
   4096   4115     1
   4096   4114     1
   4096   4110     1
   4096   4108     1
   4096   4109     1
   4096   4099     1
   4097   4102     1
   4097   4107     1
   4097   4116     1
   4098   4113     1
   4098   4106     1
   4098   4114     1
   4099   4107     1
   4099   4101     1
   4100   4103     1
   4100   4112     1
   4100   4102     1
   4100   4107     1
   4100   4104     1
   4100   4101     1
   4101   4117     1
   4101   4106     1
   4101   4115     1
   4101   4114     1
   4102   4113     1
   4102   4117     1
   4104   4114     1
   4105   4114     1
   4108   4111     1
   4108   4112     1
   4109   4111     1
   4109   4112     1
   4112   4113     1
   4112   4114     1
   4114   4116     1
   4119   4125     1
   4119   4126     1
   4120   4123     1
   4120   4122     1
   4120   4124     1
   4121   4192     1
   4122   4127     1
   4122   4125     1
   4122   4126     1
   4123   4137     1
   4123   4138     1
   4123   4130     1
   4123   4132     1
   4124   4127     1
   4124   4125     1
   4124   4126     1
   4125   4128     1
   4125   4129     1
   4125   4192     1
   4126   4128     1
   4126   4129     1
   4126   4192     1
   4127   4140     1
   4127   4141     1
   4127   4133     1
   4127   4134     1
   4128   4130     1
   4128   4132     1
   4129   4137     1
   4129   4138     1
   4130   4192     1
   4130   4135     1
   4130   4133     1
   4130   4134     1
   4131   4192     1
   4131   4157     1
   4132   4192     1
   4132   4135     1
   4132   4133     1
   4132   4134     1
   4133   4136     1
   4133   4167     1
   4134   4136     1
   4134   4167     1
   4135   4150     1
   4136   4157     1
   4137   4192     1
   4137   4142     1
   4137   4140     1
   4137   4141     1
   4138   4192     1
   4138   4142     1
   4138   4140     1
   4138   4141     1
   4139   4192     1
   4139   4181     1
   4140   4143     1
   4140   4191     1
   4141   4143     1
   4141   4191     1
   4142   4174     1
   4143   4181     1
   4144   4151     1
   4144   4166     1
   4144   4161     1
   4144   4152     1
   4145   4158     1
   4145   4159     1
   4145   4150     1
   4145   4156     1
   4146   4147     1
   4146   4165     1
   4146   4164     1
   4146   4160     1
   4146   4158     1
   4146   4159     1
   4146   4149     1
   4147   4166     1
   4147   4152     1
   4147   4157     1
   4148   4164     1
   4148   4156     1
   4148   4163     1
   4149   4151     1
   4149   4157     1
   4150   4154     1
   4150   4151     1
   4150   4153     1
   4150   4162     1
   4150   4152     1
   4150   4157     1
   4151   4165     1
   4151   4164     1
   4151   4167     1
   4151   4156     1
   4152   4167     1
   4152   4163     1
   4154   4164     1
   4155   4164     1
   4158   4162     1
   4158   4161     1
   4159   4162     1
   4159   4161     1
   4162   4164     1
   4162   4163     1
   4164   4166     1
   4168   4175     1
   4168   4190     1
   4168   4185     1
   4168   4176     1
   4169   4182     1
   4169   4183     1
   4169   4174     1
   4169   4180     1
   4170   4171     1
   4170   4189     1
   4170   4188     1
   4170   4184     1
   4170   4182     1
   4170   4183     1
   4170   4173     1
   4171   4190     1
   4171   4176     1
   4171   4181     1
   4172   4188     1
   4172   4180     1
   4172   4187     1
   4173   4175     1
   4173   4181     1
   4174   4178     1
   4174   4175     1
   4174   4177     1
   4174   4186     1
   4174   4176     1
   4174   4181     1
   4175   4189     1
   4175   4188     1
   4175   4191     1
   4175   4180     1
   4176   4191     1
   4176   4187     1
   4178   4188     1
   4179   4188     1
   4182   4186     1
   4182   4185     1
   4183   4186     1
   4183   4185     1
   4186   4188     1
   4186   4187     1
   4188   4190     1
   4193   4199     1
   4193   4200     1
   4194   4197     1
   4194   4196     1
   4194   4198     1
   4195   4266     1
   4196   4201     1
   4196   4199     1
   4196   4200     1
   4197   4211     1
   4197   4212     1
   4197   4204     1
   4197   4206     1
   4198   4201     1
   4198   4199     1
   4198   4200     1
   4199   4202     1
   4199   4203     1
   4199   4266     1
   4200   4202     1
   4200   4203     1
   4200   4266     1
   4201   4214     1
   4201   4215     1
   4201   4207     1
   4201   4208     1
   4202   4204     1
   4202   4206     1
   4203   4211     1
   4203   4212     1
   4204   4209     1
   4204   4207     1
   4204   4208     1
   4204   4266     1
   4205   4231     1
   4205   4266     1
   4206   4209     1
   4206   4207     1
   4206   4208     1
   4206   4266     1
   4207   4210     1
   4207   4241     1
   4208   4210     1
   4208   4241     1
   4209   4224     1
   4210   4231     1
   4211   4216     1
   4211   4214     1
   4211   4215     1
   4211   4266     1
   4212   4216     1
   4212   4214     1
   4212   4215     1
   4212   4266     1
   4213   4255     1
   4213   4266     1
   4214   4217     1
   4214   4265     1
   4215   4217     1
   4215   4265     1
   4216   4248     1
   4217   4255     1
   4218   4225     1
   4218   4240     1
   4218   4235     1
   4218   4226     1
   4219   4224     1
   4219   4230     1
   4219   4232     1
   4219   4233     1
   4220   4221     1
   4220   4239     1
   4220   4238     1
   4220   4234     1
   4220   4232     1
   4220   4233     1
   4220   4223     1
   4221   4226     1
   4221   4231     1
   4221   4240     1
   4222   4237     1
   4222   4230     1
   4222   4238     1
   4223   4231     1
   4223   4225     1
   4224   4227     1
   4224   4236     1
   4224   4226     1
   4224   4231     1
   4224   4228     1
   4224   4225     1
   4225   4241     1
   4225   4230     1
   4225   4239     1
   4225   4238     1
   4226   4237     1
   4226   4241     1
   4228   4238     1
   4229   4238     1
   4232   4235     1
   4232   4236     1
   4233   4235     1
   4233   4236     1
   4236   4237     1
   4236   4238     1
   4238   4240     1
   4242   4249     1
   4242   4264     1
   4242   4259     1
   4242   4250     1
   4243   4248     1
   4243   4254     1
   4243   4256     1
   4243   4257     1
   4244   4245     1
   4244   4263     1
   4244   4262     1
   4244   4258     1
   4244   4256     1
   4244   4257     1
   4244   4247     1
   4245   4250     1
   4245   4255     1
   4245   4264     1
   4246   4261     1
   4246   4254     1
   4246   4262     1
   4247   4255     1
   4247   4249     1
   4248   4251     1
   4248   4260     1
   4248   4250     1
   4248   4255     1
   4248   4252     1
   4248   4249     1
   4249   4265     1
   4249   4254     1
   4249   4263     1
   4249   4262     1
   4250   4261     1
   4250   4265     1
   4252   4262     1
   4253   4262     1
   4256   4259     1
   4256   4260     1
   4257   4259     1
   4257   4260     1
   4260   4261     1
   4260   4262     1
   4262   4264     1
   4267   4273     1
   4267   4274     1
   4268   4271     1
   4268   4270     1
   4268   4272     1
   4269   4340     1
   4270   4275     1
   4270   4273     1
   4270   4274     1
   4271   4285     1
   4271   4286     1
   4271   4278     1
   4271   4280     1
   4272   4275     1
   4272   4273     1
   4272   4274     1
   4273   4276     1
   4273   4277     1
   4273   4340     1
   4274   4276     1
   4274   4277     1
   4274   4340     1
   4275   4288     1
   4275   4289     1
   4275   4281     1
   4275   4282     1
   4276   4278     1
   4276   4280     1
   4277   4285     1
   4277   4286     1
   4278   4340     1
   4278   4283     1
   4278   4281     1
   4278   4282     1
   4279   4340     1
   4279   4305     1
   4280   4340     1
   4280   4283     1
   4280   4281     1
   4280   4282     1
   4281   4284     1
   4281   4315     1
   4282   4284     1
   4282   4315     1
   4283   4298     1
   4284   4305     1
   4285   4340     1
   4285   4290     1
   4285   4288     1
   4285   4289     1
   4286   4340     1
   4286   4290     1
   4286   4288     1
   4286   4289     1
   4287   4340     1
   4287   4329     1
   4288   4291     1
   4288   4339     1
   4289   4291     1
   4289   4339     1
   4290   4322     1
   4291   4329     1
   4292   4299     1
   4292   4314     1
   4292   4309     1
   4292   4300     1
   4293   4306     1
   4293   4307     1
   4293   4298     1
   4293   4304     1
   4294   4295     1
   4294   4313     1
   4294   4312     1
   4294   4308     1
   4294   4306     1
   4294   4307     1
   4294   4297     1
   4295   4314     1
   4295   4300     1
   4295   4305     1
   4296   4312     1
   4296   4304     1
   4296   4311     1
   4297   4299     1
   4297   4305     1
   4298   4302     1
   4298   4299     1
   4298   4301     1
   4298   4310     1
   4298   4300     1
   4298   4305     1
   4299   4313     1
   4299   4312     1
   4299   4315     1
   4299   4304     1
   4300   4315     1
   4300   4311     1
   4302   4312     1
   4303   4312     1
   4306   4310     1
   4306   4309     1
   4307   4310     1
   4307   4309     1
   4310   4312     1
   4310   4311     1
   4312   4314     1
   4316   4323     1
   4316   4338     1
   4316   4333     1
   4316   4324     1
   4317   4330     1
   4317   4331     1
   4317   4322     1
   4317   4328     1
   4318   4319     1
   4318   4337     1
   4318   4336     1
   4318   4332     1
   4318   4330     1
   4318   4331     1
   4318   4321     1
   4319   4338     1
   4319   4324     1
   4319   4329     1
   4320   4336     1
   4320   4328     1
   4320   4335     1
   4321   4323     1
   4321   4329     1
   4322   4326     1
   4322   4323     1
   4322   4325     1
   4322   4334     1
   4322   4324     1
   4322   4329     1
   4323   4337     1
   4323   4336     1
   4323   4339     1
   4323   4328     1
   4324   4339     1
   4324   4335     1
   4326   4336     1
   4327   4336     1
   4330   4334     1
   4330   4333     1
   4331   4334     1
   4331   4333     1
   4334   4336     1
   4334   4335     1
   4336   4338     1
   4341   4347     1
   4341   4348     1
   4342   4345     1
   4342   4344     1
   4342   4346     1
   4343   4414     1
   4344   4349     1
   4344   4347     1
   4344   4348     1
   4345   4359     1
   4345   4360     1
   4345   4352     1
   4345   4354     1
   4346   4349     1
   4346   4347     1
   4346   4348     1
   4347   4350     1
   4347   4351     1
   4347   4414     1
   4348   4350     1
   4348   4351     1
   4348   4414     1
   4349   4362     1
   4349   4363     1
   4349   4355     1
   4349   4356     1
   4350   4352     1
   4350   4354     1
   4351   4359     1
   4351   4360     1
   4352   4357     1
   4352   4355     1
   4352   4356     1
   4352   4414     1
   4353   4379     1
   4353   4414     1
   4354   4357     1
   4354   4355     1
   4354   4356     1
   4354   4414     1
   4355   4358     1
   4355   4389     1
   4356   4358     1
   4356   4389     1
   4357   4372     1
   4358   4379     1
   4359   4364     1
   4359   4362     1
   4359   4363     1
   4359   4414     1
   4360   4364     1
   4360   4362     1
   4360   4363     1
   4360   4414     1
   4361   4403     1
   4361   4414     1
   4362   4365     1
   4362   4413     1
   4363   4365     1
   4363   4413     1
   4364   4396     1
   4365   4403     1
   4366   4373     1
   4366   4388     1
   4366   4383     1
   4366   4374     1
   4367   4372     1
   4367   4378     1
   4367   4380     1
   4367   4381     1
   4368   4369     1
   4368   4387     1
   4368   4386     1
   4368   4382     1
   4368   4380     1
   4368   4381     1
   4368   4371     1
   4369   4374     1
   4369   4379     1
   4369   4388     1
   4370   4385     1
   4370   4378     1
   4370   4386     1
   4371   4379     1
   4371   4373     1
   4372   4375     1
   4372   4384     1
   4372   4374     1
   4372   4379     1
   4372   4376     1
   4372   4373     1
   4373   4389     1
   4373   4378     1
   4373   4387     1
   4373   4386     1
   4374   4385     1
   4374   4389     1
   4376   4386     1
   4377   4386     1
   4380   4383     1
   4380   4384     1
   4381   4383     1
   4381   4384     1
   4384   4385     1
   4384   4386     1
   4386   4388     1
   4390   4397     1
   4390   4412     1
   4390   4407     1
   4390   4398     1
   4391   4396     1
   4391   4402     1
   4391   4404     1
   4391   4405     1
   4392   4393     1
   4392   4411     1
   4392   4410     1
   4392   4406     1
   4392   4404     1
   4392   4405     1
   4392   4395     1
   4393   4398     1
   4393   4403     1
   4393   4412     1
   4394   4409     1
   4394   4402     1
   4394   4410     1
   4395   4403     1
   4395   4397     1
   4396   4399     1
   4396   4408     1
   4396   4398     1
   4396   4403     1
   4396   4400     1
   4396   4397     1
   4397   4413     1
   4397   4402     1
   4397   4411     1
   4397   4410     1
   4398   4409     1
   4398   4413     1
   4400   4410     1
   4401   4410     1
   4404   4407     1
   4404   4408     1
   4405   4407     1
   4405   4408     1
   4408   4409     1
   4408   4410     1
   4410   4412     1
   4415   4421     1
   4415   4422     1
   4416   4419     1
   4416   4418     1
   4416   4420     1
   4417   4488     1
   4418   4423     1
   4418   4421     1
   4418   4422     1
   4419   4433     1
   4419   4434     1
   4419   4426     1
   4419   4428     1
   4420   4423     1
   4420   4421     1
   4420   4422     1
   4421   4424     1
   4421   4425     1
   4421   4488     1
   4422   4424     1
   4422   4425     1
   4422   4488     1
   4423   4436     1
   4423   4437     1
   4423   4429     1
   4423   4430     1
   4424   4426     1
   4424   4428     1
   4425   4433     1
   4425   4434     1
   4426   4488     1
   4426   4431     1
   4426   4429     1
   4426   4430     1
   4427   4488     1
   4427   4453     1
   4428   4488     1
   4428   4431     1
   4428   4429     1
   4428   4430     1
   4429   4432     1
   4429   4463     1
   4430   4432     1
   4430   4463     1
   4431   4446     1
   4432   4453     1
   4433   4488     1
   4433   4438     1
   4433   4436     1
   4433   4437     1
   4434   4488     1
   4434   4438     1
   4434   4436     1
   4434   4437     1
   4435   4488     1
   4435   4477     1
   4436   4439     1
   4436   4487     1
   4437   4439     1
   4437   4487     1
   4438   4470     1
   4439   4477     1
   4440   4447     1
   4440   4462     1
   4440   4457     1
   4440   4448     1
   4441   4454     1
   4441   4455     1
   4441   4446     1
   4441   4452     1
   4442   4443     1
   4442   4461     1
   4442   4460     1
   4442   4456     1
   4442   4454     1
   4442   4455     1
   4442   4445     1
   4443   4462     1
   4443   4448     1
   4443   4453     1
   4444   4460     1
   4444   4452     1
   4444   4459     1
   4445   4447     1
   4445   4453     1
   4446   4450     1
   4446   4447     1
   4446   4449     1
   4446   4458     1
   4446   4448     1
   4446   4453     1
   4447   4461     1
   4447   4460     1
   4447   4463     1
   4447   4452     1
   4448   4463     1
   4448   4459     1
   4450   4460     1
   4451   4460     1
   4454   4458     1
   4454   4457     1
   4455   4458     1
   4455   4457     1
   4458   4460     1
   4458   4459     1
   4460   4462     1
   4464   4471     1
   4464   4486     1
   4464   4481     1
   4464   4472     1
   4465   4478     1
   4465   4479     1
   4465   4470     1
   4465   4476     1
   4466   4467     1
   4466   4485     1
   4466   4484     1
   4466   4480     1
   4466   4478     1
   4466   4479     1
   4466   4469     1
   4467   4486     1
   4467   4472     1
   4467   4477     1
   4468   4484     1
   4468   4476     1
   4468   4483     1
   4469   4471     1
   4469   4477     1
   4470   4474     1
   4470   4471     1
   4470   4473     1
   4470   4482     1
   4470   4472     1
   4470   4477     1
   4471   4485     1
   4471   4484     1
   4471   4487     1
   4471   4476     1
   4472   4487     1
   4472   4483     1
   4474   4484     1
   4475   4484     1
   4478   4482     1
   4478   4481     1
   4479   4482     1
   4479   4481     1
   4482   4484     1
   4482   4483     1
   4484   4486     1
   4489   4495     1
   4489   4496     1
   4490   4493     1
   4490   4492     1
   4490   4494     1
   4491   4562     1
   4492   4497     1
   4492   4495     1
   4492   4496     1
   4493   4507     1
   4493   4508     1
   4493   4500     1
   4493   4502     1
   4494   4497     1
   4494   4495     1
   4494   4496     1
   4495   4498     1
   4495   4499     1
   4495   4562     1
   4496   4498     1
   4496   4499     1
   4496   4562     1
   4497   4510     1
   4497   4511     1
   4497   4503     1
   4497   4504     1
   4498   4500     1
   4498   4502     1
   4499   4507     1
   4499   4508     1
   4500   4505     1
   4500   4503     1
   4500   4504     1
   4500   4562     1
   4501   4527     1
   4501   4562     1
   4502   4505     1
   4502   4503     1
   4502   4504     1
   4502   4562     1
   4503   4506     1
   4503   4537     1
   4504   4506     1
   4504   4537     1
   4505   4520     1
   4506   4527     1
   4507   4512     1
   4507   4510     1
   4507   4511     1
   4507   4562     1
   4508   4512     1
   4508   4510     1
   4508   4511     1
   4508   4562     1
   4509   4551     1
   4509   4562     1
   4510   4513     1
   4510   4561     1
   4511   4513     1
   4511   4561     1
   4512   4544     1
   4513   4551     1
   4514   4521     1
   4514   4536     1
   4514   4531     1
   4514   4522     1
   4515   4520     1
   4515   4526     1
   4515   4528     1
   4515   4529     1
   4516   4517     1
   4516   4535     1
   4516   4534     1
   4516   4530     1
   4516   4528     1
   4516   4529     1
   4516   4519     1
   4517   4522     1
   4517   4527     1
   4517   4536     1
   4518   4533     1
   4518   4526     1
   4518   4534     1
   4519   4527     1
   4519   4521     1
   4520   4523     1
   4520   4532     1
   4520   4522     1
   4520   4527     1
   4520   4524     1
   4520   4521     1
   4521   4537     1
   4521   4526     1
   4521   4535     1
   4521   4534     1
   4522   4533     1
   4522   4537     1
   4524   4534     1
   4525   4534     1
   4528   4531     1
   4528   4532     1
   4529   4531     1
   4529   4532     1
   4532   4533     1
   4532   4534     1
   4534   4536     1
   4538   4545     1
   4538   4560     1
   4538   4555     1
   4538   4546     1
   4539   4544     1
   4539   4550     1
   4539   4552     1
   4539   4553     1
   4540   4541     1
   4540   4559     1
   4540   4558     1
   4540   4554     1
   4540   4552     1
   4540   4553     1
   4540   4543     1
   4541   4546     1
   4541   4551     1
   4541   4560     1
   4542   4557     1
   4542   4550     1
   4542   4558     1
   4543   4551     1
   4543   4545     1
   4544   4547     1
   4544   4556     1
   4544   4546     1
   4544   4551     1
   4544   4548     1
   4544   4545     1
   4545   4561     1
   4545   4550     1
   4545   4559     1
   4545   4558     1
   4546   4557     1
   4546   4561     1
   4548   4558     1
   4549   4558     1
   4552   4555     1
   4552   4556     1
   4553   4555     1
   4553   4556     1
   4556   4557     1
   4556   4558     1
   4558   4560     1
   4563   4569     1
   4563   4570     1
   4564   4567     1
   4564   4566     1
   4564   4568     1
   4565   4636     1
   4566   4571     1
   4566   4569     1
   4566   4570     1
   4567   4581     1
   4567   4582     1
   4567   4574     1
   4567   4576     1
   4568   4571     1
   4568   4569     1
   4568   4570     1
   4569   4572     1
   4569   4573     1
   4569   4636     1
   4570   4572     1
   4570   4573     1
   4570   4636     1
   4571   4584     1
   4571   4585     1
   4571   4577     1
   4571   4578     1
   4572   4574     1
   4572   4576     1
   4573   4581     1
   4573   4582     1
   4574   4636     1
   4574   4579     1
   4574   4577     1
   4574   4578     1
   4575   4636     1
   4575   4601     1
   4576   4636     1
   4576   4579     1
   4576   4577     1
   4576   4578     1
   4577   4580     1
   4577   4611     1
   4578   4580     1
   4578   4611     1
   4579   4594     1
   4580   4601     1
   4581   4636     1
   4581   4586     1
   4581   4584     1
   4581   4585     1
   4582   4636     1
   4582   4586     1
   4582   4584     1
   4582   4585     1
   4583   4636     1
   4583   4625     1
   4584   4587     1
   4584   4635     1
   4585   4587     1
   4585   4635     1
   4586   4618     1
   4587   4625     1
   4588   4595     1
   4588   4610     1
   4588   4605     1
   4588   4596     1
   4589   4602     1
   4589   4603     1
   4589   4594     1
   4589   4600     1
   4590   4591     1
   4590   4609     1
   4590   4608     1
   4590   4604     1
   4590   4602     1
   4590   4603     1
   4590   4593     1
   4591   4610     1
   4591   4596     1
   4591   4601     1
   4592   4608     1
   4592   4600     1
   4592   4607     1
   4593   4595     1
   4593   4601     1
   4594   4598     1
   4594   4595     1
   4594   4597     1
   4594   4606     1
   4594   4596     1
   4594   4601     1
   4595   4609     1
   4595   4608     1
   4595   4611     1
   4595   4600     1
   4596   4611     1
   4596   4607     1
   4598   4608     1
   4599   4608     1
   4602   4606     1
   4602   4605     1
   4603   4606     1
   4603   4605     1
   4606   4608     1
   4606   4607     1
   4608   4610     1
   4612   4619     1
   4612   4634     1
   4612   4629     1
   4612   4620     1
   4613   4626     1
   4613   4627     1
   4613   4618     1
   4613   4624     1
   4614   4615     1
   4614   4633     1
   4614   4632     1
   4614   4628     1
   4614   4626     1
   4614   4627     1
   4614   4617     1
   4615   4634     1
   4615   4620     1
   4615   4625     1
   4616   4632     1
   4616   4624     1
   4616   4631     1
   4617   4619     1
   4617   4625     1
   4618   4622     1
   4618   4619     1
   4618   4621     1
   4618   4630     1
   4618   4620     1
   4618   4625     1
   4619   4633     1
   4619   4632     1
   4619   4635     1
   4619   4624     1
   4620   4635     1
   4620   4631     1
   4622   4632     1
   4623   4632     1
   4626   4630     1
   4626   4629     1
   4627   4630     1
   4627   4629     1
   4630   4632     1
   4630   4631     1
   4632   4634     1
   4637   4643     1
   4637   4644     1
   4638   4641     1
   4638   4640     1
   4638   4642     1
   4639   4710     1
   4640   4645     1
   4640   4643     1
   4640   4644     1
   4641   4655     1
   4641   4656     1
   4641   4648     1
   4641   4650     1
   4642   4645     1
   4642   4643     1
   4642   4644     1
   4643   4646     1
   4643   4647     1
   4643   4710     1
   4644   4646     1
   4644   4647     1
   4644   4710     1
   4645   4658     1
   4645   4659     1
   4645   4651     1
   4645   4652     1
   4646   4648     1
   4646   4650     1
   4647   4655     1
   4647   4656     1
   4648   4653     1
   4648   4651     1
   4648   4652     1
   4648   4710     1
   4649   4675     1
   4649   4710     1
   4650   4653     1
   4650   4651     1
   4650   4652     1
   4650   4710     1
   4651   4654     1
   4651   4685     1
   4652   4654     1
   4652   4685     1
   4653   4668     1
   4654   4675     1
   4655   4660     1
   4655   4658     1
   4655   4659     1
   4655   4710     1
   4656   4660     1
   4656   4658     1
   4656   4659     1
   4656   4710     1
   4657   4699     1
   4657   4710     1
   4658   4661     1
   4658   4709     1
   4659   4661     1
   4659   4709     1
   4660   4692     1
   4661   4699     1
   4662   4669     1
   4662   4684     1
   4662   4679     1
   4662   4670     1
   4663   4668     1
   4663   4674     1
   4663   4676     1
   4663   4677     1
   4664   4665     1
   4664   4683     1
   4664   4682     1
   4664   4678     1
   4664   4676     1
   4664   4677     1
   4664   4667     1
   4665   4670     1
   4665   4675     1
   4665   4684     1
   4666   4681     1
   4666   4674     1
   4666   4682     1
   4667   4675     1
   4667   4669     1
   4668   4671     1
   4668   4680     1
   4668   4670     1
   4668   4675     1
   4668   4672     1
   4668   4669     1
   4669   4685     1
   4669   4674     1
   4669   4683     1
   4669   4682     1
   4670   4681     1
   4670   4685     1
   4672   4682     1
   4673   4682     1
   4676   4679     1
   4676   4680     1
   4677   4679     1
   4677   4680     1
   4680   4681     1
   4680   4682     1
   4682   4684     1
   4686   4693     1
   4686   4708     1
   4686   4703     1
   4686   4694     1
   4687   4692     1
   4687   4698     1
   4687   4700     1
   4687   4701     1
   4688   4689     1
   4688   4707     1
   4688   4706     1
   4688   4702     1
   4688   4700     1
   4688   4701     1
   4688   4691     1
   4689   4694     1
   4689   4699     1
   4689   4708     1
   4690   4705     1
   4690   4698     1
   4690   4706     1
   4691   4699     1
   4691   4693     1
   4692   4695     1
   4692   4704     1
   4692   4694     1
   4692   4699     1
   4692   4696     1
   4692   4693     1
   4693   4709     1
   4693   4698     1
   4693   4707     1
   4693   4706     1
   4694   4705     1
   4694   4709     1
   4696   4706     1
   4697   4706     1
   4700   4703     1
   4700   4704     1
   4701   4703     1
   4701   4704     1
   4704   4705     1
   4704   4706     1
   4706   4708     1
   4711   4717     1
   4711   4718     1
   4712   4715     1
   4712   4714     1
   4712   4716     1
   4713   4784     1
   4714   4719     1
   4714   4717     1
   4714   4718     1
   4715   4729     1
   4715   4730     1
   4715   4722     1
   4715   4724     1
   4716   4719     1
   4716   4717     1
   4716   4718     1
   4717   4720     1
   4717   4721     1
   4717   4784     1
   4718   4720     1
   4718   4721     1
   4718   4784     1
   4719   4732     1
   4719   4733     1
   4719   4725     1
   4719   4726     1
   4720   4722     1
   4720   4724     1
   4721   4729     1
   4721   4730     1
   4722   4784     1
   4722   4727     1
   4722   4725     1
   4722   4726     1
   4723   4784     1
   4723   4749     1
   4724   4784     1
   4724   4727     1
   4724   4725     1
   4724   4726     1
   4725   4728     1
   4725   4759     1
   4726   4728     1
   4726   4759     1
   4727   4742     1
   4728   4749     1
   4729   4784     1
   4729   4734     1
   4729   4732     1
   4729   4733     1
   4730   4784     1
   4730   4734     1
   4730   4732     1
   4730   4733     1
   4731   4784     1
   4731   4773     1
   4732   4735     1
   4732   4783     1
   4733   4735     1
   4733   4783     1
   4734   4766     1
   4735   4773     1
   4736   4743     1
   4736   4758     1
   4736   4753     1
   4736   4744     1
   4737   4750     1
   4737   4751     1
   4737   4742     1
   4737   4748     1
   4738   4739     1
   4738   4757     1
   4738   4756     1
   4738   4752     1
   4738   4750     1
   4738   4751     1
   4738   4741     1
   4739   4758     1
   4739   4744     1
   4739   4749     1
   4740   4756     1
   4740   4748     1
   4740   4755     1
   4741   4743     1
   4741   4749     1
   4742   4746     1
   4742   4743     1
   4742   4745     1
   4742   4754     1
   4742   4744     1
   4742   4749     1
   4743   4757     1
   4743   4756     1
   4743   4759     1
   4743   4748     1
   4744   4759     1
   4744   4755     1
   4746   4756     1
   4747   4756     1
   4750   4754     1
   4750   4753     1
   4751   4754     1
   4751   4753     1
   4754   4756     1
   4754   4755     1
   4756   4758     1
   4760   4767     1
   4760   4782     1
   4760   4777     1
   4760   4768     1
   4761   4774     1
   4761   4775     1
   4761   4766     1
   4761   4772     1
   4762   4763     1
   4762   4781     1
   4762   4780     1
   4762   4776     1
   4762   4774     1
   4762   4775     1
   4762   4765     1
   4763   4782     1
   4763   4768     1
   4763   4773     1
   4764   4780     1
   4764   4772     1
   4764   4779     1
   4765   4767     1
   4765   4773     1
   4766   4770     1
   4766   4767     1
   4766   4769     1
   4766   4778     1
   4766   4768     1
   4766   4773     1
   4767   4781     1
   4767   4780     1
   4767   4783     1
   4767   4772     1
   4768   4783     1
   4768   4779     1
   4770   4780     1
   4771   4780     1
   4774   4778     1
   4774   4777     1
   4775   4778     1
   4775   4777     1
   4778   4780     1
   4778   4779     1
   4780   4782     1
   4785   4791     1
   4785   4792     1
   4786   4789     1
   4786   4788     1
   4786   4790     1
   4787   4858     1
   4788   4793     1
   4788   4791     1
   4788   4792     1
   4789   4803     1
   4789   4804     1
   4789   4796     1
   4789   4798     1
   4790   4793     1
   4790   4791     1
   4790   4792     1
   4791   4794     1
   4791   4795     1
   4791   4858     1
   4792   4794     1
   4792   4795     1
   4792   4858     1
   4793   4806     1
   4793   4807     1
   4793   4799     1
   4793   4800     1
   4794   4796     1
   4794   4798     1
   4795   4803     1
   4795   4804     1
   4796   4801     1
   4796   4799     1
   4796   4800     1
   4796   4858     1
   4797   4823     1
   4797   4858     1
   4798   4801     1
   4798   4799     1
   4798   4800     1
   4798   4858     1
   4799   4802     1
   4799   4833     1
   4800   4802     1
   4800   4833     1
   4801   4816     1
   4802   4823     1
   4803   4808     1
   4803   4806     1
   4803   4807     1
   4803   4858     1
   4804   4808     1
   4804   4806     1
   4804   4807     1
   4804   4858     1
   4805   4847     1
   4805   4858     1
   4806   4809     1
   4806   4857     1
   4807   4809     1
   4807   4857     1
   4808   4840     1
   4809   4847     1
   4810   4817     1
   4810   4832     1
   4810   4827     1
   4810   4818     1
   4811   4816     1
   4811   4822     1
   4811   4824     1
   4811   4825     1
   4812   4813     1
   4812   4831     1
   4812   4830     1
   4812   4826     1
   4812   4824     1
   4812   4825     1
   4812   4815     1
   4813   4818     1
   4813   4823     1
   4813   4832     1
   4814   4829     1
   4814   4822     1
   4814   4830     1
   4815   4823     1
   4815   4817     1
   4816   4819     1
   4816   4828     1
   4816   4818     1
   4816   4823     1
   4816   4820     1
   4816   4817     1
   4817   4833     1
   4817   4822     1
   4817   4831     1
   4817   4830     1
   4818   4829     1
   4818   4833     1
   4820   4830     1
   4821   4830     1
   4824   4827     1
   4824   4828     1
   4825   4827     1
   4825   4828     1
   4828   4829     1
   4828   4830     1
   4830   4832     1
   4834   4841     1
   4834   4856     1
   4834   4851     1
   4834   4842     1
   4835   4840     1
   4835   4846     1
   4835   4848     1
   4835   4849     1
   4836   4837     1
   4836   4855     1
   4836   4854     1
   4836   4850     1
   4836   4848     1
   4836   4849     1
   4836   4839     1
   4837   4842     1
   4837   4847     1
   4837   4856     1
   4838   4853     1
   4838   4846     1
   4838   4854     1
   4839   4847     1
   4839   4841     1
   4840   4843     1
   4840   4852     1
   4840   4842     1
   4840   4847     1
   4840   4844     1
   4840   4841     1
   4841   4857     1
   4841   4846     1
   4841   4855     1
   4841   4854     1
   4842   4853     1
   4842   4857     1
   4844   4854     1
   4845   4854     1
   4848   4851     1
   4848   4852     1
   4849   4851     1
   4849   4852     1
   4852   4853     1
   4852   4854     1
   4854   4856     1
   4859   4865     1
   4859   4866     1
   4860   4863     1
   4860   4862     1
   4860   4864     1
   4861   4932     1
   4862   4867     1
   4862   4865     1
   4862   4866     1
   4863   4877     1
   4863   4878     1
   4863   4870     1
   4863   4872     1
   4864   4867     1
   4864   4865     1
   4864   4866     1
   4865   4868     1
   4865   4869     1
   4865   4932     1
   4866   4868     1
   4866   4869     1
   4866   4932     1
   4867   4880     1
   4867   4881     1
   4867   4873     1
   4867   4874     1
   4868   4870     1
   4868   4872     1
   4869   4877     1
   4869   4878     1
   4870   4932     1
   4870   4875     1
   4870   4873     1
   4870   4874     1
   4871   4932     1
   4871   4897     1
   4872   4932     1
   4872   4875     1
   4872   4873     1
   4872   4874     1
   4873   4876     1
   4873   4907     1
   4874   4876     1
   4874   4907     1
   4875   4890     1
   4876   4897     1
   4877   4932     1
   4877   4882     1
   4877   4880     1
   4877   4881     1
   4878   4932     1
   4878   4882     1
   4878   4880     1
   4878   4881     1
   4879   4932     1
   4879   4921     1
   4880   4883     1
   4880   4931     1
   4881   4883     1
   4881   4931     1
   4882   4914     1
   4883   4921     1
   4884   4891     1
   4884   4906     1
   4884   4901     1
   4884   4892     1
   4885   4898     1
   4885   4899     1
   4885   4890     1
   4885   4896     1
   4886   4887     1
   4886   4905     1
   4886   4904     1
   4886   4900     1
   4886   4898     1
   4886   4899     1
   4886   4889     1
   4887   4906     1
   4887   4892     1
   4887   4897     1
   4888   4904     1
   4888   4896     1
   4888   4903     1
   4889   4891     1
   4889   4897     1
   4890   4894     1
   4890   4891     1
   4890   4893     1
   4890   4902     1
   4890   4892     1
   4890   4897     1
   4891   4905     1
   4891   4904     1
   4891   4907     1
   4891   4896     1
   4892   4907     1
   4892   4903     1
   4894   4904     1
   4895   4904     1
   4898   4902     1
   4898   4901     1
   4899   4902     1
   4899   4901     1
   4902   4904     1
   4902   4903     1
   4904   4906     1
   4908   4915     1
   4908   4930     1
   4908   4925     1
   4908   4916     1
   4909   4922     1
   4909   4923     1
   4909   4914     1
   4909   4920     1
   4910   4911     1
   4910   4929     1
   4910   4928     1
   4910   4924     1
   4910   4922     1
   4910   4923     1
   4910   4913     1
   4911   4930     1
   4911   4916     1
   4911   4921     1
   4912   4928     1
   4912   4920     1
   4912   4927     1
   4913   4915     1
   4913   4921     1
   4914   4918     1
   4914   4915     1
   4914   4917     1
   4914   4926     1
   4914   4916     1
   4914   4921     1
   4915   4929     1
   4915   4928     1
   4915   4931     1
   4915   4920     1
   4916   4931     1
   4916   4927     1
   4918   4928     1
   4919   4928     1
   4922   4926     1
   4922   4925     1
   4923   4926     1
   4923   4925     1
   4926   4928     1
   4926   4927     1
   4928   4930     1
   4933   4939     1
   4933   4940     1
   4934   4937     1
   4934   4936     1
   4934   4938     1
   4935   5006     1
   4936   4941     1
   4936   4939     1
   4936   4940     1
   4937   4951     1
   4937   4952     1
   4937   4944     1
   4937   4946     1
   4938   4941     1
   4938   4939     1
   4938   4940     1
   4939   4942     1
   4939   4943     1
   4939   5006     1
   4940   4942     1
   4940   4943     1
   4940   5006     1
   4941   4954     1
   4941   4955     1
   4941   4947     1
   4941   4948     1
   4942   4944     1
   4942   4946     1
   4943   4951     1
   4943   4952     1
   4944   4949     1
   4944   4947     1
   4944   4948     1
   4944   5006     1
   4945   4971     1
   4945   5006     1
   4946   4949     1
   4946   4947     1
   4946   4948     1
   4946   5006     1
   4947   4950     1
   4947   4981     1
   4948   4950     1
   4948   4981     1
   4949   4964     1
   4950   4971     1
   4951   4956     1
   4951   4954     1
   4951   4955     1
   4951   5006     1
   4952   4956     1
   4952   4954     1
   4952   4955     1
   4952   5006     1
   4953   4995     1
   4953   5006     1
   4954   4957     1
   4954   5005     1
   4955   4957     1
   4955   5005     1
   4956   4988     1
   4957   4995     1
   4958   4965     1
   4958   4980     1
   4958   4975     1
   4958   4966     1
   4959   4964     1
   4959   4970     1
   4959   4972     1
   4959   4973     1
   4960   4961     1
   4960   4979     1
   4960   4978     1
   4960   4974     1
   4960   4972     1
   4960   4973     1
   4960   4963     1
   4961   4966     1
   4961   4971     1
   4961   4980     1
   4962   4977     1
   4962   4970     1
   4962   4978     1
   4963   4971     1
   4963   4965     1
   4964   4967     1
   4964   4976     1
   4964   4966     1
   4964   4971     1
   4964   4968     1
   4964   4965     1
   4965   4981     1
   4965   4970     1
   4965   4979     1
   4965   4978     1
   4966   4977     1
   4966   4981     1
   4968   4978     1
   4969   4978     1
   4972   4975     1
   4972   4976     1
   4973   4975     1
   4973   4976     1
   4976   4977     1
   4976   4978     1
   4978   4980     1
   4982   4989     1
   4982   5004     1
   4982   4999     1
   4982   4990     1
   4983   4988     1
   4983   4994     1
   4983   4996     1
   4983   4997     1
   4984   4985     1
   4984   5003     1
   4984   5002     1
   4984   4998     1
   4984   4996     1
   4984   4997     1
   4984   4987     1
   4985   4990     1
   4985   4995     1
   4985   5004     1
   4986   5001     1
   4986   4994     1
   4986   5002     1
   4987   4995     1
   4987   4989     1
   4988   4991     1
   4988   5000     1
   4988   4990     1
   4988   4995     1
   4988   4992     1
   4988   4989     1
   4989   5005     1
   4989   4994     1
   4989   5003     1
   4989   5002     1
   4990   5001     1
   4990   5005     1
   4992   5002     1
   4993   5002     1
   4996   4999     1
   4996   5000     1
   4997   4999     1
   4997   5000     1
   5000   5001     1
   5000   5002     1
   5002   5004     1
   5007   5013     1
   5007   5014     1
   5008   5011     1
   5008   5010     1
   5008   5012     1
   5009   5080     1
   5010   5015     1
   5010   5013     1
   5010   5014     1
   5011   5025     1
   5011   5026     1
   5011   5018     1
   5011   5020     1
   5012   5015     1
   5012   5013     1
   5012   5014     1
   5013   5016     1
   5013   5017     1
   5013   5080     1
   5014   5016     1
   5014   5017     1
   5014   5080     1
   5015   5028     1
   5015   5029     1
   5015   5021     1
   5015   5022     1
   5016   5018     1
   5016   5020     1
   5017   5025     1
   5017   5026     1
   5018   5080     1
   5018   5023     1
   5018   5021     1
   5018   5022     1
   5019   5080     1
   5019   5045     1
   5020   5080     1
   5020   5023     1
   5020   5021     1
   5020   5022     1
   5021   5024     1
   5021   5055     1
   5022   5024     1
   5022   5055     1
   5023   5038     1
   5024   5045     1
   5025   5080     1
   5025   5030     1
   5025   5028     1
   5025   5029     1
   5026   5080     1
   5026   5030     1
   5026   5028     1
   5026   5029     1
   5027   5080     1
   5027   5069     1
   5028   5031     1
   5028   5079     1
   5029   5031     1
   5029   5079     1
   5030   5062     1
   5031   5069     1
   5032   5039     1
   5032   5054     1
   5032   5049     1
   5032   5040     1
   5033   5046     1
   5033   5047     1
   5033   5038     1
   5033   5044     1
   5034   5035     1
   5034   5053     1
   5034   5052     1
   5034   5048     1
   5034   5046     1
   5034   5047     1
   5034   5037     1
   5035   5054     1
   5035   5040     1
   5035   5045     1
   5036   5052     1
   5036   5044     1
   5036   5051     1
   5037   5039     1
   5037   5045     1
   5038   5042     1
   5038   5039     1
   5038   5041     1
   5038   5050     1
   5038   5040     1
   5038   5045     1
   5039   5053     1
   5039   5052     1
   5039   5055     1
   5039   5044     1
   5040   5055     1
   5040   5051     1
   5042   5052     1
   5043   5052     1
   5046   5050     1
   5046   5049     1
   5047   5050     1
   5047   5049     1
   5050   5052     1
   5050   5051     1
   5052   5054     1
   5056   5063     1
   5056   5078     1
   5056   5073     1
   5056   5064     1
   5057   5070     1
   5057   5071     1
   5057   5062     1
   5057   5068     1
   5058   5059     1
   5058   5077     1
   5058   5076     1
   5058   5072     1
   5058   5070     1
   5058   5071     1
   5058   5061     1
   5059   5078     1
   5059   5064     1
   5059   5069     1
   5060   5076     1
   5060   5068     1
   5060   5075     1
   5061   5063     1
   5061   5069     1
   5062   5066     1
   5062   5063     1
   5062   5065     1
   5062   5074     1
   5062   5064     1
   5062   5069     1
   5063   5077     1
   5063   5076     1
   5063   5079     1
   5063   5068     1
   5064   5079     1
   5064   5075     1
   5066   5076     1
   5067   5076     1
   5070   5074     1
   5070   5073     1
   5071   5074     1
   5071   5073     1
   5074   5076     1
   5074   5075     1
   5076   5078     1
   5081   5087     1
   5081   5088     1
   5082   5085     1
   5082   5084     1
   5082   5086     1
   5083   5154     1
   5084   5089     1
   5084   5087     1
   5084   5088     1
   5085   5099     1
   5085   5100     1
   5085   5092     1
   5085   5094     1
   5086   5089     1
   5086   5087     1
   5086   5088     1
   5087   5090     1
   5087   5091     1
   5087   5154     1
   5088   5090     1
   5088   5091     1
   5088   5154     1
   5089   5102     1
   5089   5103     1
   5089   5095     1
   5089   5096     1
   5090   5092     1
   5090   5094     1
   5091   5099     1
   5091   5100     1
   5092   5097     1
   5092   5095     1
   5092   5096     1
   5092   5154     1
   5093   5119     1
   5093   5154     1
   5094   5097     1
   5094   5095     1
   5094   5096     1
   5094   5154     1
   5095   5098     1
   5095   5129     1
   5096   5098     1
   5096   5129     1
   5097   5112     1
   5098   5119     1
   5099   5104     1
   5099   5102     1
   5099   5103     1
   5099   5154     1
   5100   5104     1
   5100   5102     1
   5100   5103     1
   5100   5154     1
   5101   5143     1
   5101   5154     1
   5102   5105     1
   5102   5153     1
   5103   5105     1
   5103   5153     1
   5104   5136     1
   5105   5143     1
   5106   5113     1
   5106   5128     1
   5106   5123     1
   5106   5114     1
   5107   5112     1
   5107   5118     1
   5107   5120     1
   5107   5121     1
   5108   5109     1
   5108   5127     1
   5108   5126     1
   5108   5122     1
   5108   5120     1
   5108   5121     1
   5108   5111     1
   5109   5114     1
   5109   5119     1
   5109   5128     1
   5110   5125     1
   5110   5118     1
   5110   5126     1
   5111   5119     1
   5111   5113     1
   5112   5115     1
   5112   5124     1
   5112   5114     1
   5112   5119     1
   5112   5116     1
   5112   5113     1
   5113   5129     1
   5113   5118     1
   5113   5127     1
   5113   5126     1
   5114   5125     1
   5114   5129     1
   5116   5126     1
   5117   5126     1
   5120   5123     1
   5120   5124     1
   5121   5123     1
   5121   5124     1
   5124   5125     1
   5124   5126     1
   5126   5128     1
   5130   5137     1
   5130   5152     1
   5130   5147     1
   5130   5138     1
   5131   5136     1
   5131   5142     1
   5131   5144     1
   5131   5145     1
   5132   5133     1
   5132   5151     1
   5132   5150     1
   5132   5146     1
   5132   5144     1
   5132   5145     1
   5132   5135     1
   5133   5138     1
   5133   5143     1
   5133   5152     1
   5134   5149     1
   5134   5142     1
   5134   5150     1
   5135   5143     1
   5135   5137     1
   5136   5139     1
   5136   5148     1
   5136   5138     1
   5136   5143     1
   5136   5140     1
   5136   5137     1
   5137   5153     1
   5137   5142     1
   5137   5151     1
   5137   5150     1
   5138   5149     1
   5138   5153     1
   5140   5150     1
   5141   5150     1
   5144   5147     1
   5144   5148     1
   5145   5147     1
   5145   5148     1
   5148   5149     1
   5148   5150     1
   5150   5152     1
   5155   5161     1
   5155   5162     1
   5156   5159     1
   5156   5158     1
   5156   5160     1
   5157   5228     1
   5158   5163     1
   5158   5161     1
   5158   5162     1
   5159   5173     1
   5159   5174     1
   5159   5166     1
   5159   5168     1
   5160   5163     1
   5160   5161     1
   5160   5162     1
   5161   5164     1
   5161   5165     1
   5161   5228     1
   5162   5164     1
   5162   5165     1
   5162   5228     1
   5163   5176     1
   5163   5177     1
   5163   5169     1
   5163   5170     1
   5164   5166     1
   5164   5168     1
   5165   5173     1
   5165   5174     1
   5166   5228     1
   5166   5171     1
   5166   5169     1
   5166   5170     1
   5167   5228     1
   5167   5193     1
   5168   5228     1
   5168   5171     1
   5168   5169     1
   5168   5170     1
   5169   5172     1
   5169   5203     1
   5170   5172     1
   5170   5203     1
   5171   5186     1
   5172   5193     1
   5173   5228     1
   5173   5178     1
   5173   5176     1
   5173   5177     1
   5174   5228     1
   5174   5178     1
   5174   5176     1
   5174   5177     1
   5175   5228     1
   5175   5217     1
   5176   5179     1
   5176   5227     1
   5177   5179     1
   5177   5227     1
   5178   5210     1
   5179   5217     1
   5180   5187     1
   5180   5202     1
   5180   5197     1
   5180   5188     1
   5181   5194     1
   5181   5195     1
   5181   5186     1
   5181   5192     1
   5182   5183     1
   5182   5201     1
   5182   5200     1
   5182   5196     1
   5182   5194     1
   5182   5195     1
   5182   5185     1
   5183   5202     1
   5183   5188     1
   5183   5193     1
   5184   5200     1
   5184   5192     1
   5184   5199     1
   5185   5187     1
   5185   5193     1
   5186   5190     1
   5186   5187     1
   5186   5189     1
   5186   5198     1
   5186   5188     1
   5186   5193     1
   5187   5201     1
   5187   5200     1
   5187   5203     1
   5187   5192     1
   5188   5203     1
   5188   5199     1
   5190   5200     1
   5191   5200     1
   5194   5198     1
   5194   5197     1
   5195   5198     1
   5195   5197     1
   5198   5200     1
   5198   5199     1
   5200   5202     1
   5204   5211     1
   5204   5226     1
   5204   5221     1
   5204   5212     1
   5205   5218     1
   5205   5219     1
   5205   5210     1
   5205   5216     1
   5206   5207     1
   5206   5225     1
   5206   5224     1
   5206   5220     1
   5206   5218     1
   5206   5219     1
   5206   5209     1
   5207   5226     1
   5207   5212     1
   5207   5217     1
   5208   5224     1
   5208   5216     1
   5208   5223     1
   5209   5211     1
   5209   5217     1
   5210   5214     1
   5210   5211     1
   5210   5213     1
   5210   5222     1
   5210   5212     1
   5210   5217     1
   5211   5225     1
   5211   5224     1
   5211   5227     1
   5211   5216     1
   5212   5227     1
   5212   5223     1
   5214   5224     1
   5215   5224     1
   5218   5222     1
   5218   5221     1
   5219   5222     1
   5219   5221     1
   5222   5224     1
   5222   5223     1
   5224   5226     1
   5229   5235     1
   5229   5236     1
   5230   5233     1
   5230   5232     1
   5230   5234     1
   5231   5302     1
   5232   5237     1
   5232   5235     1
   5232   5236     1
   5233   5247     1
   5233   5248     1
   5233   5240     1
   5233   5242     1
   5234   5237     1
   5234   5235     1
   5234   5236     1
   5235   5238     1
   5235   5239     1
   5235   5302     1
   5236   5238     1
   5236   5239     1
   5236   5302     1
   5237   5250     1
   5237   5251     1
   5237   5243     1
   5237   5244     1
   5238   5240     1
   5238   5242     1
   5239   5247     1
   5239   5248     1
   5240   5245     1
   5240   5243     1
   5240   5244     1
   5240   5302     1
   5241   5267     1
   5241   5302     1
   5242   5245     1
   5242   5243     1
   5242   5244     1
   5242   5302     1
   5243   5246     1
   5243   5277     1
   5244   5246     1
   5244   5277     1
   5245   5260     1
   5246   5267     1
   5247   5252     1
   5247   5250     1
   5247   5251     1
   5247   5302     1
   5248   5252     1
   5248   5250     1
   5248   5251     1
   5248   5302     1
   5249   5291     1
   5249   5302     1
   5250   5253     1
   5250   5301     1
   5251   5253     1
   5251   5301     1
   5252   5284     1
   5253   5291     1
   5254   5261     1
   5254   5276     1
   5254   5271     1
   5254   5262     1
   5255   5260     1
   5255   5266     1
   5255   5268     1
   5255   5269     1
   5256   5257     1
   5256   5275     1
   5256   5274     1
   5256   5270     1
   5256   5268     1
   5256   5269     1
   5256   5259     1
   5257   5262     1
   5257   5267     1
   5257   5276     1
   5258   5273     1
   5258   5266     1
   5258   5274     1
   5259   5267     1
   5259   5261     1
   5260   5263     1
   5260   5272     1
   5260   5262     1
   5260   5267     1
   5260   5264     1
   5260   5261     1
   5261   5277     1
   5261   5266     1
   5261   5275     1
   5261   5274     1
   5262   5273     1
   5262   5277     1
   5264   5274     1
   5265   5274     1
   5268   5271     1
   5268   5272     1
   5269   5271     1
   5269   5272     1
   5272   5273     1
   5272   5274     1
   5274   5276     1
   5278   5285     1
   5278   5300     1
   5278   5295     1
   5278   5286     1
   5279   5284     1
   5279   5290     1
   5279   5292     1
   5279   5293     1
   5280   5281     1
   5280   5299     1
   5280   5298     1
   5280   5294     1
   5280   5292     1
   5280   5293     1
   5280   5283     1
   5281   5286     1
   5281   5291     1
   5281   5300     1
   5282   5297     1
   5282   5290     1
   5282   5298     1
   5283   5291     1
   5283   5285     1
   5284   5287     1
   5284   5296     1
   5284   5286     1
   5284   5291     1
   5284   5288     1
   5284   5285     1
   5285   5301     1
   5285   5290     1
   5285   5299     1
   5285   5298     1
   5286   5297     1
   5286   5301     1
   5288   5298     1
   5289   5298     1
   5292   5295     1
   5292   5296     1
   5293   5295     1
   5293   5296     1
   5296   5297     1
   5296   5298     1
   5298   5300     1
   5303   5309     1
   5303   5310     1
   5304   5307     1
   5304   5306     1
   5304   5308     1
   5305   5376     1
   5306   5311     1
   5306   5309     1
   5306   5310     1
   5307   5321     1
   5307   5322     1
   5307   5314     1
   5307   5316     1
   5308   5311     1
   5308   5309     1
   5308   5310     1
   5309   5312     1
   5309   5313     1
   5309   5376     1
   5310   5312     1
   5310   5313     1
   5310   5376     1
   5311   5324     1
   5311   5325     1
   5311   5317     1
   5311   5318     1
   5312   5314     1
   5312   5316     1
   5313   5321     1
   5313   5322     1
   5314   5376     1
   5314   5319     1
   5314   5317     1
   5314   5318     1
   5315   5376     1
   5315   5341     1
   5316   5376     1
   5316   5319     1
   5316   5317     1
   5316   5318     1
   5317   5320     1
   5317   5351     1
   5318   5320     1
   5318   5351     1
   5319   5334     1
   5320   5341     1
   5321   5376     1
   5321   5326     1
   5321   5324     1
   5321   5325     1
   5322   5376     1
   5322   5326     1
   5322   5324     1
   5322   5325     1
   5323   5376     1
   5323   5365     1
   5324   5327     1
   5324   5375     1
   5325   5327     1
   5325   5375     1
   5326   5358     1
   5327   5365     1
   5328   5335     1
   5328   5350     1
   5328   5345     1
   5328   5336     1
   5329   5342     1
   5329   5343     1
   5329   5334     1
   5329   5340     1
   5330   5331     1
   5330   5349     1
   5330   5348     1
   5330   5344     1
   5330   5342     1
   5330   5343     1
   5330   5333     1
   5331   5350     1
   5331   5336     1
   5331   5341     1
   5332   5348     1
   5332   5340     1
   5332   5347     1
   5333   5335     1
   5333   5341     1
   5334   5338     1
   5334   5335     1
   5334   5337     1
   5334   5346     1
   5334   5336     1
   5334   5341     1
   5335   5349     1
   5335   5348     1
   5335   5351     1
   5335   5340     1
   5336   5351     1
   5336   5347     1
   5338   5348     1
   5339   5348     1
   5342   5346     1
   5342   5345     1
   5343   5346     1
   5343   5345     1
   5346   5348     1
   5346   5347     1
   5348   5350     1
   5352   5359     1
   5352   5374     1
   5352   5369     1
   5352   5360     1
   5353   5366     1
   5353   5367     1
   5353   5358     1
   5353   5364     1
   5354   5355     1
   5354   5373     1
   5354   5372     1
   5354   5368     1
   5354   5366     1
   5354   5367     1
   5354   5357     1
   5355   5374     1
   5355   5360     1
   5355   5365     1
   5356   5372     1
   5356   5364     1
   5356   5371     1
   5357   5359     1
   5357   5365     1
   5358   5362     1
   5358   5359     1
   5358   5361     1
   5358   5370     1
   5358   5360     1
   5358   5365     1
   5359   5373     1
   5359   5372     1
   5359   5375     1
   5359   5364     1
   5360   5375     1
   5360   5371     1
   5362   5372     1
   5363   5372     1
   5366   5370     1
   5366   5369     1
   5367   5370     1
   5367   5369     1
   5370   5372     1
   5370   5371     1
   5372   5374     1
   5377   5383     1
   5377   5384     1
   5378   5381     1
   5378   5380     1
   5378   5382     1
   5379   5450     1
   5380   5385     1
   5380   5383     1
   5380   5384     1
   5381   5395     1
   5381   5396     1
   5381   5388     1
   5381   5390     1
   5382   5385     1
   5382   5383     1
   5382   5384     1
   5383   5386     1
   5383   5387     1
   5383   5450     1
   5384   5386     1
   5384   5387     1
   5384   5450     1
   5385   5398     1
   5385   5399     1
   5385   5391     1
   5385   5392     1
   5386   5388     1
   5386   5390     1
   5387   5395     1
   5387   5396     1
   5388   5393     1
   5388   5391     1
   5388   5392     1
   5388   5450     1
   5389   5415     1
   5389   5450     1
   5390   5393     1
   5390   5391     1
   5390   5392     1
   5390   5450     1
   5391   5394     1
   5391   5425     1
   5392   5394     1
   5392   5425     1
   5393   5408     1
   5394   5415     1
   5395   5400     1
   5395   5398     1
   5395   5399     1
   5395   5450     1
   5396   5400     1
   5396   5398     1
   5396   5399     1
   5396   5450     1
   5397   5439     1
   5397   5450     1
   5398   5401     1
   5398   5449     1
   5399   5401     1
   5399   5449     1
   5400   5432     1
   5401   5439     1
   5402   5409     1
   5402   5424     1
   5402   5419     1
   5402   5410     1
   5403   5408     1
   5403   5414     1
   5403   5416     1
   5403   5417     1
   5404   5405     1
   5404   5423     1
   5404   5422     1
   5404   5418     1
   5404   5416     1
   5404   5417     1
   5404   5407     1
   5405   5410     1
   5405   5415     1
   5405   5424     1
   5406   5421     1
   5406   5414     1
   5406   5422     1
   5407   5415     1
   5407   5409     1
   5408   5411     1
   5408   5420     1
   5408   5410     1
   5408   5415     1
   5408   5412     1
   5408   5409     1
   5409   5425     1
   5409   5414     1
   5409   5423     1
   5409   5422     1
   5410   5421     1
   5410   5425     1
   5412   5422     1
   5413   5422     1
   5416   5419     1
   5416   5420     1
   5417   5419     1
   5417   5420     1
   5420   5421     1
   5420   5422     1
   5422   5424     1
   5426   5433     1
   5426   5448     1
   5426   5443     1
   5426   5434     1
   5427   5432     1
   5427   5438     1
   5427   5440     1
   5427   5441     1
   5428   5429     1
   5428   5447     1
   5428   5446     1
   5428   5442     1
   5428   5440     1
   5428   5441     1
   5428   5431     1
   5429   5434     1
   5429   5439     1
   5429   5448     1
   5430   5445     1
   5430   5438     1
   5430   5446     1
   5431   5439     1
   5431   5433     1
   5432   5435     1
   5432   5444     1
   5432   5434     1
   5432   5439     1
   5432   5436     1
   5432   5433     1
   5433   5449     1
   5433   5438     1
   5433   5447     1
   5433   5446     1
   5434   5445     1
   5434   5449     1
   5436   5446     1
   5437   5446     1
   5440   5443     1
   5440   5444     1
   5441   5443     1
   5441   5444     1
   5444   5445     1
   5444   5446     1
   5446   5448     1
   5451   5457     1
   5451   5458     1
   5452   5455     1
   5452   5454     1
   5452   5456     1
   5453   5524     1
   5454   5459     1
   5454   5457     1
   5454   5458     1
   5455   5469     1
   5455   5470     1
   5455   5462     1
   5455   5464     1
   5456   5459     1
   5456   5457     1
   5456   5458     1
   5457   5460     1
   5457   5461     1
   5457   5524     1
   5458   5460     1
   5458   5461     1
   5458   5524     1
   5459   5472     1
   5459   5473     1
   5459   5465     1
   5459   5466     1
   5460   5462     1
   5460   5464     1
   5461   5469     1
   5461   5470     1
   5462   5524     1
   5462   5467     1
   5462   5465     1
   5462   5466     1
   5463   5524     1
   5463   5489     1
   5464   5524     1
   5464   5467     1
   5464   5465     1
   5464   5466     1
   5465   5468     1
   5465   5499     1
   5466   5468     1
   5466   5499     1
   5467   5482     1
   5468   5489     1
   5469   5524     1
   5469   5474     1
   5469   5472     1
   5469   5473     1
   5470   5524     1
   5470   5474     1
   5470   5472     1
   5470   5473     1
   5471   5524     1
   5471   5513     1
   5472   5475     1
   5472   5523     1
   5473   5475     1
   5473   5523     1
   5474   5506     1
   5475   5513     1
   5476   5483     1
   5476   5498     1
   5476   5493     1
   5476   5484     1
   5477   5490     1
   5477   5491     1
   5477   5482     1
   5477   5488     1
   5478   5479     1
   5478   5497     1
   5478   5496     1
   5478   5492     1
   5478   5490     1
   5478   5491     1
   5478   5481     1
   5479   5498     1
   5479   5484     1
   5479   5489     1
   5480   5496     1
   5480   5488     1
   5480   5495     1
   5481   5483     1
   5481   5489     1
   5482   5486     1
   5482   5483     1
   5482   5485     1
   5482   5494     1
   5482   5484     1
   5482   5489     1
   5483   5497     1
   5483   5496     1
   5483   5499     1
   5483   5488     1
   5484   5499     1
   5484   5495     1
   5486   5496     1
   5487   5496     1
   5490   5494     1
   5490   5493     1
   5491   5494     1
   5491   5493     1
   5494   5496     1
   5494   5495     1
   5496   5498     1
   5500   5507     1
   5500   5522     1
   5500   5517     1
   5500   5508     1
   5501   5514     1
   5501   5515     1
   5501   5506     1
   5501   5512     1
   5502   5503     1
   5502   5521     1
   5502   5520     1
   5502   5516     1
   5502   5514     1
   5502   5515     1
   5502   5505     1
   5503   5522     1
   5503   5508     1
   5503   5513     1
   5504   5520     1
   5504   5512     1
   5504   5519     1
   5505   5507     1
   5505   5513     1
   5506   5510     1
   5506   5507     1
   5506   5509     1
   5506   5518     1
   5506   5508     1
   5506   5513     1
   5507   5521     1
   5507   5520     1
   5507   5523     1
   5507   5512     1
   5508   5523     1
   5508   5519     1
   5510   5520     1
   5511   5520     1
   5514   5518     1
   5514   5517     1
   5515   5518     1
   5515   5517     1
   5518   5520     1
   5518   5519     1
   5520   5522     1
   5525   5531     1
   5525   5532     1
   5526   5529     1
   5526   5528     1
   5526   5530     1
   5527   5598     1
   5528   5533     1
   5528   5531     1
   5528   5532     1
   5529   5543     1
   5529   5544     1
   5529   5536     1
   5529   5538     1
   5530   5533     1
   5530   5531     1
   5530   5532     1
   5531   5534     1
   5531   5535     1
   5531   5598     1
   5532   5534     1
   5532   5535     1
   5532   5598     1
   5533   5546     1
   5533   5547     1
   5533   5539     1
   5533   5540     1
   5534   5536     1
   5534   5538     1
   5535   5543     1
   5535   5544     1
   5536   5541     1
   5536   5539     1
   5536   5540     1
   5536   5598     1
   5537   5563     1
   5537   5598     1
   5538   5541     1
   5538   5539     1
   5538   5540     1
   5538   5598     1
   5539   5542     1
   5539   5573     1
   5540   5542     1
   5540   5573     1
   5541   5556     1
   5542   5563     1
   5543   5548     1
   5543   5546     1
   5543   5547     1
   5543   5598     1
   5544   5548     1
   5544   5546     1
   5544   5547     1
   5544   5598     1
   5545   5587     1
   5545   5598     1
   5546   5549     1
   5546   5597     1
   5547   5549     1
   5547   5597     1
   5548   5580     1
   5549   5587     1
   5550   5557     1
   5550   5572     1
   5550   5567     1
   5550   5558     1
   5551   5556     1
   5551   5562     1
   5551   5564     1
   5551   5565     1
   5552   5553     1
   5552   5571     1
   5552   5570     1
   5552   5566     1
   5552   5564     1
   5552   5565     1
   5552   5555     1
   5553   5558     1
   5553   5563     1
   5553   5572     1
   5554   5569     1
   5554   5562     1
   5554   5570     1
   5555   5563     1
   5555   5557     1
   5556   5559     1
   5556   5568     1
   5556   5558     1
   5556   5563     1
   5556   5560     1
   5556   5557     1
   5557   5573     1
   5557   5562     1
   5557   5571     1
   5557   5570     1
   5558   5569     1
   5558   5573     1
   5560   5570     1
   5561   5570     1
   5564   5567     1
   5564   5568     1
   5565   5567     1
   5565   5568     1
   5568   5569     1
   5568   5570     1
   5570   5572     1
   5574   5581     1
   5574   5596     1
   5574   5591     1
   5574   5582     1
   5575   5580     1
   5575   5586     1
   5575   5588     1
   5575   5589     1
   5576   5577     1
   5576   5595     1
   5576   5594     1
   5576   5590     1
   5576   5588     1
   5576   5589     1
   5576   5579     1
   5577   5582     1
   5577   5587     1
   5577   5596     1
   5578   5593     1
   5578   5586     1
   5578   5594     1
   5579   5587     1
   5579   5581     1
   5580   5583     1
   5580   5592     1
   5580   5582     1
   5580   5587     1
   5580   5584     1
   5580   5581     1
   5581   5597     1
   5581   5586     1
   5581   5595     1
   5581   5594     1
   5582   5593     1
   5582   5597     1
   5584   5594     1
   5585   5594     1
   5588   5591     1
   5588   5592     1
   5589   5591     1
   5589   5592     1
   5592   5593     1
   5592   5594     1
   5594   5596     1
   5599   5605     1
   5599   5606     1
   5600   5603     1
   5600   5602     1
   5600   5604     1
   5601   5672     1
   5602   5607     1
   5602   5605     1
   5602   5606     1
   5603   5617     1
   5603   5618     1
   5603   5610     1
   5603   5612     1
   5604   5607     1
   5604   5605     1
   5604   5606     1
   5605   5608     1
   5605   5609     1
   5605   5672     1
   5606   5608     1
   5606   5609     1
   5606   5672     1
   5607   5620     1
   5607   5621     1
   5607   5613     1
   5607   5614     1
   5608   5610     1
   5608   5612     1
   5609   5617     1
   5609   5618     1
   5610   5672     1
   5610   5615     1
   5610   5613     1
   5610   5614     1
   5611   5672     1
   5611   5637     1
   5612   5672     1
   5612   5615     1
   5612   5613     1
   5612   5614     1
   5613   5616     1
   5613   5647     1
   5614   5616     1
   5614   5647     1
   5615   5630     1
   5616   5637     1
   5617   5672     1
   5617   5622     1
   5617   5620     1
   5617   5621     1
   5618   5672     1
   5618   5622     1
   5618   5620     1
   5618   5621     1
   5619   5672     1
   5619   5661     1
   5620   5623     1
   5620   5671     1
   5621   5623     1
   5621   5671     1
   5622   5654     1
   5623   5661     1
   5624   5631     1
   5624   5646     1
   5624   5641     1
   5624   5632     1
   5625   5638     1
   5625   5639     1
   5625   5630     1
   5625   5636     1
   5626   5627     1
   5626   5645     1
   5626   5644     1
   5626   5640     1
   5626   5638     1
   5626   5639     1
   5626   5629     1
   5627   5646     1
   5627   5632     1
   5627   5637     1
   5628   5644     1
   5628   5636     1
   5628   5643     1
   5629   5631     1
   5629   5637     1
   5630   5634     1
   5630   5631     1
   5630   5633     1
   5630   5642     1
   5630   5632     1
   5630   5637     1
   5631   5645     1
   5631   5644     1
   5631   5647     1
   5631   5636     1
   5632   5647     1
   5632   5643     1
   5634   5644     1
   5635   5644     1
   5638   5642     1
   5638   5641     1
   5639   5642     1
   5639   5641     1
   5642   5644     1
   5642   5643     1
   5644   5646     1
   5648   5655     1
   5648   5670     1
   5648   5665     1
   5648   5656     1
   5649   5662     1
   5649   5663     1
   5649   5654     1
   5649   5660     1
   5650   5651     1
   5650   5669     1
   5650   5668     1
   5650   5664     1
   5650   5662     1
   5650   5663     1
   5650   5653     1
   5651   5670     1
   5651   5656     1
   5651   5661     1
   5652   5668     1
   5652   5660     1
   5652   5667     1
   5653   5655     1
   5653   5661     1
   5654   5658     1
   5654   5655     1
   5654   5657     1
   5654   5666     1
   5654   5656     1
   5654   5661     1
   5655   5669     1
   5655   5668     1
   5655   5671     1
   5655   5660     1
   5656   5671     1
   5656   5667     1
   5658   5668     1
   5659   5668     1
   5662   5666     1
   5662   5665     1
   5663   5666     1
   5663   5665     1
   5666   5668     1
   5666   5667     1
   5668   5670     1
   5673   5679     1
   5673   5680     1
   5674   5677     1
   5674   5676     1
   5674   5678     1
   5675   5746     1
   5676   5681     1
   5676   5679     1
   5676   5680     1
   5677   5691     1
   5677   5692     1
   5677   5684     1
   5677   5686     1
   5678   5681     1
   5678   5679     1
   5678   5680     1
   5679   5682     1
   5679   5683     1
   5679   5746     1
   5680   5682     1
   5680   5683     1
   5680   5746     1
   5681   5694     1
   5681   5695     1
   5681   5687     1
   5681   5688     1
   5682   5684     1
   5682   5686     1
   5683   5691     1
   5683   5692     1
   5684   5689     1
   5684   5687     1
   5684   5688     1
   5684   5746     1
   5685   5711     1
   5685   5746     1
   5686   5689     1
   5686   5687     1
   5686   5688     1
   5686   5746     1
   5687   5690     1
   5687   5721     1
   5688   5690     1
   5688   5721     1
   5689   5704     1
   5690   5711     1
   5691   5696     1
   5691   5694     1
   5691   5695     1
   5691   5746     1
   5692   5696     1
   5692   5694     1
   5692   5695     1
   5692   5746     1
   5693   5735     1
   5693   5746     1
   5694   5697     1
   5694   5745     1
   5695   5697     1
   5695   5745     1
   5696   5728     1
   5697   5735     1
   5698   5705     1
   5698   5720     1
   5698   5715     1
   5698   5706     1
   5699   5704     1
   5699   5710     1
   5699   5712     1
   5699   5713     1
   5700   5701     1
   5700   5719     1
   5700   5718     1
   5700   5714     1
   5700   5712     1
   5700   5713     1
   5700   5703     1
   5701   5706     1
   5701   5711     1
   5701   5720     1
   5702   5717     1
   5702   5710     1
   5702   5718     1
   5703   5711     1
   5703   5705     1
   5704   5707     1
   5704   5716     1
   5704   5706     1
   5704   5711     1
   5704   5708     1
   5704   5705     1
   5705   5721     1
   5705   5710     1
   5705   5719     1
   5705   5718     1
   5706   5717     1
   5706   5721     1
   5708   5718     1
   5709   5718     1
   5712   5715     1
   5712   5716     1
   5713   5715     1
   5713   5716     1
   5716   5717     1
   5716   5718     1
   5718   5720     1
   5722   5729     1
   5722   5744     1
   5722   5739     1
   5722   5730     1
   5723   5728     1
   5723   5734     1
   5723   5736     1
   5723   5737     1
   5724   5725     1
   5724   5743     1
   5724   5742     1
   5724   5738     1
   5724   5736     1
   5724   5737     1
   5724   5727     1
   5725   5730     1
   5725   5735     1
   5725   5744     1
   5726   5741     1
   5726   5734     1
   5726   5742     1
   5727   5735     1
   5727   5729     1
   5728   5731     1
   5728   5740     1
   5728   5730     1
   5728   5735     1
   5728   5732     1
   5728   5729     1
   5729   5745     1
   5729   5734     1
   5729   5743     1
   5729   5742     1
   5730   5741     1
   5730   5745     1
   5732   5742     1
   5733   5742     1
   5736   5739     1
   5736   5740     1
   5737   5739     1
   5737   5740     1
   5740   5741     1
   5740   5742     1
   5742   5744     1
   5747   5753     1
   5747   5754     1
   5748   5751     1
   5748   5750     1
   5748   5752     1
   5749   5820     1
   5750   5755     1
   5750   5753     1
   5750   5754     1
   5751   5765     1
   5751   5766     1
   5751   5758     1
   5751   5760     1
   5752   5755     1
   5752   5753     1
   5752   5754     1
   5753   5756     1
   5753   5757     1
   5753   5820     1
   5754   5756     1
   5754   5757     1
   5754   5820     1
   5755   5768     1
   5755   5769     1
   5755   5761     1
   5755   5762     1
   5756   5758     1
   5756   5760     1
   5757   5765     1
   5757   5766     1
   5758   5820     1
   5758   5763     1
   5758   5761     1
   5758   5762     1
   5759   5820     1
   5759   5785     1
   5760   5820     1
   5760   5763     1
   5760   5761     1
   5760   5762     1
   5761   5764     1
   5761   5795     1
   5762   5764     1
   5762   5795     1
   5763   5778     1
   5764   5785     1
   5765   5820     1
   5765   5770     1
   5765   5768     1
   5765   5769     1
   5766   5820     1
   5766   5770     1
   5766   5768     1
   5766   5769     1
   5767   5820     1
   5767   5809     1
   5768   5771     1
   5768   5819     1
   5769   5771     1
   5769   5819     1
   5770   5802     1
   5771   5809     1
   5772   5779     1
   5772   5794     1
   5772   5789     1
   5772   5780     1
   5773   5786     1
   5773   5787     1
   5773   5778     1
   5773   5784     1
   5774   5775     1
   5774   5793     1
   5774   5792     1
   5774   5788     1
   5774   5786     1
   5774   5787     1
   5774   5777     1
   5775   5794     1
   5775   5780     1
   5775   5785     1
   5776   5792     1
   5776   5784     1
   5776   5791     1
   5777   5779     1
   5777   5785     1
   5778   5782     1
   5778   5779     1
   5778   5781     1
   5778   5790     1
   5778   5780     1
   5778   5785     1
   5779   5793     1
   5779   5792     1
   5779   5795     1
   5779   5784     1
   5780   5795     1
   5780   5791     1
   5782   5792     1
   5783   5792     1
   5786   5790     1
   5786   5789     1
   5787   5790     1
   5787   5789     1
   5790   5792     1
   5790   5791     1
   5792   5794     1
   5796   5803     1
   5796   5818     1
   5796   5813     1
   5796   5804     1
   5797   5810     1
   5797   5811     1
   5797   5802     1
   5797   5808     1
   5798   5799     1
   5798   5817     1
   5798   5816     1
   5798   5812     1
   5798   5810     1
   5798   5811     1
   5798   5801     1
   5799   5818     1
   5799   5804     1
   5799   5809     1
   5800   5816     1
   5800   5808     1
   5800   5815     1
   5801   5803     1
   5801   5809     1
   5802   5806     1
   5802   5803     1
   5802   5805     1
   5802   5814     1
   5802   5804     1
   5802   5809     1
   5803   5817     1
   5803   5816     1
   5803   5819     1
   5803   5808     1
   5804   5819     1
   5804   5815     1
   5806   5816     1
   5807   5816     1
   5810   5814     1
   5810   5813     1
   5811   5814     1
   5811   5813     1
   5814   5816     1
   5814   5815     1
   5816   5818     1
   5821   5827     1
   5821   5828     1
   5822   5825     1
   5822   5824     1
   5822   5826     1
   5823   5894     1
   5824   5829     1
   5824   5827     1
   5824   5828     1
   5825   5839     1
   5825   5840     1
   5825   5832     1
   5825   5834     1
   5826   5829     1
   5826   5827     1
   5826   5828     1
   5827   5830     1
   5827   5831     1
   5827   5894     1
   5828   5830     1
   5828   5831     1
   5828   5894     1
   5829   5842     1
   5829   5843     1
   5829   5835     1
   5829   5836     1
   5830   5832     1
   5830   5834     1
   5831   5839     1
   5831   5840     1
   5832   5837     1
   5832   5835     1
   5832   5836     1
   5832   5894     1
   5833   5859     1
   5833   5894     1
   5834   5837     1
   5834   5835     1
   5834   5836     1
   5834   5894     1
   5835   5838     1
   5835   5869     1
   5836   5838     1
   5836   5869     1
   5837   5852     1
   5838   5859     1
   5839   5844     1
   5839   5842     1
   5839   5843     1
   5839   5894     1
   5840   5844     1
   5840   5842     1
   5840   5843     1
   5840   5894     1
   5841   5883     1
   5841   5894     1
   5842   5845     1
   5842   5893     1
   5843   5845     1
   5843   5893     1
   5844   5876     1
   5845   5883     1
   5846   5853     1
   5846   5868     1
   5846   5863     1
   5846   5854     1
   5847   5852     1
   5847   5858     1
   5847   5860     1
   5847   5861     1
   5848   5849     1
   5848   5867     1
   5848   5866     1
   5848   5862     1
   5848   5860     1
   5848   5861     1
   5848   5851     1
   5849   5854     1
   5849   5859     1
   5849   5868     1
   5850   5865     1
   5850   5858     1
   5850   5866     1
   5851   5859     1
   5851   5853     1
   5852   5855     1
   5852   5864     1
   5852   5854     1
   5852   5859     1
   5852   5856     1
   5852   5853     1
   5853   5869     1
   5853   5858     1
   5853   5867     1
   5853   5866     1
   5854   5865     1
   5854   5869     1
   5856   5866     1
   5857   5866     1
   5860   5863     1
   5860   5864     1
   5861   5863     1
   5861   5864     1
   5864   5865     1
   5864   5866     1
   5866   5868     1
   5870   5877     1
   5870   5892     1
   5870   5887     1
   5870   5878     1
   5871   5876     1
   5871   5882     1
   5871   5884     1
   5871   5885     1
   5872   5873     1
   5872   5891     1
   5872   5890     1
   5872   5886     1
   5872   5884     1
   5872   5885     1
   5872   5875     1
   5873   5878     1
   5873   5883     1
   5873   5892     1
   5874   5889     1
   5874   5882     1
   5874   5890     1
   5875   5883     1
   5875   5877     1
   5876   5879     1
   5876   5888     1
   5876   5878     1
   5876   5883     1
   5876   5880     1
   5876   5877     1
   5877   5893     1
   5877   5882     1
   5877   5891     1
   5877   5890     1
   5878   5889     1
   5878   5893     1
   5880   5890     1
   5881   5890     1
   5884   5887     1
   5884   5888     1
   5885   5887     1
   5885   5888     1
   5888   5889     1
   5888   5890     1
   5890   5892     1
   5895   5901     1
   5895   5902     1
   5896   5899     1
   5896   5898     1
   5896   5900     1
   5897   5968     1
   5898   5903     1
   5898   5901     1
   5898   5902     1
   5899   5913     1
   5899   5914     1
   5899   5906     1
   5899   5908     1
   5900   5903     1
   5900   5901     1
   5900   5902     1
   5901   5904     1
   5901   5905     1
   5901   5968     1
   5902   5904     1
   5902   5905     1
   5902   5968     1
   5903   5916     1
   5903   5917     1
   5903   5909     1
   5903   5910     1
   5904   5906     1
   5904   5908     1
   5905   5913     1
   5905   5914     1
   5906   5968     1
   5906   5911     1
   5906   5909     1
   5906   5910     1
   5907   5968     1
   5907   5933     1
   5908   5968     1
   5908   5911     1
   5908   5909     1
   5908   5910     1
   5909   5912     1
   5909   5943     1
   5910   5912     1
   5910   5943     1
   5911   5926     1
   5912   5933     1
   5913   5968     1
   5913   5918     1
   5913   5916     1
   5913   5917     1
   5914   5968     1
   5914   5918     1
   5914   5916     1
   5914   5917     1
   5915   5968     1
   5915   5957     1
   5916   5919     1
   5916   5967     1
   5917   5919     1
   5917   5967     1
   5918   5950     1
   5919   5957     1
   5920   5927     1
   5920   5942     1
   5920   5937     1
   5920   5928     1
   5921   5934     1
   5921   5935     1
   5921   5926     1
   5921   5932     1
   5922   5923     1
   5922   5941     1
   5922   5940     1
   5922   5936     1
   5922   5934     1
   5922   5935     1
   5922   5925     1
   5923   5942     1
   5923   5928     1
   5923   5933     1
   5924   5940     1
   5924   5932     1
   5924   5939     1
   5925   5927     1
   5925   5933     1
   5926   5930     1
   5926   5927     1
   5926   5929     1
   5926   5938     1
   5926   5928     1
   5926   5933     1
   5927   5941     1
   5927   5940     1
   5927   5943     1
   5927   5932     1
   5928   5943     1
   5928   5939     1
   5930   5940     1
   5931   5940     1
   5934   5938     1
   5934   5937     1
   5935   5938     1
   5935   5937     1
   5938   5940     1
   5938   5939     1
   5940   5942     1
   5944   5951     1
   5944   5966     1
   5944   5961     1
   5944   5952     1
   5945   5958     1
   5945   5959     1
   5945   5950     1
   5945   5956     1
   5946   5947     1
   5946   5965     1
   5946   5964     1
   5946   5960     1
   5946   5958     1
   5946   5959     1
   5946   5949     1
   5947   5966     1
   5947   5952     1
   5947   5957     1
   5948   5964     1
   5948   5956     1
   5948   5963     1
   5949   5951     1
   5949   5957     1
   5950   5954     1
   5950   5951     1
   5950   5953     1
   5950   5962     1
   5950   5952     1
   5950   5957     1
   5951   5965     1
   5951   5964     1
   5951   5967     1
   5951   5956     1
   5952   5967     1
   5952   5963     1
   5954   5964     1
   5955   5964     1
   5958   5962     1
   5958   5961     1
   5959   5962     1
   5959   5961     1
   5962   5964     1
   5962   5963     1
   5964   5966     1
   5969   5975     1
   5969   5976     1
   5970   5973     1
   5970   5972     1
   5970   5974     1
   5971   6042     1
   5972   5977     1
   5972   5975     1
   5972   5976     1
   5973   5987     1
   5973   5988     1
   5973   5980     1
   5973   5982     1
   5974   5977     1
   5974   5975     1
   5974   5976     1
   5975   5978     1
   5975   5979     1
   5975   6042     1
   5976   5978     1
   5976   5979     1
   5976   6042     1
   5977   5990     1
   5977   5991     1
   5977   5983     1
   5977   5984     1
   5978   5980     1
   5978   5982     1
   5979   5987     1
   5979   5988     1
   5980   5985     1
   5980   5983     1
   5980   5984     1
   5980   6042     1
   5981   6007     1
   5981   6042     1
   5982   5985     1
   5982   5983     1
   5982   5984     1
   5982   6042     1
   5983   5986     1
   5983   6017     1
   5984   5986     1
   5984   6017     1
   5985   6000     1
   5986   6007     1
   5987   5992     1
   5987   5990     1
   5987   5991     1
   5987   6042     1
   5988   5992     1
   5988   5990     1
   5988   5991     1
   5988   6042     1
   5989   6031     1
   5989   6042     1
   5990   5993     1
   5990   6041     1
   5991   5993     1
   5991   6041     1
   5992   6024     1
   5993   6031     1
   5994   6001     1
   5994   6016     1
   5994   6011     1
   5994   6002     1
   5995   6000     1
   5995   6006     1
   5995   6008     1
   5995   6009     1
   5996   5997     1
   5996   6015     1
   5996   6014     1
   5996   6010     1
   5996   6008     1
   5996   6009     1
   5996   5999     1
   5997   6002     1
   5997   6007     1
   5997   6016     1
   5998   6013     1
   5998   6006     1
   5998   6014     1
   5999   6007     1
   5999   6001     1
   6000   6003     1
   6000   6012     1
   6000   6002     1
   6000   6007     1
   6000   6004     1
   6000   6001     1
   6001   6017     1
   6001   6006     1
   6001   6015     1
   6001   6014     1
   6002   6013     1
   6002   6017     1
   6004   6014     1
   6005   6014     1
   6008   6011     1
   6008   6012     1
   6009   6011     1
   6009   6012     1
   6012   6013     1
   6012   6014     1
   6014   6016     1
   6018   6025     1
   6018   6040     1
   6018   6035     1
   6018   6026     1
   6019   6024     1
   6019   6030     1
   6019   6032     1
   6019   6033     1
   6020   6021     1
   6020   6039     1
   6020   6038     1
   6020   6034     1
   6020   6032     1
   6020   6033     1
   6020   6023     1
   6021   6026     1
   6021   6031     1
   6021   6040     1
   6022   6037     1
   6022   6030     1
   6022   6038     1
   6023   6031     1
   6023   6025     1
   6024   6027     1
   6024   6036     1
   6024   6026     1
   6024   6031     1
   6024   6028     1
   6024   6025     1
   6025   6041     1
   6025   6030     1
   6025   6039     1
   6025   6038     1
   6026   6037     1
   6026   6041     1
   6028   6038     1
   6029   6038     1
   6032   6035     1
   6032   6036     1
   6033   6035     1
   6033   6036     1
   6036   6037     1
   6036   6038     1
   6038   6040     1
   6043   6049     1
   6043   6050     1
   6044   6047     1
   6044   6046     1
   6044   6048     1
   6045   6116     1
   6046   6051     1
   6046   6049     1
   6046   6050     1
   6047   6061     1
   6047   6062     1
   6047   6054     1
   6047   6056     1
   6048   6051     1
   6048   6049     1
   6048   6050     1
   6049   6052     1
   6049   6053     1
   6049   6116     1
   6050   6052     1
   6050   6053     1
   6050   6116     1
   6051   6064     1
   6051   6065     1
   6051   6057     1
   6051   6058     1
   6052   6054     1
   6052   6056     1
   6053   6061     1
   6053   6062     1
   6054   6116     1
   6054   6059     1
   6054   6057     1
   6054   6058     1
   6055   6116     1
   6055   6081     1
   6056   6116     1
   6056   6059     1
   6056   6057     1
   6056   6058     1
   6057   6060     1
   6057   6091     1
   6058   6060     1
   6058   6091     1
   6059   6074     1
   6060   6081     1
   6061   6116     1
   6061   6066     1
   6061   6064     1
   6061   6065     1
   6062   6116     1
   6062   6066     1
   6062   6064     1
   6062   6065     1
   6063   6116     1
   6063   6105     1
   6064   6067     1
   6064   6115     1
   6065   6067     1
   6065   6115     1
   6066   6098     1
   6067   6105     1
   6068   6075     1
   6068   6090     1
   6068   6085     1
   6068   6076     1
   6069   6082     1
   6069   6083     1
   6069   6074     1
   6069   6080     1
   6070   6071     1
   6070   6089     1
   6070   6088     1
   6070   6084     1
   6070   6082     1
   6070   6083     1
   6070   6073     1
   6071   6090     1
   6071   6076     1
   6071   6081     1
   6072   6088     1
   6072   6080     1
   6072   6087     1
   6073   6075     1
   6073   6081     1
   6074   6078     1
   6074   6075     1
   6074   6077     1
   6074   6086     1
   6074   6076     1
   6074   6081     1
   6075   6089     1
   6075   6088     1
   6075   6091     1
   6075   6080     1
   6076   6091     1
   6076   6087     1
   6078   6088     1
   6079   6088     1
   6082   6086     1
   6082   6085     1
   6083   6086     1
   6083   6085     1
   6086   6088     1
   6086   6087     1
   6088   6090     1
   6092   6099     1
   6092   6114     1
   6092   6109     1
   6092   6100     1
   6093   6106     1
   6093   6107     1
   6093   6098     1
   6093   6104     1
   6094   6095     1
   6094   6113     1
   6094   6112     1
   6094   6108     1
   6094   6106     1
   6094   6107     1
   6094   6097     1
   6095   6114     1
   6095   6100     1
   6095   6105     1
   6096   6112     1
   6096   6104     1
   6096   6111     1
   6097   6099     1
   6097   6105     1
   6098   6102     1
   6098   6099     1
   6098   6101     1
   6098   6110     1
   6098   6100     1
   6098   6105     1
   6099   6113     1
   6099   6112     1
   6099   6115     1
   6099   6104     1
   6100   6115     1
   6100   6111     1
   6102   6112     1
   6103   6112     1
   6106   6110     1
   6106   6109     1
   6107   6110     1
   6107   6109     1
   6110   6112     1
   6110   6111     1
   6112   6114     1
   6117   6123     1
   6117   6124     1
   6118   6121     1
   6118   6120     1
   6118   6122     1
   6119   6190     1
   6120   6125     1
   6120   6123     1
   6120   6124     1
   6121   6135     1
   6121   6136     1
   6121   6128     1
   6121   6130     1
   6122   6125     1
   6122   6123     1
   6122   6124     1
   6123   6126     1
   6123   6127     1
   6123   6190     1
   6124   6126     1
   6124   6127     1
   6124   6190     1
   6125   6138     1
   6125   6139     1
   6125   6131     1
   6125   6132     1
   6126   6128     1
   6126   6130     1
   6127   6135     1
   6127   6136     1
   6128   6133     1
   6128   6131     1
   6128   6132     1
   6128   6190     1
   6129   6155     1
   6129   6190     1
   6130   6133     1
   6130   6131     1
   6130   6132     1
   6130   6190     1
   6131   6134     1
   6131   6165     1
   6132   6134     1
   6132   6165     1
   6133   6148     1
   6134   6155     1
   6135   6140     1
   6135   6138     1
   6135   6139     1
   6135   6190     1
   6136   6140     1
   6136   6138     1
   6136   6139     1
   6136   6190     1
   6137   6179     1
   6137   6190     1
   6138   6141     1
   6138   6189     1
   6139   6141     1
   6139   6189     1
   6140   6172     1
   6141   6179     1
   6142   6149     1
   6142   6164     1
   6142   6159     1
   6142   6150     1
   6143   6148     1
   6143   6154     1
   6143   6156     1
   6143   6157     1
   6144   6145     1
   6144   6163     1
   6144   6162     1
   6144   6158     1
   6144   6156     1
   6144   6157     1
   6144   6147     1
   6145   6150     1
   6145   6155     1
   6145   6164     1
   6146   6161     1
   6146   6154     1
   6146   6162     1
   6147   6155     1
   6147   6149     1
   6148   6151     1
   6148   6160     1
   6148   6150     1
   6148   6155     1
   6148   6152     1
   6148   6149     1
   6149   6165     1
   6149   6154     1
   6149   6163     1
   6149   6162     1
   6150   6161     1
   6150   6165     1
   6152   6162     1
   6153   6162     1
   6156   6159     1
   6156   6160     1
   6157   6159     1
   6157   6160     1
   6160   6161     1
   6160   6162     1
   6162   6164     1
   6166   6173     1
   6166   6188     1
   6166   6183     1
   6166   6174     1
   6167   6172     1
   6167   6178     1
   6167   6180     1
   6167   6181     1
   6168   6169     1
   6168   6187     1
   6168   6186     1
   6168   6182     1
   6168   6180     1
   6168   6181     1
   6168   6171     1
   6169   6174     1
   6169   6179     1
   6169   6188     1
   6170   6185     1
   6170   6178     1
   6170   6186     1
   6171   6179     1
   6171   6173     1
   6172   6175     1
   6172   6184     1
   6172   6174     1
   6172   6179     1
   6172   6176     1
   6172   6173     1
   6173   6189     1
   6173   6178     1
   6173   6187     1
   6173   6186     1
   6174   6185     1
   6174   6189     1
   6176   6186     1
   6177   6186     1
   6180   6183     1
   6180   6184     1
   6181   6183     1
   6181   6184     1
   6184   6185     1
   6184   6186     1
   6186   6188     1
   6191   6197     1
   6191   6198     1
   6192   6195     1
   6192   6194     1
   6192   6196     1
   6193   6264     1
   6194   6199     1
   6194   6197     1
   6194   6198     1
   6195   6209     1
   6195   6210     1
   6195   6202     1
   6195   6204     1
   6196   6199     1
   6196   6197     1
   6196   6198     1
   6197   6200     1
   6197   6201     1
   6197   6264     1
   6198   6200     1
   6198   6201     1
   6198   6264     1
   6199   6212     1
   6199   6213     1
   6199   6205     1
   6199   6206     1
   6200   6202     1
   6200   6204     1
   6201   6209     1
   6201   6210     1
   6202   6264     1
   6202   6207     1
   6202   6205     1
   6202   6206     1
   6203   6264     1
   6203   6229     1
   6204   6264     1
   6204   6207     1
   6204   6205     1
   6204   6206     1
   6205   6208     1
   6205   6239     1
   6206   6208     1
   6206   6239     1
   6207   6222     1
   6208   6229     1
   6209   6264     1
   6209   6214     1
   6209   6212     1
   6209   6213     1
   6210   6264     1
   6210   6214     1
   6210   6212     1
   6210   6213     1
   6211   6264     1
   6211   6253     1
   6212   6215     1
   6212   6263     1
   6213   6215     1
   6213   6263     1
   6214   6246     1
   6215   6253     1
   6216   6223     1
   6216   6238     1
   6216   6233     1
   6216   6224     1
   6217   6230     1
   6217   6231     1
   6217   6222     1
   6217   6228     1
   6218   6219     1
   6218   6237     1
   6218   6236     1
   6218   6232     1
   6218   6230     1
   6218   6231     1
   6218   6221     1
   6219   6238     1
   6219   6224     1
   6219   6229     1
   6220   6236     1
   6220   6228     1
   6220   6235     1
   6221   6223     1
   6221   6229     1
   6222   6226     1
   6222   6223     1
   6222   6225     1
   6222   6234     1
   6222   6224     1
   6222   6229     1
   6223   6237     1
   6223   6236     1
   6223   6239     1
   6223   6228     1
   6224   6239     1
   6224   6235     1
   6226   6236     1
   6227   6236     1
   6230   6234     1
   6230   6233     1
   6231   6234     1
   6231   6233     1
   6234   6236     1
   6234   6235     1
   6236   6238     1
   6240   6247     1
   6240   6262     1
   6240   6257     1
   6240   6248     1
   6241   6254     1
   6241   6255     1
   6241   6246     1
   6241   6252     1
   6242   6243     1
   6242   6261     1
   6242   6260     1
   6242   6256     1
   6242   6254     1
   6242   6255     1
   6242   6245     1
   6243   6262     1
   6243   6248     1
   6243   6253     1
   6244   6260     1
   6244   6252     1
   6244   6259     1
   6245   6247     1
   6245   6253     1
   6246   6250     1
   6246   6247     1
   6246   6249     1
   6246   6258     1
   6246   6248     1
   6246   6253     1
   6247   6261     1
   6247   6260     1
   6247   6263     1
   6247   6252     1
   6248   6263     1
   6248   6259     1
   6250   6260     1
   6251   6260     1
   6254   6258     1
   6254   6257     1
   6255   6258     1
   6255   6257     1
   6258   6260     1
   6258   6259     1
   6260   6262     1
   6265   6271     1
   6265   6272     1
   6266   6269     1
   6266   6268     1
   6266   6270     1
   6267   6338     1
   6268   6273     1
   6268   6271     1
   6268   6272     1
   6269   6283     1
   6269   6284     1
   6269   6276     1
   6269   6278     1
   6270   6273     1
   6270   6271     1
   6270   6272     1
   6271   6274     1
   6271   6275     1
   6271   6338     1
   6272   6274     1
   6272   6275     1
   6272   6338     1
   6273   6286     1
   6273   6287     1
   6273   6279     1
   6273   6280     1
   6274   6276     1
   6274   6278     1
   6275   6283     1
   6275   6284     1
   6276   6281     1
   6276   6279     1
   6276   6280     1
   6276   6338     1
   6277   6303     1
   6277   6338     1
   6278   6281     1
   6278   6279     1
   6278   6280     1
   6278   6338     1
   6279   6282     1
   6279   6313     1
   6280   6282     1
   6280   6313     1
   6281   6296     1
   6282   6303     1
   6283   6288     1
   6283   6286     1
   6283   6287     1
   6283   6338     1
   6284   6288     1
   6284   6286     1
   6284   6287     1
   6284   6338     1
   6285   6327     1
   6285   6338     1
   6286   6289     1
   6286   6337     1
   6287   6289     1
   6287   6337     1
   6288   6320     1
   6289   6327     1
   6290   6297     1
   6290   6312     1
   6290   6307     1
   6290   6298     1
   6291   6296     1
   6291   6302     1
   6291   6304     1
   6291   6305     1
   6292   6293     1
   6292   6311     1
   6292   6310     1
   6292   6306     1
   6292   6304     1
   6292   6305     1
   6292   6295     1
   6293   6298     1
   6293   6303     1
   6293   6312     1
   6294   6309     1
   6294   6302     1
   6294   6310     1
   6295   6303     1
   6295   6297     1
   6296   6299     1
   6296   6308     1
   6296   6298     1
   6296   6303     1
   6296   6300     1
   6296   6297     1
   6297   6313     1
   6297   6302     1
   6297   6311     1
   6297   6310     1
   6298   6309     1
   6298   6313     1
   6300   6310     1
   6301   6310     1
   6304   6307     1
   6304   6308     1
   6305   6307     1
   6305   6308     1
   6308   6309     1
   6308   6310     1
   6310   6312     1
   6314   6321     1
   6314   6336     1
   6314   6331     1
   6314   6322     1
   6315   6320     1
   6315   6326     1
   6315   6328     1
   6315   6329     1
   6316   6317     1
   6316   6335     1
   6316   6334     1
   6316   6330     1
   6316   6328     1
   6316   6329     1
   6316   6319     1
   6317   6322     1
   6317   6327     1
   6317   6336     1
   6318   6333     1
   6318   6326     1
   6318   6334     1
   6319   6327     1
   6319   6321     1
   6320   6323     1
   6320   6332     1
   6320   6322     1
   6320   6327     1
   6320   6324     1
   6320   6321     1
   6321   6337     1
   6321   6326     1
   6321   6335     1
   6321   6334     1
   6322   6333     1
   6322   6337     1
   6324   6334     1
   6325   6334     1
   6328   6331     1
   6328   6332     1
   6329   6331     1
   6329   6332     1
   6332   6333     1
   6332   6334     1
   6334   6336     1

[ angles ]
;    ai     aj     ak funct         c0         c1         c2         c3
      1      2      3     1   114.2100488 537.225600
      1      7     13     1   114.2100488 537.225600
      1      8     15     1   114.2100488 537.225600
      2      1      7     1   109.6600471 523.836800
      2      1      8     1   109.6600471 523.836800
      2      3      4     1   114.2100488 537.225600
      3      4      5     1   109.6600471 523.836800
      3      4      6     1   109.6600471 523.836800
      4      5     11     1   114.2100488 537.225600
      4      6      9     1   114.2100488 537.225600
      5      4      6     1   109.6600471 523.836800
      5     11     12     1   111.0400475 529.694400
      6      9     10     1   111.0400475 529.694400
      7      1      8     1   109.6600471 523.836800
      7     13     14     1   111.0400475 529.694400
      8     15     16     1   111.0400475 529.694400
      9     10     18     1   123.2000528 564.003200
      9     10     52     1   115.1800491 558.982400
     10     52     51     1   120.6900519 530.531200
     11     12     17     1   123.2000528 564.003200
     11     12     78     1   115.1800491 558.982400
     12     78     77     1   120.6900519 530.531200
     13     14     20     1   123.2000528 564.003200
     13     14    104     1   115.1800491 558.982400
     14    104    103     1   120.6900519 530.531200
     15     16     19     1   123.2000528 564.003200
     15     16    130     1   115.1800491 558.982400
     16    130    129     1   120.6900519 530.531200
     17     12     78     1   123.0500530 620.905600
     18     10     52     1   123.0500530 620.905600
     19     16    130     1   123.0500530 620.905600
     20     14    104     1   123.0500530 620.905600
     43     44     46     1   114.2100488 537.225600
     43     45     48     1   114.2100488 537.225600
     43     50     51     1   114.2100488 537.225600
     44     43     45     1   109.6600471 523.836800
     44     43     50     1   109.6600471 523.836800
     44     46     47     1   111.0400475 529.694400
     45     43     50     1   109.6600471 523.836800
     45     48     49     1   111.0400475 529.694400
     46     47     53     1   123.2000528 564.003200
     46     47    156     1   115.1800491 558.982400
     47    156    155     1   120.6900519 530.531200
     48     49     54     1   123.2000528 564.003200
     48     49    182     1   115.1800491 558.982400
     49    182    181     1   120.6900519 530.531200
     50     51     52     1   111.6100477 551.451200
     53     47    156     1   123.0500530 620.905600
     54     49    182     1   123.0500530 620.905600
     69     70     72     1   114.2100488 537.225600
     69     71     74     1   114.2100488 537.225600
     69     76     77     1   114.2100488 537.225600
     70     69     71     1   109.6600471 523.836800
     70     69     76     1   109.6600471 523.836800
     70     72     73     1   111.0400475 529.694400
     71     69     76     1   109.6600471 523.836800
     71     74     75     1   111.0400475 529.694400
     72     73     79     1   123.2000528 564.003200
     72     73    208     1   115.1800491 558.982400
     73    208    207     1   120.6900519 530.531200
     74     75     80     1   123.2000528 564.003200
     74     75    234     1   115.1800491 558.982400
     75    234    233     1   120.6900519 530.531200
     76     77     78     1   111.6100477 551.451200
     79     73    208     1   123.0500530 620.905600
     80     75    234     1   123.0500530 620.905600
     95     96     98     1   114.2100488 537.225600
     95     97    100     1   114.2100488 537.225600
     95    102    103     1   114.2100488 537.225600
     96     95     97     1   109.6600471 523.836800
     96     95    102     1   109.6600471 523.836800
     96     98     99     1   111.0400475 529.694400
     97     95    102     1   109.6600471 523.836800
     97    100    101     1   111.0400475 529.694400
     98     99    105     1   123.2000528 564.003200
     98     99    260     1   115.1800491 558.982400
     99    260    259     1   120.6900519 530.531200
    100    101    106     1   123.2000528 564.003200
    100    101    286     1   115.1800491 558.982400
    101    286    285     1   120.6900519 530.531200
    102    103    104     1   111.6100477 551.451200
    105     99    260     1   123.0500530 620.905600
    106    101    286     1   123.0500530 620.905600
    121    122    124     1   114.2100488 537.225600
    121    123    126     1   114.2100488 537.225600
    121    128    129     1   114.2100488 537.225600
    122    121    123     1   109.6600471 523.836800
    122    121    128     1   109.6600471 523.836800
    122    124    125     1   111.0400475 529.694400
    123    121    128     1   109.6600471 523.836800
    123    126    127     1   111.0400475 529.694400
    124    125    131     1   123.2000528 564.003200
    124    125    312     1   115.1800491 558.982400
    125    312    311     1   120.6900519 530.531200
    126    127    132     1   123.2000528 564.003200
    126    127    338     1   115.1800491 558.982400
    127    338    337     1   120.6900519 530.531200
    128    129    130     1   111.6100477 551.451200
    131    125    312     1   123.0500530 620.905600
    132    127    338     1   123.0500530 620.905600
    147    148    150     1   114.2100488 537.225600
    147    149    152     1   114.2100488 537.225600
    147    154    155     1   114.2100488 537.225600
    148    147    149     1   109.6600471 523.836800
    148    147    154     1   109.6600471 523.836800
    148    150    151     1   111.0400475 529.694400
    149    147    154     1   109.6600471 523.836800
    149    152    153     1   111.0400475 529.694400
    150    151    157     1   123.2000528 564.003200
    150    151    364     1   115.1800491 558.982400
    151    364    363     1   120.6900519 530.531200
    152    153    158     1   123.2000528 564.003200
    152    153    390     1   115.1800491 558.982400
    153    390    389     1   120.6900519 530.531200
    154    155    156     1   111.6100477 551.451200
    157    151    364     1   123.0500530 620.905600
    158    153    390     1   123.0500530 620.905600
    173    174    176     1   114.2100488 537.225600
    173    175    178     1   114.2100488 537.225600
    173    180    181     1   114.2100488 537.225600
    174    173    175     1   109.6600471 523.836800
    174    173    180     1   109.6600471 523.836800
    174    176    177     1   111.0400475 529.694400
    175    173    180     1   109.6600471 523.836800
    175    178    179     1   111.0400475 529.694400
    176    177    183     1   123.2000528 564.003200
    176    177    416     1   115.1800491 558.982400
    177    416    415     1   120.6900519 530.531200
    178    179    184     1   123.2000528 564.003200
    178    179    442     1   115.1800491 558.982400
    179    442    441     1   120.6900519 530.531200
    180    181    182     1   111.6100477 551.451200
    183    177    416     1   123.0500530 620.905600
    184    179    442     1   123.0500530 620.905600
    199    200    202     1   114.2100488 537.225600
    199    201    204     1   114.2100488 537.225600
    199    206    207     1   114.2100488 537.225600
    200    199    201     1   109.6600471 523.836800
    200    199    206     1   109.6600471 523.836800
    200    202    203     1   111.0400475 529.694400
    201    199    206     1   109.6600471 523.836800
    201    204    205     1   111.0400475 529.694400
    202    203    209     1   123.2000528 564.003200
    202    203    468     1   115.1800491 558.982400
    203    468    467     1   120.6900519 530.531200
    204    205    210     1   123.2000528 564.003200
    204    205    494     1   115.1800491 558.982400
    205    494    493     1   120.6900519 530.531200
    206    207    208     1   111.6100477 551.451200
    209    203    468     1   123.0500530 620.905600
    210    205    494     1   123.0500530 620.905600
    225    226    228     1   114.2100488 537.225600
    225    227    230     1   114.2100488 537.225600
    225    232    233     1   114.2100488 537.225600
    226    225    227     1   109.6600471 523.836800
    226    225    232     1   109.6600471 523.836800
    226    228    229     1   111.0400475 529.694400
    227    225    232     1   109.6600471 523.836800
    227    230    231     1   111.0400475 529.694400
    228    229    235     1   123.2000528 564.003200
    228    229    520     1   115.1800491 558.982400
    229    520    519     1   120.6900519 530.531200
    230    231    236     1   123.2000528 564.003200
    230    231    546     1   115.1800491 558.982400
    231    546    545     1   120.6900519 530.531200
    232    233    234     1   111.6100477 551.451200
    235    229    520     1   123.0500530 620.905600
    236    231    546     1   123.0500530 620.905600
    251    252    254     1   114.2100488 537.225600
    251    253    256     1   114.2100488 537.225600
    251    258    259     1   114.2100488 537.225600
    252    251    253     1   109.6600471 523.836800
    252    251    258     1   109.6600471 523.836800
    252    254    255     1   111.0400475 529.694400
    253    251    258     1   109.6600471 523.836800
    253    256    257     1   111.0400475 529.694400
    254    255    261     1   123.2000528 564.003200
    254    255    572     1   115.1800491 558.982400
    255    572    571     1   120.6900519 530.531200
    256    257    262     1   123.2000528 564.003200
    256    257    598     1   115.1800491 558.982400
    257    598    597     1   120.6900519 530.531200
    258    259    260     1   111.6100477 551.451200
    261    255    572     1   123.0500530 620.905600
    262    257    598     1   123.0500530 620.905600
    277    278    280     1   114.2100488 537.225600
    277    279    282     1   114.2100488 537.225600
    277    284    285     1   114.2100488 537.225600
    278    277    279     1   109.6600471 523.836800
    278    277    284     1   109.6600471 523.836800
    278    280    281     1   111.0400475 529.694400
    279    277    284     1   109.6600471 523.836800
    279    282    283     1   111.0400475 529.694400
    280    281    287     1   123.2000528 564.003200
    280    281    624     1   115.1800491 558.982400
    281    624    623     1   120.6900519 530.531200
    282    283    288     1   123.2000528 564.003200
    282    283    650     1   115.1800491 558.982400
    283    650    649     1   120.6900519 530.531200
    284    285    286     1   111.6100477 551.451200
    287    281    624     1   123.0500530 620.905600
    288    283    650     1   123.0500530 620.905600
    303    304    306     1   114.2100488 537.225600
    303    305    308     1   114.2100488 537.225600
    303    310    311     1   114.2100488 537.225600
    304    303    305     1   109.6600471 523.836800
    304    303    310     1   109.6600471 523.836800
    304    306    307     1   111.0400475 529.694400
    305    303    310     1   109.6600471 523.836800
    305    308    309     1   111.0400475 529.694400
    306    307    313     1   123.2000528 564.003200
    306    307    676     1   115.1800491 558.982400
    307    676    675     1   120.6900519 530.531200
    308    309    314     1   123.2000528 564.003200
    308    309    702     1   115.1800491 558.982400
    309    702    701     1   120.6900519 530.531200
    310    311    312     1   111.6100477 551.451200
    313    307    676     1   123.0500530 620.905600
    314    309    702     1   123.0500530 620.905600
    329    330    332     1   114.2100488 537.225600
    329    331    334     1   114.2100488 537.225600
    329    336    337     1   114.2100488 537.225600
    330    329    331     1   109.6600471 523.836800
    330    329    336     1   109.6600471 523.836800
    330    332    333     1   111.0400475 529.694400
    331    329    336     1   109.6600471 523.836800
    331    334    335     1   111.0400475 529.694400
    332    333    339     1   123.2000528 564.003200
    332    333    728     1   115.1800491 558.982400
    333    728    727     1   120.6900519 530.531200
    334    335    340     1   123.2000528 564.003200
    334    335    754     1   115.1800491 558.982400
    335    754    753     1   120.6900519 530.531200
    336    337    338     1   111.6100477 551.451200
    339    333    728     1   123.0500530 620.905600
    340    335    754     1   123.0500530 620.905600
    355    356    358     1   114.2100488 537.225600
    355    357    360     1   114.2100488 537.225600
    355    362    363     1   114.2100488 537.225600
    356    355    357     1   109.6600471 523.836800
    356    355    362     1   109.6600471 523.836800
    356    358    359     1   111.0400475 529.694400
    357    355    362     1   109.6600471 523.836800
    357    360    361     1   111.0400475 529.694400
    358    359    365     1   123.2000528 564.003200
    358    359    780     1   115.1800491 558.982400
    359    780    779     1   120.6900519 530.531200
    360    361    366     1   123.2000528 564.003200
    360    361    806     1   115.1800491 558.982400
    361    806    805     1   120.6900519 530.531200
    362    363    364     1   111.6100477 551.451200
    365    359    780     1   123.0500530 620.905600
    366    361    806     1   123.0500530 620.905600
    381    382    384     1   114.2100488 537.225600
    381    383    386     1   114.2100488 537.225600
    381    388    389     1   114.2100488 537.225600
    382    381    383     1   109.6600471 523.836800
    382    381    388     1   109.6600471 523.836800
    382    384    385     1   111.0400475 529.694400
    383    381    388     1   109.6600471 523.836800
    383    386    387     1   111.0400475 529.694400
    384    385    391     1   123.2000528 564.003200
    384    385    832     1   115.1800491 558.982400
    385    832    831     1   120.6900519 530.531200
    386    387    392     1   123.2000528 564.003200
    386    387    858     1   115.1800491 558.982400
    387    858    857     1   120.6900519 530.531200
    388    389    390     1   111.6100477 551.451200
    391    385    832     1   123.0500530 620.905600
    392    387    858     1   123.0500530 620.905600
    407    408    410     1   114.2100488 537.225600
    407    409    412     1   114.2100488 537.225600
    407    414    415     1   114.2100488 537.225600
    408    407    409     1   109.6600471 523.836800
    408    407    414     1   109.6600471 523.836800
    408    410    411     1   111.0400475 529.694400
    409    407    414     1   109.6600471 523.836800
    409    412    413     1   111.0400475 529.694400
    410    411    417     1   123.2000528 564.003200
    410    411    884     1   115.1800491 558.982400
    411    884    883     1   120.6900519 530.531200
    412    413    418     1   123.2000528 564.003200
    412    413    910     1   115.1800491 558.982400
    413    910    909     1   120.6900519 530.531200
    414    415    416     1   111.6100477 551.451200
    417    411    884     1   123.0500530 620.905600
    418    413    910     1   123.0500530 620.905600
    433    434    436     1   114.2100488 537.225600
    433    435    438     1   114.2100488 537.225600
    433    440    441     1   114.2100488 537.225600
    434    433    435     1   109.6600471 523.836800
    434    433    440     1   109.6600471 523.836800
    434    436    437     1   111.0400475 529.694400
    435    433    440     1   109.6600471 523.836800
    435    438    439     1   111.0400475 529.694400
    436    437    443     1   123.2000528 564.003200
    436    437    936     1   115.1800491 558.982400
    437    936    935     1   120.6900519 530.531200
    438    439    444     1   123.2000528 564.003200
    438    439    962     1   115.1800491 558.982400
    439    962    961     1   120.6900519 530.531200
    440    441    442     1   111.6100477 551.451200
    443    437    936     1   123.0500530 620.905600
    444    439    962     1   123.0500530 620.905600
    459    460    462     1   114.2100488 537.225600
    459    461    464     1   114.2100488 537.225600
    459    466    467     1   114.2100488 537.225600
    460    459    461     1   109.6600471 523.836800
    460    459    466     1   109.6600471 523.836800
    460    462    463     1   111.0400475 529.694400
    461    459    466     1   109.6600471 523.836800
    461    464    465     1   111.0400475 529.694400
    462    463    469     1   123.2000528 564.003200
    462    463    988     1   115.1800491 558.982400
    463    988    987     1   120.6900519 530.531200
    464    465    470     1   123.2000528 564.003200
    464    465   1014     1   115.1800491 558.982400
    465   1014   1013     1   120.6900519 530.531200
    466    467    468     1   111.6100477 551.451200
    469    463    988     1   123.0500530 620.905600
    470    465   1014     1   123.0500530 620.905600
    485    486    488     1   114.2100488 537.225600
    485    487    490     1   114.2100488 537.225600
    485    492    493     1   114.2100488 537.225600
    486    485    487     1   109.6600471 523.836800
    486    485    492     1   109.6600471 523.836800
    486    488    489     1   111.0400475 529.694400
    487    485    492     1   109.6600471 523.836800
    487    490    491     1   111.0400475 529.694400
    488    489    495     1   123.2000528 564.003200
    488    489   1040     1   115.1800491 558.982400
    489   1040   1039     1   120.6900519 530.531200
    490    491    496     1   123.2000528 564.003200
    490    491   1066     1   115.1800491 558.982400
    491   1066   1065     1   120.6900519 530.531200
    492    493    494     1   111.6100477 551.451200
    495    489   1040     1   123.0500530 620.905600
    496    491   1066     1   123.0500530 620.905600
    511    512    514     1   114.2100488 537.225600
    511    513    516     1   114.2100488 537.225600
    511    518    519     1   114.2100488 537.225600
    512    511    513     1   109.6600471 523.836800
    512    511    518     1   109.6600471 523.836800
    512    514    515     1   111.0400475 529.694400
    513    511    518     1   109.6600471 523.836800
    513    516    517     1   111.0400475 529.694400
    514    515    521     1   123.2000528 564.003200
    514    515   1092     1   115.1800491 558.982400
    515   1092   1091     1   120.6900519 530.531200
    516    517    522     1   123.2000528 564.003200
    516    517   1118     1   115.1800491 558.982400
    517   1118   1117     1   120.6900519 530.531200
    518    519    520     1   111.6100477 551.451200
    521    515   1092     1   123.0500530 620.905600
    522    517   1118     1   123.0500530 620.905600
    537    538    540     1   114.2100488 537.225600
    537    539    542     1   114.2100488 537.225600
    537    544    545     1   114.2100488 537.225600
    538    537    539     1   109.6600471 523.836800
    538    537    544     1   109.6600471 523.836800
    538    540    541     1   111.0400475 529.694400
    539    537    544     1   109.6600471 523.836800
    539    542    543     1   111.0400475 529.694400
    540    541    547     1   123.2000528 564.003200
    540    541   1144     1   115.1800491 558.982400
    541   1144   1143     1   120.6900519 530.531200
    542    543    548     1   123.2000528 564.003200
    542    543   1170     1   115.1800491 558.982400
    543   1170   1169     1   120.6900519 530.531200
    544    545    546     1   111.6100477 551.451200
    547    541   1144     1   123.0500530 620.905600
    548    543   1170     1   123.0500530 620.905600
    563    564    566     1   114.2100488 537.225600
    563    565    568     1   114.2100488 537.225600
    563    570    571     1   114.2100488 537.225600
    564    563    565     1   109.6600471 523.836800
    564    563    570     1   109.6600471 523.836800
    564    566    567     1   111.0400475 529.694400
    565    563    570     1   109.6600471 523.836800
    565    568    569     1   111.0400475 529.694400
    566    567    573     1   123.2000528 564.003200
    566    567   1196     1   115.1800491 558.982400
    567   1196   1195     1   120.6900519 530.531200
    568    569    574     1   123.2000528 564.003200
    568    569   1222     1   115.1800491 558.982400
    569   1222   1221     1   120.6900519 530.531200
    570    571    572     1   111.6100477 551.451200
    573    567   1196     1   123.0500530 620.905600
    574    569   1222     1   123.0500530 620.905600
    589    590    592     1   114.2100488 537.225600
    589    591    594     1   114.2100488 537.225600
    589    596    597     1   114.2100488 537.225600
    590    589    591     1   109.6600471 523.836800
    590    589    596     1   109.6600471 523.836800
    590    592    593     1   111.0400475 529.694400
    591    589    596     1   109.6600471 523.836800
    591    594    595     1   111.0400475 529.694400
    592    593    599     1   123.2000528 564.003200
    592    593   1248     1   115.1800491 558.982400
    593   1248   1247     1   120.6900519 530.531200
    594    595    600     1   123.2000528 564.003200
    594    595   1274     1   115.1800491 558.982400
    595   1274   1273     1   120.6900519 530.531200
    596    597    598     1   111.6100477 551.451200
    599    593   1248     1   123.0500530 620.905600
    600    595   1274     1   123.0500530 620.905600
    615    616    618     1   114.2100488 537.225600
    615    617    620     1   114.2100488 537.225600
    615    622    623     1   114.2100488 537.225600
    616    615    617     1   109.6600471 523.836800
    616    615    622     1   109.6600471 523.836800
    616    618    619     1   111.0400475 529.694400
    617    615    622     1   109.6600471 523.836800
    617    620    621     1   111.0400475 529.694400
    618    619    625     1   123.2000528 564.003200
    618    619   1300     1   115.1800491 558.982400
    619   1300   1299     1   120.6900519 530.531200
    620    621    626     1   123.2000528 564.003200
    620    621   1326     1   115.1800491 558.982400
    621   1326   1325     1   120.6900519 530.531200
    622    623    624     1   111.6100477 551.451200
    625    619   1300     1   123.0500530 620.905600
    626    621   1326     1   123.0500530 620.905600
    641    642    644     1   114.2100488 537.225600
    641    643    646     1   114.2100488 537.225600
    641    648    649     1   114.2100488 537.225600
    642    641    643     1   109.6600471 523.836800
    642    641    648     1   109.6600471 523.836800
    642    644    645     1   111.0400475 529.694400
    643    641    648     1   109.6600471 523.836800
    643    646    647     1   111.0400475 529.694400
    644    645    651     1   123.2000528 564.003200
    644    645   1352     1   115.1800491 558.982400
    645   1352   1351     1   120.6900519 530.531200
    646    647    652     1   123.2000528 564.003200
    646    647   1378     1   115.1800491 558.982400
    647   1378   1377     1   120.6900519 530.531200
    648    649    650     1   111.6100477 551.451200
    651    645   1352     1   123.0500530 620.905600
    652    647   1378     1   123.0500530 620.905600
    667    668    670     1   114.2100488 537.225600
    667    669    672     1   114.2100488 537.225600
    667    674    675     1   114.2100488 537.225600
    668    667    669     1   109.6600471 523.836800
    668    667    674     1   109.6600471 523.836800
    668    670    671     1   111.0400475 529.694400
    669    667    674     1   109.6600471 523.836800
    669    672    673     1   111.0400475 529.694400
    670    671    677     1   123.2000528 564.003200
    670    671   1404     1   115.1800491 558.982400
    671   1404   1403     1   120.6900519 530.531200
    672    673    678     1   123.2000528 564.003200
    672    673   1430     1   115.1800491 558.982400
    673   1430   1429     1   120.6900519 530.531200
    674    675    676     1   111.6100477 551.451200
    677    671   1404     1   123.0500530 620.905600
    678    673   1430     1   123.0500530 620.905600
    693    694    696     1   114.2100488 537.225600
    693    695    698     1   114.2100488 537.225600
    693    700    701     1   114.2100488 537.225600
    694    693    695     1   109.6600471 523.836800
    694    693    700     1   109.6600471 523.836800
    694    696    697     1   111.0400475 529.694400
    695    693    700     1   109.6600471 523.836800
    695    698    699     1   111.0400475 529.694400
    696    697    703     1   123.2000528 564.003200
    696    697   1456     1   115.1800491 558.982400
    697   1456   1455     1   120.6900519 530.531200
    698    699    704     1   123.2000528 564.003200
    698    699   1482     1   115.1800491 558.982400
    699   1482   1481     1   120.6900519 530.531200
    700    701    702     1   111.6100477 551.451200
    703    697   1456     1   123.0500530 620.905600
    704    699   1482     1   123.0500530 620.905600
    719    720    722     1   114.2100488 537.225600
    719    721    724     1   114.2100488 537.225600
    719    726    727     1   114.2100488 537.225600
    720    719    721     1   109.6600471 523.836800
    720    719    726     1   109.6600471 523.836800
    720    722    723     1   111.0400475 529.694400
    721    719    726     1   109.6600471 523.836800
    721    724    725     1   111.0400475 529.694400
    722    723    729     1   123.2000528 564.003200
    722    723   1508     1   115.1800491 558.982400
    723   1508   1507     1   120.6900519 530.531200
    724    725    730     1   123.2000528 564.003200
    724    725   1534     1   115.1800491 558.982400
    725   1534   1533     1   120.6900519 530.531200
    726    727    728     1   111.6100477 551.451200
    729    723   1508     1   123.0500530 620.905600
    730    725   1534     1   123.0500530 620.905600
    745    746    748     1   114.2100488 537.225600
    745    747    750     1   114.2100488 537.225600
    745    752    753     1   114.2100488 537.225600
    746    745    747     1   109.6600471 523.836800
    746    745    752     1   109.6600471 523.836800
    746    748    749     1   111.0400475 529.694400
    747    745    752     1   109.6600471 523.836800
    747    750    751     1   111.0400475 529.694400
    748    749    755     1   123.2000528 564.003200
    748    749   1560     1   115.1800491 558.982400
    749   1560   1559     1   120.6900519 530.531200
    750    751    756     1   123.2000528 564.003200
    750    751   1586     1   115.1800491 558.982400
    751   1586   1585     1   120.6900519 530.531200
    752    753    754     1   111.6100477 551.451200
    755    749   1560     1   123.0500530 620.905600
    756    751   1586     1   123.0500530 620.905600
    771    772    774     1   114.2100488 537.225600
    771    773    776     1   114.2100488 537.225600
    771    778    779     1   114.2100488 537.225600
    772    771    773     1   109.6600471 523.836800
    772    771    778     1   109.6600471 523.836800
    772    774    775     1   111.0400475 529.694400
    773    771    778     1   109.6600471 523.836800
    773    776    777     1   111.0400475 529.694400
    774    775   1603     1   115.1800491 558.982400
    774    775    781     1   123.2000528 564.003200
    775   1603   1605     1   120.6900519 530.531200
    776    777    782     1   123.2000528 564.003200
    776    777   1677     1   115.1800491 558.982400
    777   1677   1679     1   120.6900519 530.531200
    778    779    780     1   111.6100477 551.451200
    781    775   1603     1   123.0500530 620.905600
    782    777   1677     1   123.0500530 620.905600
    797    798    800     1   114.2100488 537.225600
    797    799    802     1   114.2100488 537.225600
    797    804    805     1   114.2100488 537.225600
    798    797    799     1   109.6600471 523.836800
    798    797    804     1   109.6600471 523.836800
    798    800    801     1   111.0400475 529.694400
    799    797    804     1   109.6600471 523.836800
    799    802    803     1   111.0400475 529.694400
    800    801   1751     1   115.1800491 558.982400
    800    801    807     1   123.2000528 564.003200
    801   1751   1753     1   120.6900519 530.531200
    802    803    808     1   123.2000528 564.003200
    802    803   1825     1   115.1800491 558.982400
    803   1825   1827     1   120.6900519 530.531200
    804    805    806     1   111.6100477 551.451200
    807    801   1751     1   123.0500530 620.905600
    808    803   1825     1   123.0500530 620.905600
    823    824    826     1   114.2100488 537.225600
    823    825    828     1   114.2100488 537.225600
    823    830    831     1   114.2100488 537.225600
    824    823    825     1   109.6600471 523.836800
    824    823    830     1   109.6600471 523.836800
    824    826    827     1   111.0400475 529.694400
    825    823    830     1   109.6600471 523.836800
    825    828    829     1   111.0400475 529.694400
    826    827   1899     1   115.1800491 558.982400
    826    827    833     1   123.2000528 564.003200
    827   1899   1901     1   120.6900519 530.531200
    828    829    834     1   123.2000528 564.003200
    828    829   1973     1   115.1800491 558.982400
    829   1973   1975     1   120.6900519 530.531200
    830    831    832     1   111.6100477 551.451200
    833    827   1899     1   123.0500530 620.905600
    834    829   1973     1   123.0500530 620.905600
    849    850    852     1   114.2100488 537.225600
    849    851    854     1   114.2100488 537.225600
    849    856    857     1   114.2100488 537.225600
    850    849    851     1   109.6600471 523.836800
    850    849    856     1   109.6600471 523.836800
    850    852    853     1   111.0400475 529.694400
    851    849    856     1   109.6600471 523.836800
    851    854    855     1   111.0400475 529.694400
    852    853   2047     1   115.1800491 558.982400
    852    853    859     1   123.2000528 564.003200
    853   2047   2049     1   120.6900519 530.531200
    854    855    860     1   123.2000528 564.003200
    854    855   2121     1   115.1800491 558.982400
    855   2121   2123     1   120.6900519 530.531200
    856    857    858     1   111.6100477 551.451200
    859    853   2047     1   123.0500530 620.905600
    860    855   2121     1   123.0500530 620.905600
    875    876    878     1   114.2100488 537.225600
    875    877    880     1   114.2100488 537.225600
    875    882    883     1   114.2100488 537.225600
    876    875    877     1   109.6600471 523.836800
    876    875    882     1   109.6600471 523.836800
    876    878    879     1   111.0400475 529.694400
    877    875    882     1   109.6600471 523.836800
    877    880    881     1   111.0400475 529.694400
    878    879   2195     1   115.1800491 558.982400
    878    879    885     1   123.2000528 564.003200
    879   2195   2197     1   120.6900519 530.531200
    880    881    886     1   123.2000528 564.003200
    880    881   2269     1   115.1800491 558.982400
    881   2269   2271     1   120.6900519 530.531200
    882    883    884     1   111.6100477 551.451200
    885    879   2195     1   123.0500530 620.905600
    886    881   2269     1   123.0500530 620.905600
    901    902    904     1   114.2100488 537.225600
    901    903    906     1   114.2100488 537.225600
    901    908    909     1   114.2100488 537.225600
    902    901    903     1   109.6600471 523.836800
    902    901    908     1   109.6600471 523.836800
    902    904    905     1   111.0400475 529.694400
    903    901    908     1   109.6600471 523.836800
    903    906    907     1   111.0400475 529.694400
    904    905   2343     1   115.1800491 558.982400
    904    905    911     1   123.2000528 564.003200
    905   2343   2345     1   120.6900519 530.531200
    906    907    912     1   123.2000528 564.003200
    906    907   2417     1   115.1800491 558.982400
    907   2417   2419     1   120.6900519 530.531200
    908    909    910     1   111.6100477 551.451200
    911    905   2343     1   123.0500530 620.905600
    912    907   2417     1   123.0500530 620.905600
    927    928    930     1   114.2100488 537.225600
    927    929    932     1   114.2100488 537.225600
    927    934    935     1   114.2100488 537.225600
    928    927    929     1   109.6600471 523.836800
    928    927    934     1   109.6600471 523.836800
    928    930    931     1   111.0400475 529.694400
    929    927    934     1   109.6600471 523.836800
    929    932    933     1   111.0400475 529.694400
    930    931   2491     1   115.1800491 558.982400
    930    931    937     1   123.2000528 564.003200
    931   2491   2493     1   120.6900519 530.531200
    932    933    938     1   123.2000528 564.003200
    932    933   2565     1   115.1800491 558.982400
    933   2565   2567     1   120.6900519 530.531200
    934    935    936     1   111.6100477 551.451200
    937    931   2491     1   123.0500530 620.905600
    938    933   2565     1   123.0500530 620.905600
    953    954    956     1   114.2100488 537.225600
    953    955    958     1   114.2100488 537.225600
    953    960    961     1   114.2100488 537.225600
    954    953    955     1   109.6600471 523.836800
    954    953    960     1   109.6600471 523.836800
    954    956    957     1   111.0400475 529.694400
    955    953    960     1   109.6600471 523.836800
    955    958    959     1   111.0400475 529.694400
    956    957   2639     1   115.1800491 558.982400
    956    957    963     1   123.2000528 564.003200
    957   2639   2641     1   120.6900519 530.531200
    958    959    964     1   123.2000528 564.003200
    958    959   2713     1   115.1800491 558.982400
    959   2713   2715     1   120.6900519 530.531200
    960    961    962     1   111.6100477 551.451200
    963    957   2639     1   123.0500530 620.905600
    964    959   2713     1   123.0500530 620.905600
    979    980    982     1   114.2100488 537.225600
    979    981    984     1   114.2100488 537.225600
    979    986    987     1   114.2100488 537.225600
    980    979    981     1   109.6600471 523.836800
    980    979    986     1   109.6600471 523.836800
    980    982    983     1   111.0400475 529.694400
    981    979    986     1   109.6600471 523.836800
    981    984    985     1   111.0400475 529.694400
    982    983   2787     1   115.1800491 558.982400
    982    983    989     1   123.2000528 564.003200
    983   2787   2789     1   120.6900519 530.531200
    984    985    990     1   123.2000528 564.003200
    984    985   2861     1   115.1800491 558.982400
    985   2861   2863     1   120.6900519 530.531200
    986    987    988     1   111.6100477 551.451200
    989    983   2787     1   123.0500530 620.905600
    990    985   2861     1   123.0500530 620.905600
   1005   1006   1008     1   114.2100488 537.225600
   1005   1007   1010     1   114.2100488 537.225600
   1005   1012   1013     1   114.2100488 537.225600
   1006   1005   1007     1   109.6600471 523.836800
   1006   1005   1012     1   109.6600471 523.836800
   1006   1008   1009     1   111.0400475 529.694400
   1007   1005   1012     1   109.6600471 523.836800
   1007   1010   1011     1   111.0400475 529.694400
   1008   1009   2935     1   115.1800491 558.982400
   1008   1009   1015     1   123.2000528 564.003200
   1009   2935   2937     1   120.6900519 530.531200
   1010   1011   1016     1   123.2000528 564.003200
   1010   1011   3009     1   115.1800491 558.982400
   1011   3009   3011     1   120.6900519 530.531200
   1012   1013   1014     1   111.6100477 551.451200
   1015   1009   2935     1   123.0500530 620.905600
   1016   1011   3009     1   123.0500530 620.905600
   1031   1032   1034     1   114.2100488 537.225600
   1031   1033   1036     1   114.2100488 537.225600
   1031   1038   1039     1   114.2100488 537.225600
   1032   1031   1033     1   109.6600471 523.836800
   1032   1031   1038     1   109.6600471 523.836800
   1032   1034   1035     1   111.0400475 529.694400
   1033   1031   1038     1   109.6600471 523.836800
   1033   1036   1037     1   111.0400475 529.694400
   1034   1035   3083     1   115.1800491 558.982400
   1034   1035   1041     1   123.2000528 564.003200
   1035   3083   3085     1   120.6900519 530.531200
   1036   1037   1042     1   123.2000528 564.003200
   1036   1037   3157     1   115.1800491 558.982400
   1037   3157   3159     1   120.6900519 530.531200
   1038   1039   1040     1   111.6100477 551.451200
   1041   1035   3083     1   123.0500530 620.905600
   1042   1037   3157     1   123.0500530 620.905600
   1057   1058   1060     1   114.2100488 537.225600
   1057   1059   1062     1   114.2100488 537.225600
   1057   1064   1065     1   114.2100488 537.225600
   1058   1057   1059     1   109.6600471 523.836800
   1058   1057   1064     1   109.6600471 523.836800
   1058   1060   1061     1   111.0400475 529.694400
   1059   1057   1064     1   109.6600471 523.836800
   1059   1062   1063     1   111.0400475 529.694400
   1060   1061   3231     1   115.1800491 558.982400
   1060   1061   1067     1   123.2000528 564.003200
   1061   3231   3233     1   120.6900519 530.531200
   1062   1063   1068     1   123.2000528 564.003200
   1062   1063   3305     1   115.1800491 558.982400
   1063   3305   3307     1   120.6900519 530.531200
   1064   1065   1066     1   111.6100477 551.451200
   1067   1061   3231     1   123.0500530 620.905600
   1068   1063   3305     1   123.0500530 620.905600
   1083   1084   1086     1   114.2100488 537.225600
   1083   1085   1088     1   114.2100488 537.225600
   1083   1090   1091     1   114.2100488 537.225600
   1084   1083   1085     1   109.6600471 523.836800
   1084   1083   1090     1   109.6600471 523.836800
   1084   1086   1087     1   111.0400475 529.694400
   1085   1083   1090     1   109.6600471 523.836800
   1085   1088   1089     1   111.0400475 529.694400
   1086   1087   3379     1   115.1800491 558.982400
   1086   1087   1093     1   123.2000528 564.003200
   1087   3379   3381     1   120.6900519 530.531200
   1088   1089   1094     1   123.2000528 564.003200
   1088   1089   3453     1   115.1800491 558.982400
   1089   3453   3455     1   120.6900519 530.531200
   1090   1091   1092     1   111.6100477 551.451200
   1093   1087   3379     1   123.0500530 620.905600
   1094   1089   3453     1   123.0500530 620.905600
   1109   1110   1112     1   114.2100488 537.225600
   1109   1111   1114     1   114.2100488 537.225600
   1109   1116   1117     1   114.2100488 537.225600
   1110   1109   1111     1   109.6600471 523.836800
   1110   1109   1116     1   109.6600471 523.836800
   1110   1112   1113     1   111.0400475 529.694400
   1111   1109   1116     1   109.6600471 523.836800
   1111   1114   1115     1   111.0400475 529.694400
   1112   1113   3527     1   115.1800491 558.982400
   1112   1113   1119     1   123.2000528 564.003200
   1113   3527   3529     1   120.6900519 530.531200
   1114   1115   1120     1   123.2000528 564.003200
   1114   1115   3601     1   115.1800491 558.982400
   1115   3601   3603     1   120.6900519 530.531200
   1116   1117   1118     1   111.6100477 551.451200
   1119   1113   3527     1   123.0500530 620.905600
   1120   1115   3601     1   123.0500530 620.905600
   1135   1136   1138     1   114.2100488 537.225600
   1135   1137   1140     1   114.2100488 537.225600
   1135   1142   1143     1   114.2100488 537.225600
   1136   1135   1137     1   109.6600471 523.836800
   1136   1135   1142     1   109.6600471 523.836800
   1136   1138   1139     1   111.0400475 529.694400
   1137   1135   1142     1   109.6600471 523.836800
   1137   1140   1141     1   111.0400475 529.694400
   1138   1139   3675     1   115.1800491 558.982400
   1138   1139   1145     1   123.2000528 564.003200
   1139   3675   3677     1   120.6900519 530.531200
   1140   1141   1146     1   123.2000528 564.003200
   1140   1141   3749     1   115.1800491 558.982400
   1141   3749   3751     1   120.6900519 530.531200
   1142   1143   1144     1   111.6100477 551.451200
   1145   1139   3675     1   123.0500530 620.905600
   1146   1141   3749     1   123.0500530 620.905600
   1161   1162   1164     1   114.2100488 537.225600
   1161   1163   1166     1   114.2100488 537.225600
   1161   1168   1169     1   114.2100488 537.225600
   1162   1161   1163     1   109.6600471 523.836800
   1162   1161   1168     1   109.6600471 523.836800
   1162   1164   1165     1   111.0400475 529.694400
   1163   1161   1168     1   109.6600471 523.836800
   1163   1166   1167     1   111.0400475 529.694400
   1164   1165   3823     1   115.1800491 558.982400
   1164   1165   1171     1   123.2000528 564.003200
   1165   3823   3825     1   120.6900519 530.531200
   1166   1167   1172     1   123.2000528 564.003200
   1166   1167   3897     1   115.1800491 558.982400
   1167   3897   3899     1   120.6900519 530.531200
   1168   1169   1170     1   111.6100477 551.451200
   1171   1165   3823     1   123.0500530 620.905600
   1172   1167   3897     1   123.0500530 620.905600
   1187   1188   1190     1   114.2100488 537.225600
   1187   1189   1192     1   114.2100488 537.225600
   1187   1194   1195     1   114.2100488 537.225600
   1188   1187   1189     1   109.6600471 523.836800
   1188   1187   1194     1   109.6600471 523.836800
   1188   1190   1191     1   111.0400475 529.694400
   1189   1187   1194     1   109.6600471 523.836800
   1189   1192   1193     1   111.0400475 529.694400
   1190   1191   3971     1   115.1800491 558.982400
   1190   1191   1197     1   123.2000528 564.003200
   1191   3971   3973     1   120.6900519 530.531200
   1192   1193   1198     1   123.2000528 564.003200
   1192   1193   4045     1   115.1800491 558.982400
   1193   4045   4047     1   120.6900519 530.531200
   1194   1195   1196     1   111.6100477 551.451200
   1197   1191   3971     1   123.0500530 620.905600
   1198   1193   4045     1   123.0500530 620.905600
   1213   1214   1216     1   114.2100488 537.225600
   1213   1215   1218     1   114.2100488 537.225600
   1213   1220   1221     1   114.2100488 537.225600
   1214   1213   1215     1   109.6600471 523.836800
   1214   1213   1220     1   109.6600471 523.836800
   1214   1216   1217     1   111.0400475 529.694400
   1215   1213   1220     1   109.6600471 523.836800
   1215   1218   1219     1   111.0400475 529.694400
   1216   1217   4119     1   115.1800491 558.982400
   1216   1217   1223     1   123.2000528 564.003200
   1217   4119   4121     1   120.6900519 530.531200
   1218   1219   1224     1   123.2000528 564.003200
   1218   1219   4193     1   115.1800491 558.982400
   1219   4193   4195     1   120.6900519 530.531200
   1220   1221   1222     1   111.6100477 551.451200
   1223   1217   4119     1   123.0500530 620.905600
   1224   1219   4193     1   123.0500530 620.905600
   1239   1240   1242     1   114.2100488 537.225600
   1239   1241   1244     1   114.2100488 537.225600
   1239   1246   1247     1   114.2100488 537.225600
   1240   1239   1241     1   109.6600471 523.836800
   1240   1239   1246     1   109.6600471 523.836800
   1240   1242   1243     1   111.0400475 529.694400
   1241   1239   1246     1   109.6600471 523.836800
   1241   1244   1245     1   111.0400475 529.694400
   1242   1243   4267     1   115.1800491 558.982400
   1242   1243   1249     1   123.2000528 564.003200
   1243   4267   4269     1   120.6900519 530.531200
   1244   1245   1250     1   123.2000528 564.003200
   1244   1245   4341     1   115.1800491 558.982400
   1245   4341   4343     1   120.6900519 530.531200
   1246   1247   1248     1   111.6100477 551.451200
   1249   1243   4267     1   123.0500530 620.905600
   1250   1245   4341     1   123.0500530 620.905600
   1265   1266   1268     1   114.2100488 537.225600
   1265   1267   1270     1   114.2100488 537.225600
   1265   1272   1273     1   114.2100488 537.225600
   1266   1265   1267     1   109.6600471 523.836800
   1266   1265   1272     1   109.6600471 523.836800
   1266   1268   1269     1   111.0400475 529.694400
   1267   1265   1272     1   109.6600471 523.836800
   1267   1270   1271     1   111.0400475 529.694400
   1268   1269   4415     1   115.1800491 558.982400
   1268   1269   1275     1   123.2000528 564.003200
   1269   4415   4417     1   120.6900519 530.531200
   1270   1271   1276     1   123.2000528 564.003200
   1270   1271   4489     1   115.1800491 558.982400
   1271   4489   4491     1   120.6900519 530.531200
   1272   1273   1274     1   111.6100477 551.451200
   1275   1269   4415     1   123.0500530 620.905600
   1276   1271   4489     1   123.0500530 620.905600
   1291   1292   1294     1   114.2100488 537.225600
   1291   1293   1296     1   114.2100488 537.225600
   1291   1298   1299     1   114.2100488 537.225600
   1292   1291   1293     1   109.6600471 523.836800
   1292   1291   1298     1   109.6600471 523.836800
   1292   1294   1295     1   111.0400475 529.694400
   1293   1291   1298     1   109.6600471 523.836800
   1293   1296   1297     1   111.0400475 529.694400
   1294   1295   4563     1   115.1800491 558.982400
   1294   1295   1301     1   123.2000528 564.003200
   1295   4563   4565     1   120.6900519 530.531200
   1296   1297   1302     1   123.2000528 564.003200
   1296   1297   4637     1   115.1800491 558.982400
   1297   4637   4639     1   120.6900519 530.531200
   1298   1299   1300     1   111.6100477 551.451200
   1301   1295   4563     1   123.0500530 620.905600
   1302   1297   4637     1   123.0500530 620.905600
   1317   1318   1320     1   114.2100488 537.225600
   1317   1319   1322     1   114.2100488 537.225600
   1317   1324   1325     1   114.2100488 537.225600
   1318   1317   1319     1   109.6600471 523.836800
   1318   1317   1324     1   109.6600471 523.836800
   1318   1320   1321     1   111.0400475 529.694400
   1319   1317   1324     1   109.6600471 523.836800
   1319   1322   1323     1   111.0400475 529.694400
   1320   1321   4711     1   115.1800491 558.982400
   1320   1321   1327     1   123.2000528 564.003200
   1321   4711   4713     1   120.6900519 530.531200
   1322   1323   1328     1   123.2000528 564.003200
   1322   1323   4785     1   115.1800491 558.982400
   1323   4785   4787     1   120.6900519 530.531200
   1324   1325   1326     1   111.6100477 551.451200
   1327   1321   4711     1   123.0500530 620.905600
   1328   1323   4785     1   123.0500530 620.905600
   1343   1344   1346     1   114.2100488 537.225600
   1343   1345   1348     1   114.2100488 537.225600
   1343   1350   1351     1   114.2100488 537.225600
   1344   1343   1345     1   109.6600471 523.836800
   1344   1343   1350     1   109.6600471 523.836800
   1344   1346   1347     1   111.0400475 529.694400
   1345   1343   1350     1   109.6600471 523.836800
   1345   1348   1349     1   111.0400475 529.694400
   1346   1347   4859     1   115.1800491 558.982400
   1346   1347   1353     1   123.2000528 564.003200
   1347   4859   4861     1   120.6900519 530.531200
   1348   1349   1354     1   123.2000528 564.003200
   1348   1349   4933     1   115.1800491 558.982400
   1349   4933   4935     1   120.6900519 530.531200
   1350   1351   1352     1   111.6100477 551.451200
   1353   1347   4859     1   123.0500530 620.905600
   1354   1349   4933     1   123.0500530 620.905600
   1369   1370   1372     1   114.2100488 537.225600
   1369   1371   1374     1   114.2100488 537.225600
   1369   1376   1377     1   114.2100488 537.225600
   1370   1369   1371     1   109.6600471 523.836800
   1370   1369   1376     1   109.6600471 523.836800
   1370   1372   1373     1   111.0400475 529.694400
   1371   1369   1376     1   109.6600471 523.836800
   1371   1374   1375     1   111.0400475 529.694400
   1372   1373   5007     1   115.1800491 558.982400
   1372   1373   1379     1   123.2000528 564.003200
   1373   5007   5009     1   120.6900519 530.531200
   1374   1375   1380     1   123.2000528 564.003200
   1374   1375   5081     1   115.1800491 558.982400
   1375   5081   5083     1   120.6900519 530.531200
   1376   1377   1378     1   111.6100477 551.451200
   1379   1373   5007     1   123.0500530 620.905600
   1380   1375   5081     1   123.0500530 620.905600
   1395   1396   1398     1   114.2100488 537.225600
   1395   1397   1400     1   114.2100488 537.225600
   1395   1402   1403     1   114.2100488 537.225600
   1396   1395   1397     1   109.6600471 523.836800
   1396   1395   1402     1   109.6600471 523.836800
   1396   1398   1399     1   111.0400475 529.694400
   1397   1395   1402     1   109.6600471 523.836800
   1397   1400   1401     1   111.0400475 529.694400
   1398   1399   5155     1   115.1800491 558.982400
   1398   1399   1405     1   123.2000528 564.003200
   1399   5155   5157     1   120.6900519 530.531200
   1400   1401   1406     1   123.2000528 564.003200
   1400   1401   5229     1   115.1800491 558.982400
   1401   5229   5231     1   120.6900519 530.531200
   1402   1403   1404     1   111.6100477 551.451200
   1405   1399   5155     1   123.0500530 620.905600
   1406   1401   5229     1   123.0500530 620.905600
   1421   1422   1424     1   114.2100488 537.225600
   1421   1423   1426     1   114.2100488 537.225600
   1421   1428   1429     1   114.2100488 537.225600
   1422   1421   1423     1   109.6600471 523.836800
   1422   1421   1428     1   109.6600471 523.836800
   1422   1424   1425     1   111.0400475 529.694400
   1423   1421   1428     1   109.6600471 523.836800
   1423   1426   1427     1   111.0400475 529.694400
   1424   1425   5303     1   115.1800491 558.982400
   1424   1425   1431     1   123.2000528 564.003200
   1425   5303   5305     1   120.6900519 530.531200
   1426   1427   1432     1   123.2000528 564.003200
   1426   1427   5377     1   115.1800491 558.982400
   1427   5377   5379     1   120.6900519 530.531200
   1428   1429   1430     1   111.6100477 551.451200
   1431   1425   5303     1   123.0500530 620.905600
   1432   1427   5377     1   123.0500530 620.905600
   1447   1448   1450     1   114.2100488 537.225600
   1447   1449   1452     1   114.2100488 537.225600
   1447   1454   1455     1   114.2100488 537.225600
   1448   1447   1449     1   109.6600471 523.836800
   1448   1447   1454     1   109.6600471 523.836800
   1448   1450   1451     1   111.0400475 529.694400
   1449   1447   1454     1   109.6600471 523.836800
   1449   1452   1453     1   111.0400475 529.694400
   1450   1451   5451     1   115.1800491 558.982400
   1450   1451   1457     1   123.2000528 564.003200
   1451   5451   5453     1   120.6900519 530.531200
   1452   1453   1458     1   123.2000528 564.003200
   1452   1453   5525     1   115.1800491 558.982400
   1453   5525   5527     1   120.6900519 530.531200
   1454   1455   1456     1   111.6100477 551.451200
   1457   1451   5451     1   123.0500530 620.905600
   1458   1453   5525     1   123.0500530 620.905600
   1473   1474   1476     1   114.2100488 537.225600
   1473   1475   1478     1   114.2100488 537.225600
   1473   1480   1481     1   114.2100488 537.225600
   1474   1473   1475     1   109.6600471 523.836800
   1474   1473   1480     1   109.6600471 523.836800
   1474   1476   1477     1   111.0400475 529.694400
   1475   1473   1480     1   109.6600471 523.836800
   1475   1478   1479     1   111.0400475 529.694400
   1476   1477   5599     1   115.1800491 558.982400
   1476   1477   1483     1   123.2000528 564.003200
   1477   5599   5601     1   120.6900519 530.531200
   1478   1479   1484     1   123.2000528 564.003200
   1478   1479   5673     1   115.1800491 558.982400
   1479   5673   5675     1   120.6900519 530.531200
   1480   1481   1482     1   111.6100477 551.451200
   1483   1477   5599     1   123.0500530 620.905600
   1484   1479   5673     1   123.0500530 620.905600
   1499   1500   1502     1   114.2100488 537.225600
   1499   1501   1504     1   114.2100488 537.225600
   1499   1506   1507     1   114.2100488 537.225600
   1500   1499   1501     1   109.6600471 523.836800
   1500   1499   1506     1   109.6600471 523.836800
   1500   1502   1503     1   111.0400475 529.694400
   1501   1499   1506     1   109.6600471 523.836800
   1501   1504   1505     1   111.0400475 529.694400
   1502   1503   5747     1   115.1800491 558.982400
   1502   1503   1509     1   123.2000528 564.003200
   1503   5747   5749     1   120.6900519 530.531200
   1504   1505   1510     1   123.2000528 564.003200
   1504   1505   5821     1   115.1800491 558.982400
   1505   5821   5823     1   120.6900519 530.531200
   1506   1507   1508     1   111.6100477 551.451200
   1509   1503   5747     1   123.0500530 620.905600
   1510   1505   5821     1   123.0500530 620.905600
   1525   1526   1528     1   114.2100488 537.225600
   1525   1527   1530     1   114.2100488 537.225600
   1525   1532   1533     1   114.2100488 537.225600
   1526   1525   1527     1   109.6600471 523.836800
   1526   1525   1532     1   109.6600471 523.836800
   1526   1528   1529     1   111.0400475 529.694400
   1527   1525   1532     1   109.6600471 523.836800
   1527   1530   1531     1   111.0400475 529.694400
   1528   1529   5895     1   115.1800491 558.982400
   1528   1529   1535     1   123.2000528 564.003200
   1529   5895   5897     1   120.6900519 530.531200
   1530   1531   1536     1   123.2000528 564.003200
   1530   1531   5969     1   115.1800491 558.982400
   1531   5969   5971     1   120.6900519 530.531200
   1532   1533   1534     1   111.6100477 551.451200
   1535   1529   5895     1   123.0500530 620.905600
   1536   1531   5969     1   123.0500530 620.905600
   1551   1552   1554     1   114.2100488 537.225600
   1551   1553   1556     1   114.2100488 537.225600
   1551   1558   1559     1   114.2100488 537.225600
   1552   1551   1553     1   109.6600471 523.836800
   1552   1551   1558     1   109.6600471 523.836800
   1552   1554   1555     1   111.0400475 529.694400
   1553   1551   1558     1   109.6600471 523.836800
   1553   1556   1557     1   111.0400475 529.694400
   1554   1555   6043     1   115.1800491 558.982400
   1554   1555   1561     1   123.2000528 564.003200
   1555   6043   6045     1   120.6900519 530.531200
   1556   1557   1562     1   123.2000528 564.003200
   1556   1557   6117     1   115.1800491 558.982400
   1557   6117   6119     1   120.6900519 530.531200
   1558   1559   1560     1   111.6100477 551.451200
   1561   1555   6043     1   123.0500530 620.905600
   1562   1557   6117     1   123.0500530 620.905600
   1577   1578   1580     1   114.2100488 537.225600
   1577   1579   1582     1   114.2100488 537.225600
   1577   1584   1585     1   114.2100488 537.225600
   1578   1577   1579     1   109.6600471 523.836800
   1578   1577   1584     1   109.6600471 523.836800
   1578   1580   1581     1   111.0400475 529.694400
   1579   1577   1584     1   109.6600471 523.836800
   1579   1582   1583     1   111.0400475 529.694400
   1580   1581   6191     1   115.1800491 558.982400
   1580   1581   1587     1   123.2000528 564.003200
   1581   6191   6193     1   120.6900519 530.531200
   1582   1583   6265     1   115.1800491 558.982400
   1582   1583   1588     1   123.2000528 564.003200
   1583   6265   6267     1   120.6900519 530.531200
   1584   1585   1586     1   111.6100477 551.451200
   1587   1581   6191     1   123.0500530 620.905600
   1588   1583   6265     1   123.0500530 620.905600
   1603   1605   1607     1   111.6100477 551.451200
   1605   1607   1611     1   114.2100488 537.225600
   1607   1611   1612     1   109.6600471 523.836800
   1607   1611   1613     1   109.6600471 523.836800
   1611   1612   1623     1   114.2100488 537.225600
   1611   1613   1615     1   114.2100488 537.225600
   1612   1611   1613     1   109.6600471 523.836800
   1612   1623   1626     1   111.0400475 529.694400
   1613   1615   1619     1   111.0400475 529.694400
   1615   1619   1620     1   123.2000528 564.003200
   1615   1619   1651     1   112.2600482 538.062400
   1619   1651   1632     1   118.5150508 540.957728
   1620   1619   1651     1   118.8300510 581.576000
   1623   1626   1627     1   123.2000528 564.003200
   1623   1626   1675     1   112.2600482 538.062400
   1626   1675   1656     1   118.5150508 540.957728
   1627   1626   1675     1   118.8300510 581.576000
   1628   1629   1631     1   111.5100476 526.347200
   1628   1629   1649     1   110.1900474 564.840000
   1628   1639   1644     1   110.1900474 564.840000
   1628   1646   1633     1   112.4800480 524.673600
   1629   1628   1639     1   111.5100476 526.347200
   1629   1628   1646     1   107.9700462 569.024000
   1629   1631   1632     1   111.5100476 526.347200
   1629   1631   1638     1   110.1900474 564.840000
   1631   1629   1649     1   110.1900474 564.840000
   1631   1632   1633     1   111.5100476 526.347200
   1631   1632   1651     1   111.0400475 552.288000
   1632   1631   1638     1   110.1900474 564.840000
   1632   1633   1637     1   110.1900474 564.840000
   1632   1633   1646     1   107.9700462 569.024000
   1633   1632   1651     1   111.0400475 552.288000
   1637   1633   1646     1   109.3800466 607.516800
   1639   1628   1646     1   107.9700462 569.024000
   1652   1653   1655     1   111.5100476 526.347200
   1652   1653   1673     1   110.1900474 564.840000
   1652   1663   1668     1   110.1900474 564.840000
   1652   1670   1657     1   112.4800480 524.673600
   1653   1652   1663     1   111.5100476 526.347200
   1653   1652   1670     1   107.9700462 569.024000
   1653   1655   1656     1   111.5100476 526.347200
   1653   1655   1662     1   110.1900474 564.840000
   1655   1653   1673     1   110.1900474 564.840000
   1655   1656   1657     1   111.5100476 526.347200
   1655   1656   1675     1   111.0400475 552.288000
   1656   1655   1662     1   110.1900474 564.840000
   1656   1657   1661     1   110.1900474 564.840000
   1656   1657   1670     1   107.9700462 569.024000
   1657   1656   1675     1   111.0400475 552.288000
   1661   1657   1670     1   109.3800466 607.516800
   1663   1652   1670     1   107.9700462 569.024000
   1677   1679   1681     1   111.6100477 551.451200
   1679   1681   1685     1   114.2100488 537.225600
   1681   1685   1686     1   109.6600471 523.836800
   1681   1685   1687     1   109.6600471 523.836800
   1685   1686   1697     1   114.2100488 537.225600
   1685   1687   1689     1   114.2100488 537.225600
   1686   1697   1700     1   111.0400475 529.694400
   1686   1685   1687     1   109.6600471 523.836800
   1687   1689   1693     1   111.0400475 529.694400
   1689   1693   1694     1   123.2000528 564.003200
   1689   1693   1725     1   112.2600482 538.062400
   1693   1725   1706     1   118.5150508 540.957728
   1694   1693   1725     1   118.8300510 581.576000
   1697   1700   1701     1   123.2000528 564.003200
   1697   1700   1749     1   112.2600482 538.062400
   1700   1749   1730     1   118.5150508 540.957728
   1701   1700   1749     1   118.8300510 581.576000
   1702   1703   1705     1   111.5100476 526.347200
   1702   1703   1723     1   110.1900474 564.840000
   1702   1713   1718     1   110.1900474 564.840000
   1702   1720   1707     1   112.4800480 524.673600
   1703   1705   1706     1   111.5100476 526.347200
   1703   1705   1712     1   110.1900474 564.840000
   1703   1702   1713     1   111.5100476 526.347200
   1703   1702   1720     1   107.9700462 569.024000
   1705   1706   1707     1   111.5100476 526.347200
   1705   1706   1725     1   111.0400475 552.288000
   1705   1703   1723     1   110.1900474 564.840000
   1706   1707   1711     1   110.1900474 564.840000
   1706   1707   1720     1   107.9700462 569.024000
   1706   1705   1712     1   110.1900474 564.840000
   1707   1706   1725     1   111.0400475 552.288000
   1711   1707   1720     1   109.3800466 607.516800
   1713   1702   1720     1   107.9700462 569.024000
   1726   1727   1729     1   111.5100476 526.347200
   1726   1727   1747     1   110.1900474 564.840000
   1726   1737   1742     1   110.1900474 564.840000
   1726   1744   1731     1   112.4800480 524.673600
   1727   1729   1730     1   111.5100476 526.347200
   1727   1729   1736     1   110.1900474 564.840000
   1727   1726   1737     1   111.5100476 526.347200
   1727   1726   1744     1   107.9700462 569.024000
   1729   1730   1731     1   111.5100476 526.347200
   1729   1730   1749     1   111.0400475 552.288000
   1729   1727   1747     1   110.1900474 564.840000
   1730   1731   1735     1   110.1900474 564.840000
   1730   1731   1744     1   107.9700462 569.024000
   1730   1729   1736     1   110.1900474 564.840000
   1731   1730   1749     1   111.0400475 552.288000
   1735   1731   1744     1   109.3800466 607.516800
   1737   1726   1744     1   107.9700462 569.024000
   1751   1753   1755     1   111.6100477 551.451200
   1753   1755   1759     1   114.2100488 537.225600
   1755   1759   1760     1   109.6600471 523.836800
   1755   1759   1761     1   109.6600471 523.836800
   1759   1760   1771     1   114.2100488 537.225600
   1759   1761   1763     1   114.2100488 537.225600
   1760   1759   1761     1   109.6600471 523.836800
   1760   1771   1774     1   111.0400475 529.694400
   1761   1763   1767     1   111.0400475 529.694400
   1763   1767   1768     1   123.2000528 564.003200
   1763   1767   1799     1   112.2600482 538.062400
   1767   1799   1780     1   118.5150508 540.957728
   1768   1767   1799     1   118.8300510 581.576000
   1771   1774   1775     1   123.2000528 564.003200
   1771   1774   1823     1   112.2600482 538.062400
   1774   1823   1804     1   118.5150508 540.957728
   1775   1774   1823     1   118.8300510 581.576000
   1776   1777   1779     1   111.5100476 526.347200
   1776   1777   1797     1   110.1900474 564.840000
   1776   1787   1792     1   110.1900474 564.840000
   1776   1794   1781     1   112.4800480 524.673600
   1777   1776   1787     1   111.5100476 526.347200
   1777   1776   1794     1   107.9700462 569.024000
   1777   1779   1780     1   111.5100476 526.347200
   1777   1779   1786     1   110.1900474 564.840000
   1779   1777   1797     1   110.1900474 564.840000
   1779   1780   1781     1   111.5100476 526.347200
   1779   1780   1799     1   111.0400475 552.288000
   1780   1779   1786     1   110.1900474 564.840000
   1780   1781   1785     1   110.1900474 564.840000
   1780   1781   1794     1   107.9700462 569.024000
   1781   1780   1799     1   111.0400475 552.288000
   1785   1781   1794     1   109.3800466 607.516800
   1787   1776   1794     1   107.9700462 569.024000
   1800   1801   1803     1   111.5100476 526.347200
   1800   1801   1821     1   110.1900474 564.840000
   1800   1811   1816     1   110.1900474 564.840000
   1800   1818   1805     1   112.4800480 524.673600
   1801   1800   1811     1   111.5100476 526.347200
   1801   1800   1818     1   107.9700462 569.024000
   1801   1803   1804     1   111.5100476 526.347200
   1801   1803   1810     1   110.1900474 564.840000
   1803   1801   1821     1   110.1900474 564.840000
   1803   1804   1805     1   111.5100476 526.347200
   1803   1804   1823     1   111.0400475 552.288000
   1804   1803   1810     1   110.1900474 564.840000
   1804   1805   1809     1   110.1900474 564.840000
   1804   1805   1818     1   107.9700462 569.024000
   1805   1804   1823     1   111.0400475 552.288000
   1809   1805   1818     1   109.3800466 607.516800
   1811   1800   1818     1   107.9700462 569.024000
   1825   1827   1829     1   111.6100477 551.451200
   1827   1829   1833     1   114.2100488 537.225600
   1829   1833   1834     1   109.6600471 523.836800
   1829   1833   1835     1   109.6600471 523.836800
   1833   1834   1845     1   114.2100488 537.225600
   1833   1835   1837     1   114.2100488 537.225600
   1834   1845   1848     1   111.0400475 529.694400
   1834   1833   1835     1   109.6600471 523.836800
   1835   1837   1841     1   111.0400475 529.694400
   1837   1841   1842     1   123.2000528 564.003200
   1837   1841   1873     1   112.2600482 538.062400
   1841   1873   1854     1   118.5150508 540.957728
   1842   1841   1873     1   118.8300510 581.576000
   1845   1848   1849     1   123.2000528 564.003200
   1845   1848   1897     1   112.2600482 538.062400
   1848   1897   1878     1   118.5150508 540.957728
   1849   1848   1897     1   118.8300510 581.576000
   1850   1851   1853     1   111.5100476 526.347200
   1850   1851   1871     1   110.1900474 564.840000
   1850   1861   1866     1   110.1900474 564.840000
   1850   1868   1855     1   112.4800480 524.673600
   1851   1853   1854     1   111.5100476 526.347200
   1851   1853   1860     1   110.1900474 564.840000
   1851   1850   1861     1   111.5100476 526.347200
   1851   1850   1868     1   107.9700462 569.024000
   1853   1854   1855     1   111.5100476 526.347200
   1853   1854   1873     1   111.0400475 552.288000
   1853   1851   1871     1   110.1900474 564.840000
   1854   1855   1859     1   110.1900474 564.840000
   1854   1855   1868     1   107.9700462 569.024000
   1854   1853   1860     1   110.1900474 564.840000
   1855   1854   1873     1   111.0400475 552.288000
   1859   1855   1868     1   109.3800466 607.516800
   1861   1850   1868     1   107.9700462 569.024000
   1874   1875   1877     1   111.5100476 526.347200
   1874   1875   1895     1   110.1900474 564.840000
   1874   1885   1890     1   110.1900474 564.840000
   1874   1892   1879     1   112.4800480 524.673600
   1875   1877   1878     1   111.5100476 526.347200
   1875   1877   1884     1   110.1900474 564.840000
   1875   1874   1885     1   111.5100476 526.347200
   1875   1874   1892     1   107.9700462 569.024000
   1877   1878   1879     1   111.5100476 526.347200
   1877   1878   1897     1   111.0400475 552.288000
   1877   1875   1895     1   110.1900474 564.840000
   1878   1879   1883     1   110.1900474 564.840000
   1878   1879   1892     1   107.9700462 569.024000
   1878   1877   1884     1   110.1900474 564.840000
   1879   1878   1897     1   111.0400475 552.288000
   1883   1879   1892     1   109.3800466 607.516800
   1885   1874   1892     1   107.9700462 569.024000
   1899   1901   1903     1   111.6100477 551.451200
   1901   1903   1907     1   114.2100488 537.225600
   1903   1907   1908     1   109.6600471 523.836800
   1903   1907   1909     1   109.6600471 523.836800
   1907   1908   1919     1   114.2100488 537.225600
   1907   1909   1911     1   114.2100488 537.225600
   1908   1907   1909     1   109.6600471 523.836800
   1908   1919   1922     1   111.0400475 529.694400
   1909   1911   1915     1   111.0400475 529.694400
   1911   1915   1916     1   123.2000528 564.003200
   1911   1915   1947     1   112.2600482 538.062400
   1915   1947   1928     1   118.5150508 540.957728
   1916   1915   1947     1   118.8300510 581.576000
   1919   1922   1923     1   123.2000528 564.003200
   1919   1922   1971     1   112.2600482 538.062400
   1922   1971   1952     1   118.5150508 540.957728
   1923   1922   1971     1   118.8300510 581.576000
   1924   1925   1927     1   111.5100476 526.347200
   1924   1925   1945     1   110.1900474 564.840000
   1924   1935   1940     1   110.1900474 564.840000
   1924   1942   1929     1   112.4800480 524.673600
   1925   1924   1935     1   111.5100476 526.347200
   1925   1924   1942     1   107.9700462 569.024000
   1925   1927   1928     1   111.5100476 526.347200
   1925   1927   1934     1   110.1900474 564.840000
   1927   1925   1945     1   110.1900474 564.840000
   1927   1928   1929     1   111.5100476 526.347200
   1927   1928   1947     1   111.0400475 552.288000
   1928   1927   1934     1   110.1900474 564.840000
   1928   1929   1933     1   110.1900474 564.840000
   1928   1929   1942     1   107.9700462 569.024000
   1929   1928   1947     1   111.0400475 552.288000
   1933   1929   1942     1   109.3800466 607.516800
   1935   1924   1942     1   107.9700462 569.024000
   1948   1949   1951     1   111.5100476 526.347200
   1948   1949   1969     1   110.1900474 564.840000
   1948   1959   1964     1   110.1900474 564.840000
   1948   1966   1953     1   112.4800480 524.673600
   1949   1948   1959     1   111.5100476 526.347200
   1949   1948   1966     1   107.9700462 569.024000
   1949   1951   1952     1   111.5100476 526.347200
   1949   1951   1958     1   110.1900474 564.840000
   1951   1949   1969     1   110.1900474 564.840000
   1951   1952   1953     1   111.5100476 526.347200
   1951   1952   1971     1   111.0400475 552.288000
   1952   1951   1958     1   110.1900474 564.840000
   1952   1953   1957     1   110.1900474 564.840000
   1952   1953   1966     1   107.9700462 569.024000
   1953   1952   1971     1   111.0400475 552.288000
   1957   1953   1966     1   109.3800466 607.516800
   1959   1948   1966     1   107.9700462 569.024000
   1973   1975   1977     1   111.6100477 551.451200
   1975   1977   1981     1   114.2100488 537.225600
   1977   1981   1982     1   109.6600471 523.836800
   1977   1981   1983     1   109.6600471 523.836800
   1981   1982   1993     1   114.2100488 537.225600
   1981   1983   1985     1   114.2100488 537.225600
   1982   1993   1996     1   111.0400475 529.694400
   1982   1981   1983     1   109.6600471 523.836800
   1983   1985   1989     1   111.0400475 529.694400
   1985   1989   1990     1   123.2000528 564.003200
   1985   1989   2021     1   112.2600482 538.062400
   1989   2021   2002     1   118.5150508 540.957728
   1990   1989   2021     1   118.8300510 581.576000
   1993   1996   1997     1   123.2000528 564.003200
   1993   1996   2045     1   112.2600482 538.062400
   1996   2045   2026     1   118.5150508 540.957728
   1997   1996   2045     1   118.8300510 581.576000
   1998   1999   2001     1   111.5100476 526.347200
   1998   1999   2019     1   110.1900474 564.840000
   1998   2009   2014     1   110.1900474 564.840000
   1998   2016   2003     1   112.4800480 524.673600
   1999   2001   2002     1   111.5100476 526.347200
   1999   2001   2008     1   110.1900474 564.840000
   1999   1998   2009     1   111.5100476 526.347200
   1999   1998   2016     1   107.9700462 569.024000
   2001   2002   2003     1   111.5100476 526.347200
   2001   2002   2021     1   111.0400475 552.288000
   2001   1999   2019     1   110.1900474 564.840000
   2002   2003   2007     1   110.1900474 564.840000
   2002   2003   2016     1   107.9700462 569.024000
   2002   2001   2008     1   110.1900474 564.840000
   2003   2002   2021     1   111.0400475 552.288000
   2007   2003   2016     1   109.3800466 607.516800
   2009   1998   2016     1   107.9700462 569.024000
   2022   2023   2025     1   111.5100476 526.347200
   2022   2023   2043     1   110.1900474 564.840000
   2022   2033   2038     1   110.1900474 564.840000
   2022   2040   2027     1   112.4800480 524.673600
   2023   2025   2026     1   111.5100476 526.347200
   2023   2025   2032     1   110.1900474 564.840000
   2023   2022   2033     1   111.5100476 526.347200
   2023   2022   2040     1   107.9700462 569.024000
   2025   2026   2027     1   111.5100476 526.347200
   2025   2026   2045     1   111.0400475 552.288000
   2025   2023   2043     1   110.1900474 564.840000
   2026   2027   2031     1   110.1900474 564.840000
   2026   2027   2040     1   107.9700462 569.024000
   2026   2025   2032     1   110.1900474 564.840000
   2027   2026   2045     1   111.0400475 552.288000
   2031   2027   2040     1   109.3800466 607.516800
   2033   2022   2040     1   107.9700462 569.024000
   2047   2049   2051     1   111.6100477 551.451200
   2049   2051   2055     1   114.2100488 537.225600
   2051   2055   2056     1   109.6600471 523.836800
   2051   2055   2057     1   109.6600471 523.836800
   2055   2056   2067     1   114.2100488 537.225600
   2055   2057   2059     1   114.2100488 537.225600
   2056   2055   2057     1   109.6600471 523.836800
   2056   2067   2070     1   111.0400475 529.694400
   2057   2059   2063     1   111.0400475 529.694400
   2059   2063   2064     1   123.2000528 564.003200
   2059   2063   2095     1   112.2600482 538.062400
   2063   2095   2076     1   118.5150508 540.957728
   2064   2063   2095     1   118.8300510 581.576000
   2067   2070   2071     1   123.2000528 564.003200
   2067   2070   2119     1   112.2600482 538.062400
   2070   2119   2100     1   118.5150508 540.957728
   2071   2070   2119     1   118.8300510 581.576000
   2072   2073   2075     1   111.5100476 526.347200
   2072   2073   2093     1   110.1900474 564.840000
   2072   2083   2088     1   110.1900474 564.840000
   2072   2090   2077     1   112.4800480 524.673600
   2073   2072   2083     1   111.5100476 526.347200
   2073   2072   2090     1   107.9700462 569.024000
   2073   2075   2076     1   111.5100476 526.347200
   2073   2075   2082     1   110.1900474 564.840000
   2075   2073   2093     1   110.1900474 564.840000
   2075   2076   2077     1   111.5100476 526.347200
   2075   2076   2095     1   111.0400475 552.288000
   2076   2075   2082     1   110.1900474 564.840000
   2076   2077   2081     1   110.1900474 564.840000
   2076   2077   2090     1   107.9700462 569.024000
   2077   2076   2095     1   111.0400475 552.288000
   2081   2077   2090     1   109.3800466 607.516800
   2083   2072   2090     1   107.9700462 569.024000
   2096   2097   2099     1   111.5100476 526.347200
   2096   2097   2117     1   110.1900474 564.840000
   2096   2107   2112     1   110.1900474 564.840000
   2096   2114   2101     1   112.4800480 524.673600
   2097   2096   2107     1   111.5100476 526.347200
   2097   2096   2114     1   107.9700462 569.024000
   2097   2099   2100     1   111.5100476 526.347200
   2097   2099   2106     1   110.1900474 564.840000
   2099   2097   2117     1   110.1900474 564.840000
   2099   2100   2101     1   111.5100476 526.347200
   2099   2100   2119     1   111.0400475 552.288000
   2100   2099   2106     1   110.1900474 564.840000
   2100   2101   2105     1   110.1900474 564.840000
   2100   2101   2114     1   107.9700462 569.024000
   2101   2100   2119     1   111.0400475 552.288000
   2105   2101   2114     1   109.3800466 607.516800
   2107   2096   2114     1   107.9700462 569.024000
   2121   2123   2125     1   111.6100477 551.451200
   2123   2125   2129     1   114.2100488 537.225600
   2125   2129   2130     1   109.6600471 523.836800
   2125   2129   2131     1   109.6600471 523.836800
   2129   2130   2141     1   114.2100488 537.225600
   2129   2131   2133     1   114.2100488 537.225600
   2130   2141   2144     1   111.0400475 529.694400
   2130   2129   2131     1   109.6600471 523.836800
   2131   2133   2137     1   111.0400475 529.694400
   2133   2137   2138     1   123.2000528 564.003200
   2133   2137   2169     1   112.2600482 538.062400
   2137   2169   2150     1   118.5150508 540.957728
   2138   2137   2169     1   118.8300510 581.576000
   2141   2144   2145     1   123.2000528 564.003200
   2141   2144   2193     1   112.2600482 538.062400
   2144   2193   2174     1   118.5150508 540.957728
   2145   2144   2193     1   118.8300510 581.576000
   2146   2147   2149     1   111.5100476 526.347200
   2146   2147   2167     1   110.1900474 564.840000
   2146   2157   2162     1   110.1900474 564.840000
   2146   2164   2151     1   112.4800480 524.673600
   2147   2149   2150     1   111.5100476 526.347200
   2147   2149   2156     1   110.1900474 564.840000
   2147   2146   2157     1   111.5100476 526.347200
   2147   2146   2164     1   107.9700462 569.024000
   2149   2150   2151     1   111.5100476 526.347200
   2149   2150   2169     1   111.0400475 552.288000
   2149   2147   2167     1   110.1900474 564.840000
   2150   2151   2155     1   110.1900474 564.840000
   2150   2151   2164     1   107.9700462 569.024000
   2150   2149   2156     1   110.1900474 564.840000
   2151   2150   2169     1   111.0400475 552.288000
   2155   2151   2164     1   109.3800466 607.516800
   2157   2146   2164     1   107.9700462 569.024000
   2170   2171   2173     1   111.5100476 526.347200
   2170   2171   2191     1   110.1900474 564.840000
   2170   2181   2186     1   110.1900474 564.840000
   2170   2188   2175     1   112.4800480 524.673600
   2171   2173   2174     1   111.5100476 526.347200
   2171   2173   2180     1   110.1900474 564.840000
   2171   2170   2181     1   111.5100476 526.347200
   2171   2170   2188     1   107.9700462 569.024000
   2173   2174   2175     1   111.5100476 526.347200
   2173   2174   2193     1   111.0400475 552.288000
   2173   2171   2191     1   110.1900474 564.840000
   2174   2175   2179     1   110.1900474 564.840000
   2174   2175   2188     1   107.9700462 569.024000
   2174   2173   2180     1   110.1900474 564.840000
   2175   2174   2193     1   111.0400475 552.288000
   2179   2175   2188     1   109.3800466 607.516800
   2181   2170   2188     1   107.9700462 569.024000
   2195   2197   2199     1   111.6100477 551.451200
   2197   2199   2203     1   114.2100488 537.225600
   2199   2203   2204     1   109.6600471 523.836800
   2199   2203   2205     1   109.6600471 523.836800
   2203   2204   2215     1   114.2100488 537.225600
   2203   2205   2207     1   114.2100488 537.225600
   2204   2203   2205     1   109.6600471 523.836800
   2204   2215   2218     1   111.0400475 529.694400
   2205   2207   2211     1   111.0400475 529.694400
   2207   2211   2212     1   123.2000528 564.003200
   2207   2211   2243     1   112.2600482 538.062400
   2211   2243   2224     1   118.5150508 540.957728
   2212   2211   2243     1   118.8300510 581.576000
   2215   2218   2219     1   123.2000528 564.003200
   2215   2218   2267     1   112.2600482 538.062400
   2218   2267   2248     1   118.5150508 540.957728
   2219   2218   2267     1   118.8300510 581.576000
   2220   2221   2223     1   111.5100476 526.347200
   2220   2221   2241     1   110.1900474 564.840000
   2220   2231   2236     1   110.1900474 564.840000
   2220   2238   2225     1   112.4800480 524.673600
   2221   2220   2231     1   111.5100476 526.347200
   2221   2220   2238     1   107.9700462 569.024000
   2221   2223   2224     1   111.5100476 526.347200
   2221   2223   2230     1   110.1900474 564.840000
   2223   2221   2241     1   110.1900474 564.840000
   2223   2224   2225     1   111.5100476 526.347200
   2223   2224   2243     1   111.0400475 552.288000
   2224   2223   2230     1   110.1900474 564.840000
   2224   2225   2229     1   110.1900474 564.840000
   2224   2225   2238     1   107.9700462 569.024000
   2225   2224   2243     1   111.0400475 552.288000
   2229   2225   2238     1   109.3800466 607.516800
   2231   2220   2238     1   107.9700462 569.024000
   2244   2245   2247     1   111.5100476 526.347200
   2244   2245   2265     1   110.1900474 564.840000
   2244   2255   2260     1   110.1900474 564.840000
   2244   2262   2249     1   112.4800480 524.673600
   2245   2244   2255     1   111.5100476 526.347200
   2245   2244   2262     1   107.9700462 569.024000
   2245   2247   2248     1   111.5100476 526.347200
   2245   2247   2254     1   110.1900474 564.840000
   2247   2245   2265     1   110.1900474 564.840000
   2247   2248   2249     1   111.5100476 526.347200
   2247   2248   2267     1   111.0400475 552.288000
   2248   2247   2254     1   110.1900474 564.840000
   2248   2249   2253     1   110.1900474 564.840000
   2248   2249   2262     1   107.9700462 569.024000
   2249   2248   2267     1   111.0400475 552.288000
   2253   2249   2262     1   109.3800466 607.516800
   2255   2244   2262     1   107.9700462 569.024000
   2269   2271   2273     1   111.6100477 551.451200
   2271   2273   2277     1   114.2100488 537.225600
   2273   2277   2278     1   109.6600471 523.836800
   2273   2277   2279     1   109.6600471 523.836800
   2277   2278   2289     1   114.2100488 537.225600
   2277   2279   2281     1   114.2100488 537.225600
   2278   2289   2292     1   111.0400475 529.694400
   2278   2277   2279     1   109.6600471 523.836800
   2279   2281   2285     1   111.0400475 529.694400
   2281   2285   2286     1   123.2000528 564.003200
   2281   2285   2317     1   112.2600482 538.062400
   2285   2317   2298     1   118.5150508 540.957728
   2286   2285   2317     1   118.8300510 581.576000
   2289   2292   2293     1   123.2000528 564.003200
   2289   2292   2341     1   112.2600482 538.062400
   2292   2341   2322     1   118.5150508 540.957728
   2293   2292   2341     1   118.8300510 581.576000
   2294   2295   2297     1   111.5100476 526.347200
   2294   2295   2315     1   110.1900474 564.840000
   2294   2305   2310     1   110.1900474 564.840000
   2294   2312   2299     1   112.4800480 524.673600
   2295   2297   2298     1   111.5100476 526.347200
   2295   2297   2304     1   110.1900474 564.840000
   2295   2294   2305     1   111.5100476 526.347200
   2295   2294   2312     1   107.9700462 569.024000
   2297   2298   2299     1   111.5100476 526.347200
   2297   2298   2317     1   111.0400475 552.288000
   2297   2295   2315     1   110.1900474 564.840000
   2298   2299   2303     1   110.1900474 564.840000
   2298   2299   2312     1   107.9700462 569.024000
   2298   2297   2304     1   110.1900474 564.840000
   2299   2298   2317     1   111.0400475 552.288000
   2303   2299   2312     1   109.3800466 607.516800
   2305   2294   2312     1   107.9700462 569.024000
   2318   2319   2321     1   111.5100476 526.347200
   2318   2319   2339     1   110.1900474 564.840000
   2318   2329   2334     1   110.1900474 564.840000
   2318   2336   2323     1   112.4800480 524.673600
   2319   2321   2322     1   111.5100476 526.347200
   2319   2321   2328     1   110.1900474 564.840000
   2319   2318   2329     1   111.5100476 526.347200
   2319   2318   2336     1   107.9700462 569.024000
   2321   2322   2323     1   111.5100476 526.347200
   2321   2322   2341     1   111.0400475 552.288000
   2321   2319   2339     1   110.1900474 564.840000
   2322   2323   2327     1   110.1900474 564.840000
   2322   2323   2336     1   107.9700462 569.024000
   2322   2321   2328     1   110.1900474 564.840000
   2323   2322   2341     1   111.0400475 552.288000
   2327   2323   2336     1   109.3800466 607.516800
   2329   2318   2336     1   107.9700462 569.024000
   2343   2345   2347     1   111.6100477 551.451200
   2345   2347   2351     1   114.2100488 537.225600
   2347   2351   2352     1   109.6600471 523.836800
   2347   2351   2353     1   109.6600471 523.836800
   2351   2352   2363     1   114.2100488 537.225600
   2351   2353   2355     1   114.2100488 537.225600
   2352   2351   2353     1   109.6600471 523.836800
   2352   2363   2366     1   111.0400475 529.694400
   2353   2355   2359     1   111.0400475 529.694400
   2355   2359   2360     1   123.2000528 564.003200
   2355   2359   2391     1   112.2600482 538.062400
   2359   2391   2372     1   118.5150508 540.957728
   2360   2359   2391     1   118.8300510 581.576000
   2363   2366   2367     1   123.2000528 564.003200
   2363   2366   2415     1   112.2600482 538.062400
   2366   2415   2396     1   118.5150508 540.957728
   2367   2366   2415     1   118.8300510 581.576000
   2368   2369   2371     1   111.5100476 526.347200
   2368   2369   2389     1   110.1900474 564.840000
   2368   2379   2384     1   110.1900474 564.840000
   2368   2386   2373     1   112.4800480 524.673600
   2369   2368   2379     1   111.5100476 526.347200
   2369   2368   2386     1   107.9700462 569.024000
   2369   2371   2372     1   111.5100476 526.347200
   2369   2371   2378     1   110.1900474 564.840000
   2371   2369   2389     1   110.1900474 564.840000
   2371   2372   2373     1   111.5100476 526.347200
   2371   2372   2391     1   111.0400475 552.288000
   2372   2371   2378     1   110.1900474 564.840000
   2372   2373   2377     1   110.1900474 564.840000
   2372   2373   2386     1   107.9700462 569.024000
   2373   2372   2391     1   111.0400475 552.288000
   2377   2373   2386     1   109.3800466 607.516800
   2379   2368   2386     1   107.9700462 569.024000
   2392   2393   2395     1   111.5100476 526.347200
   2392   2393   2413     1   110.1900474 564.840000
   2392   2403   2408     1   110.1900474 564.840000
   2392   2410   2397     1   112.4800480 524.673600
   2393   2392   2403     1   111.5100476 526.347200
   2393   2392   2410     1   107.9700462 569.024000
   2393   2395   2396     1   111.5100476 526.347200
   2393   2395   2402     1   110.1900474 564.840000
   2395   2393   2413     1   110.1900474 564.840000
   2395   2396   2397     1   111.5100476 526.347200
   2395   2396   2415     1   111.0400475 552.288000
   2396   2395   2402     1   110.1900474 564.840000
   2396   2397   2401     1   110.1900474 564.840000
   2396   2397   2410     1   107.9700462 569.024000
   2397   2396   2415     1   111.0400475 552.288000
   2401   2397   2410     1   109.3800466 607.516800
   2403   2392   2410     1   107.9700462 569.024000
   2417   2419   2421     1   111.6100477 551.451200
   2419   2421   2425     1   114.2100488 537.225600
   2421   2425   2426     1   109.6600471 523.836800
   2421   2425   2427     1   109.6600471 523.836800
   2425   2426   2437     1   114.2100488 537.225600
   2425   2427   2429     1   114.2100488 537.225600
   2426   2437   2440     1   111.0400475 529.694400
   2426   2425   2427     1   109.6600471 523.836800
   2427   2429   2433     1   111.0400475 529.694400
   2429   2433   2434     1   123.2000528 564.003200
   2429   2433   2465     1   112.2600482 538.062400
   2433   2465   2446     1   118.5150508 540.957728
   2434   2433   2465     1   118.8300510 581.576000
   2437   2440   2441     1   123.2000528 564.003200
   2437   2440   2489     1   112.2600482 538.062400
   2440   2489   2470     1   118.5150508 540.957728
   2441   2440   2489     1   118.8300510 581.576000
   2442   2443   2445     1   111.5100476 526.347200
   2442   2443   2463     1   110.1900474 564.840000
   2442   2453   2458     1   110.1900474 564.840000
   2442   2460   2447     1   112.4800480 524.673600
   2443   2445   2446     1   111.5100476 526.347200
   2443   2445   2452     1   110.1900474 564.840000
   2443   2442   2453     1   111.5100476 526.347200
   2443   2442   2460     1   107.9700462 569.024000
   2445   2446   2447     1   111.5100476 526.347200
   2445   2446   2465     1   111.0400475 552.288000
   2445   2443   2463     1   110.1900474 564.840000
   2446   2447   2451     1   110.1900474 564.840000
   2446   2447   2460     1   107.9700462 569.024000
   2446   2445   2452     1   110.1900474 564.840000
   2447   2446   2465     1   111.0400475 552.288000
   2451   2447   2460     1   109.3800466 607.516800
   2453   2442   2460     1   107.9700462 569.024000
   2466   2467   2469     1   111.5100476 526.347200
   2466   2467   2487     1   110.1900474 564.840000
   2466   2477   2482     1   110.1900474 564.840000
   2466   2484   2471     1   112.4800480 524.673600
   2467   2469   2470     1   111.5100476 526.347200
   2467   2469   2476     1   110.1900474 564.840000
   2467   2466   2477     1   111.5100476 526.347200
   2467   2466   2484     1   107.9700462 569.024000
   2469   2470   2471     1   111.5100476 526.347200
   2469   2470   2489     1   111.0400475 552.288000
   2469   2467   2487     1   110.1900474 564.840000
   2470   2471   2475     1   110.1900474 564.840000
   2470   2471   2484     1   107.9700462 569.024000
   2470   2469   2476     1   110.1900474 564.840000
   2471   2470   2489     1   111.0400475 552.288000
   2475   2471   2484     1   109.3800466 607.516800
   2477   2466   2484     1   107.9700462 569.024000
   2491   2493   2495     1   111.6100477 551.451200
   2493   2495   2499     1   114.2100488 537.225600
   2495   2499   2500     1   109.6600471 523.836800
   2495   2499   2501     1   109.6600471 523.836800
   2499   2500   2511     1   114.2100488 537.225600
   2499   2501   2503     1   114.2100488 537.225600
   2500   2499   2501     1   109.6600471 523.836800
   2500   2511   2514     1   111.0400475 529.694400
   2501   2503   2507     1   111.0400475 529.694400
   2503   2507   2508     1   123.2000528 564.003200
   2503   2507   2539     1   112.2600482 538.062400
   2507   2539   2520     1   118.5150508 540.957728
   2508   2507   2539     1   118.8300510 581.576000
   2511   2514   2515     1   123.2000528 564.003200
   2511   2514   2563     1   112.2600482 538.062400
   2514   2563   2544     1   118.5150508 540.957728
   2515   2514   2563     1   118.8300510 581.576000
   2516   2517   2519     1   111.5100476 526.347200
   2516   2517   2537     1   110.1900474 564.840000
   2516   2527   2532     1   110.1900474 564.840000
   2516   2534   2521     1   112.4800480 524.673600
   2517   2516   2527     1   111.5100476 526.347200
   2517   2516   2534     1   107.9700462 569.024000
   2517   2519   2520     1   111.5100476 526.347200
   2517   2519   2526     1   110.1900474 564.840000
   2519   2517   2537     1   110.1900474 564.840000
   2519   2520   2521     1   111.5100476 526.347200
   2519   2520   2539     1   111.0400475 552.288000
   2520   2519   2526     1   110.1900474 564.840000
   2520   2521   2525     1   110.1900474 564.840000
   2520   2521   2534     1   107.9700462 569.024000
   2521   2520   2539     1   111.0400475 552.288000
   2525   2521   2534     1   109.3800466 607.516800
   2527   2516   2534     1   107.9700462 569.024000
   2540   2541   2543     1   111.5100476 526.347200
   2540   2541   2561     1   110.1900474 564.840000
   2540   2551   2556     1   110.1900474 564.840000
   2540   2558   2545     1   112.4800480 524.673600
   2541   2540   2551     1   111.5100476 526.347200
   2541   2540   2558     1   107.9700462 569.024000
   2541   2543   2544     1   111.5100476 526.347200
   2541   2543   2550     1   110.1900474 564.840000
   2543   2541   2561     1   110.1900474 564.840000
   2543   2544   2545     1   111.5100476 526.347200
   2543   2544   2563     1   111.0400475 552.288000
   2544   2543   2550     1   110.1900474 564.840000
   2544   2545   2549     1   110.1900474 564.840000
   2544   2545   2558     1   107.9700462 569.024000
   2545   2544   2563     1   111.0400475 552.288000
   2549   2545   2558     1   109.3800466 607.516800
   2551   2540   2558     1   107.9700462 569.024000
   2565   2567   2569     1   111.6100477 551.451200
   2567   2569   2573     1   114.2100488 537.225600
   2569   2573   2574     1   109.6600471 523.836800
   2569   2573   2575     1   109.6600471 523.836800
   2573   2574   2585     1   114.2100488 537.225600
   2573   2575   2577     1   114.2100488 537.225600
   2574   2585   2588     1   111.0400475 529.694400
   2574   2573   2575     1   109.6600471 523.836800
   2575   2577   2581     1   111.0400475 529.694400
   2577   2581   2582     1   123.2000528 564.003200
   2577   2581   2613     1   112.2600482 538.062400
   2581   2613   2594     1   118.5150508 540.957728
   2582   2581   2613     1   118.8300510 581.576000
   2585   2588   2589     1   123.2000528 564.003200
   2585   2588   2637     1   112.2600482 538.062400
   2588   2637   2618     1   118.5150508 540.957728
   2589   2588   2637     1   118.8300510 581.576000
   2590   2591   2593     1   111.5100476 526.347200
   2590   2591   2611     1   110.1900474 564.840000
   2590   2601   2606     1   110.1900474 564.840000
   2590   2608   2595     1   112.4800480 524.673600
   2591   2593   2594     1   111.5100476 526.347200
   2591   2593   2600     1   110.1900474 564.840000
   2591   2590   2601     1   111.5100476 526.347200
   2591   2590   2608     1   107.9700462 569.024000
   2593   2594   2595     1   111.5100476 526.347200
   2593   2594   2613     1   111.0400475 552.288000
   2593   2591   2611     1   110.1900474 564.840000
   2594   2595   2599     1   110.1900474 564.840000
   2594   2595   2608     1   107.9700462 569.024000
   2594   2593   2600     1   110.1900474 564.840000
   2595   2594   2613     1   111.0400475 552.288000
   2599   2595   2608     1   109.3800466 607.516800
   2601   2590   2608     1   107.9700462 569.024000
   2614   2615   2617     1   111.5100476 526.347200
   2614   2615   2635     1   110.1900474 564.840000
   2614   2625   2630     1   110.1900474 564.840000
   2614   2632   2619     1   112.4800480 524.673600
   2615   2617   2618     1   111.5100476 526.347200
   2615   2617   2624     1   110.1900474 564.840000
   2615   2614   2625     1   111.5100476 526.347200
   2615   2614   2632     1   107.9700462 569.024000
   2617   2618   2619     1   111.5100476 526.347200
   2617   2618   2637     1   111.0400475 552.288000
   2617   2615   2635     1   110.1900474 564.840000
   2618   2619   2623     1   110.1900474 564.840000
   2618   2619   2632     1   107.9700462 569.024000
   2618   2617   2624     1   110.1900474 564.840000
   2619   2618   2637     1   111.0400475 552.288000
   2623   2619   2632     1   109.3800466 607.516800
   2625   2614   2632     1   107.9700462 569.024000
   2639   2641   2643     1   111.6100477 551.451200
   2641   2643   2647     1   114.2100488 537.225600
   2643   2647   2648     1   109.6600471 523.836800
   2643   2647   2649     1   109.6600471 523.836800
   2647   2648   2659     1   114.2100488 537.225600
   2647   2649   2651     1   114.2100488 537.225600
   2648   2647   2649     1   109.6600471 523.836800
   2648   2659   2662     1   111.0400475 529.694400
   2649   2651   2655     1   111.0400475 529.694400
   2651   2655   2656     1   123.2000528 564.003200
   2651   2655   2687     1   112.2600482 538.062400
   2655   2687   2668     1   118.5150508 540.957728
   2656   2655   2687     1   118.8300510 581.576000
   2659   2662   2663     1   123.2000528 564.003200
   2659   2662   2711     1   112.2600482 538.062400
   2662   2711   2692     1   118.5150508 540.957728
   2663   2662   2711     1   118.8300510 581.576000
   2664   2665   2667     1   111.5100476 526.347200
   2664   2665   2685     1   110.1900474 564.840000
   2664   2675   2680     1   110.1900474 564.840000
   2664   2682   2669     1   112.4800480 524.673600
   2665   2664   2675     1   111.5100476 526.347200
   2665   2664   2682     1   107.9700462 569.024000
   2665   2667   2668     1   111.5100476 526.347200
   2665   2667   2674     1   110.1900474 564.840000
   2667   2665   2685     1   110.1900474 564.840000
   2667   2668   2669     1   111.5100476 526.347200
   2667   2668   2687     1   111.0400475 552.288000
   2668   2667   2674     1   110.1900474 564.840000
   2668   2669   2673     1   110.1900474 564.840000
   2668   2669   2682     1   107.9700462 569.024000
   2669   2668   2687     1   111.0400475 552.288000
   2673   2669   2682     1   109.3800466 607.516800
   2675   2664   2682     1   107.9700462 569.024000
   2688   2689   2691     1   111.5100476 526.347200
   2688   2689   2709     1   110.1900474 564.840000
   2688   2699   2704     1   110.1900474 564.840000
   2688   2706   2693     1   112.4800480 524.673600
   2689   2688   2699     1   111.5100476 526.347200
   2689   2688   2706     1   107.9700462 569.024000
   2689   2691   2692     1   111.5100476 526.347200
   2689   2691   2698     1   110.1900474 564.840000
   2691   2689   2709     1   110.1900474 564.840000
   2691   2692   2693     1   111.5100476 526.347200
   2691   2692   2711     1   111.0400475 552.288000
   2692   2691   2698     1   110.1900474 564.840000
   2692   2693   2697     1   110.1900474 564.840000
   2692   2693   2706     1   107.9700462 569.024000
   2693   2692   2711     1   111.0400475 552.288000
   2697   2693   2706     1   109.3800466 607.516800
   2699   2688   2706     1   107.9700462 569.024000
   2713   2715   2717     1   111.6100477 551.451200
   2715   2717   2721     1   114.2100488 537.225600
   2717   2721   2722     1   109.6600471 523.836800
   2717   2721   2723     1   109.6600471 523.836800
   2721   2722   2733     1   114.2100488 537.225600
   2721   2723   2725     1   114.2100488 537.225600
   2722   2733   2736     1   111.0400475 529.694400
   2722   2721   2723     1   109.6600471 523.836800
   2723   2725   2729     1   111.0400475 529.694400
   2725   2729   2730     1   123.2000528 564.003200
   2725   2729   2761     1   112.2600482 538.062400
   2729   2761   2742     1   118.5150508 540.957728
   2730   2729   2761     1   118.8300510 581.576000
   2733   2736   2737     1   123.2000528 564.003200
   2733   2736   2785     1   112.2600482 538.062400
   2736   2785   2766     1   118.5150508 540.957728
   2737   2736   2785     1   118.8300510 581.576000
   2738   2739   2741     1   111.5100476 526.347200
   2738   2739   2759     1   110.1900474 564.840000
   2738   2749   2754     1   110.1900474 564.840000
   2738   2756   2743     1   112.4800480 524.673600
   2739   2741   2742     1   111.5100476 526.347200
   2739   2741   2748     1   110.1900474 564.840000
   2739   2738   2749     1   111.5100476 526.347200
   2739   2738   2756     1   107.9700462 569.024000
   2741   2742   2743     1   111.5100476 526.347200
   2741   2742   2761     1   111.0400475 552.288000
   2741   2739   2759     1   110.1900474 564.840000
   2742   2743   2747     1   110.1900474 564.840000
   2742   2743   2756     1   107.9700462 569.024000
   2742   2741   2748     1   110.1900474 564.840000
   2743   2742   2761     1   111.0400475 552.288000
   2747   2743   2756     1   109.3800466 607.516800
   2749   2738   2756     1   107.9700462 569.024000
   2762   2763   2765     1   111.5100476 526.347200
   2762   2763   2783     1   110.1900474 564.840000
   2762   2773   2778     1   110.1900474 564.840000
   2762   2780   2767     1   112.4800480 524.673600
   2763   2765   2766     1   111.5100476 526.347200
   2763   2765   2772     1   110.1900474 564.840000
   2763   2762   2773     1   111.5100476 526.347200
   2763   2762   2780     1   107.9700462 569.024000
   2765   2766   2767     1   111.5100476 526.347200
   2765   2766   2785     1   111.0400475 552.288000
   2765   2763   2783     1   110.1900474 564.840000
   2766   2767   2771     1   110.1900474 564.840000
   2766   2767   2780     1   107.9700462 569.024000
   2766   2765   2772     1   110.1900474 564.840000
   2767   2766   2785     1   111.0400475 552.288000
   2771   2767   2780     1   109.3800466 607.516800
   2773   2762   2780     1   107.9700462 569.024000
   2787   2789   2791     1   111.6100477 551.451200
   2789   2791   2795     1   114.2100488 537.225600
   2791   2795   2796     1   109.6600471 523.836800
   2791   2795   2797     1   109.6600471 523.836800
   2795   2796   2807     1   114.2100488 537.225600
   2795   2797   2799     1   114.2100488 537.225600
   2796   2795   2797     1   109.6600471 523.836800
   2796   2807   2810     1   111.0400475 529.694400
   2797   2799   2803     1   111.0400475 529.694400
   2799   2803   2804     1   123.2000528 564.003200
   2799   2803   2835     1   112.2600482 538.062400
   2803   2835   2816     1   118.5150508 540.957728
   2804   2803   2835     1   118.8300510 581.576000
   2807   2810   2811     1   123.2000528 564.003200
   2807   2810   2859     1   112.2600482 538.062400
   2810   2859   2840     1   118.5150508 540.957728
   2811   2810   2859     1   118.8300510 581.576000
   2812   2813   2815     1   111.5100476 526.347200
   2812   2813   2833     1   110.1900474 564.840000
   2812   2823   2828     1   110.1900474 564.840000
   2812   2830   2817     1   112.4800480 524.673600
   2813   2812   2823     1   111.5100476 526.347200
   2813   2812   2830     1   107.9700462 569.024000
   2813   2815   2816     1   111.5100476 526.347200
   2813   2815   2822     1   110.1900474 564.840000
   2815   2813   2833     1   110.1900474 564.840000
   2815   2816   2817     1   111.5100476 526.347200
   2815   2816   2835     1   111.0400475 552.288000
   2816   2815   2822     1   110.1900474 564.840000
   2816   2817   2821     1   110.1900474 564.840000
   2816   2817   2830     1   107.9700462 569.024000
   2817   2816   2835     1   111.0400475 552.288000
   2821   2817   2830     1   109.3800466 607.516800
   2823   2812   2830     1   107.9700462 569.024000
   2836   2837   2839     1   111.5100476 526.347200
   2836   2837   2857     1   110.1900474 564.840000
   2836   2847   2852     1   110.1900474 564.840000
   2836   2854   2841     1   112.4800480 524.673600
   2837   2836   2847     1   111.5100476 526.347200
   2837   2836   2854     1   107.9700462 569.024000
   2837   2839   2840     1   111.5100476 526.347200
   2837   2839   2846     1   110.1900474 564.840000
   2839   2837   2857     1   110.1900474 564.840000
   2839   2840   2841     1   111.5100476 526.347200
   2839   2840   2859     1   111.0400475 552.288000
   2840   2839   2846     1   110.1900474 564.840000
   2840   2841   2845     1   110.1900474 564.840000
   2840   2841   2854     1   107.9700462 569.024000
   2841   2840   2859     1   111.0400475 552.288000
   2845   2841   2854     1   109.3800466 607.516800
   2847   2836   2854     1   107.9700462 569.024000
   2861   2863   2865     1   111.6100477 551.451200
   2863   2865   2869     1   114.2100488 537.225600
   2865   2869   2870     1   109.6600471 523.836800
   2865   2869   2871     1   109.6600471 523.836800
   2869   2870   2881     1   114.2100488 537.225600
   2869   2871   2873     1   114.2100488 537.225600
   2870   2881   2884     1   111.0400475 529.694400
   2870   2869   2871     1   109.6600471 523.836800
   2871   2873   2877     1   111.0400475 529.694400
   2873   2877   2878     1   123.2000528 564.003200
   2873   2877   2909     1   112.2600482 538.062400
   2877   2909   2890     1   118.5150508 540.957728
   2878   2877   2909     1   118.8300510 581.576000
   2881   2884   2885     1   123.2000528 564.003200
   2881   2884   2933     1   112.2600482 538.062400
   2884   2933   2914     1   118.5150508 540.957728
   2885   2884   2933     1   118.8300510 581.576000
   2886   2887   2889     1   111.5100476 526.347200
   2886   2887   2907     1   110.1900474 564.840000
   2886   2897   2902     1   110.1900474 564.840000
   2886   2904   2891     1   112.4800480 524.673600
   2887   2889   2890     1   111.5100476 526.347200
   2887   2889   2896     1   110.1900474 564.840000
   2887   2886   2897     1   111.5100476 526.347200
   2887   2886   2904     1   107.9700462 569.024000
   2889   2890   2891     1   111.5100476 526.347200
   2889   2890   2909     1   111.0400475 552.288000
   2889   2887   2907     1   110.1900474 564.840000
   2890   2891   2895     1   110.1900474 564.840000
   2890   2891   2904     1   107.9700462 569.024000
   2890   2889   2896     1   110.1900474 564.840000
   2891   2890   2909     1   111.0400475 552.288000
   2895   2891   2904     1   109.3800466 607.516800
   2897   2886   2904     1   107.9700462 569.024000
   2910   2911   2913     1   111.5100476 526.347200
   2910   2911   2931     1   110.1900474 564.840000
   2910   2921   2926     1   110.1900474 564.840000
   2910   2928   2915     1   112.4800480 524.673600
   2911   2913   2914     1   111.5100476 526.347200
   2911   2913   2920     1   110.1900474 564.840000
   2911   2910   2921     1   111.5100476 526.347200
   2911   2910   2928     1   107.9700462 569.024000
   2913   2914   2915     1   111.5100476 526.347200
   2913   2914   2933     1   111.0400475 552.288000
   2913   2911   2931     1   110.1900474 564.840000
   2914   2915   2919     1   110.1900474 564.840000
   2914   2915   2928     1   107.9700462 569.024000
   2914   2913   2920     1   110.1900474 564.840000
   2915   2914   2933     1   111.0400475 552.288000
   2919   2915   2928     1   109.3800466 607.516800
   2921   2910   2928     1   107.9700462 569.024000
   2935   2937   2939     1   111.6100477 551.451200
   2937   2939   2943     1   114.2100488 537.225600
   2939   2943   2944     1   109.6600471 523.836800
   2939   2943   2945     1   109.6600471 523.836800
   2943   2944   2955     1   114.2100488 537.225600
   2943   2945   2947     1   114.2100488 537.225600
   2944   2943   2945     1   109.6600471 523.836800
   2944   2955   2958     1   111.0400475 529.694400
   2945   2947   2951     1   111.0400475 529.694400
   2947   2951   2952     1   123.2000528 564.003200
   2947   2951   2983     1   112.2600482 538.062400
   2951   2983   2964     1   118.5150508 540.957728
   2952   2951   2983     1   118.8300510 581.576000
   2955   2958   2959     1   123.2000528 564.003200
   2955   2958   3007     1   112.2600482 538.062400
   2958   3007   2988     1   118.5150508 540.957728
   2959   2958   3007     1   118.8300510 581.576000
   2960   2961   2963     1   111.5100476 526.347200
   2960   2961   2981     1   110.1900474 564.840000
   2960   2971   2976     1   110.1900474 564.840000
   2960   2978   2965     1   112.4800480 524.673600
   2961   2960   2971     1   111.5100476 526.347200
   2961   2960   2978     1   107.9700462 569.024000
   2961   2963   2964     1   111.5100476 526.347200
   2961   2963   2970     1   110.1900474 564.840000
   2963   2961   2981     1   110.1900474 564.840000
   2963   2964   2965     1   111.5100476 526.347200
   2963   2964   2983     1   111.0400475 552.288000
   2964   2963   2970     1   110.1900474 564.840000
   2964   2965   2969     1   110.1900474 564.840000
   2964   2965   2978     1   107.9700462 569.024000
   2965   2964   2983     1   111.0400475 552.288000
   2969   2965   2978     1   109.3800466 607.516800
   2971   2960   2978     1   107.9700462 569.024000
   2984   2985   2987     1   111.5100476 526.347200
   2984   2985   3005     1   110.1900474 564.840000
   2984   2995   3000     1   110.1900474 564.840000
   2984   3002   2989     1   112.4800480 524.673600
   2985   2984   2995     1   111.5100476 526.347200
   2985   2984   3002     1   107.9700462 569.024000
   2985   2987   2988     1   111.5100476 526.347200
   2985   2987   2994     1   110.1900474 564.840000
   2987   2985   3005     1   110.1900474 564.840000
   2987   2988   2989     1   111.5100476 526.347200
   2987   2988   3007     1   111.0400475 552.288000
   2988   2987   2994     1   110.1900474 564.840000
   2988   2989   2993     1   110.1900474 564.840000
   2988   2989   3002     1   107.9700462 569.024000
   2989   2988   3007     1   111.0400475 552.288000
   2993   2989   3002     1   109.3800466 607.516800
   2995   2984   3002     1   107.9700462 569.024000
   3009   3011   3013     1   111.6100477 551.451200
   3011   3013   3017     1   114.2100488 537.225600
   3013   3017   3018     1   109.6600471 523.836800
   3013   3017   3019     1   109.6600471 523.836800
   3017   3018   3029     1   114.2100488 537.225600
   3017   3019   3021     1   114.2100488 537.225600
   3018   3029   3032     1   111.0400475 529.694400
   3018   3017   3019     1   109.6600471 523.836800
   3019   3021   3025     1   111.0400475 529.694400
   3021   3025   3026     1   123.2000528 564.003200
   3021   3025   3057     1   112.2600482 538.062400
   3025   3057   3038     1   118.5150508 540.957728
   3026   3025   3057     1   118.8300510 581.576000
   3029   3032   3033     1   123.2000528 564.003200
   3029   3032   3081     1   112.2600482 538.062400
   3032   3081   3062     1   118.5150508 540.957728
   3033   3032   3081     1   118.8300510 581.576000
   3034   3035   3037     1   111.5100476 526.347200
   3034   3035   3055     1   110.1900474 564.840000
   3034   3045   3050     1   110.1900474 564.840000
   3034   3052   3039     1   112.4800480 524.673600
   3035   3037   3038     1   111.5100476 526.347200
   3035   3037   3044     1   110.1900474 564.840000
   3035   3034   3045     1   111.5100476 526.347200
   3035   3034   3052     1   107.9700462 569.024000
   3037   3038   3039     1   111.5100476 526.347200
   3037   3038   3057     1   111.0400475 552.288000
   3037   3035   3055     1   110.1900474 564.840000
   3038   3039   3043     1   110.1900474 564.840000
   3038   3039   3052     1   107.9700462 569.024000
   3038   3037   3044     1   110.1900474 564.840000
   3039   3038   3057     1   111.0400475 552.288000
   3043   3039   3052     1   109.3800466 607.516800
   3045   3034   3052     1   107.9700462 569.024000
   3058   3059   3061     1   111.5100476 526.347200
   3058   3059   3079     1   110.1900474 564.840000
   3058   3069   3074     1   110.1900474 564.840000
   3058   3076   3063     1   112.4800480 524.673600
   3059   3061   3062     1   111.5100476 526.347200
   3059   3061   3068     1   110.1900474 564.840000
   3059   3058   3069     1   111.5100476 526.347200
   3059   3058   3076     1   107.9700462 569.024000
   3061   3062   3063     1   111.5100476 526.347200
   3061   3062   3081     1   111.0400475 552.288000
   3061   3059   3079     1   110.1900474 564.840000
   3062   3063   3067     1   110.1900474 564.840000
   3062   3063   3076     1   107.9700462 569.024000
   3062   3061   3068     1   110.1900474 564.840000
   3063   3062   3081     1   111.0400475 552.288000
   3067   3063   3076     1   109.3800466 607.516800
   3069   3058   3076     1   107.9700462 569.024000
   3083   3085   3087     1   111.6100477 551.451200
   3085   3087   3091     1   114.2100488 537.225600
   3087   3091   3092     1   109.6600471 523.836800
   3087   3091   3093     1   109.6600471 523.836800
   3091   3092   3103     1   114.2100488 537.225600
   3091   3093   3095     1   114.2100488 537.225600
   3092   3091   3093     1   109.6600471 523.836800
   3092   3103   3106     1   111.0400475 529.694400
   3093   3095   3099     1   111.0400475 529.694400
   3095   3099   3100     1   123.2000528 564.003200
   3095   3099   3131     1   112.2600482 538.062400
   3099   3131   3112     1   118.5150508 540.957728
   3100   3099   3131     1   118.8300510 581.576000
   3103   3106   3107     1   123.2000528 564.003200
   3103   3106   3155     1   112.2600482 538.062400
   3106   3155   3136     1   118.5150508 540.957728
   3107   3106   3155     1   118.8300510 581.576000
   3108   3109   3111     1   111.5100476 526.347200
   3108   3109   3129     1   110.1900474 564.840000
   3108   3119   3124     1   110.1900474 564.840000
   3108   3126   3113     1   112.4800480 524.673600
   3109   3108   3119     1   111.5100476 526.347200
   3109   3108   3126     1   107.9700462 569.024000
   3109   3111   3112     1   111.5100476 526.347200
   3109   3111   3118     1   110.1900474 564.840000
   3111   3109   3129     1   110.1900474 564.840000
   3111   3112   3113     1   111.5100476 526.347200
   3111   3112   3131     1   111.0400475 552.288000
   3112   3111   3118     1   110.1900474 564.840000
   3112   3113   3117     1   110.1900474 564.840000
   3112   3113   3126     1   107.9700462 569.024000
   3113   3112   3131     1   111.0400475 552.288000
   3117   3113   3126     1   109.3800466 607.516800
   3119   3108   3126     1   107.9700462 569.024000
   3132   3133   3135     1   111.5100476 526.347200
   3132   3133   3153     1   110.1900474 564.840000
   3132   3143   3148     1   110.1900474 564.840000
   3132   3150   3137     1   112.4800480 524.673600
   3133   3132   3143     1   111.5100476 526.347200
   3133   3132   3150     1   107.9700462 569.024000
   3133   3135   3136     1   111.5100476 526.347200
   3133   3135   3142     1   110.1900474 564.840000
   3135   3133   3153     1   110.1900474 564.840000
   3135   3136   3137     1   111.5100476 526.347200
   3135   3136   3155     1   111.0400475 552.288000
   3136   3135   3142     1   110.1900474 564.840000
   3136   3137   3141     1   110.1900474 564.840000
   3136   3137   3150     1   107.9700462 569.024000
   3137   3136   3155     1   111.0400475 552.288000
   3141   3137   3150     1   109.3800466 607.516800
   3143   3132   3150     1   107.9700462 569.024000
   3157   3159   3161     1   111.6100477 551.451200
   3159   3161   3165     1   114.2100488 537.225600
   3161   3165   3166     1   109.6600471 523.836800
   3161   3165   3167     1   109.6600471 523.836800
   3165   3166   3177     1   114.2100488 537.225600
   3165   3167   3169     1   114.2100488 537.225600
   3166   3177   3180     1   111.0400475 529.694400
   3166   3165   3167     1   109.6600471 523.836800
   3167   3169   3173     1   111.0400475 529.694400
   3169   3173   3174     1   123.2000528 564.003200
   3169   3173   3205     1   112.2600482 538.062400
   3173   3205   3186     1   118.5150508 540.957728
   3174   3173   3205     1   118.8300510 581.576000
   3177   3180   3181     1   123.2000528 564.003200
   3177   3180   3229     1   112.2600482 538.062400
   3180   3229   3210     1   118.5150508 540.957728
   3181   3180   3229     1   118.8300510 581.576000
   3182   3183   3185     1   111.5100476 526.347200
   3182   3183   3203     1   110.1900474 564.840000
   3182   3193   3198     1   110.1900474 564.840000
   3182   3200   3187     1   112.4800480 524.673600
   3183   3185   3186     1   111.5100476 526.347200
   3183   3185   3192     1   110.1900474 564.840000
   3183   3182   3193     1   111.5100476 526.347200
   3183   3182   3200     1   107.9700462 569.024000
   3185   3186   3187     1   111.5100476 526.347200
   3185   3186   3205     1   111.0400475 552.288000
   3185   3183   3203     1   110.1900474 564.840000
   3186   3187   3191     1   110.1900474 564.840000
   3186   3187   3200     1   107.9700462 569.024000
   3186   3185   3192     1   110.1900474 564.840000
   3187   3186   3205     1   111.0400475 552.288000
   3191   3187   3200     1   109.3800466 607.516800
   3193   3182   3200     1   107.9700462 569.024000
   3206   3207   3209     1   111.5100476 526.347200
   3206   3207   3227     1   110.1900474 564.840000
   3206   3217   3222     1   110.1900474 564.840000
   3206   3224   3211     1   112.4800480 524.673600
   3207   3209   3210     1   111.5100476 526.347200
   3207   3209   3216     1   110.1900474 564.840000
   3207   3206   3217     1   111.5100476 526.347200
   3207   3206   3224     1   107.9700462 569.024000
   3209   3210   3211     1   111.5100476 526.347200
   3209   3210   3229     1   111.0400475 552.288000
   3209   3207   3227     1   110.1900474 564.840000
   3210   3211   3215     1   110.1900474 564.840000
   3210   3211   3224     1   107.9700462 569.024000
   3210   3209   3216     1   110.1900474 564.840000
   3211   3210   3229     1   111.0400475 552.288000
   3215   3211   3224     1   109.3800466 607.516800
   3217   3206   3224     1   107.9700462 569.024000
   3231   3233   3235     1   111.6100477 551.451200
   3233   3235   3239     1   114.2100488 537.225600
   3235   3239   3240     1   109.6600471 523.836800
   3235   3239   3241     1   109.6600471 523.836800
   3239   3240   3251     1   114.2100488 537.225600
   3239   3241   3243     1   114.2100488 537.225600
   3240   3239   3241     1   109.6600471 523.836800
   3240   3251   3254     1   111.0400475 529.694400
   3241   3243   3247     1   111.0400475 529.694400
   3243   3247   3248     1   123.2000528 564.003200
   3243   3247   3279     1   112.2600482 538.062400
   3247   3279   3260     1   118.5150508 540.957728
   3248   3247   3279     1   118.8300510 581.576000
   3251   3254   3255     1   123.2000528 564.003200
   3251   3254   3303     1   112.2600482 538.062400
   3254   3303   3284     1   118.5150508 540.957728
   3255   3254   3303     1   118.8300510 581.576000
   3256   3257   3259     1   111.5100476 526.347200
   3256   3257   3277     1   110.1900474 564.840000
   3256   3267   3272     1   110.1900474 564.840000
   3256   3274   3261     1   112.4800480 524.673600
   3257   3256   3267     1   111.5100476 526.347200
   3257   3256   3274     1   107.9700462 569.024000
   3257   3259   3260     1   111.5100476 526.347200
   3257   3259   3266     1   110.1900474 564.840000
   3259   3257   3277     1   110.1900474 564.840000
   3259   3260   3261     1   111.5100476 526.347200
   3259   3260   3279     1   111.0400475 552.288000
   3260   3259   3266     1   110.1900474 564.840000
   3260   3261   3265     1   110.1900474 564.840000
   3260   3261   3274     1   107.9700462 569.024000
   3261   3260   3279     1   111.0400475 552.288000
   3265   3261   3274     1   109.3800466 607.516800
   3267   3256   3274     1   107.9700462 569.024000
   3280   3281   3283     1   111.5100476 526.347200
   3280   3281   3301     1   110.1900474 564.840000
   3280   3291   3296     1   110.1900474 564.840000
   3280   3298   3285     1   112.4800480 524.673600
   3281   3280   3291     1   111.5100476 526.347200
   3281   3280   3298     1   107.9700462 569.024000
   3281   3283   3284     1   111.5100476 526.347200
   3281   3283   3290     1   110.1900474 564.840000
   3283   3281   3301     1   110.1900474 564.840000
   3283   3284   3285     1   111.5100476 526.347200
   3283   3284   3303     1   111.0400475 552.288000
   3284   3283   3290     1   110.1900474 564.840000
   3284   3285   3289     1   110.1900474 564.840000
   3284   3285   3298     1   107.9700462 569.024000
   3285   3284   3303     1   111.0400475 552.288000
   3289   3285   3298     1   109.3800466 607.516800
   3291   3280   3298     1   107.9700462 569.024000
   3305   3307   3309     1   111.6100477 551.451200
   3307   3309   3313     1   114.2100488 537.225600
   3309   3313   3314     1   109.6600471 523.836800
   3309   3313   3315     1   109.6600471 523.836800
   3313   3314   3325     1   114.2100488 537.225600
   3313   3315   3317     1   114.2100488 537.225600
   3314   3325   3328     1   111.0400475 529.694400
   3314   3313   3315     1   109.6600471 523.836800
   3315   3317   3321     1   111.0400475 529.694400
   3317   3321   3322     1   123.2000528 564.003200
   3317   3321   3353     1   112.2600482 538.062400
   3321   3353   3334     1   118.5150508 540.957728
   3322   3321   3353     1   118.8300510 581.576000
   3325   3328   3329     1   123.2000528 564.003200
   3325   3328   3377     1   112.2600482 538.062400
   3328   3377   3358     1   118.5150508 540.957728
   3329   3328   3377     1   118.8300510 581.576000
   3330   3331   3333     1   111.5100476 526.347200
   3330   3331   3351     1   110.1900474 564.840000
   3330   3341   3346     1   110.1900474 564.840000
   3330   3348   3335     1   112.4800480 524.673600
   3331   3333   3334     1   111.5100476 526.347200
   3331   3333   3340     1   110.1900474 564.840000
   3331   3330   3341     1   111.5100476 526.347200
   3331   3330   3348     1   107.9700462 569.024000
   3333   3334   3335     1   111.5100476 526.347200
   3333   3334   3353     1   111.0400475 552.288000
   3333   3331   3351     1   110.1900474 564.840000
   3334   3335   3339     1   110.1900474 564.840000
   3334   3335   3348     1   107.9700462 569.024000
   3334   3333   3340     1   110.1900474 564.840000
   3335   3334   3353     1   111.0400475 552.288000
   3339   3335   3348     1   109.3800466 607.516800
   3341   3330   3348     1   107.9700462 569.024000
   3354   3355   3357     1   111.5100476 526.347200
   3354   3355   3375     1   110.1900474 564.840000
   3354   3365   3370     1   110.1900474 564.840000
   3354   3372   3359     1   112.4800480 524.673600
   3355   3357   3358     1   111.5100476 526.347200
   3355   3357   3364     1   110.1900474 564.840000
   3355   3354   3365     1   111.5100476 526.347200
   3355   3354   3372     1   107.9700462 569.024000
   3357   3358   3359     1   111.5100476 526.347200
   3357   3358   3377     1   111.0400475 552.288000
   3357   3355   3375     1   110.1900474 564.840000
   3358   3359   3363     1   110.1900474 564.840000
   3358   3359   3372     1   107.9700462 569.024000
   3358   3357   3364     1   110.1900474 564.840000
   3359   3358   3377     1   111.0400475 552.288000
   3363   3359   3372     1   109.3800466 607.516800
   3365   3354   3372     1   107.9700462 569.024000
   3379   3381   3383     1   111.6100477 551.451200
   3381   3383   3387     1   114.2100488 537.225600
   3383   3387   3388     1   109.6600471 523.836800
   3383   3387   3389     1   109.6600471 523.836800
   3387   3388   3399     1   114.2100488 537.225600
   3387   3389   3391     1   114.2100488 537.225600
   3388   3387   3389     1   109.6600471 523.836800
   3388   3399   3402     1   111.0400475 529.694400
   3389   3391   3395     1   111.0400475 529.694400
   3391   3395   3396     1   123.2000528 564.003200
   3391   3395   3427     1   112.2600482 538.062400
   3395   3427   3408     1   118.5150508 540.957728
   3396   3395   3427     1   118.8300510 581.576000
   3399   3402   3403     1   123.2000528 564.003200
   3399   3402   3451     1   112.2600482 538.062400
   3402   3451   3432     1   118.5150508 540.957728
   3403   3402   3451     1   118.8300510 581.576000
   3404   3405   3407     1   111.5100476 526.347200
   3404   3405   3425     1   110.1900474 564.840000
   3404   3415   3420     1   110.1900474 564.840000
   3404   3422   3409     1   112.4800480 524.673600
   3405   3404   3415     1   111.5100476 526.347200
   3405   3404   3422     1   107.9700462 569.024000
   3405   3407   3408     1   111.5100476 526.347200
   3405   3407   3414     1   110.1900474 564.840000
   3407   3405   3425     1   110.1900474 564.840000
   3407   3408   3409     1   111.5100476 526.347200
   3407   3408   3427     1   111.0400475 552.288000
   3408   3407   3414     1   110.1900474 564.840000
   3408   3409   3413     1   110.1900474 564.840000
   3408   3409   3422     1   107.9700462 569.024000
   3409   3408   3427     1   111.0400475 552.288000
   3413   3409   3422     1   109.3800466 607.516800
   3415   3404   3422     1   107.9700462 569.024000
   3428   3429   3431     1   111.5100476 526.347200
   3428   3429   3449     1   110.1900474 564.840000
   3428   3439   3444     1   110.1900474 564.840000
   3428   3446   3433     1   112.4800480 524.673600
   3429   3428   3439     1   111.5100476 526.347200
   3429   3428   3446     1   107.9700462 569.024000
   3429   3431   3432     1   111.5100476 526.347200
   3429   3431   3438     1   110.1900474 564.840000
   3431   3429   3449     1   110.1900474 564.840000
   3431   3432   3433     1   111.5100476 526.347200
   3431   3432   3451     1   111.0400475 552.288000
   3432   3431   3438     1   110.1900474 564.840000
   3432   3433   3437     1   110.1900474 564.840000
   3432   3433   3446     1   107.9700462 569.024000
   3433   3432   3451     1   111.0400475 552.288000
   3437   3433   3446     1   109.3800466 607.516800
   3439   3428   3446     1   107.9700462 569.024000
   3453   3455   3457     1   111.6100477 551.451200
   3455   3457   3461     1   114.2100488 537.225600
   3457   3461   3462     1   109.6600471 523.836800
   3457   3461   3463     1   109.6600471 523.836800
   3461   3462   3473     1   114.2100488 537.225600
   3461   3463   3465     1   114.2100488 537.225600
   3462   3473   3476     1   111.0400475 529.694400
   3462   3461   3463     1   109.6600471 523.836800
   3463   3465   3469     1   111.0400475 529.694400
   3465   3469   3470     1   123.2000528 564.003200
   3465   3469   3501     1   112.2600482 538.062400
   3469   3501   3482     1   118.5150508 540.957728
   3470   3469   3501     1   118.8300510 581.576000
   3473   3476   3477     1   123.2000528 564.003200
   3473   3476   3525     1   112.2600482 538.062400
   3476   3525   3506     1   118.5150508 540.957728
   3477   3476   3525     1   118.8300510 581.576000
   3478   3479   3481     1   111.5100476 526.347200
   3478   3479   3499     1   110.1900474 564.840000
   3478   3489   3494     1   110.1900474 564.840000
   3478   3496   3483     1   112.4800480 524.673600
   3479   3481   3482     1   111.5100476 526.347200
   3479   3481   3488     1   110.1900474 564.840000
   3479   3478   3489     1   111.5100476 526.347200
   3479   3478   3496     1   107.9700462 569.024000
   3481   3482   3483     1   111.5100476 526.347200
   3481   3482   3501     1   111.0400475 552.288000
   3481   3479   3499     1   110.1900474 564.840000
   3482   3483   3487     1   110.1900474 564.840000
   3482   3483   3496     1   107.9700462 569.024000
   3482   3481   3488     1   110.1900474 564.840000
   3483   3482   3501     1   111.0400475 552.288000
   3487   3483   3496     1   109.3800466 607.516800
   3489   3478   3496     1   107.9700462 569.024000
   3502   3503   3505     1   111.5100476 526.347200
   3502   3503   3523     1   110.1900474 564.840000
   3502   3513   3518     1   110.1900474 564.840000
   3502   3520   3507     1   112.4800480 524.673600
   3503   3505   3506     1   111.5100476 526.347200
   3503   3505   3512     1   110.1900474 564.840000
   3503   3502   3513     1   111.5100476 526.347200
   3503   3502   3520     1   107.9700462 569.024000
   3505   3506   3507     1   111.5100476 526.347200
   3505   3506   3525     1   111.0400475 552.288000
   3505   3503   3523     1   110.1900474 564.840000
   3506   3507   3511     1   110.1900474 564.840000
   3506   3507   3520     1   107.9700462 569.024000
   3506   3505   3512     1   110.1900474 564.840000
   3507   3506   3525     1   111.0400475 552.288000
   3511   3507   3520     1   109.3800466 607.516800
   3513   3502   3520     1   107.9700462 569.024000
   3527   3529   3531     1   111.6100477 551.451200
   3529   3531   3535     1   114.2100488 537.225600
   3531   3535   3536     1   109.6600471 523.836800
   3531   3535   3537     1   109.6600471 523.836800
   3535   3536   3547     1   114.2100488 537.225600
   3535   3537   3539     1   114.2100488 537.225600
   3536   3535   3537     1   109.6600471 523.836800
   3536   3547   3550     1   111.0400475 529.694400
   3537   3539   3543     1   111.0400475 529.694400
   3539   3543   3544     1   123.2000528 564.003200
   3539   3543   3575     1   112.2600482 538.062400
   3543   3575   3556     1   118.5150508 540.957728
   3544   3543   3575     1   118.8300510 581.576000
   3547   3550   3551     1   123.2000528 564.003200
   3547   3550   3599     1   112.2600482 538.062400
   3550   3599   3580     1   118.5150508 540.957728
   3551   3550   3599     1   118.8300510 581.576000
   3552   3553   3555     1   111.5100476 526.347200
   3552   3553   3573     1   110.1900474 564.840000
   3552   3563   3568     1   110.1900474 564.840000
   3552   3570   3557     1   112.4800480 524.673600
   3553   3552   3563     1   111.5100476 526.347200
   3553   3552   3570     1   107.9700462 569.024000
   3553   3555   3556     1   111.5100476 526.347200
   3553   3555   3562     1   110.1900474 564.840000
   3555   3553   3573     1   110.1900474 564.840000
   3555   3556   3557     1   111.5100476 526.347200
   3555   3556   3575     1   111.0400475 552.288000
   3556   3555   3562     1   110.1900474 564.840000
   3556   3557   3561     1   110.1900474 564.840000
   3556   3557   3570     1   107.9700462 569.024000
   3557   3556   3575     1   111.0400475 552.288000
   3561   3557   3570     1   109.3800466 607.516800
   3563   3552   3570     1   107.9700462 569.024000
   3576   3577   3579     1   111.5100476 526.347200
   3576   3577   3597     1   110.1900474 564.840000
   3576   3587   3592     1   110.1900474 564.840000
   3576   3594   3581     1   112.4800480 524.673600
   3577   3576   3587     1   111.5100476 526.347200
   3577   3576   3594     1   107.9700462 569.024000
   3577   3579   3580     1   111.5100476 526.347200
   3577   3579   3586     1   110.1900474 564.840000
   3579   3577   3597     1   110.1900474 564.840000
   3579   3580   3581     1   111.5100476 526.347200
   3579   3580   3599     1   111.0400475 552.288000
   3580   3579   3586     1   110.1900474 564.840000
   3580   3581   3585     1   110.1900474 564.840000
   3580   3581   3594     1   107.9700462 569.024000
   3581   3580   3599     1   111.0400475 552.288000
   3585   3581   3594     1   109.3800466 607.516800
   3587   3576   3594     1   107.9700462 569.024000
   3601   3603   3605     1   111.6100477 551.451200
   3603   3605   3609     1   114.2100488 537.225600
   3605   3609   3610     1   109.6600471 523.836800
   3605   3609   3611     1   109.6600471 523.836800
   3609   3610   3621     1   114.2100488 537.225600
   3609   3611   3613     1   114.2100488 537.225600
   3610   3621   3624     1   111.0400475 529.694400
   3610   3609   3611     1   109.6600471 523.836800
   3611   3613   3617     1   111.0400475 529.694400
   3613   3617   3618     1   123.2000528 564.003200
   3613   3617   3649     1   112.2600482 538.062400
   3617   3649   3630     1   118.5150508 540.957728
   3618   3617   3649     1   118.8300510 581.576000
   3621   3624   3625     1   123.2000528 564.003200
   3621   3624   3673     1   112.2600482 538.062400
   3624   3673   3654     1   118.5150508 540.957728
   3625   3624   3673     1   118.8300510 581.576000
   3626   3627   3629     1   111.5100476 526.347200
   3626   3627   3647     1   110.1900474 564.840000
   3626   3637   3642     1   110.1900474 564.840000
   3626   3644   3631     1   112.4800480 524.673600
   3627   3629   3630     1   111.5100476 526.347200
   3627   3629   3636     1   110.1900474 564.840000
   3627   3626   3637     1   111.5100476 526.347200
   3627   3626   3644     1   107.9700462 569.024000
   3629   3630   3631     1   111.5100476 526.347200
   3629   3630   3649     1   111.0400475 552.288000
   3629   3627   3647     1   110.1900474 564.840000
   3630   3631   3635     1   110.1900474 564.840000
   3630   3631   3644     1   107.9700462 569.024000
   3630   3629   3636     1   110.1900474 564.840000
   3631   3630   3649     1   111.0400475 552.288000
   3635   3631   3644     1   109.3800466 607.516800
   3637   3626   3644     1   107.9700462 569.024000
   3650   3651   3653     1   111.5100476 526.347200
   3650   3651   3671     1   110.1900474 564.840000
   3650   3661   3666     1   110.1900474 564.840000
   3650   3668   3655     1   112.4800480 524.673600
   3651   3653   3654     1   111.5100476 526.347200
   3651   3653   3660     1   110.1900474 564.840000
   3651   3650   3661     1   111.5100476 526.347200
   3651   3650   3668     1   107.9700462 569.024000
   3653   3654   3655     1   111.5100476 526.347200
   3653   3654   3673     1   111.0400475 552.288000
   3653   3651   3671     1   110.1900474 564.840000
   3654   3655   3659     1   110.1900474 564.840000
   3654   3655   3668     1   107.9700462 569.024000
   3654   3653   3660     1   110.1900474 564.840000
   3655   3654   3673     1   111.0400475 552.288000
   3659   3655   3668     1   109.3800466 607.516800
   3661   3650   3668     1   107.9700462 569.024000
   3675   3677   3679     1   111.6100477 551.451200
   3677   3679   3683     1   114.2100488 537.225600
   3679   3683   3684     1   109.6600471 523.836800
   3679   3683   3685     1   109.6600471 523.836800
   3683   3684   3695     1   114.2100488 537.225600
   3683   3685   3687     1   114.2100488 537.225600
   3684   3683   3685     1   109.6600471 523.836800
   3684   3695   3698     1   111.0400475 529.694400
   3685   3687   3691     1   111.0400475 529.694400
   3687   3691   3692     1   123.2000528 564.003200
   3687   3691   3723     1   112.2600482 538.062400
   3691   3723   3704     1   118.5150508 540.957728
   3692   3691   3723     1   118.8300510 581.576000
   3695   3698   3699     1   123.2000528 564.003200
   3695   3698   3747     1   112.2600482 538.062400
   3698   3747   3728     1   118.5150508 540.957728
   3699   3698   3747     1   118.8300510 581.576000
   3700   3701   3703     1   111.5100476 526.347200
   3700   3701   3721     1   110.1900474 564.840000
   3700   3711   3716     1   110.1900474 564.840000
   3700   3718   3705     1   112.4800480 524.673600
   3701   3700   3711     1   111.5100476 526.347200
   3701   3700   3718     1   107.9700462 569.024000
   3701   3703   3704     1   111.5100476 526.347200
   3701   3703   3710     1   110.1900474 564.840000
   3703   3701   3721     1   110.1900474 564.840000
   3703   3704   3705     1   111.5100476 526.347200
   3703   3704   3723     1   111.0400475 552.288000
   3704   3703   3710     1   110.1900474 564.840000
   3704   3705   3709     1   110.1900474 564.840000
   3704   3705   3718     1   107.9700462 569.024000
   3705   3704   3723     1   111.0400475 552.288000
   3709   3705   3718     1   109.3800466 607.516800
   3711   3700   3718     1   107.9700462 569.024000
   3724   3725   3727     1   111.5100476 526.347200
   3724   3725   3745     1   110.1900474 564.840000
   3724   3735   3740     1   110.1900474 564.840000
   3724   3742   3729     1   112.4800480 524.673600
   3725   3724   3735     1   111.5100476 526.347200
   3725   3724   3742     1   107.9700462 569.024000
   3725   3727   3728     1   111.5100476 526.347200
   3725   3727   3734     1   110.1900474 564.840000
   3727   3725   3745     1   110.1900474 564.840000
   3727   3728   3729     1   111.5100476 526.347200
   3727   3728   3747     1   111.0400475 552.288000
   3728   3727   3734     1   110.1900474 564.840000
   3728   3729   3733     1   110.1900474 564.840000
   3728   3729   3742     1   107.9700462 569.024000
   3729   3728   3747     1   111.0400475 552.288000
   3733   3729   3742     1   109.3800466 607.516800
   3735   3724   3742     1   107.9700462 569.024000
   3749   3751   3753     1   111.6100477 551.451200
   3751   3753   3757     1   114.2100488 537.225600
   3753   3757   3758     1   109.6600471 523.836800
   3753   3757   3759     1   109.6600471 523.836800
   3757   3758   3769     1   114.2100488 537.225600
   3757   3759   3761     1   114.2100488 537.225600
   3758   3769   3772     1   111.0400475 529.694400
   3758   3757   3759     1   109.6600471 523.836800
   3759   3761   3765     1   111.0400475 529.694400
   3761   3765   3766     1   123.2000528 564.003200
   3761   3765   3797     1   112.2600482 538.062400
   3765   3797   3778     1   118.5150508 540.957728
   3766   3765   3797     1   118.8300510 581.576000
   3769   3772   3773     1   123.2000528 564.003200
   3769   3772   3821     1   112.2600482 538.062400
   3772   3821   3802     1   118.5150508 540.957728
   3773   3772   3821     1   118.8300510 581.576000
   3774   3775   3777     1   111.5100476 526.347200
   3774   3775   3795     1   110.1900474 564.840000
   3774   3785   3790     1   110.1900474 564.840000
   3774   3792   3779     1   112.4800480 524.673600
   3775   3777   3778     1   111.5100476 526.347200
   3775   3777   3784     1   110.1900474 564.840000
   3775   3774   3785     1   111.5100476 526.347200
   3775   3774   3792     1   107.9700462 569.024000
   3777   3778   3779     1   111.5100476 526.347200
   3777   3778   3797     1   111.0400475 552.288000
   3777   3775   3795     1   110.1900474 564.840000
   3778   3779   3783     1   110.1900474 564.840000
   3778   3779   3792     1   107.9700462 569.024000
   3778   3777   3784     1   110.1900474 564.840000
   3779   3778   3797     1   111.0400475 552.288000
   3783   3779   3792     1   109.3800466 607.516800
   3785   3774   3792     1   107.9700462 569.024000
   3798   3799   3801     1   111.5100476 526.347200
   3798   3799   3819     1   110.1900474 564.840000
   3798   3809   3814     1   110.1900474 564.840000
   3798   3816   3803     1   112.4800480 524.673600
   3799   3801   3802     1   111.5100476 526.347200
   3799   3801   3808     1   110.1900474 564.840000
   3799   3798   3809     1   111.5100476 526.347200
   3799   3798   3816     1   107.9700462 569.024000
   3801   3802   3803     1   111.5100476 526.347200
   3801   3802   3821     1   111.0400475 552.288000
   3801   3799   3819     1   110.1900474 564.840000
   3802   3803   3807     1   110.1900474 564.840000
   3802   3803   3816     1   107.9700462 569.024000
   3802   3801   3808     1   110.1900474 564.840000
   3803   3802   3821     1   111.0400475 552.288000
   3807   3803   3816     1   109.3800466 607.516800
   3809   3798   3816     1   107.9700462 569.024000
   3823   3825   3827     1   111.6100477 551.451200
   3825   3827   3831     1   114.2100488 537.225600
   3827   3831   3832     1   109.6600471 523.836800
   3827   3831   3833     1   109.6600471 523.836800
   3831   3832   3843     1   114.2100488 537.225600
   3831   3833   3835     1   114.2100488 537.225600
   3832   3831   3833     1   109.6600471 523.836800
   3832   3843   3846     1   111.0400475 529.694400
   3833   3835   3839     1   111.0400475 529.694400
   3835   3839   3840     1   123.2000528 564.003200
   3835   3839   3871     1   112.2600482 538.062400
   3839   3871   3852     1   118.5150508 540.957728
   3840   3839   3871     1   118.8300510 581.576000
   3843   3846   3847     1   123.2000528 564.003200
   3843   3846   3895     1   112.2600482 538.062400
   3846   3895   3876     1   118.5150508 540.957728
   3847   3846   3895     1   118.8300510 581.576000
   3848   3849   3851     1   111.5100476 526.347200
   3848   3849   3869     1   110.1900474 564.840000
   3848   3859   3864     1   110.1900474 564.840000
   3848   3866   3853     1   112.4800480 524.673600
   3849   3848   3859     1   111.5100476 526.347200
   3849   3848   3866     1   107.9700462 569.024000
   3849   3851   3852     1   111.5100476 526.347200
   3849   3851   3858     1   110.1900474 564.840000
   3851   3849   3869     1   110.1900474 564.840000
   3851   3852   3853     1   111.5100476 526.347200
   3851   3852   3871     1   111.0400475 552.288000
   3852   3851   3858     1   110.1900474 564.840000
   3852   3853   3857     1   110.1900474 564.840000
   3852   3853   3866     1   107.9700462 569.024000
   3853   3852   3871     1   111.0400475 552.288000
   3857   3853   3866     1   109.3800466 607.516800
   3859   3848   3866     1   107.9700462 569.024000
   3872   3873   3875     1   111.5100476 526.347200
   3872   3873   3893     1   110.1900474 564.840000
   3872   3883   3888     1   110.1900474 564.840000
   3872   3890   3877     1   112.4800480 524.673600
   3873   3872   3883     1   111.5100476 526.347200
   3873   3872   3890     1   107.9700462 569.024000
   3873   3875   3876     1   111.5100476 526.347200
   3873   3875   3882     1   110.1900474 564.840000
   3875   3873   3893     1   110.1900474 564.840000
   3875   3876   3877     1   111.5100476 526.347200
   3875   3876   3895     1   111.0400475 552.288000
   3876   3875   3882     1   110.1900474 564.840000
   3876   3877   3881     1   110.1900474 564.840000
   3876   3877   3890     1   107.9700462 569.024000
   3877   3876   3895     1   111.0400475 552.288000
   3881   3877   3890     1   109.3800466 607.516800
   3883   3872   3890     1   107.9700462 569.024000
   3897   3899   3901     1   111.6100477 551.451200
   3899   3901   3905     1   114.2100488 537.225600
   3901   3905   3906     1   109.6600471 523.836800
   3901   3905   3907     1   109.6600471 523.836800
   3905   3906   3917     1   114.2100488 537.225600
   3905   3907   3909     1   114.2100488 537.225600
   3906   3917   3920     1   111.0400475 529.694400
   3906   3905   3907     1   109.6600471 523.836800
   3907   3909   3913     1   111.0400475 529.694400
   3909   3913   3914     1   123.2000528 564.003200
   3909   3913   3945     1   112.2600482 538.062400
   3913   3945   3926     1   118.5150508 540.957728
   3914   3913   3945     1   118.8300510 581.576000
   3917   3920   3921     1   123.2000528 564.003200
   3917   3920   3969     1   112.2600482 538.062400
   3920   3969   3950     1   118.5150508 540.957728
   3921   3920   3969     1   118.8300510 581.576000
   3922   3923   3925     1   111.5100476 526.347200
   3922   3923   3943     1   110.1900474 564.840000
   3922   3933   3938     1   110.1900474 564.840000
   3922   3940   3927     1   112.4800480 524.673600
   3923   3925   3926     1   111.5100476 526.347200
   3923   3925   3932     1   110.1900474 564.840000
   3923   3922   3933     1   111.5100476 526.347200
   3923   3922   3940     1   107.9700462 569.024000
   3925   3926   3927     1   111.5100476 526.347200
   3925   3926   3945     1   111.0400475 552.288000
   3925   3923   3943     1   110.1900474 564.840000
   3926   3927   3931     1   110.1900474 564.840000
   3926   3927   3940     1   107.9700462 569.024000
   3926   3925   3932     1   110.1900474 564.840000
   3927   3926   3945     1   111.0400475 552.288000
   3931   3927   3940     1   109.3800466 607.516800
   3933   3922   3940     1   107.9700462 569.024000
   3946   3947   3949     1   111.5100476 526.347200
   3946   3947   3967     1   110.1900474 564.840000
   3946   3957   3962     1   110.1900474 564.840000
   3946   3964   3951     1   112.4800480 524.673600
   3947   3949   3950     1   111.5100476 526.347200
   3947   3949   3956     1   110.1900474 564.840000
   3947   3946   3957     1   111.5100476 526.347200
   3947   3946   3964     1   107.9700462 569.024000
   3949   3950   3951     1   111.5100476 526.347200
   3949   3950   3969     1   111.0400475 552.288000
   3949   3947   3967     1   110.1900474 564.840000
   3950   3951   3955     1   110.1900474 564.840000
   3950   3951   3964     1   107.9700462 569.024000
   3950   3949   3956     1   110.1900474 564.840000
   3951   3950   3969     1   111.0400475 552.288000
   3955   3951   3964     1   109.3800466 607.516800
   3957   3946   3964     1   107.9700462 569.024000
   3971   3973   3975     1   111.6100477 551.451200
   3973   3975   3979     1   114.2100488 537.225600
   3975   3979   3980     1   109.6600471 523.836800
   3975   3979   3981     1   109.6600471 523.836800
   3979   3980   3991     1   114.2100488 537.225600
   3979   3981   3983     1   114.2100488 537.225600
   3980   3979   3981     1   109.6600471 523.836800
   3980   3991   3994     1   111.0400475 529.694400
   3981   3983   3987     1   111.0400475 529.694400
   3983   3987   3988     1   123.2000528 564.003200
   3983   3987   4019     1   112.2600482 538.062400
   3987   4019   4000     1   118.5150508 540.957728
   3988   3987   4019     1   118.8300510 581.576000
   3991   3994   3995     1   123.2000528 564.003200
   3991   3994   4043     1   112.2600482 538.062400
   3994   4043   4024     1   118.5150508 540.957728
   3995   3994   4043     1   118.8300510 581.576000
   3996   3997   3999     1   111.5100476 526.347200
   3996   3997   4017     1   110.1900474 564.840000
   3996   4007   4012     1   110.1900474 564.840000
   3996   4014   4001     1   112.4800480 524.673600
   3997   3996   4007     1   111.5100476 526.347200
   3997   3996   4014     1   107.9700462 569.024000
   3997   3999   4000     1   111.5100476 526.347200
   3997   3999   4006     1   110.1900474 564.840000
   3999   3997   4017     1   110.1900474 564.840000
   3999   4000   4001     1   111.5100476 526.347200
   3999   4000   4019     1   111.0400475 552.288000
   4000   3999   4006     1   110.1900474 564.840000
   4000   4001   4005     1   110.1900474 564.840000
   4000   4001   4014     1   107.9700462 569.024000
   4001   4000   4019     1   111.0400475 552.288000
   4005   4001   4014     1   109.3800466 607.516800
   4007   3996   4014     1   107.9700462 569.024000
   4020   4021   4023     1   111.5100476 526.347200
   4020   4021   4041     1   110.1900474 564.840000
   4020   4031   4036     1   110.1900474 564.840000
   4020   4038   4025     1   112.4800480 524.673600
   4021   4020   4031     1   111.5100476 526.347200
   4021   4020   4038     1   107.9700462 569.024000
   4021   4023   4024     1   111.5100476 526.347200
   4021   4023   4030     1   110.1900474 564.840000
   4023   4021   4041     1   110.1900474 564.840000
   4023   4024   4025     1   111.5100476 526.347200
   4023   4024   4043     1   111.0400475 552.288000
   4024   4023   4030     1   110.1900474 564.840000
   4024   4025   4029     1   110.1900474 564.840000
   4024   4025   4038     1   107.9700462 569.024000
   4025   4024   4043     1   111.0400475 552.288000
   4029   4025   4038     1   109.3800466 607.516800
   4031   4020   4038     1   107.9700462 569.024000
   4045   4047   4049     1   111.6100477 551.451200
   4047   4049   4053     1   114.2100488 537.225600
   4049   4053   4054     1   109.6600471 523.836800
   4049   4053   4055     1   109.6600471 523.836800
   4053   4054   4065     1   114.2100488 537.225600
   4053   4055   4057     1   114.2100488 537.225600
   4054   4065   4068     1   111.0400475 529.694400
   4054   4053   4055     1   109.6600471 523.836800
   4055   4057   4061     1   111.0400475 529.694400
   4057   4061   4062     1   123.2000528 564.003200
   4057   4061   4093     1   112.2600482 538.062400
   4061   4093   4074     1   118.5150508 540.957728
   4062   4061   4093     1   118.8300510 581.576000
   4065   4068   4069     1   123.2000528 564.003200
   4065   4068   4117     1   112.2600482 538.062400
   4068   4117   4098     1   118.5150508 540.957728
   4069   4068   4117     1   118.8300510 581.576000
   4070   4071   4073     1   111.5100476 526.347200
   4070   4071   4091     1   110.1900474 564.840000
   4070   4081   4086     1   110.1900474 564.840000
   4070   4088   4075     1   112.4800480 524.673600
   4071   4073   4074     1   111.5100476 526.347200
   4071   4073   4080     1   110.1900474 564.840000
   4071   4070   4081     1   111.5100476 526.347200
   4071   4070   4088     1   107.9700462 569.024000
   4073   4074   4075     1   111.5100476 526.347200
   4073   4074   4093     1   111.0400475 552.288000
   4073   4071   4091     1   110.1900474 564.840000
   4074   4075   4079     1   110.1900474 564.840000
   4074   4075   4088     1   107.9700462 569.024000
   4074   4073   4080     1   110.1900474 564.840000
   4075   4074   4093     1   111.0400475 552.288000
   4079   4075   4088     1   109.3800466 607.516800
   4081   4070   4088     1   107.9700462 569.024000
   4094   4095   4097     1   111.5100476 526.347200
   4094   4095   4115     1   110.1900474 564.840000
   4094   4105   4110     1   110.1900474 564.840000
   4094   4112   4099     1   112.4800480 524.673600
   4095   4097   4098     1   111.5100476 526.347200
   4095   4097   4104     1   110.1900474 564.840000
   4095   4094   4105     1   111.5100476 526.347200
   4095   4094   4112     1   107.9700462 569.024000
   4097   4098   4099     1   111.5100476 526.347200
   4097   4098   4117     1   111.0400475 552.288000
   4097   4095   4115     1   110.1900474 564.840000
   4098   4099   4103     1   110.1900474 564.840000
   4098   4099   4112     1   107.9700462 569.024000
   4098   4097   4104     1   110.1900474 564.840000
   4099   4098   4117     1   111.0400475 552.288000
   4103   4099   4112     1   109.3800466 607.516800
   4105   4094   4112     1   107.9700462 569.024000
   4119   4121   4123     1   111.6100477 551.451200
   4121   4123   4127     1   114.2100488 537.225600
   4123   4127   4128     1   109.6600471 523.836800
   4123   4127   4129     1   109.6600471 523.836800
   4127   4128   4139     1   114.2100488 537.225600
   4127   4129   4131     1   114.2100488 537.225600
   4128   4127   4129     1   109.6600471 523.836800
   4128   4139   4142     1   111.0400475 529.694400
   4129   4131   4135     1   111.0400475 529.694400
   4131   4135   4136     1   123.2000528 564.003200
   4131   4135   4167     1   112.2600482 538.062400
   4135   4167   4148     1   118.5150508 540.957728
   4136   4135   4167     1   118.8300510 581.576000
   4139   4142   4143     1   123.2000528 564.003200
   4139   4142   4191     1   112.2600482 538.062400
   4142   4191   4172     1   118.5150508 540.957728
   4143   4142   4191     1   118.8300510 581.576000
   4144   4145   4147     1   111.5100476 526.347200
   4144   4145   4165     1   110.1900474 564.840000
   4144   4155   4160     1   110.1900474 564.840000
   4144   4162   4149     1   112.4800480 524.673600
   4145   4144   4155     1   111.5100476 526.347200
   4145   4144   4162     1   107.9700462 569.024000
   4145   4147   4148     1   111.5100476 526.347200
   4145   4147   4154     1   110.1900474 564.840000
   4147   4145   4165     1   110.1900474 564.840000
   4147   4148   4149     1   111.5100476 526.347200
   4147   4148   4167     1   111.0400475 552.288000
   4148   4147   4154     1   110.1900474 564.840000
   4148   4149   4153     1   110.1900474 564.840000
   4148   4149   4162     1   107.9700462 569.024000
   4149   4148   4167     1   111.0400475 552.288000
   4153   4149   4162     1   109.3800466 607.516800
   4155   4144   4162     1   107.9700462 569.024000
   4168   4169   4171     1   111.5100476 526.347200
   4168   4169   4189     1   110.1900474 564.840000
   4168   4179   4184     1   110.1900474 564.840000
   4168   4186   4173     1   112.4800480 524.673600
   4169   4168   4179     1   111.5100476 526.347200
   4169   4168   4186     1   107.9700462 569.024000
   4169   4171   4172     1   111.5100476 526.347200
   4169   4171   4178     1   110.1900474 564.840000
   4171   4169   4189     1   110.1900474 564.840000
   4171   4172   4173     1   111.5100476 526.347200
   4171   4172   4191     1   111.0400475 552.288000
   4172   4171   4178     1   110.1900474 564.840000
   4172   4173   4177     1   110.1900474 564.840000
   4172   4173   4186     1   107.9700462 569.024000
   4173   4172   4191     1   111.0400475 552.288000
   4177   4173   4186     1   109.3800466 607.516800
   4179   4168   4186     1   107.9700462 569.024000
   4193   4195   4197     1   111.6100477 551.451200
   4195   4197   4201     1   114.2100488 537.225600
   4197   4201   4202     1   109.6600471 523.836800
   4197   4201   4203     1   109.6600471 523.836800
   4201   4202   4213     1   114.2100488 537.225600
   4201   4203   4205     1   114.2100488 537.225600
   4202   4213   4216     1   111.0400475 529.694400
   4202   4201   4203     1   109.6600471 523.836800
   4203   4205   4209     1   111.0400475 529.694400
   4205   4209   4210     1   123.2000528 564.003200
   4205   4209   4241     1   112.2600482 538.062400
   4209   4241   4222     1   118.5150508 540.957728
   4210   4209   4241     1   118.8300510 581.576000
   4213   4216   4217     1   123.2000528 564.003200
   4213   4216   4265     1   112.2600482 538.062400
   4216   4265   4246     1   118.5150508 540.957728
   4217   4216   4265     1   118.8300510 581.576000
   4218   4219   4221     1   111.5100476 526.347200
   4218   4219   4239     1   110.1900474 564.840000
   4218   4229   4234     1   110.1900474 564.840000
   4218   4236   4223     1   112.4800480 524.673600
   4219   4221   4222     1   111.5100476 526.347200
   4219   4221   4228     1   110.1900474 564.840000
   4219   4218   4229     1   111.5100476 526.347200
   4219   4218   4236     1   107.9700462 569.024000
   4221   4222   4223     1   111.5100476 526.347200
   4221   4222   4241     1   111.0400475 552.288000
   4221   4219   4239     1   110.1900474 564.840000
   4222   4223   4227     1   110.1900474 564.840000
   4222   4223   4236     1   107.9700462 569.024000
   4222   4221   4228     1   110.1900474 564.840000
   4223   4222   4241     1   111.0400475 552.288000
   4227   4223   4236     1   109.3800466 607.516800
   4229   4218   4236     1   107.9700462 569.024000
   4242   4243   4245     1   111.5100476 526.347200
   4242   4243   4263     1   110.1900474 564.840000
   4242   4253   4258     1   110.1900474 564.840000
   4242   4260   4247     1   112.4800480 524.673600
   4243   4245   4246     1   111.5100476 526.347200
   4243   4245   4252     1   110.1900474 564.840000
   4243   4242   4253     1   111.5100476 526.347200
   4243   4242   4260     1   107.9700462 569.024000
   4245   4246   4247     1   111.5100476 526.347200
   4245   4246   4265     1   111.0400475 552.288000
   4245   4243   4263     1   110.1900474 564.840000
   4246   4247   4251     1   110.1900474 564.840000
   4246   4247   4260     1   107.9700462 569.024000
   4246   4245   4252     1   110.1900474 564.840000
   4247   4246   4265     1   111.0400475 552.288000
   4251   4247   4260     1   109.3800466 607.516800
   4253   4242   4260     1   107.9700462 569.024000
   4267   4269   4271     1   111.6100477 551.451200
   4269   4271   4275     1   114.2100488 537.225600
   4271   4275   4276     1   109.6600471 523.836800
   4271   4275   4277     1   109.6600471 523.836800
   4275   4276   4287     1   114.2100488 537.225600
   4275   4277   4279     1   114.2100488 537.225600
   4276   4275   4277     1   109.6600471 523.836800
   4276   4287   4290     1   111.0400475 529.694400
   4277   4279   4283     1   111.0400475 529.694400
   4279   4283   4284     1   123.2000528 564.003200
   4279   4283   4315     1   112.2600482 538.062400
   4283   4315   4296     1   118.5150508 540.957728
   4284   4283   4315     1   118.8300510 581.576000
   4287   4290   4291     1   123.2000528 564.003200
   4287   4290   4339     1   112.2600482 538.062400
   4290   4339   4320     1   118.5150508 540.957728
   4291   4290   4339     1   118.8300510 581.576000
   4292   4293   4295     1   111.5100476 526.347200
   4292   4293   4313     1   110.1900474 564.840000
   4292   4303   4308     1   110.1900474 564.840000
   4292   4310   4297     1   112.4800480 524.673600
   4293   4292   4303     1   111.5100476 526.347200
   4293   4292   4310     1   107.9700462 569.024000
   4293   4295   4296     1   111.5100476 526.347200
   4293   4295   4302     1   110.1900474 564.840000
   4295   4293   4313     1   110.1900474 564.840000
   4295   4296   4297     1   111.5100476 526.347200
   4295   4296   4315     1   111.0400475 552.288000
   4296   4295   4302     1   110.1900474 564.840000
   4296   4297   4301     1   110.1900474 564.840000
   4296   4297   4310     1   107.9700462 569.024000
   4297   4296   4315     1   111.0400475 552.288000
   4301   4297   4310     1   109.3800466 607.516800
   4303   4292   4310     1   107.9700462 569.024000
   4316   4317   4319     1   111.5100476 526.347200
   4316   4317   4337     1   110.1900474 564.840000
   4316   4327   4332     1   110.1900474 564.840000
   4316   4334   4321     1   112.4800480 524.673600
   4317   4316   4327     1   111.5100476 526.347200
   4317   4316   4334     1   107.9700462 569.024000
   4317   4319   4320     1   111.5100476 526.347200
   4317   4319   4326     1   110.1900474 564.840000
   4319   4317   4337     1   110.1900474 564.840000
   4319   4320   4321     1   111.5100476 526.347200
   4319   4320   4339     1   111.0400475 552.288000
   4320   4319   4326     1   110.1900474 564.840000
   4320   4321   4325     1   110.1900474 564.840000
   4320   4321   4334     1   107.9700462 569.024000
   4321   4320   4339     1   111.0400475 552.288000
   4325   4321   4334     1   109.3800466 607.516800
   4327   4316   4334     1   107.9700462 569.024000
   4341   4343   4345     1   111.6100477 551.451200
   4343   4345   4349     1   114.2100488 537.225600
   4345   4349   4350     1   109.6600471 523.836800
   4345   4349   4351     1   109.6600471 523.836800
   4349   4350   4361     1   114.2100488 537.225600
   4349   4351   4353     1   114.2100488 537.225600
   4350   4361   4364     1   111.0400475 529.694400
   4350   4349   4351     1   109.6600471 523.836800
   4351   4353   4357     1   111.0400475 529.694400
   4353   4357   4358     1   123.2000528 564.003200
   4353   4357   4389     1   112.2600482 538.062400
   4357   4389   4370     1   118.5150508 540.957728
   4358   4357   4389     1   118.8300510 581.576000
   4361   4364   4365     1   123.2000528 564.003200
   4361   4364   4413     1   112.2600482 538.062400
   4364   4413   4394     1   118.5150508 540.957728
   4365   4364   4413     1   118.8300510 581.576000
   4366   4367   4369     1   111.5100476 526.347200
   4366   4367   4387     1   110.1900474 564.840000
   4366   4377   4382     1   110.1900474 564.840000
   4366   4384   4371     1   112.4800480 524.673600
   4367   4369   4370     1   111.5100476 526.347200
   4367   4369   4376     1   110.1900474 564.840000
   4367   4366   4377     1   111.5100476 526.347200
   4367   4366   4384     1   107.9700462 569.024000
   4369   4370   4371     1   111.5100476 526.347200
   4369   4370   4389     1   111.0400475 552.288000
   4369   4367   4387     1   110.1900474 564.840000
   4370   4371   4375     1   110.1900474 564.840000
   4370   4371   4384     1   107.9700462 569.024000
   4370   4369   4376     1   110.1900474 564.840000
   4371   4370   4389     1   111.0400475 552.288000
   4375   4371   4384     1   109.3800466 607.516800
   4377   4366   4384     1   107.9700462 569.024000
   4390   4391   4393     1   111.5100476 526.347200
   4390   4391   4411     1   110.1900474 564.840000
   4390   4401   4406     1   110.1900474 564.840000
   4390   4408   4395     1   112.4800480 524.673600
   4391   4393   4394     1   111.5100476 526.347200
   4391   4393   4400     1   110.1900474 564.840000
   4391   4390   4401     1   111.5100476 526.347200
   4391   4390   4408     1   107.9700462 569.024000
   4393   4394   4395     1   111.5100476 526.347200
   4393   4394   4413     1   111.0400475 552.288000
   4393   4391   4411     1   110.1900474 564.840000
   4394   4395   4399     1   110.1900474 564.840000
   4394   4395   4408     1   107.9700462 569.024000
   4394   4393   4400     1   110.1900474 564.840000
   4395   4394   4413     1   111.0400475 552.288000
   4399   4395   4408     1   109.3800466 607.516800
   4401   4390   4408     1   107.9700462 569.024000
   4415   4417   4419     1   111.6100477 551.451200
   4417   4419   4423     1   114.2100488 537.225600
   4419   4423   4424     1   109.6600471 523.836800
   4419   4423   4425     1   109.6600471 523.836800
   4423   4424   4435     1   114.2100488 537.225600
   4423   4425   4427     1   114.2100488 537.225600
   4424   4423   4425     1   109.6600471 523.836800
   4424   4435   4438     1   111.0400475 529.694400
   4425   4427   4431     1   111.0400475 529.694400
   4427   4431   4432     1   123.2000528 564.003200
   4427   4431   4463     1   112.2600482 538.062400
   4431   4463   4444     1   118.5150508 540.957728
   4432   4431   4463     1   118.8300510 581.576000
   4435   4438   4439     1   123.2000528 564.003200
   4435   4438   4487     1   112.2600482 538.062400
   4438   4487   4468     1   118.5150508 540.957728
   4439   4438   4487     1   118.8300510 581.576000
   4440   4441   4443     1   111.5100476 526.347200
   4440   4441   4461     1   110.1900474 564.840000
   4440   4451   4456     1   110.1900474 564.840000
   4440   4458   4445     1   112.4800480 524.673600
   4441   4440   4451     1   111.5100476 526.347200
   4441   4440   4458     1   107.9700462 569.024000
   4441   4443   4444     1   111.5100476 526.347200
   4441   4443   4450     1   110.1900474 564.840000
   4443   4441   4461     1   110.1900474 564.840000
   4443   4444   4445     1   111.5100476 526.347200
   4443   4444   4463     1   111.0400475 552.288000
   4444   4443   4450     1   110.1900474 564.840000
   4444   4445   4449     1   110.1900474 564.840000
   4444   4445   4458     1   107.9700462 569.024000
   4445   4444   4463     1   111.0400475 552.288000
   4449   4445   4458     1   109.3800466 607.516800
   4451   4440   4458     1   107.9700462 569.024000
   4464   4465   4467     1   111.5100476 526.347200
   4464   4465   4485     1   110.1900474 564.840000
   4464   4475   4480     1   110.1900474 564.840000
   4464   4482   4469     1   112.4800480 524.673600
   4465   4464   4475     1   111.5100476 526.347200
   4465   4464   4482     1   107.9700462 569.024000
   4465   4467   4468     1   111.5100476 526.347200
   4465   4467   4474     1   110.1900474 564.840000
   4467   4465   4485     1   110.1900474 564.840000
   4467   4468   4469     1   111.5100476 526.347200
   4467   4468   4487     1   111.0400475 552.288000
   4468   4467   4474     1   110.1900474 564.840000
   4468   4469   4473     1   110.1900474 564.840000
   4468   4469   4482     1   107.9700462 569.024000
   4469   4468   4487     1   111.0400475 552.288000
   4473   4469   4482     1   109.3800466 607.516800
   4475   4464   4482     1   107.9700462 569.024000
   4489   4491   4493     1   111.6100477 551.451200
   4491   4493   4497     1   114.2100488 537.225600
   4493   4497   4498     1   109.6600471 523.836800
   4493   4497   4499     1   109.6600471 523.836800
   4497   4498   4509     1   114.2100488 537.225600
   4497   4499   4501     1   114.2100488 537.225600
   4498   4509   4512     1   111.0400475 529.694400
   4498   4497   4499     1   109.6600471 523.836800
   4499   4501   4505     1   111.0400475 529.694400
   4501   4505   4506     1   123.2000528 564.003200
   4501   4505   4537     1   112.2600482 538.062400
   4505   4537   4518     1   118.5150508 540.957728
   4506   4505   4537     1   118.8300510 581.576000
   4509   4512   4513     1   123.2000528 564.003200
   4509   4512   4561     1   112.2600482 538.062400
   4512   4561   4542     1   118.5150508 540.957728
   4513   4512   4561     1   118.8300510 581.576000
   4514   4515   4517     1   111.5100476 526.347200
   4514   4515   4535     1   110.1900474 564.840000
   4514   4525   4530     1   110.1900474 564.840000
   4514   4532   4519     1   112.4800480 524.673600
   4515   4517   4518     1   111.5100476 526.347200
   4515   4517   4524     1   110.1900474 564.840000
   4515   4514   4525     1   111.5100476 526.347200
   4515   4514   4532     1   107.9700462 569.024000
   4517   4518   4519     1   111.5100476 526.347200
   4517   4518   4537     1   111.0400475 552.288000
   4517   4515   4535     1   110.1900474 564.840000
   4518   4519   4523     1   110.1900474 564.840000
   4518   4519   4532     1   107.9700462 569.024000
   4518   4517   4524     1   110.1900474 564.840000
   4519   4518   4537     1   111.0400475 552.288000
   4523   4519   4532     1   109.3800466 607.516800
   4525   4514   4532     1   107.9700462 569.024000
   4538   4539   4541     1   111.5100476 526.347200
   4538   4539   4559     1   110.1900474 564.840000
   4538   4549   4554     1   110.1900474 564.840000
   4538   4556   4543     1   112.4800480 524.673600
   4539   4541   4542     1   111.5100476 526.347200
   4539   4541   4548     1   110.1900474 564.840000
   4539   4538   4549     1   111.5100476 526.347200
   4539   4538   4556     1   107.9700462 569.024000
   4541   4542   4543     1   111.5100476 526.347200
   4541   4542   4561     1   111.0400475 552.288000
   4541   4539   4559     1   110.1900474 564.840000
   4542   4543   4547     1   110.1900474 564.840000
   4542   4543   4556     1   107.9700462 569.024000
   4542   4541   4548     1   110.1900474 564.840000
   4543   4542   4561     1   111.0400475 552.288000
   4547   4543   4556     1   109.3800466 607.516800
   4549   4538   4556     1   107.9700462 569.024000
   4563   4565   4567     1   111.6100477 551.451200
   4565   4567   4571     1   114.2100488 537.225600
   4567   4571   4572     1   109.6600471 523.836800
   4567   4571   4573     1   109.6600471 523.836800
   4571   4572   4583     1   114.2100488 537.225600
   4571   4573   4575     1   114.2100488 537.225600
   4572   4571   4573     1   109.6600471 523.836800
   4572   4583   4586     1   111.0400475 529.694400
   4573   4575   4579     1   111.0400475 529.694400
   4575   4579   4580     1   123.2000528 564.003200
   4575   4579   4611     1   112.2600482 538.062400
   4579   4611   4592     1   118.5150508 540.957728
   4580   4579   4611     1   118.8300510 581.576000
   4583   4586   4587     1   123.2000528 564.003200
   4583   4586   4635     1   112.2600482 538.062400
   4586   4635   4616     1   118.5150508 540.957728
   4587   4586   4635     1   118.8300510 581.576000
   4588   4589   4591     1   111.5100476 526.347200
   4588   4589   4609     1   110.1900474 564.840000
   4588   4599   4604     1   110.1900474 564.840000
   4588   4606   4593     1   112.4800480 524.673600
   4589   4588   4599     1   111.5100476 526.347200
   4589   4588   4606     1   107.9700462 569.024000
   4589   4591   4592     1   111.5100476 526.347200
   4589   4591   4598     1   110.1900474 564.840000
   4591   4589   4609     1   110.1900474 564.840000
   4591   4592   4593     1   111.5100476 526.347200
   4591   4592   4611     1   111.0400475 552.288000
   4592   4591   4598     1   110.1900474 564.840000
   4592   4593   4597     1   110.1900474 564.840000
   4592   4593   4606     1   107.9700462 569.024000
   4593   4592   4611     1   111.0400475 552.288000
   4597   4593   4606     1   109.3800466 607.516800
   4599   4588   4606     1   107.9700462 569.024000
   4612   4613   4615     1   111.5100476 526.347200
   4612   4613   4633     1   110.1900474 564.840000
   4612   4623   4628     1   110.1900474 564.840000
   4612   4630   4617     1   112.4800480 524.673600
   4613   4612   4623     1   111.5100476 526.347200
   4613   4612   4630     1   107.9700462 569.024000
   4613   4615   4616     1   111.5100476 526.347200
   4613   4615   4622     1   110.1900474 564.840000
   4615   4613   4633     1   110.1900474 564.840000
   4615   4616   4617     1   111.5100476 526.347200
   4615   4616   4635     1   111.0400475 552.288000
   4616   4615   4622     1   110.1900474 564.840000
   4616   4617   4621     1   110.1900474 564.840000
   4616   4617   4630     1   107.9700462 569.024000
   4617   4616   4635     1   111.0400475 552.288000
   4621   4617   4630     1   109.3800466 607.516800
   4623   4612   4630     1   107.9700462 569.024000
   4637   4639   4641     1   111.6100477 551.451200
   4639   4641   4645     1   114.2100488 537.225600
   4641   4645   4646     1   109.6600471 523.836800
   4641   4645   4647     1   109.6600471 523.836800
   4645   4646   4657     1   114.2100488 537.225600
   4645   4647   4649     1   114.2100488 537.225600
   4646   4657   4660     1   111.0400475 529.694400
   4646   4645   4647     1   109.6600471 523.836800
   4647   4649   4653     1   111.0400475 529.694400
   4649   4653   4654     1   123.2000528 564.003200
   4649   4653   4685     1   112.2600482 538.062400
   4653   4685   4666     1   118.5150508 540.957728
   4654   4653   4685     1   118.8300510 581.576000
   4657   4660   4661     1   123.2000528 564.003200
   4657   4660   4709     1   112.2600482 538.062400
   4660   4709   4690     1   118.5150508 540.957728
   4661   4660   4709     1   118.8300510 581.576000
   4662   4663   4665     1   111.5100476 526.347200
   4662   4663   4683     1   110.1900474 564.840000
   4662   4673   4678     1   110.1900474 564.840000
   4662   4680   4667     1   112.4800480 524.673600
   4663   4665   4666     1   111.5100476 526.347200
   4663   4665   4672     1   110.1900474 564.840000
   4663   4662   4673     1   111.5100476 526.347200
   4663   4662   4680     1   107.9700462 569.024000
   4665   4666   4667     1   111.5100476 526.347200
   4665   4666   4685     1   111.0400475 552.288000
   4665   4663   4683     1   110.1900474 564.840000
   4666   4667   4671     1   110.1900474 564.840000
   4666   4667   4680     1   107.9700462 569.024000
   4666   4665   4672     1   110.1900474 564.840000
   4667   4666   4685     1   111.0400475 552.288000
   4671   4667   4680     1   109.3800466 607.516800
   4673   4662   4680     1   107.9700462 569.024000
   4686   4687   4689     1   111.5100476 526.347200
   4686   4687   4707     1   110.1900474 564.840000
   4686   4697   4702     1   110.1900474 564.840000
   4686   4704   4691     1   112.4800480 524.673600
   4687   4689   4690     1   111.5100476 526.347200
   4687   4689   4696     1   110.1900474 564.840000
   4687   4686   4697     1   111.5100476 526.347200
   4687   4686   4704     1   107.9700462 569.024000
   4689   4690   4691     1   111.5100476 526.347200
   4689   4690   4709     1   111.0400475 552.288000
   4689   4687   4707     1   110.1900474 564.840000
   4690   4691   4695     1   110.1900474 564.840000
   4690   4691   4704     1   107.9700462 569.024000
   4690   4689   4696     1   110.1900474 564.840000
   4691   4690   4709     1   111.0400475 552.288000
   4695   4691   4704     1   109.3800466 607.516800
   4697   4686   4704     1   107.9700462 569.024000
   4711   4713   4715     1   111.6100477 551.451200
   4713   4715   4719     1   114.2100488 537.225600
   4715   4719   4720     1   109.6600471 523.836800
   4715   4719   4721     1   109.6600471 523.836800
   4719   4720   4731     1   114.2100488 537.225600
   4719   4721   4723     1   114.2100488 537.225600
   4720   4719   4721     1   109.6600471 523.836800
   4720   4731   4734     1   111.0400475 529.694400
   4721   4723   4727     1   111.0400475 529.694400
   4723   4727   4728     1   123.2000528 564.003200
   4723   4727   4759     1   112.2600482 538.062400
   4727   4759   4740     1   118.5150508 540.957728
   4728   4727   4759     1   118.8300510 581.576000
   4731   4734   4735     1   123.2000528 564.003200
   4731   4734   4783     1   112.2600482 538.062400
   4734   4783   4764     1   118.5150508 540.957728
   4735   4734   4783     1   118.8300510 581.576000
   4736   4737   4739     1   111.5100476 526.347200
   4736   4737   4757     1   110.1900474 564.840000
   4736   4747   4752     1   110.1900474 564.840000
   4736   4754   4741     1   112.4800480 524.673600
   4737   4736   4747     1   111.5100476 526.347200
   4737   4736   4754     1   107.9700462 569.024000
   4737   4739   4740     1   111.5100476 526.347200
   4737   4739   4746     1   110.1900474 564.840000
   4739   4737   4757     1   110.1900474 564.840000
   4739   4740   4741     1   111.5100476 526.347200
   4739   4740   4759     1   111.0400475 552.288000
   4740   4739   4746     1   110.1900474 564.840000
   4740   4741   4745     1   110.1900474 564.840000
   4740   4741   4754     1   107.9700462 569.024000
   4741   4740   4759     1   111.0400475 552.288000
   4745   4741   4754     1   109.3800466 607.516800
   4747   4736   4754     1   107.9700462 569.024000
   4760   4761   4763     1   111.5100476 526.347200
   4760   4761   4781     1   110.1900474 564.840000
   4760   4771   4776     1   110.1900474 564.840000
   4760   4778   4765     1   112.4800480 524.673600
   4761   4760   4771     1   111.5100476 526.347200
   4761   4760   4778     1   107.9700462 569.024000
   4761   4763   4764     1   111.5100476 526.347200
   4761   4763   4770     1   110.1900474 564.840000
   4763   4761   4781     1   110.1900474 564.840000
   4763   4764   4765     1   111.5100476 526.347200
   4763   4764   4783     1   111.0400475 552.288000
   4764   4763   4770     1   110.1900474 564.840000
   4764   4765   4769     1   110.1900474 564.840000
   4764   4765   4778     1   107.9700462 569.024000
   4765   4764   4783     1   111.0400475 552.288000
   4769   4765   4778     1   109.3800466 607.516800
   4771   4760   4778     1   107.9700462 569.024000
   4785   4787   4789     1   111.6100477 551.451200
   4787   4789   4793     1   114.2100488 537.225600
   4789   4793   4794     1   109.6600471 523.836800
   4789   4793   4795     1   109.6600471 523.836800
   4793   4794   4805     1   114.2100488 537.225600
   4793   4795   4797     1   114.2100488 537.225600
   4794   4805   4808     1   111.0400475 529.694400
   4794   4793   4795     1   109.6600471 523.836800
   4795   4797   4801     1   111.0400475 529.694400
   4797   4801   4802     1   123.2000528 564.003200
   4797   4801   4833     1   112.2600482 538.062400
   4801   4833   4814     1   118.5150508 540.957728
   4802   4801   4833     1   118.8300510 581.576000
   4805   4808   4809     1   123.2000528 564.003200
   4805   4808   4857     1   112.2600482 538.062400
   4808   4857   4838     1   118.5150508 540.957728
   4809   4808   4857     1   118.8300510 581.576000
   4810   4811   4813     1   111.5100476 526.347200
   4810   4811   4831     1   110.1900474 564.840000
   4810   4821   4826     1   110.1900474 564.840000
   4810   4828   4815     1   112.4800480 524.673600
   4811   4813   4814     1   111.5100476 526.347200
   4811   4813   4820     1   110.1900474 564.840000
   4811   4810   4821     1   111.5100476 526.347200
   4811   4810   4828     1   107.9700462 569.024000
   4813   4814   4815     1   111.5100476 526.347200
   4813   4814   4833     1   111.0400475 552.288000
   4813   4811   4831     1   110.1900474 564.840000
   4814   4815   4819     1   110.1900474 564.840000
   4814   4815   4828     1   107.9700462 569.024000
   4814   4813   4820     1   110.1900474 564.840000
   4815   4814   4833     1   111.0400475 552.288000
   4819   4815   4828     1   109.3800466 607.516800
   4821   4810   4828     1   107.9700462 569.024000
   4834   4835   4837     1   111.5100476 526.347200
   4834   4835   4855     1   110.1900474 564.840000
   4834   4845   4850     1   110.1900474 564.840000
   4834   4852   4839     1   112.4800480 524.673600
   4835   4837   4838     1   111.5100476 526.347200
   4835   4837   4844     1   110.1900474 564.840000
   4835   4834   4845     1   111.5100476 526.347200
   4835   4834   4852     1   107.9700462 569.024000
   4837   4838   4839     1   111.5100476 526.347200
   4837   4838   4857     1   111.0400475 552.288000
   4837   4835   4855     1   110.1900474 564.840000
   4838   4839   4843     1   110.1900474 564.840000
   4838   4839   4852     1   107.9700462 569.024000
   4838   4837   4844     1   110.1900474 564.840000
   4839   4838   4857     1   111.0400475 552.288000
   4843   4839   4852     1   109.3800466 607.516800
   4845   4834   4852     1   107.9700462 569.024000
   4859   4861   4863     1   111.6100477 551.451200
   4861   4863   4867     1   114.2100488 537.225600
   4863   4867   4868     1   109.6600471 523.836800
   4863   4867   4869     1   109.6600471 523.836800
   4867   4868   4879     1   114.2100488 537.225600
   4867   4869   4871     1   114.2100488 537.225600
   4868   4867   4869     1   109.6600471 523.836800
   4868   4879   4882     1   111.0400475 529.694400
   4869   4871   4875     1   111.0400475 529.694400
   4871   4875   4876     1   123.2000528 564.003200
   4871   4875   4907     1   112.2600482 538.062400
   4875   4907   4888     1   118.5150508 540.957728
   4876   4875   4907     1   118.8300510 581.576000
   4879   4882   4883     1   123.2000528 564.003200
   4879   4882   4931     1   112.2600482 538.062400
   4882   4931   4912     1   118.5150508 540.957728
   4883   4882   4931     1   118.8300510 581.576000
   4884   4885   4887     1   111.5100476 526.347200
   4884   4885   4905     1   110.1900474 564.840000
   4884   4895   4900     1   110.1900474 564.840000
   4884   4902   4889     1   112.4800480 524.673600
   4885   4884   4895     1   111.5100476 526.347200
   4885   4884   4902     1   107.9700462 569.024000
   4885   4887   4888     1   111.5100476 526.347200
   4885   4887   4894     1   110.1900474 564.840000
   4887   4885   4905     1   110.1900474 564.840000
   4887   4888   4889     1   111.5100476 526.347200
   4887   4888   4907     1   111.0400475 552.288000
   4888   4887   4894     1   110.1900474 564.840000
   4888   4889   4893     1   110.1900474 564.840000
   4888   4889   4902     1   107.9700462 569.024000
   4889   4888   4907     1   111.0400475 552.288000
   4893   4889   4902     1   109.3800466 607.516800
   4895   4884   4902     1   107.9700462 569.024000
   4908   4909   4911     1   111.5100476 526.347200
   4908   4909   4929     1   110.1900474 564.840000
   4908   4919   4924     1   110.1900474 564.840000
   4908   4926   4913     1   112.4800480 524.673600
   4909   4908   4919     1   111.5100476 526.347200
   4909   4908   4926     1   107.9700462 569.024000
   4909   4911   4912     1   111.5100476 526.347200
   4909   4911   4918     1   110.1900474 564.840000
   4911   4909   4929     1   110.1900474 564.840000
   4911   4912   4913     1   111.5100476 526.347200
   4911   4912   4931     1   111.0400475 552.288000
   4912   4911   4918     1   110.1900474 564.840000
   4912   4913   4917     1   110.1900474 564.840000
   4912   4913   4926     1   107.9700462 569.024000
   4913   4912   4931     1   111.0400475 552.288000
   4917   4913   4926     1   109.3800466 607.516800
   4919   4908   4926     1   107.9700462 569.024000
   4933   4935   4937     1   111.6100477 551.451200
   4935   4937   4941     1   114.2100488 537.225600
   4937   4941   4942     1   109.6600471 523.836800
   4937   4941   4943     1   109.6600471 523.836800
   4941   4942   4953     1   114.2100488 537.225600
   4941   4943   4945     1   114.2100488 537.225600
   4942   4953   4956     1   111.0400475 529.694400
   4942   4941   4943     1   109.6600471 523.836800
   4943   4945   4949     1   111.0400475 529.694400
   4945   4949   4950     1   123.2000528 564.003200
   4945   4949   4981     1   112.2600482 538.062400
   4949   4981   4962     1   118.5150508 540.957728
   4950   4949   4981     1   118.8300510 581.576000
   4953   4956   4957     1   123.2000528 564.003200
   4953   4956   5005     1   112.2600482 538.062400
   4956   5005   4986     1   118.5150508 540.957728
   4957   4956   5005     1   118.8300510 581.576000
   4958   4959   4961     1   111.5100476 526.347200
   4958   4959   4979     1   110.1900474 564.840000
   4958   4969   4974     1   110.1900474 564.840000
   4958   4976   4963     1   112.4800480 524.673600
   4959   4961   4962     1   111.5100476 526.347200
   4959   4961   4968     1   110.1900474 564.840000
   4959   4958   4969     1   111.5100476 526.347200
   4959   4958   4976     1   107.9700462 569.024000
   4961   4962   4963     1   111.5100476 526.347200
   4961   4962   4981     1   111.0400475 552.288000
   4961   4959   4979     1   110.1900474 564.840000
   4962   4963   4967     1   110.1900474 564.840000
   4962   4963   4976     1   107.9700462 569.024000
   4962   4961   4968     1   110.1900474 564.840000
   4963   4962   4981     1   111.0400475 552.288000
   4967   4963   4976     1   109.3800466 607.516800
   4969   4958   4976     1   107.9700462 569.024000
   4982   4983   4985     1   111.5100476 526.347200
   4982   4983   5003     1   110.1900474 564.840000
   4982   4993   4998     1   110.1900474 564.840000
   4982   5000   4987     1   112.4800480 524.673600
   4983   4985   4986     1   111.5100476 526.347200
   4983   4985   4992     1   110.1900474 564.840000
   4983   4982   4993     1   111.5100476 526.347200
   4983   4982   5000     1   107.9700462 569.024000
   4985   4986   4987     1   111.5100476 526.347200
   4985   4986   5005     1   111.0400475 552.288000
   4985   4983   5003     1   110.1900474 564.840000
   4986   4987   4991     1   110.1900474 564.840000
   4986   4987   5000     1   107.9700462 569.024000
   4986   4985   4992     1   110.1900474 564.840000
   4987   4986   5005     1   111.0400475 552.288000
   4991   4987   5000     1   109.3800466 607.516800
   4993   4982   5000     1   107.9700462 569.024000
   5007   5009   5011     1   111.6100477 551.451200
   5009   5011   5015     1   114.2100488 537.225600
   5011   5015   5016     1   109.6600471 523.836800
   5011   5015   5017     1   109.6600471 523.836800
   5015   5016   5027     1   114.2100488 537.225600
   5015   5017   5019     1   114.2100488 537.225600
   5016   5015   5017     1   109.6600471 523.836800
   5016   5027   5030     1   111.0400475 529.694400
   5017   5019   5023     1   111.0400475 529.694400
   5019   5023   5024     1   123.2000528 564.003200
   5019   5023   5055     1   112.2600482 538.062400
   5023   5055   5036     1   118.5150508 540.957728
   5024   5023   5055     1   118.8300510 581.576000
   5027   5030   5031     1   123.2000528 564.003200
   5027   5030   5079     1   112.2600482 538.062400
   5030   5079   5060     1   118.5150508 540.957728
   5031   5030   5079     1   118.8300510 581.576000
   5032   5033   5035     1   111.5100476 526.347200
   5032   5033   5053     1   110.1900474 564.840000
   5032   5043   5048     1   110.1900474 564.840000
   5032   5050   5037     1   112.4800480 524.673600
   5033   5032   5043     1   111.5100476 526.347200
   5033   5032   5050     1   107.9700462 569.024000
   5033   5035   5036     1   111.5100476 526.347200
   5033   5035   5042     1   110.1900474 564.840000
   5035   5033   5053     1   110.1900474 564.840000
   5035   5036   5037     1   111.5100476 526.347200
   5035   5036   5055     1   111.0400475 552.288000
   5036   5035   5042     1   110.1900474 564.840000
   5036   5037   5041     1   110.1900474 564.840000
   5036   5037   5050     1   107.9700462 569.024000
   5037   5036   5055     1   111.0400475 552.288000
   5041   5037   5050     1   109.3800466 607.516800
   5043   5032   5050     1   107.9700462 569.024000
   5056   5057   5059     1   111.5100476 526.347200
   5056   5057   5077     1   110.1900474 564.840000
   5056   5067   5072     1   110.1900474 564.840000
   5056   5074   5061     1   112.4800480 524.673600
   5057   5056   5067     1   111.5100476 526.347200
   5057   5056   5074     1   107.9700462 569.024000
   5057   5059   5060     1   111.5100476 526.347200
   5057   5059   5066     1   110.1900474 564.840000
   5059   5057   5077     1   110.1900474 564.840000
   5059   5060   5061     1   111.5100476 526.347200
   5059   5060   5079     1   111.0400475 552.288000
   5060   5059   5066     1   110.1900474 564.840000
   5060   5061   5065     1   110.1900474 564.840000
   5060   5061   5074     1   107.9700462 569.024000
   5061   5060   5079     1   111.0400475 552.288000
   5065   5061   5074     1   109.3800466 607.516800
   5067   5056   5074     1   107.9700462 569.024000
   5081   5083   5085     1   111.6100477 551.451200
   5083   5085   5089     1   114.2100488 537.225600
   5085   5089   5090     1   109.6600471 523.836800
   5085   5089   5091     1   109.6600471 523.836800
   5089   5090   5101     1   114.2100488 537.225600
   5089   5091   5093     1   114.2100488 537.225600
   5090   5101   5104     1   111.0400475 529.694400
   5090   5089   5091     1   109.6600471 523.836800
   5091   5093   5097     1   111.0400475 529.694400
   5093   5097   5098     1   123.2000528 564.003200
   5093   5097   5129     1   112.2600482 538.062400
   5097   5129   5110     1   118.5150508 540.957728
   5098   5097   5129     1   118.8300510 581.576000
   5101   5104   5105     1   123.2000528 564.003200
   5101   5104   5153     1   112.2600482 538.062400
   5104   5153   5134     1   118.5150508 540.957728
   5105   5104   5153     1   118.8300510 581.576000
   5106   5107   5109     1   111.5100476 526.347200
   5106   5107   5127     1   110.1900474 564.840000
   5106   5117   5122     1   110.1900474 564.840000
   5106   5124   5111     1   112.4800480 524.673600
   5107   5109   5110     1   111.5100476 526.347200
   5107   5109   5116     1   110.1900474 564.840000
   5107   5106   5117     1   111.5100476 526.347200
   5107   5106   5124     1   107.9700462 569.024000
   5109   5110   5111     1   111.5100476 526.347200
   5109   5110   5129     1   111.0400475 552.288000
   5109   5107   5127     1   110.1900474 564.840000
   5110   5111   5115     1   110.1900474 564.840000
   5110   5111   5124     1   107.9700462 569.024000
   5110   5109   5116     1   110.1900474 564.840000
   5111   5110   5129     1   111.0400475 552.288000
   5115   5111   5124     1   109.3800466 607.516800
   5117   5106   5124     1   107.9700462 569.024000
   5130   5131   5133     1   111.5100476 526.347200
   5130   5131   5151     1   110.1900474 564.840000
   5130   5141   5146     1   110.1900474 564.840000
   5130   5148   5135     1   112.4800480 524.673600
   5131   5133   5134     1   111.5100476 526.347200
   5131   5133   5140     1   110.1900474 564.840000
   5131   5130   5141     1   111.5100476 526.347200
   5131   5130   5148     1   107.9700462 569.024000
   5133   5134   5135     1   111.5100476 526.347200
   5133   5134   5153     1   111.0400475 552.288000
   5133   5131   5151     1   110.1900474 564.840000
   5134   5135   5139     1   110.1900474 564.840000
   5134   5135   5148     1   107.9700462 569.024000
   5134   5133   5140     1   110.1900474 564.840000
   5135   5134   5153     1   111.0400475 552.288000
   5139   5135   5148     1   109.3800466 607.516800
   5141   5130   5148     1   107.9700462 569.024000
   5155   5157   5159     1   111.6100477 551.451200
   5157   5159   5163     1   114.2100488 537.225600
   5159   5163   5164     1   109.6600471 523.836800
   5159   5163   5165     1   109.6600471 523.836800
   5163   5164   5175     1   114.2100488 537.225600
   5163   5165   5167     1   114.2100488 537.225600
   5164   5163   5165     1   109.6600471 523.836800
   5164   5175   5178     1   111.0400475 529.694400
   5165   5167   5171     1   111.0400475 529.694400
   5167   5171   5172     1   123.2000528 564.003200
   5167   5171   5203     1   112.2600482 538.062400
   5171   5203   5184     1   118.5150508 540.957728
   5172   5171   5203     1   118.8300510 581.576000
   5175   5178   5179     1   123.2000528 564.003200
   5175   5178   5227     1   112.2600482 538.062400
   5178   5227   5208     1   118.5150508 540.957728
   5179   5178   5227     1   118.8300510 581.576000
   5180   5181   5183     1   111.5100476 526.347200
   5180   5181   5201     1   110.1900474 564.840000
   5180   5191   5196     1   110.1900474 564.840000
   5180   5198   5185     1   112.4800480 524.673600
   5181   5180   5191     1   111.5100476 526.347200
   5181   5180   5198     1   107.9700462 569.024000
   5181   5183   5184     1   111.5100476 526.347200
   5181   5183   5190     1   110.1900474 564.840000
   5183   5181   5201     1   110.1900474 564.840000
   5183   5184   5185     1   111.5100476 526.347200
   5183   5184   5203     1   111.0400475 552.288000
   5184   5183   5190     1   110.1900474 564.840000
   5184   5185   5189     1   110.1900474 564.840000
   5184   5185   5198     1   107.9700462 569.024000
   5185   5184   5203     1   111.0400475 552.288000
   5189   5185   5198     1   109.3800466 607.516800
   5191   5180   5198     1   107.9700462 569.024000
   5204   5205   5207     1   111.5100476 526.347200
   5204   5205   5225     1   110.1900474 564.840000
   5204   5215   5220     1   110.1900474 564.840000
   5204   5222   5209     1   112.4800480 524.673600
   5205   5204   5215     1   111.5100476 526.347200
   5205   5204   5222     1   107.9700462 569.024000
   5205   5207   5208     1   111.5100476 526.347200
   5205   5207   5214     1   110.1900474 564.840000
   5207   5205   5225     1   110.1900474 564.840000
   5207   5208   5209     1   111.5100476 526.347200
   5207   5208   5227     1   111.0400475 552.288000
   5208   5207   5214     1   110.1900474 564.840000
   5208   5209   5213     1   110.1900474 564.840000
   5208   5209   5222     1   107.9700462 569.024000
   5209   5208   5227     1   111.0400475 552.288000
   5213   5209   5222     1   109.3800466 607.516800
   5215   5204   5222     1   107.9700462 569.024000
   5229   5231   5233     1   111.6100477 551.451200
   5231   5233   5237     1   114.2100488 537.225600
   5233   5237   5238     1   109.6600471 523.836800
   5233   5237   5239     1   109.6600471 523.836800
   5237   5238   5249     1   114.2100488 537.225600
   5237   5239   5241     1   114.2100488 537.225600
   5238   5249   5252     1   111.0400475 529.694400
   5238   5237   5239     1   109.6600471 523.836800
   5239   5241   5245     1   111.0400475 529.694400
   5241   5245   5246     1   123.2000528 564.003200
   5241   5245   5277     1   112.2600482 538.062400
   5245   5277   5258     1   118.5150508 540.957728
   5246   5245   5277     1   118.8300510 581.576000
   5249   5252   5253     1   123.2000528 564.003200
   5249   5252   5301     1   112.2600482 538.062400
   5252   5301   5282     1   118.5150508 540.957728
   5253   5252   5301     1   118.8300510 581.576000
   5254   5255   5257     1   111.5100476 526.347200
   5254   5255   5275     1   110.1900474 564.840000
   5254   5265   5270     1   110.1900474 564.840000
   5254   5272   5259     1   112.4800480 524.673600
   5255   5257   5258     1   111.5100476 526.347200
   5255   5257   5264     1   110.1900474 564.840000
   5255   5254   5265     1   111.5100476 526.347200
   5255   5254   5272     1   107.9700462 569.024000
   5257   5258   5259     1   111.5100476 526.347200
   5257   5258   5277     1   111.0400475 552.288000
   5257   5255   5275     1   110.1900474 564.840000
   5258   5259   5263     1   110.1900474 564.840000
   5258   5259   5272     1   107.9700462 569.024000
   5258   5257   5264     1   110.1900474 564.840000
   5259   5258   5277     1   111.0400475 552.288000
   5263   5259   5272     1   109.3800466 607.516800
   5265   5254   5272     1   107.9700462 569.024000
   5278   5279   5281     1   111.5100476 526.347200
   5278   5279   5299     1   110.1900474 564.840000
   5278   5289   5294     1   110.1900474 564.840000
   5278   5296   5283     1   112.4800480 524.673600
   5279   5281   5282     1   111.5100476 526.347200
   5279   5281   5288     1   110.1900474 564.840000
   5279   5278   5289     1   111.5100476 526.347200
   5279   5278   5296     1   107.9700462 569.024000
   5281   5282   5283     1   111.5100476 526.347200
   5281   5282   5301     1   111.0400475 552.288000
   5281   5279   5299     1   110.1900474 564.840000
   5282   5283   5287     1   110.1900474 564.840000
   5282   5283   5296     1   107.9700462 569.024000
   5282   5281   5288     1   110.1900474 564.840000
   5283   5282   5301     1   111.0400475 552.288000
   5287   5283   5296     1   109.3800466 607.516800
   5289   5278   5296     1   107.9700462 569.024000
   5303   5305   5307     1   111.6100477 551.451200
   5305   5307   5311     1   114.2100488 537.225600
   5307   5311   5312     1   109.6600471 523.836800
   5307   5311   5313     1   109.6600471 523.836800
   5311   5312   5323     1   114.2100488 537.225600
   5311   5313   5315     1   114.2100488 537.225600
   5312   5311   5313     1   109.6600471 523.836800
   5312   5323   5326     1   111.0400475 529.694400
   5313   5315   5319     1   111.0400475 529.694400
   5315   5319   5320     1   123.2000528 564.003200
   5315   5319   5351     1   112.2600482 538.062400
   5319   5351   5332     1   118.5150508 540.957728
   5320   5319   5351     1   118.8300510 581.576000
   5323   5326   5327     1   123.2000528 564.003200
   5323   5326   5375     1   112.2600482 538.062400
   5326   5375   5356     1   118.5150508 540.957728
   5327   5326   5375     1   118.8300510 581.576000
   5328   5329   5331     1   111.5100476 526.347200
   5328   5329   5349     1   110.1900474 564.840000
   5328   5339   5344     1   110.1900474 564.840000
   5328   5346   5333     1   112.4800480 524.673600
   5329   5328   5339     1   111.5100476 526.347200
   5329   5328   5346     1   107.9700462 569.024000
   5329   5331   5332     1   111.5100476 526.347200
   5329   5331   5338     1   110.1900474 564.840000
   5331   5329   5349     1   110.1900474 564.840000
   5331   5332   5333     1   111.5100476 526.347200
   5331   5332   5351     1   111.0400475 552.288000
   5332   5331   5338     1   110.1900474 564.840000
   5332   5333   5337     1   110.1900474 564.840000
   5332   5333   5346     1   107.9700462 569.024000
   5333   5332   5351     1   111.0400475 552.288000
   5337   5333   5346     1   109.3800466 607.516800
   5339   5328   5346     1   107.9700462 569.024000
   5352   5353   5355     1   111.5100476 526.347200
   5352   5353   5373     1   110.1900474 564.840000
   5352   5363   5368     1   110.1900474 564.840000
   5352   5370   5357     1   112.4800480 524.673600
   5353   5352   5363     1   111.5100476 526.347200
   5353   5352   5370     1   107.9700462 569.024000
   5353   5355   5356     1   111.5100476 526.347200
   5353   5355   5362     1   110.1900474 564.840000
   5355   5353   5373     1   110.1900474 564.840000
   5355   5356   5357     1   111.5100476 526.347200
   5355   5356   5375     1   111.0400475 552.288000
   5356   5355   5362     1   110.1900474 564.840000
   5356   5357   5361     1   110.1900474 564.840000
   5356   5357   5370     1   107.9700462 569.024000
   5357   5356   5375     1   111.0400475 552.288000
   5361   5357   5370     1   109.3800466 607.516800
   5363   5352   5370     1   107.9700462 569.024000
   5377   5379   5381     1   111.6100477 551.451200
   5379   5381   5385     1   114.2100488 537.225600
   5381   5385   5386     1   109.6600471 523.836800
   5381   5385   5387     1   109.6600471 523.836800
   5385   5386   5397     1   114.2100488 537.225600
   5385   5387   5389     1   114.2100488 537.225600
   5386   5397   5400     1   111.0400475 529.694400
   5386   5385   5387     1   109.6600471 523.836800
   5387   5389   5393     1   111.0400475 529.694400
   5389   5393   5394     1   123.2000528 564.003200
   5389   5393   5425     1   112.2600482 538.062400
   5393   5425   5406     1   118.5150508 540.957728
   5394   5393   5425     1   118.8300510 581.576000
   5397   5400   5401     1   123.2000528 564.003200
   5397   5400   5449     1   112.2600482 538.062400
   5400   5449   5430     1   118.5150508 540.957728
   5401   5400   5449     1   118.8300510 581.576000
   5402   5403   5405     1   111.5100476 526.347200
   5402   5403   5423     1   110.1900474 564.840000
   5402   5413   5418     1   110.1900474 564.840000
   5402   5420   5407     1   112.4800480 524.673600
   5403   5405   5406     1   111.5100476 526.347200
   5403   5405   5412     1   110.1900474 564.840000
   5403   5402   5413     1   111.5100476 526.347200
   5403   5402   5420     1   107.9700462 569.024000
   5405   5406   5407     1   111.5100476 526.347200
   5405   5406   5425     1   111.0400475 552.288000
   5405   5403   5423     1   110.1900474 564.840000
   5406   5407   5411     1   110.1900474 564.840000
   5406   5407   5420     1   107.9700462 569.024000
   5406   5405   5412     1   110.1900474 564.840000
   5407   5406   5425     1   111.0400475 552.288000
   5411   5407   5420     1   109.3800466 607.516800
   5413   5402   5420     1   107.9700462 569.024000
   5426   5427   5429     1   111.5100476 526.347200
   5426   5427   5447     1   110.1900474 564.840000
   5426   5437   5442     1   110.1900474 564.840000
   5426   5444   5431     1   112.4800480 524.673600
   5427   5429   5430     1   111.5100476 526.347200
   5427   5429   5436     1   110.1900474 564.840000
   5427   5426   5437     1   111.5100476 526.347200
   5427   5426   5444     1   107.9700462 569.024000
   5429   5430   5431     1   111.5100476 526.347200
   5429   5430   5449     1   111.0400475 552.288000
   5429   5427   5447     1   110.1900474 564.840000
   5430   5431   5435     1   110.1900474 564.840000
   5430   5431   5444     1   107.9700462 569.024000
   5430   5429   5436     1   110.1900474 564.840000
   5431   5430   5449     1   111.0400475 552.288000
   5435   5431   5444     1   109.3800466 607.516800
   5437   5426   5444     1   107.9700462 569.024000
   5451   5453   5455     1   111.6100477 551.451200
   5453   5455   5459     1   114.2100488 537.225600
   5455   5459   5460     1   109.6600471 523.836800
   5455   5459   5461     1   109.6600471 523.836800
   5459   5460   5471     1   114.2100488 537.225600
   5459   5461   5463     1   114.2100488 537.225600
   5460   5459   5461     1   109.6600471 523.836800
   5460   5471   5474     1   111.0400475 529.694400
   5461   5463   5467     1   111.0400475 529.694400
   5463   5467   5468     1   123.2000528 564.003200
   5463   5467   5499     1   112.2600482 538.062400
   5467   5499   5480     1   118.5150508 540.957728
   5468   5467   5499     1   118.8300510 581.576000
   5471   5474   5475     1   123.2000528 564.003200
   5471   5474   5523     1   112.2600482 538.062400
   5474   5523   5504     1   118.5150508 540.957728
   5475   5474   5523     1   118.8300510 581.576000
   5476   5477   5479     1   111.5100476 526.347200
   5476   5477   5497     1   110.1900474 564.840000
   5476   5487   5492     1   110.1900474 564.840000
   5476   5494   5481     1   112.4800480 524.673600
   5477   5476   5487     1   111.5100476 526.347200
   5477   5476   5494     1   107.9700462 569.024000
   5477   5479   5480     1   111.5100476 526.347200
   5477   5479   5486     1   110.1900474 564.840000
   5479   5477   5497     1   110.1900474 564.840000
   5479   5480   5481     1   111.5100476 526.347200
   5479   5480   5499     1   111.0400475 552.288000
   5480   5479   5486     1   110.1900474 564.840000
   5480   5481   5485     1   110.1900474 564.840000
   5480   5481   5494     1   107.9700462 569.024000
   5481   5480   5499     1   111.0400475 552.288000
   5485   5481   5494     1   109.3800466 607.516800
   5487   5476   5494     1   107.9700462 569.024000
   5500   5501   5503     1   111.5100476 526.347200
   5500   5501   5521     1   110.1900474 564.840000
   5500   5511   5516     1   110.1900474 564.840000
   5500   5518   5505     1   112.4800480 524.673600
   5501   5500   5511     1   111.5100476 526.347200
   5501   5500   5518     1   107.9700462 569.024000
   5501   5503   5504     1   111.5100476 526.347200
   5501   5503   5510     1   110.1900474 564.840000
   5503   5501   5521     1   110.1900474 564.840000
   5503   5504   5505     1   111.5100476 526.347200
   5503   5504   5523     1   111.0400475 552.288000
   5504   5503   5510     1   110.1900474 564.840000
   5504   5505   5509     1   110.1900474 564.840000
   5504   5505   5518     1   107.9700462 569.024000
   5505   5504   5523     1   111.0400475 552.288000
   5509   5505   5518     1   109.3800466 607.516800
   5511   5500   5518     1   107.9700462 569.024000
   5525   5527   5529     1   111.6100477 551.451200
   5527   5529   5533     1   114.2100488 537.225600
   5529   5533   5534     1   109.6600471 523.836800
   5529   5533   5535     1   109.6600471 523.836800
   5533   5534   5545     1   114.2100488 537.225600
   5533   5535   5537     1   114.2100488 537.225600
   5534   5545   5548     1   111.0400475 529.694400
   5534   5533   5535     1   109.6600471 523.836800
   5535   5537   5541     1   111.0400475 529.694400
   5537   5541   5542     1   123.2000528 564.003200
   5537   5541   5573     1   112.2600482 538.062400
   5541   5573   5554     1   118.5150508 540.957728
   5542   5541   5573     1   118.8300510 581.576000
   5545   5548   5549     1   123.2000528 564.003200
   5545   5548   5597     1   112.2600482 538.062400
   5548   5597   5578     1   118.5150508 540.957728
   5549   5548   5597     1   118.8300510 581.576000
   5550   5551   5553     1   111.5100476 526.347200
   5550   5551   5571     1   110.1900474 564.840000
   5550   5561   5566     1   110.1900474 564.840000
   5550   5568   5555     1   112.4800480 524.673600
   5551   5553   5554     1   111.5100476 526.347200
   5551   5553   5560     1   110.1900474 564.840000
   5551   5550   5561     1   111.5100476 526.347200
   5551   5550   5568     1   107.9700462 569.024000
   5553   5554   5555     1   111.5100476 526.347200
   5553   5554   5573     1   111.0400475 552.288000
   5553   5551   5571     1   110.1900474 564.840000
   5554   5555   5559     1   110.1900474 564.840000
   5554   5555   5568     1   107.9700462 569.024000
   5554   5553   5560     1   110.1900474 564.840000
   5555   5554   5573     1   111.0400475 552.288000
   5559   5555   5568     1   109.3800466 607.516800
   5561   5550   5568     1   107.9700462 569.024000
   5574   5575   5577     1   111.5100476 526.347200
   5574   5575   5595     1   110.1900474 564.840000
   5574   5585   5590     1   110.1900474 564.840000
   5574   5592   5579     1   112.4800480 524.673600
   5575   5577   5578     1   111.5100476 526.347200
   5575   5577   5584     1   110.1900474 564.840000
   5575   5574   5585     1   111.5100476 526.347200
   5575   5574   5592     1   107.9700462 569.024000
   5577   5578   5579     1   111.5100476 526.347200
   5577   5578   5597     1   111.0400475 552.288000
   5577   5575   5595     1   110.1900474 564.840000
   5578   5579   5583     1   110.1900474 564.840000
   5578   5579   5592     1   107.9700462 569.024000
   5578   5577   5584     1   110.1900474 564.840000
   5579   5578   5597     1   111.0400475 552.288000
   5583   5579   5592     1   109.3800466 607.516800
   5585   5574   5592     1   107.9700462 569.024000
   5599   5601   5603     1   111.6100477 551.451200
   5601   5603   5607     1   114.2100488 537.225600
   5603   5607   5608     1   109.6600471 523.836800
   5603   5607   5609     1   109.6600471 523.836800
   5607   5608   5619     1   114.2100488 537.225600
   5607   5609   5611     1   114.2100488 537.225600
   5608   5607   5609     1   109.6600471 523.836800
   5608   5619   5622     1   111.0400475 529.694400
   5609   5611   5615     1   111.0400475 529.694400
   5611   5615   5616     1   123.2000528 564.003200
   5611   5615   5647     1   112.2600482 538.062400
   5615   5647   5628     1   118.5150508 540.957728
   5616   5615   5647     1   118.8300510 581.576000
   5619   5622   5623     1   123.2000528 564.003200
   5619   5622   5671     1   112.2600482 538.062400
   5622   5671   5652     1   118.5150508 540.957728
   5623   5622   5671     1   118.8300510 581.576000
   5624   5625   5627     1   111.5100476 526.347200
   5624   5625   5645     1   110.1900474 564.840000
   5624   5635   5640     1   110.1900474 564.840000
   5624   5642   5629     1   112.4800480 524.673600
   5625   5624   5635     1   111.5100476 526.347200
   5625   5624   5642     1   107.9700462 569.024000
   5625   5627   5628     1   111.5100476 526.347200
   5625   5627   5634     1   110.1900474 564.840000
   5627   5625   5645     1   110.1900474 564.840000
   5627   5628   5629     1   111.5100476 526.347200
   5627   5628   5647     1   111.0400475 552.288000
   5628   5627   5634     1   110.1900474 564.840000
   5628   5629   5633     1   110.1900474 564.840000
   5628   5629   5642     1   107.9700462 569.024000
   5629   5628   5647     1   111.0400475 552.288000
   5633   5629   5642     1   109.3800466 607.516800
   5635   5624   5642     1   107.9700462 569.024000
   5648   5649   5651     1   111.5100476 526.347200
   5648   5649   5669     1   110.1900474 564.840000
   5648   5659   5664     1   110.1900474 564.840000
   5648   5666   5653     1   112.4800480 524.673600
   5649   5648   5659     1   111.5100476 526.347200
   5649   5648   5666     1   107.9700462 569.024000
   5649   5651   5652     1   111.5100476 526.347200
   5649   5651   5658     1   110.1900474 564.840000
   5651   5649   5669     1   110.1900474 564.840000
   5651   5652   5653     1   111.5100476 526.347200
   5651   5652   5671     1   111.0400475 552.288000
   5652   5651   5658     1   110.1900474 564.840000
   5652   5653   5657     1   110.1900474 564.840000
   5652   5653   5666     1   107.9700462 569.024000
   5653   5652   5671     1   111.0400475 552.288000
   5657   5653   5666     1   109.3800466 607.516800
   5659   5648   5666     1   107.9700462 569.024000
   5673   5675   5677     1   111.6100477 551.451200
   5675   5677   5681     1   114.2100488 537.225600
   5677   5681   5682     1   109.6600471 523.836800
   5677   5681   5683     1   109.6600471 523.836800
   5681   5682   5693     1   114.2100488 537.225600
   5681   5683   5685     1   114.2100488 537.225600
   5682   5693   5696     1   111.0400475 529.694400
   5682   5681   5683     1   109.6600471 523.836800
   5683   5685   5689     1   111.0400475 529.694400
   5685   5689   5690     1   123.2000528 564.003200
   5685   5689   5721     1   112.2600482 538.062400
   5689   5721   5702     1   118.5150508 540.957728
   5690   5689   5721     1   118.8300510 581.576000
   5693   5696   5697     1   123.2000528 564.003200
   5693   5696   5745     1   112.2600482 538.062400
   5696   5745   5726     1   118.5150508 540.957728
   5697   5696   5745     1   118.8300510 581.576000
   5698   5699   5701     1   111.5100476 526.347200
   5698   5699   5719     1   110.1900474 564.840000
   5698   5709   5714     1   110.1900474 564.840000
   5698   5716   5703     1   112.4800480 524.673600
   5699   5701   5702     1   111.5100476 526.347200
   5699   5701   5708     1   110.1900474 564.840000
   5699   5698   5709     1   111.5100476 526.347200
   5699   5698   5716     1   107.9700462 569.024000
   5701   5702   5703     1   111.5100476 526.347200
   5701   5702   5721     1   111.0400475 552.288000
   5701   5699   5719     1   110.1900474 564.840000
   5702   5703   5707     1   110.1900474 564.840000
   5702   5703   5716     1   107.9700462 569.024000
   5702   5701   5708     1   110.1900474 564.840000
   5703   5702   5721     1   111.0400475 552.288000
   5707   5703   5716     1   109.3800466 607.516800
   5709   5698   5716     1   107.9700462 569.024000
   5722   5723   5725     1   111.5100476 526.347200
   5722   5723   5743     1   110.1900474 564.840000
   5722   5733   5738     1   110.1900474 564.840000
   5722   5740   5727     1   112.4800480 524.673600
   5723   5725   5726     1   111.5100476 526.347200
   5723   5725   5732     1   110.1900474 564.840000
   5723   5722   5733     1   111.5100476 526.347200
   5723   5722   5740     1   107.9700462 569.024000
   5725   5726   5727     1   111.5100476 526.347200
   5725   5726   5745     1   111.0400475 552.288000
   5725   5723   5743     1   110.1900474 564.840000
   5726   5727   5731     1   110.1900474 564.840000
   5726   5727   5740     1   107.9700462 569.024000
   5726   5725   5732     1   110.1900474 564.840000
   5727   5726   5745     1   111.0400475 552.288000
   5731   5727   5740     1   109.3800466 607.516800
   5733   5722   5740     1   107.9700462 569.024000
   5747   5749   5751     1   111.6100477 551.451200
   5749   5751   5755     1   114.2100488 537.225600
   5751   5755   5756     1   109.6600471 523.836800
   5751   5755   5757     1   109.6600471 523.836800
   5755   5756   5767     1   114.2100488 537.225600
   5755   5757   5759     1   114.2100488 537.225600
   5756   5755   5757     1   109.6600471 523.836800
   5756   5767   5770     1   111.0400475 529.694400
   5757   5759   5763     1   111.0400475 529.694400
   5759   5763   5764     1   123.2000528 564.003200
   5759   5763   5795     1   112.2600482 538.062400
   5763   5795   5776     1   118.5150508 540.957728
   5764   5763   5795     1   118.8300510 581.576000
   5767   5770   5771     1   123.2000528 564.003200
   5767   5770   5819     1   112.2600482 538.062400
   5770   5819   5800     1   118.5150508 540.957728
   5771   5770   5819     1   118.8300510 581.576000
   5772   5773   5775     1   111.5100476 526.347200
   5772   5773   5793     1   110.1900474 564.840000
   5772   5783   5788     1   110.1900474 564.840000
   5772   5790   5777     1   112.4800480 524.673600
   5773   5772   5783     1   111.5100476 526.347200
   5773   5772   5790     1   107.9700462 569.024000
   5773   5775   5776     1   111.5100476 526.347200
   5773   5775   5782     1   110.1900474 564.840000
   5775   5773   5793     1   110.1900474 564.840000
   5775   5776   5777     1   111.5100476 526.347200
   5775   5776   5795     1   111.0400475 552.288000
   5776   5775   5782     1   110.1900474 564.840000
   5776   5777   5781     1   110.1900474 564.840000
   5776   5777   5790     1   107.9700462 569.024000
   5777   5776   5795     1   111.0400475 552.288000
   5781   5777   5790     1   109.3800466 607.516800
   5783   5772   5790     1   107.9700462 569.024000
   5796   5797   5799     1   111.5100476 526.347200
   5796   5797   5817     1   110.1900474 564.840000
   5796   5807   5812     1   110.1900474 564.840000
   5796   5814   5801     1   112.4800480 524.673600
   5797   5796   5807     1   111.5100476 526.347200
   5797   5796   5814     1   107.9700462 569.024000
   5797   5799   5800     1   111.5100476 526.347200
   5797   5799   5806     1   110.1900474 564.840000
   5799   5797   5817     1   110.1900474 564.840000
   5799   5800   5801     1   111.5100476 526.347200
   5799   5800   5819     1   111.0400475 552.288000
   5800   5799   5806     1   110.1900474 564.840000
   5800   5801   5805     1   110.1900474 564.840000
   5800   5801   5814     1   107.9700462 569.024000
   5801   5800   5819     1   111.0400475 552.288000
   5805   5801   5814     1   109.3800466 607.516800
   5807   5796   5814     1   107.9700462 569.024000
   5821   5823   5825     1   111.6100477 551.451200
   5823   5825   5829     1   114.2100488 537.225600
   5825   5829   5830     1   109.6600471 523.836800
   5825   5829   5831     1   109.6600471 523.836800
   5829   5830   5841     1   114.2100488 537.225600
   5829   5831   5833     1   114.2100488 537.225600
   5830   5841   5844     1   111.0400475 529.694400
   5830   5829   5831     1   109.6600471 523.836800
   5831   5833   5837     1   111.0400475 529.694400
   5833   5837   5838     1   123.2000528 564.003200
   5833   5837   5869     1   112.2600482 538.062400
   5837   5869   5850     1   118.5150508 540.957728
   5838   5837   5869     1   118.8300510 581.576000
   5841   5844   5845     1   123.2000528 564.003200
   5841   5844   5893     1   112.2600482 538.062400
   5844   5893   5874     1   118.5150508 540.957728
   5845   5844   5893     1   118.8300510 581.576000
   5846   5847   5849     1   111.5100476 526.347200
   5846   5847   5867     1   110.1900474 564.840000
   5846   5857   5862     1   110.1900474 564.840000
   5846   5864   5851     1   112.4800480 524.673600
   5847   5849   5850     1   111.5100476 526.347200
   5847   5849   5856     1   110.1900474 564.840000
   5847   5846   5857     1   111.5100476 526.347200
   5847   5846   5864     1   107.9700462 569.024000
   5849   5850   5851     1   111.5100476 526.347200
   5849   5850   5869     1   111.0400475 552.288000
   5849   5847   5867     1   110.1900474 564.840000
   5850   5851   5855     1   110.1900474 564.840000
   5850   5851   5864     1   107.9700462 569.024000
   5850   5849   5856     1   110.1900474 564.840000
   5851   5850   5869     1   111.0400475 552.288000
   5855   5851   5864     1   109.3800466 607.516800
   5857   5846   5864     1   107.9700462 569.024000
   5870   5871   5873     1   111.5100476 526.347200
   5870   5871   5891     1   110.1900474 564.840000
   5870   5881   5886     1   110.1900474 564.840000
   5870   5888   5875     1   112.4800480 524.673600
   5871   5873   5874     1   111.5100476 526.347200
   5871   5873   5880     1   110.1900474 564.840000
   5871   5870   5881     1   111.5100476 526.347200
   5871   5870   5888     1   107.9700462 569.024000
   5873   5874   5875     1   111.5100476 526.347200
   5873   5874   5893     1   111.0400475 552.288000
   5873   5871   5891     1   110.1900474 564.840000
   5874   5875   5879     1   110.1900474 564.840000
   5874   5875   5888     1   107.9700462 569.024000
   5874   5873   5880     1   110.1900474 564.840000
   5875   5874   5893     1   111.0400475 552.288000
   5879   5875   5888     1   109.3800466 607.516800
   5881   5870   5888     1   107.9700462 569.024000
   5895   5897   5899     1   111.6100477 551.451200
   5897   5899   5903     1   114.2100488 537.225600
   5899   5903   5904     1   109.6600471 523.836800
   5899   5903   5905     1   109.6600471 523.836800
   5903   5904   5915     1   114.2100488 537.225600
   5903   5905   5907     1   114.2100488 537.225600
   5904   5903   5905     1   109.6600471 523.836800
   5904   5915   5918     1   111.0400475 529.694400
   5905   5907   5911     1   111.0400475 529.694400
   5907   5911   5912     1   123.2000528 564.003200
   5907   5911   5943     1   112.2600482 538.062400
   5911   5943   5924     1   118.5150508 540.957728
   5912   5911   5943     1   118.8300510 581.576000
   5915   5918   5919     1   123.2000528 564.003200
   5915   5918   5967     1   112.2600482 538.062400
   5918   5967   5948     1   118.5150508 540.957728
   5919   5918   5967     1   118.8300510 581.576000
   5920   5921   5923     1   111.5100476 526.347200
   5920   5921   5941     1   110.1900474 564.840000
   5920   5931   5936     1   110.1900474 564.840000
   5920   5938   5925     1   112.4800480 524.673600
   5921   5920   5931     1   111.5100476 526.347200
   5921   5920   5938     1   107.9700462 569.024000
   5921   5923   5924     1   111.5100476 526.347200
   5921   5923   5930     1   110.1900474 564.840000
   5923   5921   5941     1   110.1900474 564.840000
   5923   5924   5925     1   111.5100476 526.347200
   5923   5924   5943     1   111.0400475 552.288000
   5924   5923   5930     1   110.1900474 564.840000
   5924   5925   5929     1   110.1900474 564.840000
   5924   5925   5938     1   107.9700462 569.024000
   5925   5924   5943     1   111.0400475 552.288000
   5929   5925   5938     1   109.3800466 607.516800
   5931   5920   5938     1   107.9700462 569.024000
   5944   5945   5947     1   111.5100476 526.347200
   5944   5945   5965     1   110.1900474 564.840000
   5944   5955   5960     1   110.1900474 564.840000
   5944   5962   5949     1   112.4800480 524.673600
   5945   5944   5955     1   111.5100476 526.347200
   5945   5944   5962     1   107.9700462 569.024000
   5945   5947   5948     1   111.5100476 526.347200
   5945   5947   5954     1   110.1900474 564.840000
   5947   5945   5965     1   110.1900474 564.840000
   5947   5948   5949     1   111.5100476 526.347200
   5947   5948   5967     1   111.0400475 552.288000
   5948   5947   5954     1   110.1900474 564.840000
   5948   5949   5953     1   110.1900474 564.840000
   5948   5949   5962     1   107.9700462 569.024000
   5949   5948   5967     1   111.0400475 552.288000
   5953   5949   5962     1   109.3800466 607.516800
   5955   5944   5962     1   107.9700462 569.024000
   5969   5971   5973     1   111.6100477 551.451200
   5971   5973   5977     1   114.2100488 537.225600
   5973   5977   5978     1   109.6600471 523.836800
   5973   5977   5979     1   109.6600471 523.836800
   5977   5978   5989     1   114.2100488 537.225600
   5977   5979   5981     1   114.2100488 537.225600
   5978   5989   5992     1   111.0400475 529.694400
   5978   5977   5979     1   109.6600471 523.836800
   5979   5981   5985     1   111.0400475 529.694400
   5981   5985   5986     1   123.2000528 564.003200
   5981   5985   6017     1   112.2600482 538.062400
   5985   6017   5998     1   118.5150508 540.957728
   5986   5985   6017     1   118.8300510 581.576000
   5989   5992   5993     1   123.2000528 564.003200
   5989   5992   6041     1   112.2600482 538.062400
   5992   6041   6022     1   118.5150508 540.957728
   5993   5992   6041     1   118.8300510 581.576000
   5994   5995   5997     1   111.5100476 526.347200
   5994   5995   6015     1   110.1900474 564.840000
   5994   6005   6010     1   110.1900474 564.840000
   5994   6012   5999     1   112.4800480 524.673600
   5995   5997   5998     1   111.5100476 526.347200
   5995   5997   6004     1   110.1900474 564.840000
   5995   5994   6005     1   111.5100476 526.347200
   5995   5994   6012     1   107.9700462 569.024000
   5997   5998   5999     1   111.5100476 526.347200
   5997   5998   6017     1   111.0400475 552.288000
   5997   5995   6015     1   110.1900474 564.840000
   5998   5999   6003     1   110.1900474 564.840000
   5998   5999   6012     1   107.9700462 569.024000
   5998   5997   6004     1   110.1900474 564.840000
   5999   5998   6017     1   111.0400475 552.288000
   6003   5999   6012     1   109.3800466 607.516800
   6005   5994   6012     1   107.9700462 569.024000
   6018   6019   6021     1   111.5100476 526.347200
   6018   6019   6039     1   110.1900474 564.840000
   6018   6029   6034     1   110.1900474 564.840000
   6018   6036   6023     1   112.4800480 524.673600
   6019   6021   6022     1   111.5100476 526.347200
   6019   6021   6028     1   110.1900474 564.840000
   6019   6018   6029     1   111.5100476 526.347200
   6019   6018   6036     1   107.9700462 569.024000
   6021   6022   6023     1   111.5100476 526.347200
   6021   6022   6041     1   111.0400475 552.288000
   6021   6019   6039     1   110.1900474 564.840000
   6022   6023   6027     1   110.1900474 564.840000
   6022   6023   6036     1   107.9700462 569.024000
   6022   6021   6028     1   110.1900474 564.840000
   6023   6022   6041     1   111.0400475 552.288000
   6027   6023   6036     1   109.3800466 607.516800
   6029   6018   6036     1   107.9700462 569.024000
   6043   6045   6047     1   111.6100477 551.451200
   6045   6047   6051     1   114.2100488 537.225600
   6047   6051   6052     1   109.6600471 523.836800
   6047   6051   6053     1   109.6600471 523.836800
   6051   6052   6063     1   114.2100488 537.225600
   6051   6053   6055     1   114.2100488 537.225600
   6052   6051   6053     1   109.6600471 523.836800
   6052   6063   6066     1   111.0400475 529.694400
   6053   6055   6059     1   111.0400475 529.694400
   6055   6059   6060     1   123.2000528 564.003200
   6055   6059   6091     1   112.2600482 538.062400
   6059   6091   6072     1   118.5150508 540.957728
   6060   6059   6091     1   118.8300510 581.576000
   6063   6066   6067     1   123.2000528 564.003200
   6063   6066   6115     1   112.2600482 538.062400
   6066   6115   6096     1   118.5150508 540.957728
   6067   6066   6115     1   118.8300510 581.576000
   6068   6069   6071     1   111.5100476 526.347200
   6068   6069   6089     1   110.1900474 564.840000
   6068   6079   6084     1   110.1900474 564.840000
   6068   6086   6073     1   112.4800480 524.673600
   6069   6068   6079     1   111.5100476 526.347200
   6069   6068   6086     1   107.9700462 569.024000
   6069   6071   6072     1   111.5100476 526.347200
   6069   6071   6078     1   110.1900474 564.840000
   6071   6069   6089     1   110.1900474 564.840000
   6071   6072   6073     1   111.5100476 526.347200
   6071   6072   6091     1   111.0400475 552.288000
   6072   6071   6078     1   110.1900474 564.840000
   6072   6073   6077     1   110.1900474 564.840000
   6072   6073   6086     1   107.9700462 569.024000
   6073   6072   6091     1   111.0400475 552.288000
   6077   6073   6086     1   109.3800466 607.516800
   6079   6068   6086     1   107.9700462 569.024000
   6092   6093   6095     1   111.5100476 526.347200
   6092   6093   6113     1   110.1900474 564.840000
   6092   6103   6108     1   110.1900474 564.840000
   6092   6110   6097     1   112.4800480 524.673600
   6093   6092   6103     1   111.5100476 526.347200
   6093   6092   6110     1   107.9700462 569.024000
   6093   6095   6096     1   111.5100476 526.347200
   6093   6095   6102     1   110.1900474 564.840000
   6095   6093   6113     1   110.1900474 564.840000
   6095   6096   6097     1   111.5100476 526.347200
   6095   6096   6115     1   111.0400475 552.288000
   6096   6095   6102     1   110.1900474 564.840000
   6096   6097   6101     1   110.1900474 564.840000
   6096   6097   6110     1   107.9700462 569.024000
   6097   6096   6115     1   111.0400475 552.288000
   6101   6097   6110     1   109.3800466 607.516800
   6103   6092   6110     1   107.9700462 569.024000
   6117   6119   6121     1   111.6100477 551.451200
   6119   6121   6125     1   114.2100488 537.225600
   6121   6125   6126     1   109.6600471 523.836800
   6121   6125   6127     1   109.6600471 523.836800
   6125   6126   6137     1   114.2100488 537.225600
   6125   6127   6129     1   114.2100488 537.225600
   6126   6137   6140     1   111.0400475 529.694400
   6126   6125   6127     1   109.6600471 523.836800
   6127   6129   6133     1   111.0400475 529.694400
   6129   6133   6134     1   123.2000528 564.003200
   6129   6133   6165     1   112.2600482 538.062400
   6133   6165   6146     1   118.5150508 540.957728
   6134   6133   6165     1   118.8300510 581.576000
   6137   6140   6141     1   123.2000528 564.003200
   6137   6140   6189     1   112.2600482 538.062400
   6140   6189   6170     1   118.5150508 540.957728
   6141   6140   6189     1   118.8300510 581.576000
   6142   6143   6145     1   111.5100476 526.347200
   6142   6143   6163     1   110.1900474 564.840000
   6142   6153   6158     1   110.1900474 564.840000
   6142   6160   6147     1   112.4800480 524.673600
   6143   6145   6146     1   111.5100476 526.347200
   6143   6145   6152     1   110.1900474 564.840000
   6143   6142   6153     1   111.5100476 526.347200
   6143   6142   6160     1   107.9700462 569.024000
   6145   6146   6147     1   111.5100476 526.347200
   6145   6146   6165     1   111.0400475 552.288000
   6145   6143   6163     1   110.1900474 564.840000
   6146   6147   6151     1   110.1900474 564.840000
   6146   6147   6160     1   107.9700462 569.024000
   6146   6145   6152     1   110.1900474 564.840000
   6147   6146   6165     1   111.0400475 552.288000
   6151   6147   6160     1   109.3800466 607.516800
   6153   6142   6160     1   107.9700462 569.024000
   6166   6167   6169     1   111.5100476 526.347200
   6166   6167   6187     1   110.1900474 564.840000
   6166   6177   6182     1   110.1900474 564.840000
   6166   6184   6171     1   112.4800480 524.673600
   6167   6169   6170     1   111.5100476 526.347200
   6167   6169   6176     1   110.1900474 564.840000
   6167   6166   6177     1   111.5100476 526.347200
   6167   6166   6184     1   107.9700462 569.024000
   6169   6170   6171     1   111.5100476 526.347200
   6169   6170   6189     1   111.0400475 552.288000
   6169   6167   6187     1   110.1900474 564.840000
   6170   6171   6175     1   110.1900474 564.840000
   6170   6171   6184     1   107.9700462 569.024000
   6170   6169   6176     1   110.1900474 564.840000
   6171   6170   6189     1   111.0400475 552.288000
   6175   6171   6184     1   109.3800466 607.516800
   6177   6166   6184     1   107.9700462 569.024000
   6191   6193   6195     1   111.6100477 551.451200
   6193   6195   6199     1   114.2100488 537.225600
   6195   6199   6200     1   109.6600471 523.836800
   6195   6199   6201     1   109.6600471 523.836800
   6199   6200   6211     1   114.2100488 537.225600
   6199   6201   6203     1   114.2100488 537.225600
   6200   6199   6201     1   109.6600471 523.836800
   6200   6211   6214     1   111.0400475 529.694400
   6201   6203   6207     1   111.0400475 529.694400
   6203   6207   6208     1   123.2000528 564.003200
   6203   6207   6239     1   112.2600482 538.062400
   6207   6239   6220     1   118.5150508 540.957728
   6208   6207   6239     1   118.8300510 581.576000
   6211   6214   6215     1   123.2000528 564.003200
   6211   6214   6263     1   112.2600482 538.062400
   6214   6263   6244     1   118.5150508 540.957728
   6215   6214   6263     1   118.8300510 581.576000
   6216   6217   6219     1   111.5100476 526.347200
   6216   6217   6237     1   110.1900474 564.840000
   6216   6227   6232     1   110.1900474 564.840000
   6216   6234   6221     1   112.4800480 524.673600
   6217   6216   6227     1   111.5100476 526.347200
   6217   6216   6234     1   107.9700462 569.024000
   6217   6219   6220     1   111.5100476 526.347200
   6217   6219   6226     1   110.1900474 564.840000
   6219   6217   6237     1   110.1900474 564.840000
   6219   6220   6221     1   111.5100476 526.347200
   6219   6220   6239     1   111.0400475 552.288000
   6220   6219   6226     1   110.1900474 564.840000
   6220   6221   6225     1   110.1900474 564.840000
   6220   6221   6234     1   107.9700462 569.024000
   6221   6220   6239     1   111.0400475 552.288000
   6225   6221   6234     1   109.3800466 607.516800
   6227   6216   6234     1   107.9700462 569.024000
   6240   6241   6243     1   111.5100476 526.347200
   6240   6241   6261     1   110.1900474 564.840000
   6240   6251   6256     1   110.1900474 564.840000
   6240   6258   6245     1   112.4800480 524.673600
   6241   6240   6251     1   111.5100476 526.347200
   6241   6240   6258     1   107.9700462 569.024000
   6241   6243   6244     1   111.5100476 526.347200
   6241   6243   6250     1   110.1900474 564.840000
   6243   6241   6261     1   110.1900474 564.840000
   6243   6244   6245     1   111.5100476 526.347200
   6243   6244   6263     1   111.0400475 552.288000
   6244   6243   6250     1   110.1900474 564.840000
   6244   6245   6249     1   110.1900474 564.840000
   6244   6245   6258     1   107.9700462 569.024000
   6245   6244   6263     1   111.0400475 552.288000
   6249   6245   6258     1   109.3800466 607.516800
   6251   6240   6258     1   107.9700462 569.024000
   6265   6267   6269     1   111.6100477 551.451200
   6267   6269   6273     1   114.2100488 537.225600
   6269   6273   6274     1   109.6600471 523.836800
   6269   6273   6275     1   109.6600471 523.836800
   6273   6274   6285     1   114.2100488 537.225600
   6273   6275   6277     1   114.2100488 537.225600
   6274   6285   6288     1   111.0400475 529.694400
   6274   6273   6275     1   109.6600471 523.836800
   6275   6277   6281     1   111.0400475 529.694400
   6277   6281   6282     1   123.2000528 564.003200
   6277   6281   6313     1   112.2600482 538.062400
   6281   6313   6294     1   118.5150508 540.957728
   6282   6281   6313     1   118.8300510 581.576000
   6285   6288   6289     1   123.2000528 564.003200
   6285   6288   6337     1   112.2600482 538.062400
   6288   6337   6318     1   118.5150508 540.957728
   6289   6288   6337     1   118.8300510 581.576000
   6290   6291   6293     1   111.5100476 526.347200
   6290   6291   6311     1   110.1900474 564.840000
   6290   6301   6306     1   110.1900474 564.840000
   6290   6308   6295     1   112.4800480 524.673600
   6291   6293   6294     1   111.5100476 526.347200
   6291   6293   6300     1   110.1900474 564.840000
   6291   6290   6301     1   111.5100476 526.347200
   6291   6290   6308     1   107.9700462 569.024000
   6293   6294   6295     1   111.5100476 526.347200
   6293   6294   6313     1   111.0400475 552.288000
   6293   6291   6311     1   110.1900474 564.840000
   6294   6295   6299     1   110.1900474 564.840000
   6294   6295   6308     1   107.9700462 569.024000
   6294   6293   6300     1   110.1900474 564.840000
   6295   6294   6313     1   111.0400475 552.288000
   6299   6295   6308     1   109.3800466 607.516800
   6301   6290   6308     1   107.9700462 569.024000
   6314   6315   6317     1   111.5100476 526.347200
   6314   6315   6335     1   110.1900474 564.840000
   6314   6325   6330     1   110.1900474 564.840000
   6314   6332   6319     1   112.4800480 524.673600
   6315   6317   6318     1   111.5100476 526.347200
   6315   6317   6324     1   110.1900474 564.840000
   6315   6314   6325     1   111.5100476 526.347200
   6315   6314   6332     1   107.9700462 569.024000
   6317   6318   6319     1   111.5100476 526.347200
   6317   6318   6337     1   111.0400475 552.288000
   6317   6315   6335     1   110.1900474 564.840000
   6318   6319   6323     1   110.1900474 564.840000
   6318   6319   6332     1   107.9700462 569.024000
   6318   6317   6324     1   110.1900474 564.840000
   6319   6318   6337     1   111.0400475 552.288000
   6323   6319   6332     1   109.3800466 607.516800
   6325   6314   6332     1   107.9700462 569.024000
      1      2     21     1   108.0100461 406.684800
      1      2     22     1   108.0100461 406.684800
      1      7     29     1   108.0100461 406.684800
      1      7     30     1   108.0100461 406.684800
      1      8     31     1   108.0100461 406.684800
      1      8     32     1   108.0100461 406.684800
      2      1     41     1   110.1100470 384.091200
      2      3     23     1   110.5600475 386.601600
      2      3     24     1   110.5600475 386.601600
      3      2     21     1   110.5600475 386.601600
      3      2     22     1   110.5600475 386.601600
      3      4     42     1   110.1100470 384.091200
      4      3     23     1   108.0100461 406.684800
      4      3     24     1   108.0100461 406.684800
      4      5     25     1   108.0100461 406.684800
      4      5     26     1   108.0100461 406.684800
      4      6     27     1   108.0100461 406.684800
      4      6     28     1   108.0100461 406.684800
      5      4     42     1   110.1100470 384.091200
      5     11     35     1   109.8000471 387.438400
      5     11     36     1   109.8000471 387.438400
      6      4     42     1   110.1100470 384.091200
      6      9     33     1   109.8000471 387.438400
      6      9     34     1   109.8000471 387.438400
      7      1     41     1   110.1100470 384.091200
      7     13     37     1   109.8000471 387.438400
      7     13     38     1   109.8000471 387.438400
      8      1     41     1   110.1100470 384.091200
      8     15     39     1   109.8000471 387.438400
      8     15     40     1   109.8000471 387.438400
      9      6     27     1   110.5600475 386.601600
      9      6     28     1   110.5600475 386.601600
     10      9     33     1   108.7700466 392.459200
     10      9     34     1   108.7700466 392.459200
     10     52     67     1   117.5500507 404.174400
     11      5     25     1   110.5600475 386.601600
     11      5     26     1   110.5600475 386.601600
     12     11     35     1   108.7700466 392.459200
     12     11     36     1   108.7700466 392.459200
     12     78     93     1   117.5500507 404.174400
     13      7     29     1   110.5600475 386.601600
     13      7     30     1   110.5600475 386.601600
     14     13     37     1   108.7700466 392.459200
     14     13     38     1   108.7700466 392.459200
     14    104    119     1   117.5500507 404.174400
     15      8     31     1   110.5600475 386.601600
     15      8     32     1   110.5600475 386.601600
     16     15     39     1   108.7700466 392.459200
     16     15     40     1   108.7700466 392.459200
     16    130    145     1   117.5500507 404.174400
     21      2     22     1   109.7500473 328.025600
     23      3     24     1   109.7500473 328.025600
     25      5     26     1   109.7500473 328.025600
     27      6     28     1   109.7500473 328.025600
     29      7     30     1   109.7500473 328.025600
     31      8     32     1   109.7500473 328.025600
     33      9     34     1   107.5800459 329.699200
     35     11     36     1   107.5800459 329.699200
     37     13     38     1   107.5800459 329.699200
     39     15     40     1   107.5800459 329.699200
     43     44     55     1   108.0100461 406.684800
     43     44     56     1   108.0100461 406.684800
     43     45     57     1   108.0100461 406.684800
     43     45     58     1   108.0100461 406.684800
     43     50     63     1   108.0100461 406.684800
     43     50     64     1   108.0100461 406.684800
     44     43     68     1   110.1100470 384.091200
     44     46     59     1   109.8000471 387.438400
     44     46     60     1   109.8000471 387.438400
     45     43     68     1   110.1100470 384.091200
     45     48     61     1   109.8000471 387.438400
     45     48     62     1   109.8000471 387.438400
     46     44     55     1   110.5600475 386.601600
     46     44     56     1   110.5600475 386.601600
     47     46     59     1   108.7700466 392.459200
     47     46     60     1   108.7700466 392.459200
     47    156    171     1   117.5500507 404.174400
     48     45     57     1   110.5600475 386.601600
     48     45     58     1   110.5600475 386.601600
     49     48     61     1   108.7700466 392.459200
     49     48     62     1   108.7700466 392.459200
     49    182    197     1   117.5500507 404.174400
     50     43     68     1   110.1100470 384.091200
     50     51     65     1   109.5600471 388.275200
     50     51     66     1   109.5600471 388.275200
     51     50     63     1   110.5600475 386.601600
     51     50     64     1   110.5600475 386.601600
     51     52     67     1   117.6800502 383.254400
     52     51     65     1   108.8800464 416.726400
     52     51     66     1   108.8800464 416.726400
     55     44     56     1   109.7500473 328.025600
     57     45     58     1   109.7500473 328.025600
     59     46     60     1   107.5800459 329.699200
     61     48     62     1   107.5800459 329.699200
     63     50     64     1   109.7500473 328.025600
     65     51     66     1   108.4600466 328.025600
     69     70     81     1   108.0100461 406.684800
     69     70     82     1   108.0100461 406.684800
     69     71     83     1   108.0100461 406.684800
     69     71     84     1   108.0100461 406.684800
     69     76     89     1   108.0100461 406.684800
     69     76     90     1   108.0100461 406.684800
     70     69     94     1   110.1100470 384.091200
     70     72     85     1   109.8000471 387.438400
     70     72     86     1   109.8000471 387.438400
     71     69     94     1   110.1100470 384.091200
     71     74     87     1   109.8000471 387.438400
     71     74     88     1   109.8000471 387.438400
     72     70     81     1   110.5600475 386.601600
     72     70     82     1   110.5600475 386.601600
     73     72     85     1   108.7700466 392.459200
     73     72     86     1   108.7700466 392.459200
     73    208    223     1   117.5500507 404.174400
     74     71     83     1   110.5600475 386.601600
     74     71     84     1   110.5600475 386.601600
     75     74     87     1   108.7700466 392.459200
     75     74     88     1   108.7700466 392.459200
     75    234    249     1   117.5500507 404.174400
     76     69     94     1   110.1100470 384.091200
     76     77     91     1   109.5600471 388.275200
     76     77     92     1   109.5600471 388.275200
     77     76     89     1   110.5600475 386.601600
     77     76     90     1   110.5600475 386.601600
     77     78     93     1   117.6800502 383.254400
     78     77     91     1   108.8800464 416.726400
     78     77     92     1   108.8800464 416.726400
     81     70     82     1   109.7500473 328.025600
     83     71     84     1   109.7500473 328.025600
     85     72     86     1   107.5800459 329.699200
     87     74     88     1   107.5800459 329.699200
     89     76     90     1   109.7500473 328.025600
     91     77     92     1   108.4600466 328.025600
     95     96    107     1   108.0100461 406.684800
     95     96    108     1   108.0100461 406.684800
     95     97    109     1   108.0100461 406.684800
     95     97    110     1   108.0100461 406.684800
     95    102    115     1   108.0100461 406.684800
     95    102    116     1   108.0100461 406.684800
     96     95    120     1   110.1100470 384.091200
     96     98    111     1   109.8000471 387.438400
     96     98    112     1   109.8000471 387.438400
     97     95    120     1   110.1100470 384.091200
     97    100    113     1   109.8000471 387.438400
     97    100    114     1   109.8000471 387.438400
     98     96    107     1   110.5600475 386.601600
     98     96    108     1   110.5600475 386.601600
     99     98    111     1   108.7700466 392.459200
     99     98    112     1   108.7700466 392.459200
     99    260    275     1   117.5500507 404.174400
    100     97    109     1   110.5600475 386.601600
    100     97    110     1   110.5600475 386.601600
    101    100    113     1   108.7700466 392.459200
    101    100    114     1   108.7700466 392.459200
    101    286    301     1   117.5500507 404.174400
    102     95    120     1   110.1100470 384.091200
    102    103    117     1   109.5600471 388.275200
    102    103    118     1   109.5600471 388.275200
    103    102    115     1   110.5600475 386.601600
    103    102    116     1   110.5600475 386.601600
    103    104    119     1   117.6800502 383.254400
    104    103    117     1   108.8800464 416.726400
    104    103    118     1   108.8800464 416.726400
    107     96    108     1   109.7500473 328.025600
    109     97    110     1   109.7500473 328.025600
    111     98    112     1   107.5800459 329.699200
    113    100    114     1   107.5800459 329.699200
    115    102    116     1   109.7500473 328.025600
    117    103    118     1   108.4600466 328.025600
    121    122    133     1   108.0100461 406.684800
    121    122    134     1   108.0100461 406.684800
    121    123    135     1   108.0100461 406.684800
    121    123    136     1   108.0100461 406.684800
    121    128    141     1   108.0100461 406.684800
    121    128    142     1   108.0100461 406.684800
    122    121    146     1   110.1100470 384.091200
    122    124    137     1   109.8000471 387.438400
    122    124    138     1   109.8000471 387.438400
    123    121    146     1   110.1100470 384.091200
    123    126    139     1   109.8000471 387.438400
    123    126    140     1   109.8000471 387.438400
    124    122    133     1   110.5600475 386.601600
    124    122    134     1   110.5600475 386.601600
    125    124    137     1   108.7700466 392.459200
    125    124    138     1   108.7700466 392.459200
    125    312    327     1   117.5500507 404.174400
    126    123    135     1   110.5600475 386.601600
    126    123    136     1   110.5600475 386.601600
    127    126    139     1   108.7700466 392.459200
    127    126    140     1   108.7700466 392.459200
    127    338    353     1   117.5500507 404.174400
    128    121    146     1   110.1100470 384.091200
    128    129    143     1   109.5600471 388.275200
    128    129    144     1   109.5600471 388.275200
    129    128    141     1   110.5600475 386.601600
    129    128    142     1   110.5600475 386.601600
    129    130    145     1   117.6800502 383.254400
    130    129    143     1   108.8800464 416.726400
    130    129    144     1   108.8800464 416.726400
    133    122    134     1   109.7500473 328.025600
    135    123    136     1   109.7500473 328.025600
    137    124    138     1   107.5800459 329.699200
    139    126    140     1   107.5800459 329.699200
    141    128    142     1   109.7500473 328.025600
    143    129    144     1   108.4600466 328.025600
    147    148    159     1   108.0100461 406.684800
    147    148    160     1   108.0100461 406.684800
    147    149    161     1   108.0100461 406.684800
    147    149    162     1   108.0100461 406.684800
    147    154    167     1   108.0100461 406.684800
    147    154    168     1   108.0100461 406.684800
    148    147    172     1   110.1100470 384.091200
    148    150    163     1   109.8000471 387.438400
    148    150    164     1   109.8000471 387.438400
    149    147    172     1   110.1100470 384.091200
    149    152    165     1   109.8000471 387.438400
    149    152    166     1   109.8000471 387.438400
    150    148    159     1   110.5600475 386.601600
    150    148    160     1   110.5600475 386.601600
    151    150    163     1   108.7700466 392.459200
    151    150    164     1   108.7700466 392.459200
    151    364    379     1   117.5500507 404.174400
    152    149    161     1   110.5600475 386.601600
    152    149    162     1   110.5600475 386.601600
    153    152    165     1   108.7700466 392.459200
    153    152    166     1   108.7700466 392.459200
    153    390    405     1   117.5500507 404.174400
    154    147    172     1   110.1100470 384.091200
    154    155    169     1   109.5600471 388.275200
    154    155    170     1   109.5600471 388.275200
    155    154    167     1   110.5600475 386.601600
    155    154    168     1   110.5600475 386.601600
    155    156    171     1   117.6800502 383.254400
    156    155    169     1   108.8800464 416.726400
    156    155    170     1   108.8800464 416.726400
    159    148    160     1   109.7500473 328.025600
    161    149    162     1   109.7500473 328.025600
    163    150    164     1   107.5800459 329.699200
    165    152    166     1   107.5800459 329.699200
    167    154    168     1   109.7500473 328.025600
    169    155    170     1   108.4600466 328.025600
    173    174    185     1   108.0100461 406.684800
    173    174    186     1   108.0100461 406.684800
    173    175    187     1   108.0100461 406.684800
    173    175    188     1   108.0100461 406.684800
    173    180    193     1   108.0100461 406.684800
    173    180    194     1   108.0100461 406.684800
    174    173    198     1   110.1100470 384.091200
    174    176    189     1   109.8000471 387.438400
    174    176    190     1   109.8000471 387.438400
    175    173    198     1   110.1100470 384.091200
    175    178    191     1   109.8000471 387.438400
    175    178    192     1   109.8000471 387.438400
    176    174    185     1   110.5600475 386.601600
    176    174    186     1   110.5600475 386.601600
    177    176    189     1   108.7700466 392.459200
    177    176    190     1   108.7700466 392.459200
    177    416    431     1   117.5500507 404.174400
    178    175    187     1   110.5600475 386.601600
    178    175    188     1   110.5600475 386.601600
    179    178    191     1   108.7700466 392.459200
    179    178    192     1   108.7700466 392.459200
    179    442    457     1   117.5500507 404.174400
    180    173    198     1   110.1100470 384.091200
    180    181    195     1   109.5600471 388.275200
    180    181    196     1   109.5600471 388.275200
    181    180    193     1   110.5600475 386.601600
    181    180    194     1   110.5600475 386.601600
    181    182    197     1   117.6800502 383.254400
    182    181    195     1   108.8800464 416.726400
    182    181    196     1   108.8800464 416.726400
    185    174    186     1   109.7500473 328.025600
    187    175    188     1   109.7500473 328.025600
    189    176    190     1   107.5800459 329.699200
    191    178    192     1   107.5800459 329.699200
    193    180    194     1   109.7500473 328.025600
    195    181    196     1   108.4600466 328.025600
    199    200    211     1   108.0100461 406.684800
    199    200    212     1   108.0100461 406.684800
    199    201    213     1   108.0100461 406.684800
    199    201    214     1   108.0100461 406.684800
    199    206    219     1   108.0100461 406.684800
    199    206    220     1   108.0100461 406.684800
    200    199    224     1   110.1100470 384.091200
    200    202    215     1   109.8000471 387.438400
    200    202    216     1   109.8000471 387.438400
    201    199    224     1   110.1100470 384.091200
    201    204    217     1   109.8000471 387.438400
    201    204    218     1   109.8000471 387.438400
    202    200    211     1   110.5600475 386.601600
    202    200    212     1   110.5600475 386.601600
    203    202    215     1   108.7700466 392.459200
    203    202    216     1   108.7700466 392.459200
    203    468    483     1   117.5500507 404.174400
    204    201    213     1   110.5600475 386.601600
    204    201    214     1   110.5600475 386.601600
    205    204    217     1   108.7700466 392.459200
    205    204    218     1   108.7700466 392.459200
    205    494    509     1   117.5500507 404.174400
    206    199    224     1   110.1100470 384.091200
    206    207    221     1   109.5600471 388.275200
    206    207    222     1   109.5600471 388.275200
    207    206    219     1   110.5600475 386.601600
    207    206    220     1   110.5600475 386.601600
    207    208    223     1   117.6800502 383.254400
    208    207    221     1   108.8800464 416.726400
    208    207    222     1   108.8800464 416.726400
    211    200    212     1   109.7500473 328.025600
    213    201    214     1   109.7500473 328.025600
    215    202    216     1   107.5800459 329.699200
    217    204    218     1   107.5800459 329.699200
    219    206    220     1   109.7500473 328.025600
    221    207    222     1   108.4600466 328.025600
    225    226    237     1   108.0100461 406.684800
    225    226    238     1   108.0100461 406.684800
    225    227    239     1   108.0100461 406.684800
    225    227    240     1   108.0100461 406.684800
    225    232    245     1   108.0100461 406.684800
    225    232    246     1   108.0100461 406.684800
    226    225    250     1   110.1100470 384.091200
    226    228    241     1   109.8000471 387.438400
    226    228    242     1   109.8000471 387.438400
    227    225    250     1   110.1100470 384.091200
    227    230    243     1   109.8000471 387.438400
    227    230    244     1   109.8000471 387.438400
    228    226    237     1   110.5600475 386.601600
    228    226    238     1   110.5600475 386.601600
    229    228    241     1   108.7700466 392.459200
    229    228    242     1   108.7700466 392.459200
    229    520    535     1   117.5500507 404.174400
    230    227    239     1   110.5600475 386.601600
    230    227    240     1   110.5600475 386.601600
    231    230    243     1   108.7700466 392.459200
    231    230    244     1   108.7700466 392.459200
    231    546    561     1   117.5500507 404.174400
    232    225    250     1   110.1100470 384.091200
    232    233    247     1   109.5600471 388.275200
    232    233    248     1   109.5600471 388.275200
    233    232    245     1   110.5600475 386.601600
    233    232    246     1   110.5600475 386.601600
    233    234    249     1   117.6800502 383.254400
    234    233    247     1   108.8800464 416.726400
    234    233    248     1   108.8800464 416.726400
    237    226    238     1   109.7500473 328.025600
    239    227    240     1   109.7500473 328.025600
    241    228    242     1   107.5800459 329.699200
    243    230    244     1   107.5800459 329.699200
    245    232    246     1   109.7500473 328.025600
    247    233    248     1   108.4600466 328.025600
    251    252    263     1   108.0100461 406.684800
    251    252    264     1   108.0100461 406.684800
    251    253    265     1   108.0100461 406.684800
    251    253    266     1   108.0100461 406.684800
    251    258    271     1   108.0100461 406.684800
    251    258    272     1   108.0100461 406.684800
    252    251    276     1   110.1100470 384.091200
    252    254    267     1   109.8000471 387.438400
    252    254    268     1   109.8000471 387.438400
    253    251    276     1   110.1100470 384.091200
    253    256    269     1   109.8000471 387.438400
    253    256    270     1   109.8000471 387.438400
    254    252    263     1   110.5600475 386.601600
    254    252    264     1   110.5600475 386.601600
    255    254    267     1   108.7700466 392.459200
    255    254    268     1   108.7700466 392.459200
    255    572    587     1   117.5500507 404.174400
    256    253    265     1   110.5600475 386.601600
    256    253    266     1   110.5600475 386.601600
    257    256    269     1   108.7700466 392.459200
    257    256    270     1   108.7700466 392.459200
    257    598    613     1   117.5500507 404.174400
    258    251    276     1   110.1100470 384.091200
    258    259    273     1   109.5600471 388.275200
    258    259    274     1   109.5600471 388.275200
    259    258    271     1   110.5600475 386.601600
    259    258    272     1   110.5600475 386.601600
    259    260    275     1   117.6800502 383.254400
    260    259    273     1   108.8800464 416.726400
    260    259    274     1   108.8800464 416.726400
    263    252    264     1   109.7500473 328.025600
    265    253    266     1   109.7500473 328.025600
    267    254    268     1   107.5800459 329.699200
    269    256    270     1   107.5800459 329.699200
    271    258    272     1   109.7500473 328.025600
    273    259    274     1   108.4600466 328.025600
    277    278    289     1   108.0100461 406.684800
    277    278    290     1   108.0100461 406.684800
    277    279    291     1   108.0100461 406.684800
    277    279    292     1   108.0100461 406.684800
    277    284    297     1   108.0100461 406.684800
    277    284    298     1   108.0100461 406.684800
    278    277    302     1   110.1100470 384.091200
    278    280    293     1   109.8000471 387.438400
    278    280    294     1   109.8000471 387.438400
    279    277    302     1   110.1100470 384.091200
    279    282    295     1   109.8000471 387.438400
    279    282    296     1   109.8000471 387.438400
    280    278    289     1   110.5600475 386.601600
    280    278    290     1   110.5600475 386.601600
    281    280    293     1   108.7700466 392.459200
    281    280    294     1   108.7700466 392.459200
    281    624    639     1   117.5500507 404.174400
    282    279    291     1   110.5600475 386.601600
    282    279    292     1   110.5600475 386.601600
    283    282    295     1   108.7700466 392.459200
    283    282    296     1   108.7700466 392.459200
    283    650    665     1   117.5500507 404.174400
    284    277    302     1   110.1100470 384.091200
    284    285    299     1   109.5600471 388.275200
    284    285    300     1   109.5600471 388.275200
    285    284    297     1   110.5600475 386.601600
    285    284    298     1   110.5600475 386.601600
    285    286    301     1   117.6800502 383.254400
    286    285    299     1   108.8800464 416.726400
    286    285    300     1   108.8800464 416.726400
    289    278    290     1   109.7500473 328.025600
    291    279    292     1   109.7500473 328.025600
    293    280    294     1   107.5800459 329.699200
    295    282    296     1   107.5800459 329.699200
    297    284    298     1   109.7500473 328.025600
    299    285    300     1   108.4600466 328.025600
    303    304    315     1   108.0100461 406.684800
    303    304    316     1   108.0100461 406.684800
    303    305    317     1   108.0100461 406.684800
    303    305    318     1   108.0100461 406.684800
    303    310    323     1   108.0100461 406.684800
    303    310    324     1   108.0100461 406.684800
    304    303    328     1   110.1100470 384.091200
    304    306    319     1   109.8000471 387.438400
    304    306    320     1   109.8000471 387.438400
    305    303    328     1   110.1100470 384.091200
    305    308    321     1   109.8000471 387.438400
    305    308    322     1   109.8000471 387.438400
    306    304    315     1   110.5600475 386.601600
    306    304    316     1   110.5600475 386.601600
    307    306    319     1   108.7700466 392.459200
    307    306    320     1   108.7700466 392.459200
    307    676    691     1   117.5500507 404.174400
    308    305    317     1   110.5600475 386.601600
    308    305    318     1   110.5600475 386.601600
    309    308    321     1   108.7700466 392.459200
    309    308    322     1   108.7700466 392.459200
    309    702    717     1   117.5500507 404.174400
    310    303    328     1   110.1100470 384.091200
    310    311    325     1   109.5600471 388.275200
    310    311    326     1   109.5600471 388.275200
    311    310    323     1   110.5600475 386.601600
    311    310    324     1   110.5600475 386.601600
    311    312    327     1   117.6800502 383.254400
    312    311    325     1   108.8800464 416.726400
    312    311    326     1   108.8800464 416.726400
    315    304    316     1   109.7500473 328.025600
    317    305    318     1   109.7500473 328.025600
    319    306    320     1   107.5800459 329.699200
    321    308    322     1   107.5800459 329.699200
    323    310    324     1   109.7500473 328.025600
    325    311    326     1   108.4600466 328.025600
    329    330    341     1   108.0100461 406.684800
    329    330    342     1   108.0100461 406.684800
    329    331    343     1   108.0100461 406.684800
    329    331    344     1   108.0100461 406.684800
    329    336    349     1   108.0100461 406.684800
    329    336    350     1   108.0100461 406.684800
    330    329    354     1   110.1100470 384.091200
    330    332    345     1   109.8000471 387.438400
    330    332    346     1   109.8000471 387.438400
    331    329    354     1   110.1100470 384.091200
    331    334    347     1   109.8000471 387.438400
    331    334    348     1   109.8000471 387.438400
    332    330    341     1   110.5600475 386.601600
    332    330    342     1   110.5600475 386.601600
    333    332    345     1   108.7700466 392.459200
    333    332    346     1   108.7700466 392.459200
    333    728    743     1   117.5500507 404.174400
    334    331    343     1   110.5600475 386.601600
    334    331    344     1   110.5600475 386.601600
    335    334    347     1   108.7700466 392.459200
    335    334    348     1   108.7700466 392.459200
    335    754    769     1   117.5500507 404.174400
    336    329    354     1   110.1100470 384.091200
    336    337    351     1   109.5600471 388.275200
    336    337    352     1   109.5600471 388.275200
    337    336    349     1   110.5600475 386.601600
    337    336    350     1   110.5600475 386.601600
    337    338    353     1   117.6800502 383.254400
    338    337    351     1   108.8800464 416.726400
    338    337    352     1   108.8800464 416.726400
    341    330    342     1   109.7500473 328.025600
    343    331    344     1   109.7500473 328.025600
    345    332    346     1   107.5800459 329.699200
    347    334    348     1   107.5800459 329.699200
    349    336    350     1   109.7500473 328.025600
    351    337    352     1   108.4600466 328.025600
    355    356    367     1   108.0100461 406.684800
    355    356    368     1   108.0100461 406.684800
    355    357    369     1   108.0100461 406.684800
    355    357    370     1   108.0100461 406.684800
    355    362    375     1   108.0100461 406.684800
    355    362    376     1   108.0100461 406.684800
    356    355    380     1   110.1100470 384.091200
    356    358    371     1   109.8000471 387.438400
    356    358    372     1   109.8000471 387.438400
    357    355    380     1   110.1100470 384.091200
    357    360    373     1   109.8000471 387.438400
    357    360    374     1   109.8000471 387.438400
    358    356    367     1   110.5600475 386.601600
    358    356    368     1   110.5600475 386.601600
    359    358    371     1   108.7700466 392.459200
    359    358    372     1   108.7700466 392.459200
    359    780    795     1   117.5500507 404.174400
    360    357    369     1   110.5600475 386.601600
    360    357    370     1   110.5600475 386.601600
    361    360    373     1   108.7700466 392.459200
    361    360    374     1   108.7700466 392.459200
    361    806    821     1   117.5500507 404.174400
    362    355    380     1   110.1100470 384.091200
    362    363    377     1   109.5600471 388.275200
    362    363    378     1   109.5600471 388.275200
    363    362    375     1   110.5600475 386.601600
    363    362    376     1   110.5600475 386.601600
    363    364    379     1   117.6800502 383.254400
    364    363    377     1   108.8800464 416.726400
    364    363    378     1   108.8800464 416.726400
    367    356    368     1   109.7500473 328.025600
    369    357    370     1   109.7500473 328.025600
    371    358    372     1   107.5800459 329.699200
    373    360    374     1   107.5800459 329.699200
    375    362    376     1   109.7500473 328.025600
    377    363    378     1   108.4600466 328.025600
    381    382    393     1   108.0100461 406.684800
    381    382    394     1   108.0100461 406.684800
    381    383    395     1   108.0100461 406.684800
    381    383    396     1   108.0100461 406.684800
    381    388    401     1   108.0100461 406.684800
    381    388    402     1   108.0100461 406.684800
    382    381    406     1   110.1100470 384.091200
    382    384    397     1   109.8000471 387.438400
    382    384    398     1   109.8000471 387.438400
    383    381    406     1   110.1100470 384.091200
    383    386    399     1   109.8000471 387.438400
    383    386    400     1   109.8000471 387.438400
    384    382    393     1   110.5600475 386.601600
    384    382    394     1   110.5600475 386.601600
    385    384    397     1   108.7700466 392.459200
    385    384    398     1   108.7700466 392.459200
    385    832    847     1   117.5500507 404.174400
    386    383    395     1   110.5600475 386.601600
    386    383    396     1   110.5600475 386.601600
    387    386    399     1   108.7700466 392.459200
    387    386    400     1   108.7700466 392.459200
    387    858    873     1   117.5500507 404.174400
    388    381    406     1   110.1100470 384.091200
    388    389    403     1   109.5600471 388.275200
    388    389    404     1   109.5600471 388.275200
    389    388    401     1   110.5600475 386.601600
    389    388    402     1   110.5600475 386.601600
    389    390    405     1   117.6800502 383.254400
    390    389    403     1   108.8800464 416.726400
    390    389    404     1   108.8800464 416.726400
    393    382    394     1   109.7500473 328.025600
    395    383    396     1   109.7500473 328.025600
    397    384    398     1   107.5800459 329.699200
    399    386    400     1   107.5800459 329.699200
    401    388    402     1   109.7500473 328.025600
    403    389    404     1   108.4600466 328.025600
    407    408    419     1   108.0100461 406.684800
    407    408    420     1   108.0100461 406.684800
    407    409    421     1   108.0100461 406.684800
    407    409    422     1   108.0100461 406.684800
    407    414    427     1   108.0100461 406.684800
    407    414    428     1   108.0100461 406.684800
    408    407    432     1   110.1100470 384.091200
    408    410    423     1   109.8000471 387.438400
    408    410    424     1   109.8000471 387.438400
    409    407    432     1   110.1100470 384.091200
    409    412    425     1   109.8000471 387.438400
    409    412    426     1   109.8000471 387.438400
    410    408    419     1   110.5600475 386.601600
    410    408    420     1   110.5600475 386.601600
    411    410    423     1   108.7700466 392.459200
    411    410    424     1   108.7700466 392.459200
    411    884    899     1   117.5500507 404.174400
    412    409    421     1   110.5600475 386.601600
    412    409    422     1   110.5600475 386.601600
    413    412    425     1   108.7700466 392.459200
    413    412    426     1   108.7700466 392.459200
    413    910    925     1   117.5500507 404.174400
    414    407    432     1   110.1100470 384.091200
    414    415    429     1   109.5600471 388.275200
    414    415    430     1   109.5600471 388.275200
    415    414    427     1   110.5600475 386.601600
    415    414    428     1   110.5600475 386.601600
    415    416    431     1   117.6800502 383.254400
    416    415    429     1   108.8800464 416.726400
    416    415    430     1   108.8800464 416.726400
    419    408    420     1   109.7500473 328.025600
    421    409    422     1   109.7500473 328.025600
    423    410    424     1   107.5800459 329.699200
    425    412    426     1   107.5800459 329.699200
    427    414    428     1   109.7500473 328.025600
    429    415    430     1   108.4600466 328.025600
    433    434    445     1   108.0100461 406.684800
    433    434    446     1   108.0100461 406.684800
    433    435    447     1   108.0100461 406.684800
    433    435    448     1   108.0100461 406.684800
    433    440    453     1   108.0100461 406.684800
    433    440    454     1   108.0100461 406.684800
    434    433    458     1   110.1100470 384.091200
    434    436    449     1   109.8000471 387.438400
    434    436    450     1   109.8000471 387.438400
    435    433    458     1   110.1100470 384.091200
    435    438    451     1   109.8000471 387.438400
    435    438    452     1   109.8000471 387.438400
    436    434    445     1   110.5600475 386.601600
    436    434    446     1   110.5600475 386.601600
    437    436    449     1   108.7700466 392.459200
    437    436    450     1   108.7700466 392.459200
    437    936    951     1   117.5500507 404.174400
    438    435    447     1   110.5600475 386.601600
    438    435    448     1   110.5600475 386.601600
    439    438    451     1   108.7700466 392.459200
    439    438    452     1   108.7700466 392.459200
    439    962    977     1   117.5500507 404.174400
    440    433    458     1   110.1100470 384.091200
    440    441    455     1   109.5600471 388.275200
    440    441    456     1   109.5600471 388.275200
    441    440    453     1   110.5600475 386.601600
    441    440    454     1   110.5600475 386.601600
    441    442    457     1   117.6800502 383.254400
    442    441    455     1   108.8800464 416.726400
    442    441    456     1   108.8800464 416.726400
    445    434    446     1   109.7500473 328.025600
    447    435    448     1   109.7500473 328.025600
    449    436    450     1   107.5800459 329.699200
    451    438    452     1   107.5800459 329.699200
    453    440    454     1   109.7500473 328.025600
    455    441    456     1   108.4600466 328.025600
    459    460    471     1   108.0100461 406.684800
    459    460    472     1   108.0100461 406.684800
    459    461    473     1   108.0100461 406.684800
    459    461    474     1   108.0100461 406.684800
    459    466    479     1   108.0100461 406.684800
    459    466    480     1   108.0100461 406.684800
    460    459    484     1   110.1100470 384.091200
    460    462    475     1   109.8000471 387.438400
    460    462    476     1   109.8000471 387.438400
    461    459    484     1   110.1100470 384.091200
    461    464    477     1   109.8000471 387.438400
    461    464    478     1   109.8000471 387.438400
    462    460    471     1   110.5600475 386.601600
    462    460    472     1   110.5600475 386.601600
    463    462    475     1   108.7700466 392.459200
    463    462    476     1   108.7700466 392.459200
    463    988   1003     1   117.5500507 404.174400
    464    461    473     1   110.5600475 386.601600
    464    461    474     1   110.5600475 386.601600
    465    464    477     1   108.7700466 392.459200
    465    464    478     1   108.7700466 392.459200
    465   1014   1029     1   117.5500507 404.174400
    466    459    484     1   110.1100470 384.091200
    466    467    481     1   109.5600471 388.275200
    466    467    482     1   109.5600471 388.275200
    467    466    479     1   110.5600475 386.601600
    467    466    480     1   110.5600475 386.601600
    467    468    483     1   117.6800502 383.254400
    468    467    481     1   108.8800464 416.726400
    468    467    482     1   108.8800464 416.726400
    471    460    472     1   109.7500473 328.025600
    473    461    474     1   109.7500473 328.025600
    475    462    476     1   107.5800459 329.699200
    477    464    478     1   107.5800459 329.699200
    479    466    480     1   109.7500473 328.025600
    481    467    482     1   108.4600466 328.025600
    485    486    497     1   108.0100461 406.684800
    485    486    498     1   108.0100461 406.684800
    485    487    499     1   108.0100461 406.684800
    485    487    500     1   108.0100461 406.684800
    485    492    505     1   108.0100461 406.684800
    485    492    506     1   108.0100461 406.684800
    486    485    510     1   110.1100470 384.091200
    486    488    501     1   109.8000471 387.438400
    486    488    502     1   109.8000471 387.438400
    487    485    510     1   110.1100470 384.091200
    487    490    503     1   109.8000471 387.438400
    487    490    504     1   109.8000471 387.438400
    488    486    497     1   110.5600475 386.601600
    488    486    498     1   110.5600475 386.601600
    489    488    501     1   108.7700466 392.459200
    489    488    502     1   108.7700466 392.459200
    489   1040   1055     1   117.5500507 404.174400
    490    487    499     1   110.5600475 386.601600
    490    487    500     1   110.5600475 386.601600
    491    490    503     1   108.7700466 392.459200
    491    490    504     1   108.7700466 392.459200
    491   1066   1081     1   117.5500507 404.174400
    492    485    510     1   110.1100470 384.091200
    492    493    507     1   109.5600471 388.275200
    492    493    508     1   109.5600471 388.275200
    493    492    505     1   110.5600475 386.601600
    493    492    506     1   110.5600475 386.601600
    493    494    509     1   117.6800502 383.254400
    494    493    507     1   108.8800464 416.726400
    494    493    508     1   108.8800464 416.726400
    497    486    498     1   109.7500473 328.025600
    499    487    500     1   109.7500473 328.025600
    501    488    502     1   107.5800459 329.699200
    503    490    504     1   107.5800459 329.699200
    505    492    506     1   109.7500473 328.025600
    507    493    508     1   108.4600466 328.025600
    511    512    523     1   108.0100461 406.684800
    511    512    524     1   108.0100461 406.684800
    511    513    525     1   108.0100461 406.684800
    511    513    526     1   108.0100461 406.684800
    511    518    531     1   108.0100461 406.684800
    511    518    532     1   108.0100461 406.684800
    512    511    536     1   110.1100470 384.091200
    512    514    527     1   109.8000471 387.438400
    512    514    528     1   109.8000471 387.438400
    513    511    536     1   110.1100470 384.091200
    513    516    529     1   109.8000471 387.438400
    513    516    530     1   109.8000471 387.438400
    514    512    523     1   110.5600475 386.601600
    514    512    524     1   110.5600475 386.601600
    515    514    527     1   108.7700466 392.459200
    515    514    528     1   108.7700466 392.459200
    515   1092   1107     1   117.5500507 404.174400
    516    513    525     1   110.5600475 386.601600
    516    513    526     1   110.5600475 386.601600
    517    516    529     1   108.7700466 392.459200
    517    516    530     1   108.7700466 392.459200
    517   1118   1133     1   117.5500507 404.174400
    518    511    536     1   110.1100470 384.091200
    518    519    533     1   109.5600471 388.275200
    518    519    534     1   109.5600471 388.275200
    519    518    531     1   110.5600475 386.601600
    519    518    532     1   110.5600475 386.601600
    519    520    535     1   117.6800502 383.254400
    520    519    533     1   108.8800464 416.726400
    520    519    534     1   108.8800464 416.726400
    523    512    524     1   109.7500473 328.025600
    525    513    526     1   109.7500473 328.025600
    527    514    528     1   107.5800459 329.699200
    529    516    530     1   107.5800459 329.699200
    531    518    532     1   109.7500473 328.025600
    533    519    534     1   108.4600466 328.025600
    537    538    549     1   108.0100461 406.684800
    537    538    550     1   108.0100461 406.684800
    537    539    551     1   108.0100461 406.684800
    537    539    552     1   108.0100461 406.684800
    537    544    557     1   108.0100461 406.684800
    537    544    558     1   108.0100461 406.684800
    538    537    562     1   110.1100470 384.091200
    538    540    553     1   109.8000471 387.438400
    538    540    554     1   109.8000471 387.438400
    539    537    562     1   110.1100470 384.091200
    539    542    555     1   109.8000471 387.438400
    539    542    556     1   109.8000471 387.438400
    540    538    549     1   110.5600475 386.601600
    540    538    550     1   110.5600475 386.601600
    541    540    553     1   108.7700466 392.459200
    541    540    554     1   108.7700466 392.459200
    541   1144   1159     1   117.5500507 404.174400
    542    539    551     1   110.5600475 386.601600
    542    539    552     1   110.5600475 386.601600
    543    542    555     1   108.7700466 392.459200
    543    542    556     1   108.7700466 392.459200
    543   1170   1185     1   117.5500507 404.174400
    544    537    562     1   110.1100470 384.091200
    544    545    559     1   109.5600471 388.275200
    544    545    560     1   109.5600471 388.275200
    545    544    557     1   110.5600475 386.601600
    545    544    558     1   110.5600475 386.601600
    545    546    561     1   117.6800502 383.254400
    546    545    559     1   108.8800464 416.726400
    546    545    560     1   108.8800464 416.726400
    549    538    550     1   109.7500473 328.025600
    551    539    552     1   109.7500473 328.025600
    553    540    554     1   107.5800459 329.699200
    555    542    556     1   107.5800459 329.699200
    557    544    558     1   109.7500473 328.025600
    559    545    560     1   108.4600466 328.025600
    563    564    575     1   108.0100461 406.684800
    563    564    576     1   108.0100461 406.684800
    563    565    577     1   108.0100461 406.684800
    563    565    578     1   108.0100461 406.684800
    563    570    583     1   108.0100461 406.684800
    563    570    584     1   108.0100461 406.684800
    564    563    588     1   110.1100470 384.091200
    564    566    579     1   109.8000471 387.438400
    564    566    580     1   109.8000471 387.438400
    565    563    588     1   110.1100470 384.091200
    565    568    581     1   109.8000471 387.438400
    565    568    582     1   109.8000471 387.438400
    566    564    575     1   110.5600475 386.601600
    566    564    576     1   110.5600475 386.601600
    567    566    579     1   108.7700466 392.459200
    567    566    580     1   108.7700466 392.459200
    567   1196   1211     1   117.5500507 404.174400
    568    565    577     1   110.5600475 386.601600
    568    565    578     1   110.5600475 386.601600
    569    568    581     1   108.7700466 392.459200
    569    568    582     1   108.7700466 392.459200
    569   1222   1237     1   117.5500507 404.174400
    570    563    588     1   110.1100470 384.091200
    570    571    585     1   109.5600471 388.275200
    570    571    586     1   109.5600471 388.275200
    571    570    583     1   110.5600475 386.601600
    571    570    584     1   110.5600475 386.601600
    571    572    587     1   117.6800502 383.254400
    572    571    585     1   108.8800464 416.726400
    572    571    586     1   108.8800464 416.726400
    575    564    576     1   109.7500473 328.025600
    577    565    578     1   109.7500473 328.025600
    579    566    580     1   107.5800459 329.699200
    581    568    582     1   107.5800459 329.699200
    583    570    584     1   109.7500473 328.025600
    585    571    586     1   108.4600466 328.025600
    589    590    601     1   108.0100461 406.684800
    589    590    602     1   108.0100461 406.684800
    589    591    603     1   108.0100461 406.684800
    589    591    604     1   108.0100461 406.684800
    589    596    609     1   108.0100461 406.684800
    589    596    610     1   108.0100461 406.684800
    590    589    614     1   110.1100470 384.091200
    590    592    605     1   109.8000471 387.438400
    590    592    606     1   109.8000471 387.438400
    591    589    614     1   110.1100470 384.091200
    591    594    607     1   109.8000471 387.438400
    591    594    608     1   109.8000471 387.438400
    592    590    601     1   110.5600475 386.601600
    592    590    602     1   110.5600475 386.601600
    593    592    605     1   108.7700466 392.459200
    593    592    606     1   108.7700466 392.459200
    593   1248   1263     1   117.5500507 404.174400
    594    591    603     1   110.5600475 386.601600
    594    591    604     1   110.5600475 386.601600
    595    594    607     1   108.7700466 392.459200
    595    594    608     1   108.7700466 392.459200
    595   1274   1289     1   117.5500507 404.174400
    596    589    614     1   110.1100470 384.091200
    596    597    611     1   109.5600471 388.275200
    596    597    612     1   109.5600471 388.275200
    597    596    609     1   110.5600475 386.601600
    597    596    610     1   110.5600475 386.601600
    597    598    613     1   117.6800502 383.254400
    598    597    611     1   108.8800464 416.726400
    598    597    612     1   108.8800464 416.726400
    601    590    602     1   109.7500473 328.025600
    603    591    604     1   109.7500473 328.025600
    605    592    606     1   107.5800459 329.699200
    607    594    608     1   107.5800459 329.699200
    609    596    610     1   109.7500473 328.025600
    611    597    612     1   108.4600466 328.025600
    615    616    627     1   108.0100461 406.684800
    615    616    628     1   108.0100461 406.684800
    615    617    629     1   108.0100461 406.684800
    615    617    630     1   108.0100461 406.684800
    615    622    635     1   108.0100461 406.684800
    615    622    636     1   108.0100461 406.684800
    616    615    640     1   110.1100470 384.091200
    616    618    631     1   109.8000471 387.438400
    616    618    632     1   109.8000471 387.438400
    617    615    640     1   110.1100470 384.091200
    617    620    633     1   109.8000471 387.438400
    617    620    634     1   109.8000471 387.438400
    618    616    627     1   110.5600475 386.601600
    618    616    628     1   110.5600475 386.601600
    619    618    631     1   108.7700466 392.459200
    619    618    632     1   108.7700466 392.459200
    619   1300   1315     1   117.5500507 404.174400
    620    617    629     1   110.5600475 386.601600
    620    617    630     1   110.5600475 386.601600
    621    620    633     1   108.7700466 392.459200
    621    620    634     1   108.7700466 392.459200
    621   1326   1341     1   117.5500507 404.174400
    622    615    640     1   110.1100470 384.091200
    622    623    637     1   109.5600471 388.275200
    622    623    638     1   109.5600471 388.275200
    623    622    635     1   110.5600475 386.601600
    623    622    636     1   110.5600475 386.601600
    623    624    639     1   117.6800502 383.254400
    624    623    637     1   108.8800464 416.726400
    624    623    638     1   108.8800464 416.726400
    627    616    628     1   109.7500473 328.025600
    629    617    630     1   109.7500473 328.025600
    631    618    632     1   107.5800459 329.699200
    633    620    634     1   107.5800459 329.699200
    635    622    636     1   109.7500473 328.025600
    637    623    638     1   108.4600466 328.025600
    641    642    653     1   108.0100461 406.684800
    641    642    654     1   108.0100461 406.684800
    641    643    655     1   108.0100461 406.684800
    641    643    656     1   108.0100461 406.684800
    641    648    661     1   108.0100461 406.684800
    641    648    662     1   108.0100461 406.684800
    642    641    666     1   110.1100470 384.091200
    642    644    657     1   109.8000471 387.438400
    642    644    658     1   109.8000471 387.438400
    643    641    666     1   110.1100470 384.091200
    643    646    659     1   109.8000471 387.438400
    643    646    660     1   109.8000471 387.438400
    644    642    653     1   110.5600475 386.601600
    644    642    654     1   110.5600475 386.601600
    645    644    657     1   108.7700466 392.459200
    645    644    658     1   108.7700466 392.459200
    645   1352   1367     1   117.5500507 404.174400
    646    643    655     1   110.5600475 386.601600
    646    643    656     1   110.5600475 386.601600
    647    646    659     1   108.7700466 392.459200
    647    646    660     1   108.7700466 392.459200
    647   1378   1393     1   117.5500507 404.174400
    648    641    666     1   110.1100470 384.091200
    648    649    663     1   109.5600471 388.275200
    648    649    664     1   109.5600471 388.275200
    649    648    661     1   110.5600475 386.601600
    649    648    662     1   110.5600475 386.601600
    649    650    665     1   117.6800502 383.254400
    650    649    663     1   108.8800464 416.726400
    650    649    664     1   108.8800464 416.726400
    653    642    654     1   109.7500473 328.025600
    655    643    656     1   109.7500473 328.025600
    657    644    658     1   107.5800459 329.699200
    659    646    660     1   107.5800459 329.699200
    661    648    662     1   109.7500473 328.025600
    663    649    664     1   108.4600466 328.025600
    667    668    679     1   108.0100461 406.684800
    667    668    680     1   108.0100461 406.684800
    667    669    681     1   108.0100461 406.684800
    667    669    682     1   108.0100461 406.684800
    667    674    687     1   108.0100461 406.684800
    667    674    688     1   108.0100461 406.684800
    668    667    692     1   110.1100470 384.091200
    668    670    683     1   109.8000471 387.438400
    668    670    684     1   109.8000471 387.438400
    669    667    692     1   110.1100470 384.091200
    669    672    685     1   109.8000471 387.438400
    669    672    686     1   109.8000471 387.438400
    670    668    679     1   110.5600475 386.601600
    670    668    680     1   110.5600475 386.601600
    671    670    683     1   108.7700466 392.459200
    671    670    684     1   108.7700466 392.459200
    671   1404   1419     1   117.5500507 404.174400
    672    669    681     1   110.5600475 386.601600
    672    669    682     1   110.5600475 386.601600
    673    672    685     1   108.7700466 392.459200
    673    672    686     1   108.7700466 392.459200
    673   1430   1445     1   117.5500507 404.174400
    674    667    692     1   110.1100470 384.091200
    674    675    689     1   109.5600471 388.275200
    674    675    690     1   109.5600471 388.275200
    675    674    687     1   110.5600475 386.601600
    675    674    688     1   110.5600475 386.601600
    675    676    691     1   117.6800502 383.254400
    676    675    689     1   108.8800464 416.726400
    676    675    690     1   108.8800464 416.726400
    679    668    680     1   109.7500473 328.025600
    681    669    682     1   109.7500473 328.025600
    683    670    684     1   107.5800459 329.699200
    685    672    686     1   107.5800459 329.699200
    687    674    688     1   109.7500473 328.025600
    689    675    690     1   108.4600466 328.025600
    693    694    705     1   108.0100461 406.684800
    693    694    706     1   108.0100461 406.684800
    693    695    707     1   108.0100461 406.684800
    693    695    708     1   108.0100461 406.684800
    693    700    713     1   108.0100461 406.684800
    693    700    714     1   108.0100461 406.684800
    694    693    718     1   110.1100470 384.091200
    694    696    709     1   109.8000471 387.438400
    694    696    710     1   109.8000471 387.438400
    695    693    718     1   110.1100470 384.091200
    695    698    711     1   109.8000471 387.438400
    695    698    712     1   109.8000471 387.438400
    696    694    705     1   110.5600475 386.601600
    696    694    706     1   110.5600475 386.601600
    697    696    709     1   108.7700466 392.459200
    697    696    710     1   108.7700466 392.459200
    697   1456   1471     1   117.5500507 404.174400
    698    695    707     1   110.5600475 386.601600
    698    695    708     1   110.5600475 386.601600
    699    698    711     1   108.7700466 392.459200
    699    698    712     1   108.7700466 392.459200
    699   1482   1497     1   117.5500507 404.174400
    700    693    718     1   110.1100470 384.091200
    700    701    715     1   109.5600471 388.275200
    700    701    716     1   109.5600471 388.275200
    701    700    713     1   110.5600475 386.601600
    701    700    714     1   110.5600475 386.601600
    701    702    717     1   117.6800502 383.254400
    702    701    715     1   108.8800464 416.726400
    702    701    716     1   108.8800464 416.726400
    705    694    706     1   109.7500473 328.025600
    707    695    708     1   109.7500473 328.025600
    709    696    710     1   107.5800459 329.699200
    711    698    712     1   107.5800459 329.699200
    713    700    714     1   109.7500473 328.025600
    715    701    716     1   108.4600466 328.025600
    719    720    731     1   108.0100461 406.684800
    719    720    732     1   108.0100461 406.684800
    719    721    733     1   108.0100461 406.684800
    719    721    734     1   108.0100461 406.684800
    719    726    739     1   108.0100461 406.684800
    719    726    740     1   108.0100461 406.684800
    720    719    744     1   110.1100470 384.091200
    720    722    735     1   109.8000471 387.438400
    720    722    736     1   109.8000471 387.438400
    721    719    744     1   110.1100470 384.091200
    721    724    737     1   109.8000471 387.438400
    721    724    738     1   109.8000471 387.438400
    722    720    731     1   110.5600475 386.601600
    722    720    732     1   110.5600475 386.601600
    723    722    735     1   108.7700466 392.459200
    723    722    736     1   108.7700466 392.459200
    723   1508   1523     1   117.5500507 404.174400
    724    721    733     1   110.5600475 386.601600
    724    721    734     1   110.5600475 386.601600
    725    724    737     1   108.7700466 392.459200
    725    724    738     1   108.7700466 392.459200
    725   1534   1549     1   117.5500507 404.174400
    726    719    744     1   110.1100470 384.091200
    726    727    741     1   109.5600471 388.275200
    726    727    742     1   109.5600471 388.275200
    727    726    739     1   110.5600475 386.601600
    727    726    740     1   110.5600475 386.601600
    727    728    743     1   117.6800502 383.254400
    728    727    741     1   108.8800464 416.726400
    728    727    742     1   108.8800464 416.726400
    731    720    732     1   109.7500473 328.025600
    733    721    734     1   109.7500473 328.025600
    735    722    736     1   107.5800459 329.699200
    737    724    738     1   107.5800459 329.699200
    739    726    740     1   109.7500473 328.025600
    741    727    742     1   108.4600466 328.025600
    745    746    757     1   108.0100461 406.684800
    745    746    758     1   108.0100461 406.684800
    745    747    759     1   108.0100461 406.684800
    745    747    760     1   108.0100461 406.684800
    745    752    765     1   108.0100461 406.684800
    745    752    766     1   108.0100461 406.684800
    746    745    770     1   110.1100470 384.091200
    746    748    761     1   109.8000471 387.438400
    746    748    762     1   109.8000471 387.438400
    747    745    770     1   110.1100470 384.091200
    747    750    763     1   109.8000471 387.438400
    747    750    764     1   109.8000471 387.438400
    748    746    757     1   110.5600475 386.601600
    748    746    758     1   110.5600475 386.601600
    749    748    761     1   108.7700466 392.459200
    749    748    762     1   108.7700466 392.459200
    749   1560   1575     1   117.5500507 404.174400
    750    747    759     1   110.5600475 386.601600
    750    747    760     1   110.5600475 386.601600
    751    750    763     1   108.7700466 392.459200
    751    750    764     1   108.7700466 392.459200
    751   1586   1601     1   117.5500507 404.174400
    752    745    770     1   110.1100470 384.091200
    752    753    767     1   109.5600471 388.275200
    752    753    768     1   109.5600471 388.275200
    753    752    765     1   110.5600475 386.601600
    753    752    766     1   110.5600475 386.601600
    753    754    769     1   117.6800502 383.254400
    754    753    767     1   108.8800464 416.726400
    754    753    768     1   108.8800464 416.726400
    757    746    758     1   109.7500473 328.025600
    759    747    760     1   109.7500473 328.025600
    761    748    762     1   107.5800459 329.699200
    763    750    764     1   107.5800459 329.699200
    765    752    766     1   109.7500473 328.025600
    767    753    768     1   108.4600466 328.025600
    771    772    783     1   108.0100461 406.684800
    771    772    784     1   108.0100461 406.684800
    771    773    785     1   108.0100461 406.684800
    771    773    786     1   108.0100461 406.684800
    771    778    791     1   108.0100461 406.684800
    771    778    792     1   108.0100461 406.684800
    772    771    796     1   110.1100470 384.091200
    772    774    787     1   109.8000471 387.438400
    772    774    788     1   109.8000471 387.438400
    773    771    796     1   110.1100470 384.091200
    773    776    789     1   109.8000471 387.438400
    773    776    790     1   109.8000471 387.438400
    774    772    783     1   110.5600475 386.601600
    774    772    784     1   110.5600475 386.601600
    775    774    787     1   108.7700466 392.459200
    775    774    788     1   108.7700466 392.459200
    775   1603   1604     1   117.5500507 404.174400
    776    773    785     1   110.5600475 386.601600
    776    773    786     1   110.5600475 386.601600
    777    776    789     1   108.7700466 392.459200
    777    776    790     1   108.7700466 392.459200
    777   1677   1678     1   117.5500507 404.174400
    778    771    796     1   110.1100470 384.091200
    778    779    793     1   109.5600471 388.275200
    778    779    794     1   109.5600471 388.275200
    779    778    791     1   110.5600475 386.601600
    779    778    792     1   110.5600475 386.601600
    779    780    795     1   117.6800502 383.254400
    780    779    793     1   108.8800464 416.726400
    780    779    794     1   108.8800464 416.726400
    783    772    784     1   109.7500473 328.025600
    785    773    786     1   109.7500473 328.025600
    787    774    788     1   107.5800459 329.699200
    789    776    790     1   107.5800459 329.699200
    791    778    792     1   109.7500473 328.025600
    793    779    794     1   108.4600466 328.025600
    797    798    809     1   108.0100461 406.684800
    797    798    810     1   108.0100461 406.684800
    797    799    811     1   108.0100461 406.684800
    797    799    812     1   108.0100461 406.684800
    797    804    817     1   108.0100461 406.684800
    797    804    818     1   108.0100461 406.684800
    798    797    822     1   110.1100470 384.091200
    798    800    813     1   109.8000471 387.438400
    798    800    814     1   109.8000471 387.438400
    799    797    822     1   110.1100470 384.091200
    799    802    815     1   109.8000471 387.438400
    799    802    816     1   109.8000471 387.438400
    800    798    809     1   110.5600475 386.601600
    800    798    810     1   110.5600475 386.601600
    801    800    813     1   108.7700466 392.459200
    801    800    814     1   108.7700466 392.459200
    801   1751   1752     1   117.5500507 404.174400
    802    799    811     1   110.5600475 386.601600
    802    799    812     1   110.5600475 386.601600
    803    802    815     1   108.7700466 392.459200
    803    802    816     1   108.7700466 392.459200
    803   1825   1826     1   117.5500507 404.174400
    804    797    822     1   110.1100470 384.091200
    804    805    819     1   109.5600471 388.275200
    804    805    820     1   109.5600471 388.275200
    805    804    817     1   110.5600475 386.601600
    805    804    818     1   110.5600475 386.601600
    805    806    821     1   117.6800502 383.254400
    806    805    819     1   108.8800464 416.726400
    806    805    820     1   108.8800464 416.726400
    809    798    810     1   109.7500473 328.025600
    811    799    812     1   109.7500473 328.025600
    813    800    814     1   107.5800459 329.699200
    815    802    816     1   107.5800459 329.699200
    817    804    818     1   109.7500473 328.025600
    819    805    820     1   108.4600466 328.025600
    823    824    835     1   108.0100461 406.684800
    823    824    836     1   108.0100461 406.684800
    823    825    837     1   108.0100461 406.684800
    823    825    838     1   108.0100461 406.684800
    823    830    843     1   108.0100461 406.684800
    823    830    844     1   108.0100461 406.684800
    824    823    848     1   110.1100470 384.091200
    824    826    839     1   109.8000471 387.438400
    824    826    840     1   109.8000471 387.438400
    825    823    848     1   110.1100470 384.091200
    825    828    841     1   109.8000471 387.438400
    825    828    842     1   109.8000471 387.438400
    826    824    835     1   110.5600475 386.601600
    826    824    836     1   110.5600475 386.601600
    827    826    839     1   108.7700466 392.459200
    827    826    840     1   108.7700466 392.459200
    827   1899   1900     1   117.5500507 404.174400
    828    825    837     1   110.5600475 386.601600
    828    825    838     1   110.5600475 386.601600
    829    828    841     1   108.7700466 392.459200
    829    828    842     1   108.7700466 392.459200
    829   1973   1974     1   117.5500507 404.174400
    830    823    848     1   110.1100470 384.091200
    830    831    845     1   109.5600471 388.275200
    830    831    846     1   109.5600471 388.275200
    831    830    843     1   110.5600475 386.601600
    831    830    844     1   110.5600475 386.601600
    831    832    847     1   117.6800502 383.254400
    832    831    845     1   108.8800464 416.726400
    832    831    846     1   108.8800464 416.726400
    835    824    836     1   109.7500473 328.025600
    837    825    838     1   109.7500473 328.025600
    839    826    840     1   107.5800459 329.699200
    841    828    842     1   107.5800459 329.699200
    843    830    844     1   109.7500473 328.025600
    845    831    846     1   108.4600466 328.025600
    849    850    861     1   108.0100461 406.684800
    849    850    862     1   108.0100461 406.684800
    849    851    863     1   108.0100461 406.684800
    849    851    864     1   108.0100461 406.684800
    849    856    869     1   108.0100461 406.684800
    849    856    870     1   108.0100461 406.684800
    850    849    874     1   110.1100470 384.091200
    850    852    865     1   109.8000471 387.438400
    850    852    866     1   109.8000471 387.438400
    851    849    874     1   110.1100470 384.091200
    851    854    867     1   109.8000471 387.438400
    851    854    868     1   109.8000471 387.438400
    852    850    861     1   110.5600475 386.601600
    852    850    862     1   110.5600475 386.601600
    853    852    865     1   108.7700466 392.459200
    853    852    866     1   108.7700466 392.459200
    853   2047   2048     1   117.5500507 404.174400
    854    851    863     1   110.5600475 386.601600
    854    851    864     1   110.5600475 386.601600
    855    854    867     1   108.7700466 392.459200
    855    854    868     1   108.7700466 392.459200
    855   2121   2122     1   117.5500507 404.174400
    856    849    874     1   110.1100470 384.091200
    856    857    871     1   109.5600471 388.275200
    856    857    872     1   109.5600471 388.275200
    857    856    869     1   110.5600475 386.601600
    857    856    870     1   110.5600475 386.601600
    857    858    873     1   117.6800502 383.254400
    858    857    871     1   108.8800464 416.726400
    858    857    872     1   108.8800464 416.726400
    861    850    862     1   109.7500473 328.025600
    863    851    864     1   109.7500473 328.025600
    865    852    866     1   107.5800459 329.699200
    867    854    868     1   107.5800459 329.699200
    869    856    870     1   109.7500473 328.025600
    871    857    872     1   108.4600466 328.025600
    875    876    887     1   108.0100461 406.684800
    875    876    888     1   108.0100461 406.684800
    875    877    889     1   108.0100461 406.684800
    875    877    890     1   108.0100461 406.684800
    875    882    895     1   108.0100461 406.684800
    875    882    896     1   108.0100461 406.684800
    876    875    900     1   110.1100470 384.091200
    876    878    891     1   109.8000471 387.438400
    876    878    892     1   109.8000471 387.438400
    877    875    900     1   110.1100470 384.091200
    877    880    893     1   109.8000471 387.438400
    877    880    894     1   109.8000471 387.438400
    878    876    887     1   110.5600475 386.601600
    878    876    888     1   110.5600475 386.601600
    879    878    891     1   108.7700466 392.459200
    879    878    892     1   108.7700466 392.459200
    879   2195   2196     1   117.5500507 404.174400
    880    877    889     1   110.5600475 386.601600
    880    877    890     1   110.5600475 386.601600
    881    880    893     1   108.7700466 392.459200
    881    880    894     1   108.7700466 392.459200
    881   2269   2270     1   117.5500507 404.174400
    882    875    900     1   110.1100470 384.091200
    882    883    897     1   109.5600471 388.275200
    882    883    898     1   109.5600471 388.275200
    883    882    895     1   110.5600475 386.601600
    883    882    896     1   110.5600475 386.601600
    883    884    899     1   117.6800502 383.254400
    884    883    897     1   108.8800464 416.726400
    884    883    898     1   108.8800464 416.726400
    887    876    888     1   109.7500473 328.025600
    889    877    890     1   109.7500473 328.025600
    891    878    892     1   107.5800459 329.699200
    893    880    894     1   107.5800459 329.699200
    895    882    896     1   109.7500473 328.025600
    897    883    898     1   108.4600466 328.025600
    901    902    913     1   108.0100461 406.684800
    901    902    914     1   108.0100461 406.684800
    901    903    915     1   108.0100461 406.684800
    901    903    916     1   108.0100461 406.684800
    901    908    921     1   108.0100461 406.684800
    901    908    922     1   108.0100461 406.684800
    902    901    926     1   110.1100470 384.091200
    902    904    917     1   109.8000471 387.438400
    902    904    918     1   109.8000471 387.438400
    903    901    926     1   110.1100470 384.091200
    903    906    919     1   109.8000471 387.438400
    903    906    920     1   109.8000471 387.438400
    904    902    913     1   110.5600475 386.601600
    904    902    914     1   110.5600475 386.601600
    905    904    917     1   108.7700466 392.459200
    905    904    918     1   108.7700466 392.459200
    905   2343   2344     1   117.5500507 404.174400
    906    903    915     1   110.5600475 386.601600
    906    903    916     1   110.5600475 386.601600
    907    906    919     1   108.7700466 392.459200
    907    906    920     1   108.7700466 392.459200
    907   2417   2418     1   117.5500507 404.174400
    908    901    926     1   110.1100470 384.091200
    908    909    923     1   109.5600471 388.275200
    908    909    924     1   109.5600471 388.275200
    909    908    921     1   110.5600475 386.601600
    909    908    922     1   110.5600475 386.601600
    909    910    925     1   117.6800502 383.254400
    910    909    923     1   108.8800464 416.726400
    910    909    924     1   108.8800464 416.726400
    913    902    914     1   109.7500473 328.025600
    915    903    916     1   109.7500473 328.025600
    917    904    918     1   107.5800459 329.699200
    919    906    920     1   107.5800459 329.699200
    921    908    922     1   109.7500473 328.025600
    923    909    924     1   108.4600466 328.025600
    927    928    939     1   108.0100461 406.684800
    927    928    940     1   108.0100461 406.684800
    927    929    941     1   108.0100461 406.684800
    927    929    942     1   108.0100461 406.684800
    927    934    947     1   108.0100461 406.684800
    927    934    948     1   108.0100461 406.684800
    928    927    952     1   110.1100470 384.091200
    928    930    943     1   109.8000471 387.438400
    928    930    944     1   109.8000471 387.438400
    929    927    952     1   110.1100470 384.091200
    929    932    945     1   109.8000471 387.438400
    929    932    946     1   109.8000471 387.438400
    930    928    939     1   110.5600475 386.601600
    930    928    940     1   110.5600475 386.601600
    931    930    943     1   108.7700466 392.459200
    931    930    944     1   108.7700466 392.459200
    931   2491   2492     1   117.5500507 404.174400
    932    929    941     1   110.5600475 386.601600
    932    929    942     1   110.5600475 386.601600
    933    932    945     1   108.7700466 392.459200
    933    932    946     1   108.7700466 392.459200
    933   2565   2566     1   117.5500507 404.174400
    934    927    952     1   110.1100470 384.091200
    934    935    949     1   109.5600471 388.275200
    934    935    950     1   109.5600471 388.275200
    935    934    947     1   110.5600475 386.601600
    935    934    948     1   110.5600475 386.601600
    935    936    951     1   117.6800502 383.254400
    936    935    949     1   108.8800464 416.726400
    936    935    950     1   108.8800464 416.726400
    939    928    940     1   109.7500473 328.025600
    941    929    942     1   109.7500473 328.025600
    943    930    944     1   107.5800459 329.699200
    945    932    946     1   107.5800459 329.699200
    947    934    948     1   109.7500473 328.025600
    949    935    950     1   108.4600466 328.025600
    953    954    965     1   108.0100461 406.684800
    953    954    966     1   108.0100461 406.684800
    953    955    967     1   108.0100461 406.684800
    953    955    968     1   108.0100461 406.684800
    953    960    973     1   108.0100461 406.684800
    953    960    974     1   108.0100461 406.684800
    954    953    978     1   110.1100470 384.091200
    954    956    969     1   109.8000471 387.438400
    954    956    970     1   109.8000471 387.438400
    955    953    978     1   110.1100470 384.091200
    955    958    971     1   109.8000471 387.438400
    955    958    972     1   109.8000471 387.438400
    956    954    965     1   110.5600475 386.601600
    956    954    966     1   110.5600475 386.601600
    957    956    969     1   108.7700466 392.459200
    957    956    970     1   108.7700466 392.459200
    957   2639   2640     1   117.5500507 404.174400
    958    955    967     1   110.5600475 386.601600
    958    955    968     1   110.5600475 386.601600
    959    958    971     1   108.7700466 392.459200
    959    958    972     1   108.7700466 392.459200
    959   2713   2714     1   117.5500507 404.174400
    960    953    978     1   110.1100470 384.091200
    960    961    975     1   109.5600471 388.275200
    960    961    976     1   109.5600471 388.275200
    961    960    973     1   110.5600475 386.601600
    961    960    974     1   110.5600475 386.601600
    961    962    977     1   117.6800502 383.254400
    962    961    975     1   108.8800464 416.726400
    962    961    976     1   108.8800464 416.726400
    965    954    966     1   109.7500473 328.025600
    967    955    968     1   109.7500473 328.025600
    969    956    970     1   107.5800459 329.699200
    971    958    972     1   107.5800459 329.699200
    973    960    974     1   109.7500473 328.025600
    975    961    976     1   108.4600466 328.025600
    979    980    991     1   108.0100461 406.684800
    979    980    992     1   108.0100461 406.684800
    979    981    993     1   108.0100461 406.684800
    979    981    994     1   108.0100461 406.684800
    979    986    999     1   108.0100461 406.684800
    979    986   1000     1   108.0100461 406.684800
    980    979   1004     1   110.1100470 384.091200
    980    982    995     1   109.8000471 387.438400
    980    982    996     1   109.8000471 387.438400
    981    979   1004     1   110.1100470 384.091200
    981    984    997     1   109.8000471 387.438400
    981    984    998     1   109.8000471 387.438400
    982    980    991     1   110.5600475 386.601600
    982    980    992     1   110.5600475 386.601600
    983    982    995     1   108.7700466 392.459200
    983    982    996     1   108.7700466 392.459200
    983   2787   2788     1   117.5500507 404.174400
    984    981    993     1   110.5600475 386.601600
    984    981    994     1   110.5600475 386.601600
    985    984    997     1   108.7700466 392.459200
    985    984    998     1   108.7700466 392.459200
    985   2861   2862     1   117.5500507 404.174400
    986    979   1004     1   110.1100470 384.091200
    986    987   1001     1   109.5600471 388.275200
    986    987   1002     1   109.5600471 388.275200
    987    986    999     1   110.5600475 386.601600
    987    986   1000     1   110.5600475 386.601600
    987    988   1003     1   117.6800502 383.254400
    988    987   1001     1   108.8800464 416.726400
    988    987   1002     1   108.8800464 416.726400
    991    980    992     1   109.7500473 328.025600
    993    981    994     1   109.7500473 328.025600
    995    982    996     1   107.5800459 329.699200
    997    984    998     1   107.5800459 329.699200
    999    986   1000     1   109.7500473 328.025600
   1001    987   1002     1   108.4600466 328.025600
   1005   1006   1017     1   108.0100461 406.684800
   1005   1006   1018     1   108.0100461 406.684800
   1005   1007   1019     1   108.0100461 406.684800
   1005   1007   1020     1   108.0100461 406.684800
   1005   1012   1025     1   108.0100461 406.684800
   1005   1012   1026     1   108.0100461 406.684800
   1006   1005   1030     1   110.1100470 384.091200
   1006   1008   1021     1   109.8000471 387.438400
   1006   1008   1022     1   109.8000471 387.438400
   1007   1005   1030     1   110.1100470 384.091200
   1007   1010   1023     1   109.8000471 387.438400
   1007   1010   1024     1   109.8000471 387.438400
   1008   1006   1017     1   110.5600475 386.601600
   1008   1006   1018     1   110.5600475 386.601600
   1009   1008   1021     1   108.7700466 392.459200
   1009   1008   1022     1   108.7700466 392.459200
   1009   2935   2936     1   117.5500507 404.174400
   1010   1007   1019     1   110.5600475 386.601600
   1010   1007   1020     1   110.5600475 386.601600
   1011   1010   1023     1   108.7700466 392.459200
   1011   1010   1024     1   108.7700466 392.459200
   1011   3009   3010     1   117.5500507 404.174400
   1012   1005   1030     1   110.1100470 384.091200
   1012   1013   1027     1   109.5600471 388.275200
   1012   1013   1028     1   109.5600471 388.275200
   1013   1012   1025     1   110.5600475 386.601600
   1013   1012   1026     1   110.5600475 386.601600
   1013   1014   1029     1   117.6800502 383.254400
   1014   1013   1027     1   108.8800464 416.726400
   1014   1013   1028     1   108.8800464 416.726400
   1017   1006   1018     1   109.7500473 328.025600
   1019   1007   1020     1   109.7500473 328.025600
   1021   1008   1022     1   107.5800459 329.699200
   1023   1010   1024     1   107.5800459 329.699200
   1025   1012   1026     1   109.7500473 328.025600
   1027   1013   1028     1   108.4600466 328.025600
   1031   1032   1043     1   108.0100461 406.684800
   1031   1032   1044     1   108.0100461 406.684800
   1031   1033   1045     1   108.0100461 406.684800
   1031   1033   1046     1   108.0100461 406.684800
   1031   1038   1051     1   108.0100461 406.684800
   1031   1038   1052     1   108.0100461 406.684800
   1032   1031   1056     1   110.1100470 384.091200
   1032   1034   1047     1   109.8000471 387.438400
   1032   1034   1048     1   109.8000471 387.438400
   1033   1031   1056     1   110.1100470 384.091200
   1033   1036   1049     1   109.8000471 387.438400
   1033   1036   1050     1   109.8000471 387.438400
   1034   1032   1043     1   110.5600475 386.601600
   1034   1032   1044     1   110.5600475 386.601600
   1035   1034   1047     1   108.7700466 392.459200
   1035   1034   1048     1   108.7700466 392.459200
   1035   3083   3084     1   117.5500507 404.174400
   1036   1033   1045     1   110.5600475 386.601600
   1036   1033   1046     1   110.5600475 386.601600
   1037   1036   1049     1   108.7700466 392.459200
   1037   1036   1050     1   108.7700466 392.459200
   1037   3157   3158     1   117.5500507 404.174400
   1038   1031   1056     1   110.1100470 384.091200
   1038   1039   1053     1   109.5600471 388.275200
   1038   1039   1054     1   109.5600471 388.275200
   1039   1038   1051     1   110.5600475 386.601600
   1039   1038   1052     1   110.5600475 386.601600
   1039   1040   1055     1   117.6800502 383.254400
   1040   1039   1053     1   108.8800464 416.726400
   1040   1039   1054     1   108.8800464 416.726400
   1043   1032   1044     1   109.7500473 328.025600
   1045   1033   1046     1   109.7500473 328.025600
   1047   1034   1048     1   107.5800459 329.699200
   1049   1036   1050     1   107.5800459 329.699200
   1051   1038   1052     1   109.7500473 328.025600
   1053   1039   1054     1   108.4600466 328.025600
   1057   1058   1069     1   108.0100461 406.684800
   1057   1058   1070     1   108.0100461 406.684800
   1057   1059   1071     1   108.0100461 406.684800
   1057   1059   1072     1   108.0100461 406.684800
   1057   1064   1077     1   108.0100461 406.684800
   1057   1064   1078     1   108.0100461 406.684800
   1058   1057   1082     1   110.1100470 384.091200
   1058   1060   1073     1   109.8000471 387.438400
   1058   1060   1074     1   109.8000471 387.438400
   1059   1057   1082     1   110.1100470 384.091200
   1059   1062   1075     1   109.8000471 387.438400
   1059   1062   1076     1   109.8000471 387.438400
   1060   1058   1069     1   110.5600475 386.601600
   1060   1058   1070     1   110.5600475 386.601600
   1061   1060   1073     1   108.7700466 392.459200
   1061   1060   1074     1   108.7700466 392.459200
   1061   3231   3232     1   117.5500507 404.174400
   1062   1059   1071     1   110.5600475 386.601600
   1062   1059   1072     1   110.5600475 386.601600
   1063   1062   1075     1   108.7700466 392.459200
   1063   1062   1076     1   108.7700466 392.459200
   1063   3305   3306     1   117.5500507 404.174400
   1064   1057   1082     1   110.1100470 384.091200
   1064   1065   1079     1   109.5600471 388.275200
   1064   1065   1080     1   109.5600471 388.275200
   1065   1064   1077     1   110.5600475 386.601600
   1065   1064   1078     1   110.5600475 386.601600
   1065   1066   1081     1   117.6800502 383.254400
   1066   1065   1079     1   108.8800464 416.726400
   1066   1065   1080     1   108.8800464 416.726400
   1069   1058   1070     1   109.7500473 328.025600
   1071   1059   1072     1   109.7500473 328.025600
   1073   1060   1074     1   107.5800459 329.699200
   1075   1062   1076     1   107.5800459 329.699200
   1077   1064   1078     1   109.7500473 328.025600
   1079   1065   1080     1   108.4600466 328.025600
   1083   1084   1095     1   108.0100461 406.684800
   1083   1084   1096     1   108.0100461 406.684800
   1083   1085   1097     1   108.0100461 406.684800
   1083   1085   1098     1   108.0100461 406.684800
   1083   1090   1103     1   108.0100461 406.684800
   1083   1090   1104     1   108.0100461 406.684800
   1084   1083   1108     1   110.1100470 384.091200
   1084   1086   1099     1   109.8000471 387.438400
   1084   1086   1100     1   109.8000471 387.438400
   1085   1083   1108     1   110.1100470 384.091200
   1085   1088   1101     1   109.8000471 387.438400
   1085   1088   1102     1   109.8000471 387.438400
   1086   1084   1095     1   110.5600475 386.601600
   1086   1084   1096     1   110.5600475 386.601600
   1087   1086   1099     1   108.7700466 392.459200
   1087   1086   1100     1   108.7700466 392.459200
   1087   3379   3380     1   117.5500507 404.174400
   1088   1085   1097     1   110.5600475 386.601600
   1088   1085   1098     1   110.5600475 386.601600
   1089   1088   1101     1   108.7700466 392.459200
   1089   1088   1102     1   108.7700466 392.459200
   1089   3453   3454     1   117.5500507 404.174400
   1090   1083   1108     1   110.1100470 384.091200
   1090   1091   1105     1   109.5600471 388.275200
   1090   1091   1106     1   109.5600471 388.275200
   1091   1090   1103     1   110.5600475 386.601600
   1091   1090   1104     1   110.5600475 386.601600
   1091   1092   1107     1   117.6800502 383.254400
   1092   1091   1105     1   108.8800464 416.726400
   1092   1091   1106     1   108.8800464 416.726400
   1095   1084   1096     1   109.7500473 328.025600
   1097   1085   1098     1   109.7500473 328.025600
   1099   1086   1100     1   107.5800459 329.699200
   1101   1088   1102     1   107.5800459 329.699200
   1103   1090   1104     1   109.7500473 328.025600
   1105   1091   1106     1   108.4600466 328.025600
   1109   1110   1121     1   108.0100461 406.684800
   1109   1110   1122     1   108.0100461 406.684800
   1109   1111   1123     1   108.0100461 406.684800
   1109   1111   1124     1   108.0100461 406.684800
   1109   1116   1129     1   108.0100461 406.684800
   1109   1116   1130     1   108.0100461 406.684800
   1110   1109   1134     1   110.1100470 384.091200
   1110   1112   1125     1   109.8000471 387.438400
   1110   1112   1126     1   109.8000471 387.438400
   1111   1109   1134     1   110.1100470 384.091200
   1111   1114   1127     1   109.8000471 387.438400
   1111   1114   1128     1   109.8000471 387.438400
   1112   1110   1121     1   110.5600475 386.601600
   1112   1110   1122     1   110.5600475 386.601600
   1113   1112   1125     1   108.7700466 392.459200
   1113   1112   1126     1   108.7700466 392.459200
   1113   3527   3528     1   117.5500507 404.174400
   1114   1111   1123     1   110.5600475 386.601600
   1114   1111   1124     1   110.5600475 386.601600
   1115   1114   1127     1   108.7700466 392.459200
   1115   1114   1128     1   108.7700466 392.459200
   1115   3601   3602     1   117.5500507 404.174400
   1116   1109   1134     1   110.1100470 384.091200
   1116   1117   1131     1   109.5600471 388.275200
   1116   1117   1132     1   109.5600471 388.275200
   1117   1116   1129     1   110.5600475 386.601600
   1117   1116   1130     1   110.5600475 386.601600
   1117   1118   1133     1   117.6800502 383.254400
   1118   1117   1131     1   108.8800464 416.726400
   1118   1117   1132     1   108.8800464 416.726400
   1121   1110   1122     1   109.7500473 328.025600
   1123   1111   1124     1   109.7500473 328.025600
   1125   1112   1126     1   107.5800459 329.699200
   1127   1114   1128     1   107.5800459 329.699200
   1129   1116   1130     1   109.7500473 328.025600
   1131   1117   1132     1   108.4600466 328.025600
   1135   1136   1147     1   108.0100461 406.684800
   1135   1136   1148     1   108.0100461 406.684800
   1135   1137   1149     1   108.0100461 406.684800
   1135   1137   1150     1   108.0100461 406.684800
   1135   1142   1155     1   108.0100461 406.684800
   1135   1142   1156     1   108.0100461 406.684800
   1136   1135   1160     1   110.1100470 384.091200
   1136   1138   1151     1   109.8000471 387.438400
   1136   1138   1152     1   109.8000471 387.438400
   1137   1135   1160     1   110.1100470 384.091200
   1137   1140   1153     1   109.8000471 387.438400
   1137   1140   1154     1   109.8000471 387.438400
   1138   1136   1147     1   110.5600475 386.601600
   1138   1136   1148     1   110.5600475 386.601600
   1139   1138   1151     1   108.7700466 392.459200
   1139   1138   1152     1   108.7700466 392.459200
   1139   3675   3676     1   117.5500507 404.174400
   1140   1137   1149     1   110.5600475 386.601600
   1140   1137   1150     1   110.5600475 386.601600
   1141   1140   1153     1   108.7700466 392.459200
   1141   1140   1154     1   108.7700466 392.459200
   1141   3749   3750     1   117.5500507 404.174400
   1142   1135   1160     1   110.1100470 384.091200
   1142   1143   1157     1   109.5600471 388.275200
   1142   1143   1158     1   109.5600471 388.275200
   1143   1142   1155     1   110.5600475 386.601600
   1143   1142   1156     1   110.5600475 386.601600
   1143   1144   1159     1   117.6800502 383.254400
   1144   1143   1157     1   108.8800464 416.726400
   1144   1143   1158     1   108.8800464 416.726400
   1147   1136   1148     1   109.7500473 328.025600
   1149   1137   1150     1   109.7500473 328.025600
   1151   1138   1152     1   107.5800459 329.699200
   1153   1140   1154     1   107.5800459 329.699200
   1155   1142   1156     1   109.7500473 328.025600
   1157   1143   1158     1   108.4600466 328.025600
   1161   1162   1173     1   108.0100461 406.684800
   1161   1162   1174     1   108.0100461 406.684800
   1161   1163   1175     1   108.0100461 406.684800
   1161   1163   1176     1   108.0100461 406.684800
   1161   1168   1181     1   108.0100461 406.684800
   1161   1168   1182     1   108.0100461 406.684800
   1162   1161   1186     1   110.1100470 384.091200
   1162   1164   1177     1   109.8000471 387.438400
   1162   1164   1178     1   109.8000471 387.438400
   1163   1161   1186     1   110.1100470 384.091200
   1163   1166   1179     1   109.8000471 387.438400
   1163   1166   1180     1   109.8000471 387.438400
   1164   1162   1173     1   110.5600475 386.601600
   1164   1162   1174     1   110.5600475 386.601600
   1165   1164   1177     1   108.7700466 392.459200
   1165   1164   1178     1   108.7700466 392.459200
   1165   3823   3824     1   117.5500507 404.174400
   1166   1163   1175     1   110.5600475 386.601600
   1166   1163   1176     1   110.5600475 386.601600
   1167   1166   1179     1   108.7700466 392.459200
   1167   1166   1180     1   108.7700466 392.459200
   1167   3897   3898     1   117.5500507 404.174400
   1168   1161   1186     1   110.1100470 384.091200
   1168   1169   1183     1   109.5600471 388.275200
   1168   1169   1184     1   109.5600471 388.275200
   1169   1168   1181     1   110.5600475 386.601600
   1169   1168   1182     1   110.5600475 386.601600
   1169   1170   1185     1   117.6800502 383.254400
   1170   1169   1183     1   108.8800464 416.726400
   1170   1169   1184     1   108.8800464 416.726400
   1173   1162   1174     1   109.7500473 328.025600
   1175   1163   1176     1   109.7500473 328.025600
   1177   1164   1178     1   107.5800459 329.699200
   1179   1166   1180     1   107.5800459 329.699200
   1181   1168   1182     1   109.7500473 328.025600
   1183   1169   1184     1   108.4600466 328.025600
   1187   1188   1199     1   108.0100461 406.684800
   1187   1188   1200     1   108.0100461 406.684800
   1187   1189   1201     1   108.0100461 406.684800
   1187   1189   1202     1   108.0100461 406.684800
   1187   1194   1207     1   108.0100461 406.684800
   1187   1194   1208     1   108.0100461 406.684800
   1188   1187   1212     1   110.1100470 384.091200
   1188   1190   1203     1   109.8000471 387.438400
   1188   1190   1204     1   109.8000471 387.438400
   1189   1187   1212     1   110.1100470 384.091200
   1189   1192   1205     1   109.8000471 387.438400
   1189   1192   1206     1   109.8000471 387.438400
   1190   1188   1199     1   110.5600475 386.601600
   1190   1188   1200     1   110.5600475 386.601600
   1191   1190   1203     1   108.7700466 392.459200
   1191   1190   1204     1   108.7700466 392.459200
   1191   3971   3972     1   117.5500507 404.174400
   1192   1189   1201     1   110.5600475 386.601600
   1192   1189   1202     1   110.5600475 386.601600
   1193   1192   1205     1   108.7700466 392.459200
   1193   1192   1206     1   108.7700466 392.459200
   1193   4045   4046     1   117.5500507 404.174400
   1194   1187   1212     1   110.1100470 384.091200
   1194   1195   1209     1   109.5600471 388.275200
   1194   1195   1210     1   109.5600471 388.275200
   1195   1194   1207     1   110.5600475 386.601600
   1195   1194   1208     1   110.5600475 386.601600
   1195   1196   1211     1   117.6800502 383.254400
   1196   1195   1209     1   108.8800464 416.726400
   1196   1195   1210     1   108.8800464 416.726400
   1199   1188   1200     1   109.7500473 328.025600
   1201   1189   1202     1   109.7500473 328.025600
   1203   1190   1204     1   107.5800459 329.699200
   1205   1192   1206     1   107.5800459 329.699200
   1207   1194   1208     1   109.7500473 328.025600
   1209   1195   1210     1   108.4600466 328.025600
   1213   1214   1225     1   108.0100461 406.684800
   1213   1214   1226     1   108.0100461 406.684800
   1213   1215   1227     1   108.0100461 406.684800
   1213   1215   1228     1   108.0100461 406.684800
   1213   1220   1233     1   108.0100461 406.684800
   1213   1220   1234     1   108.0100461 406.684800
   1214   1213   1238     1   110.1100470 384.091200
   1214   1216   1229     1   109.8000471 387.438400
   1214   1216   1230     1   109.8000471 387.438400
   1215   1213   1238     1   110.1100470 384.091200
   1215   1218   1231     1   109.8000471 387.438400
   1215   1218   1232     1   109.8000471 387.438400
   1216   1214   1225     1   110.5600475 386.601600
   1216   1214   1226     1   110.5600475 386.601600
   1217   1216   1229     1   108.7700466 392.459200
   1217   1216   1230     1   108.7700466 392.459200
   1217   4119   4120     1   117.5500507 404.174400
   1218   1215   1227     1   110.5600475 386.601600
   1218   1215   1228     1   110.5600475 386.601600
   1219   1218   1231     1   108.7700466 392.459200
   1219   1218   1232     1   108.7700466 392.459200
   1219   4193   4194     1   117.5500507 404.174400
   1220   1213   1238     1   110.1100470 384.091200
   1220   1221   1235     1   109.5600471 388.275200
   1220   1221   1236     1   109.5600471 388.275200
   1221   1220   1233     1   110.5600475 386.601600
   1221   1220   1234     1   110.5600475 386.601600
   1221   1222   1237     1   117.6800502 383.254400
   1222   1221   1235     1   108.8800464 416.726400
   1222   1221   1236     1   108.8800464 416.726400
   1225   1214   1226     1   109.7500473 328.025600
   1227   1215   1228     1   109.7500473 328.025600
   1229   1216   1230     1   107.5800459 329.699200
   1231   1218   1232     1   107.5800459 329.699200
   1233   1220   1234     1   109.7500473 328.025600
   1235   1221   1236     1   108.4600466 328.025600
   1239   1240   1251     1   108.0100461 406.684800
   1239   1240   1252     1   108.0100461 406.684800
   1239   1241   1253     1   108.0100461 406.684800
   1239   1241   1254     1   108.0100461 406.684800
   1239   1246   1259     1   108.0100461 406.684800
   1239   1246   1260     1   108.0100461 406.684800
   1240   1239   1264     1   110.1100470 384.091200
   1240   1242   1255     1   109.8000471 387.438400
   1240   1242   1256     1   109.8000471 387.438400
   1241   1239   1264     1   110.1100470 384.091200
   1241   1244   1257     1   109.8000471 387.438400
   1241   1244   1258     1   109.8000471 387.438400
   1242   1240   1251     1   110.5600475 386.601600
   1242   1240   1252     1   110.5600475 386.601600
   1243   1242   1255     1   108.7700466 392.459200
   1243   1242   1256     1   108.7700466 392.459200
   1243   4267   4268     1   117.5500507 404.174400
   1244   1241   1253     1   110.5600475 386.601600
   1244   1241   1254     1   110.5600475 386.601600
   1245   1244   1257     1   108.7700466 392.459200
   1245   1244   1258     1   108.7700466 392.459200
   1245   4341   4342     1   117.5500507 404.174400
   1246   1239   1264     1   110.1100470 384.091200
   1246   1247   1261     1   109.5600471 388.275200
   1246   1247   1262     1   109.5600471 388.275200
   1247   1246   1259     1   110.5600475 386.601600
   1247   1246   1260     1   110.5600475 386.601600
   1247   1248   1263     1   117.6800502 383.254400
   1248   1247   1261     1   108.8800464 416.726400
   1248   1247   1262     1   108.8800464 416.726400
   1251   1240   1252     1   109.7500473 328.025600
   1253   1241   1254     1   109.7500473 328.025600
   1255   1242   1256     1   107.5800459 329.699200
   1257   1244   1258     1   107.5800459 329.699200
   1259   1246   1260     1   109.7500473 328.025600
   1261   1247   1262     1   108.4600466 328.025600
   1265   1266   1277     1   108.0100461 406.684800
   1265   1266   1278     1   108.0100461 406.684800
   1265   1267   1279     1   108.0100461 406.684800
   1265   1267   1280     1   108.0100461 406.684800
   1265   1272   1285     1   108.0100461 406.684800
   1265   1272   1286     1   108.0100461 406.684800
   1266   1265   1290     1   110.1100470 384.091200
   1266   1268   1281     1   109.8000471 387.438400
   1266   1268   1282     1   109.8000471 387.438400
   1267   1265   1290     1   110.1100470 384.091200
   1267   1270   1283     1   109.8000471 387.438400
   1267   1270   1284     1   109.8000471 387.438400
   1268   1266   1277     1   110.5600475 386.601600
   1268   1266   1278     1   110.5600475 386.601600
   1269   1268   1281     1   108.7700466 392.459200
   1269   1268   1282     1   108.7700466 392.459200
   1269   4415   4416     1   117.5500507 404.174400
   1270   1267   1279     1   110.5600475 386.601600
   1270   1267   1280     1   110.5600475 386.601600
   1271   1270   1283     1   108.7700466 392.459200
   1271   1270   1284     1   108.7700466 392.459200
   1271   4489   4490     1   117.5500507 404.174400
   1272   1265   1290     1   110.1100470 384.091200
   1272   1273   1287     1   109.5600471 388.275200
   1272   1273   1288     1   109.5600471 388.275200
   1273   1272   1285     1   110.5600475 386.601600
   1273   1272   1286     1   110.5600475 386.601600
   1273   1274   1289     1   117.6800502 383.254400
   1274   1273   1287     1   108.8800464 416.726400
   1274   1273   1288     1   108.8800464 416.726400
   1277   1266   1278     1   109.7500473 328.025600
   1279   1267   1280     1   109.7500473 328.025600
   1281   1268   1282     1   107.5800459 329.699200
   1283   1270   1284     1   107.5800459 329.699200
   1285   1272   1286     1   109.7500473 328.025600
   1287   1273   1288     1   108.4600466 328.025600
   1291   1292   1303     1   108.0100461 406.684800
   1291   1292   1304     1   108.0100461 406.684800
   1291   1293   1305     1   108.0100461 406.684800
   1291   1293   1306     1   108.0100461 406.684800
   1291   1298   1311     1   108.0100461 406.684800
   1291   1298   1312     1   108.0100461 406.684800
   1292   1291   1316     1   110.1100470 384.091200
   1292   1294   1307     1   109.8000471 387.438400
   1292   1294   1308     1   109.8000471 387.438400
   1293   1291   1316     1   110.1100470 384.091200
   1293   1296   1309     1   109.8000471 387.438400
   1293   1296   1310     1   109.8000471 387.438400
   1294   1292   1303     1   110.5600475 386.601600
   1294   1292   1304     1   110.5600475 386.601600
   1295   1294   1307     1   108.7700466 392.459200
   1295   1294   1308     1   108.7700466 392.459200
   1295   4563   4564     1   117.5500507 404.174400
   1296   1293   1305     1   110.5600475 386.601600
   1296   1293   1306     1   110.5600475 386.601600
   1297   1296   1309     1   108.7700466 392.459200
   1297   1296   1310     1   108.7700466 392.459200
   1297   4637   4638     1   117.5500507 404.174400
   1298   1291   1316     1   110.1100470 384.091200
   1298   1299   1313     1   109.5600471 388.275200
   1298   1299   1314     1   109.5600471 388.275200
   1299   1298   1311     1   110.5600475 386.601600
   1299   1298   1312     1   110.5600475 386.601600
   1299   1300   1315     1   117.6800502 383.254400
   1300   1299   1313     1   108.8800464 416.726400
   1300   1299   1314     1   108.8800464 416.726400
   1303   1292   1304     1   109.7500473 328.025600
   1305   1293   1306     1   109.7500473 328.025600
   1307   1294   1308     1   107.5800459 329.699200
   1309   1296   1310     1   107.5800459 329.699200
   1311   1298   1312     1   109.7500473 328.025600
   1313   1299   1314     1   108.4600466 328.025600
   1317   1318   1329     1   108.0100461 406.684800
   1317   1318   1330     1   108.0100461 406.684800
   1317   1319   1331     1   108.0100461 406.684800
   1317   1319   1332     1   108.0100461 406.684800
   1317   1324   1337     1   108.0100461 406.684800
   1317   1324   1338     1   108.0100461 406.684800
   1318   1317   1342     1   110.1100470 384.091200
   1318   1320   1333     1   109.8000471 387.438400
   1318   1320   1334     1   109.8000471 387.438400
   1319   1317   1342     1   110.1100470 384.091200
   1319   1322   1335     1   109.8000471 387.438400
   1319   1322   1336     1   109.8000471 387.438400
   1320   1318   1329     1   110.5600475 386.601600
   1320   1318   1330     1   110.5600475 386.601600
   1321   1320   1333     1   108.7700466 392.459200
   1321   1320   1334     1   108.7700466 392.459200
   1321   4711   4712     1   117.5500507 404.174400
   1322   1319   1331     1   110.5600475 386.601600
   1322   1319   1332     1   110.5600475 386.601600
   1323   1322   1335     1   108.7700466 392.459200
   1323   1322   1336     1   108.7700466 392.459200
   1323   4785   4786     1   117.5500507 404.174400
   1324   1317   1342     1   110.1100470 384.091200
   1324   1325   1339     1   109.5600471 388.275200
   1324   1325   1340     1   109.5600471 388.275200
   1325   1324   1337     1   110.5600475 386.601600
   1325   1324   1338     1   110.5600475 386.601600
   1325   1326   1341     1   117.6800502 383.254400
   1326   1325   1339     1   108.8800464 416.726400
   1326   1325   1340     1   108.8800464 416.726400
   1329   1318   1330     1   109.7500473 328.025600
   1331   1319   1332     1   109.7500473 328.025600
   1333   1320   1334     1   107.5800459 329.699200
   1335   1322   1336     1   107.5800459 329.699200
   1337   1324   1338     1   109.7500473 328.025600
   1339   1325   1340     1   108.4600466 328.025600
   1343   1344   1355     1   108.0100461 406.684800
   1343   1344   1356     1   108.0100461 406.684800
   1343   1345   1357     1   108.0100461 406.684800
   1343   1345   1358     1   108.0100461 406.684800
   1343   1350   1363     1   108.0100461 406.684800
   1343   1350   1364     1   108.0100461 406.684800
   1344   1343   1368     1   110.1100470 384.091200
   1344   1346   1359     1   109.8000471 387.438400
   1344   1346   1360     1   109.8000471 387.438400
   1345   1343   1368     1   110.1100470 384.091200
   1345   1348   1361     1   109.8000471 387.438400
   1345   1348   1362     1   109.8000471 387.438400
   1346   1344   1355     1   110.5600475 386.601600
   1346   1344   1356     1   110.5600475 386.601600
   1347   1346   1359     1   108.7700466 392.459200
   1347   1346   1360     1   108.7700466 392.459200
   1347   4859   4860     1   117.5500507 404.174400
   1348   1345   1357     1   110.5600475 386.601600
   1348   1345   1358     1   110.5600475 386.601600
   1349   1348   1361     1   108.7700466 392.459200
   1349   1348   1362     1   108.7700466 392.459200
   1349   4933   4934     1   117.5500507 404.174400
   1350   1343   1368     1   110.1100470 384.091200
   1350   1351   1365     1   109.5600471 388.275200
   1350   1351   1366     1   109.5600471 388.275200
   1351   1350   1363     1   110.5600475 386.601600
   1351   1350   1364     1   110.5600475 386.601600
   1351   1352   1367     1   117.6800502 383.254400
   1352   1351   1365     1   108.8800464 416.726400
   1352   1351   1366     1   108.8800464 416.726400
   1355   1344   1356     1   109.7500473 328.025600
   1357   1345   1358     1   109.7500473 328.025600
   1359   1346   1360     1   107.5800459 329.699200
   1361   1348   1362     1   107.5800459 329.699200
   1363   1350   1364     1   109.7500473 328.025600
   1365   1351   1366     1   108.4600466 328.025600
   1369   1370   1381     1   108.0100461 406.684800
   1369   1370   1382     1   108.0100461 406.684800
   1369   1371   1383     1   108.0100461 406.684800
   1369   1371   1384     1   108.0100461 406.684800
   1369   1376   1389     1   108.0100461 406.684800
   1369   1376   1390     1   108.0100461 406.684800
   1370   1369   1394     1   110.1100470 384.091200
   1370   1372   1385     1   109.8000471 387.438400
   1370   1372   1386     1   109.8000471 387.438400
   1371   1369   1394     1   110.1100470 384.091200
   1371   1374   1387     1   109.8000471 387.438400
   1371   1374   1388     1   109.8000471 387.438400
   1372   1370   1381     1   110.5600475 386.601600
   1372   1370   1382     1   110.5600475 386.601600
   1373   1372   1385     1   108.7700466 392.459200
   1373   1372   1386     1   108.7700466 392.459200
   1373   5007   5008     1   117.5500507 404.174400
   1374   1371   1383     1   110.5600475 386.601600
   1374   1371   1384     1   110.5600475 386.601600
   1375   1374   1387     1   108.7700466 392.459200
   1375   1374   1388     1   108.7700466 392.459200
   1375   5081   5082     1   117.5500507 404.174400
   1376   1369   1394     1   110.1100470 384.091200
   1376   1377   1391     1   109.5600471 388.275200
   1376   1377   1392     1   109.5600471 388.275200
   1377   1376   1389     1   110.5600475 386.601600
   1377   1376   1390     1   110.5600475 386.601600
   1377   1378   1393     1   117.6800502 383.254400
   1378   1377   1391     1   108.8800464 416.726400
   1378   1377   1392     1   108.8800464 416.726400
   1381   1370   1382     1   109.7500473 328.025600
   1383   1371   1384     1   109.7500473 328.025600
   1385   1372   1386     1   107.5800459 329.699200
   1387   1374   1388     1   107.5800459 329.699200
   1389   1376   1390     1   109.7500473 328.025600
   1391   1377   1392     1   108.4600466 328.025600
   1395   1396   1407     1   108.0100461 406.684800
   1395   1396   1408     1   108.0100461 406.684800
   1395   1397   1409     1   108.0100461 406.684800
   1395   1397   1410     1   108.0100461 406.684800
   1395   1402   1415     1   108.0100461 406.684800
   1395   1402   1416     1   108.0100461 406.684800
   1396   1395   1420     1   110.1100470 384.091200
   1396   1398   1411     1   109.8000471 387.438400
   1396   1398   1412     1   109.8000471 387.438400
   1397   1395   1420     1   110.1100470 384.091200
   1397   1400   1413     1   109.8000471 387.438400
   1397   1400   1414     1   109.8000471 387.438400
   1398   1396   1407     1   110.5600475 386.601600
   1398   1396   1408     1   110.5600475 386.601600
   1399   1398   1411     1   108.7700466 392.459200
   1399   1398   1412     1   108.7700466 392.459200
   1399   5155   5156     1   117.5500507 404.174400
   1400   1397   1409     1   110.5600475 386.601600
   1400   1397   1410     1   110.5600475 386.601600
   1401   1400   1413     1   108.7700466 392.459200
   1401   1400   1414     1   108.7700466 392.459200
   1401   5229   5230     1   117.5500507 404.174400
   1402   1395   1420     1   110.1100470 384.091200
   1402   1403   1417     1   109.5600471 388.275200
   1402   1403   1418     1   109.5600471 388.275200
   1403   1402   1415     1   110.5600475 386.601600
   1403   1402   1416     1   110.5600475 386.601600
   1403   1404   1419     1   117.6800502 383.254400
   1404   1403   1417     1   108.8800464 416.726400
   1404   1403   1418     1   108.8800464 416.726400
   1407   1396   1408     1   109.7500473 328.025600
   1409   1397   1410     1   109.7500473 328.025600
   1411   1398   1412     1   107.5800459 329.699200
   1413   1400   1414     1   107.5800459 329.699200
   1415   1402   1416     1   109.7500473 328.025600
   1417   1403   1418     1   108.4600466 328.025600
   1421   1422   1433     1   108.0100461 406.684800
   1421   1422   1434     1   108.0100461 406.684800
   1421   1423   1435     1   108.0100461 406.684800
   1421   1423   1436     1   108.0100461 406.684800
   1421   1428   1441     1   108.0100461 406.684800
   1421   1428   1442     1   108.0100461 406.684800
   1422   1421   1446     1   110.1100470 384.091200
   1422   1424   1437     1   109.8000471 387.438400
   1422   1424   1438     1   109.8000471 387.438400
   1423   1421   1446     1   110.1100470 384.091200
   1423   1426   1439     1   109.8000471 387.438400
   1423   1426   1440     1   109.8000471 387.438400
   1424   1422   1433     1   110.5600475 386.601600
   1424   1422   1434     1   110.5600475 386.601600
   1425   1424   1437     1   108.7700466 392.459200
   1425   1424   1438     1   108.7700466 392.459200
   1425   5303   5304     1   117.5500507 404.174400
   1426   1423   1435     1   110.5600475 386.601600
   1426   1423   1436     1   110.5600475 386.601600
   1427   1426   1439     1   108.7700466 392.459200
   1427   1426   1440     1   108.7700466 392.459200
   1427   5377   5378     1   117.5500507 404.174400
   1428   1421   1446     1   110.1100470 384.091200
   1428   1429   1443     1   109.5600471 388.275200
   1428   1429   1444     1   109.5600471 388.275200
   1429   1428   1441     1   110.5600475 386.601600
   1429   1428   1442     1   110.5600475 386.601600
   1429   1430   1445     1   117.6800502 383.254400
   1430   1429   1443     1   108.8800464 416.726400
   1430   1429   1444     1   108.8800464 416.726400
   1433   1422   1434     1   109.7500473 328.025600
   1435   1423   1436     1   109.7500473 328.025600
   1437   1424   1438     1   107.5800459 329.699200
   1439   1426   1440     1   107.5800459 329.699200
   1441   1428   1442     1   109.7500473 328.025600
   1443   1429   1444     1   108.4600466 328.025600
   1447   1448   1459     1   108.0100461 406.684800
   1447   1448   1460     1   108.0100461 406.684800
   1447   1449   1461     1   108.0100461 406.684800
   1447   1449   1462     1   108.0100461 406.684800
   1447   1454   1467     1   108.0100461 406.684800
   1447   1454   1468     1   108.0100461 406.684800
   1448   1447   1472     1   110.1100470 384.091200
   1448   1450   1463     1   109.8000471 387.438400
   1448   1450   1464     1   109.8000471 387.438400
   1449   1447   1472     1   110.1100470 384.091200
   1449   1452   1465     1   109.8000471 387.438400
   1449   1452   1466     1   109.8000471 387.438400
   1450   1448   1459     1   110.5600475 386.601600
   1450   1448   1460     1   110.5600475 386.601600
   1451   1450   1463     1   108.7700466 392.459200
   1451   1450   1464     1   108.7700466 392.459200
   1451   5451   5452     1   117.5500507 404.174400
   1452   1449   1461     1   110.5600475 386.601600
   1452   1449   1462     1   110.5600475 386.601600
   1453   1452   1465     1   108.7700466 392.459200
   1453   1452   1466     1   108.7700466 392.459200
   1453   5525   5526     1   117.5500507 404.174400
   1454   1447   1472     1   110.1100470 384.091200
   1454   1455   1469     1   109.5600471 388.275200
   1454   1455   1470     1   109.5600471 388.275200
   1455   1454   1467     1   110.5600475 386.601600
   1455   1454   1468     1   110.5600475 386.601600
   1455   1456   1471     1   117.6800502 383.254400
   1456   1455   1469     1   108.8800464 416.726400
   1456   1455   1470     1   108.8800464 416.726400
   1459   1448   1460     1   109.7500473 328.025600
   1461   1449   1462     1   109.7500473 328.025600
   1463   1450   1464     1   107.5800459 329.699200
   1465   1452   1466     1   107.5800459 329.699200
   1467   1454   1468     1   109.7500473 328.025600
   1469   1455   1470     1   108.4600466 328.025600
   1473   1474   1485     1   108.0100461 406.684800
   1473   1474   1486     1   108.0100461 406.684800
   1473   1475   1487     1   108.0100461 406.684800
   1473   1475   1488     1   108.0100461 406.684800
   1473   1480   1493     1   108.0100461 406.684800
   1473   1480   1494     1   108.0100461 406.684800
   1474   1473   1498     1   110.1100470 384.091200
   1474   1476   1489     1   109.8000471 387.438400
   1474   1476   1490     1   109.8000471 387.438400
   1475   1473   1498     1   110.1100470 384.091200
   1475   1478   1491     1   109.8000471 387.438400
   1475   1478   1492     1   109.8000471 387.438400
   1476   1474   1485     1   110.5600475 386.601600
   1476   1474   1486     1   110.5600475 386.601600
   1477   1476   1489     1   108.7700466 392.459200
   1477   1476   1490     1   108.7700466 392.459200
   1477   5599   5600     1   117.5500507 404.174400
   1478   1475   1487     1   110.5600475 386.601600
   1478   1475   1488     1   110.5600475 386.601600
   1479   1478   1491     1   108.7700466 392.459200
   1479   1478   1492     1   108.7700466 392.459200
   1479   5673   5674     1   117.5500507 404.174400
   1480   1473   1498     1   110.1100470 384.091200
   1480   1481   1495     1   109.5600471 388.275200
   1480   1481   1496     1   109.5600471 388.275200
   1481   1480   1493     1   110.5600475 386.601600
   1481   1480   1494     1   110.5600475 386.601600
   1481   1482   1497     1   117.6800502 383.254400
   1482   1481   1495     1   108.8800464 416.726400
   1482   1481   1496     1   108.8800464 416.726400
   1485   1474   1486     1   109.7500473 328.025600
   1487   1475   1488     1   109.7500473 328.025600
   1489   1476   1490     1   107.5800459 329.699200
   1491   1478   1492     1   107.5800459 329.699200
   1493   1480   1494     1   109.7500473 328.025600
   1495   1481   1496     1   108.4600466 328.025600
   1499   1500   1511     1   108.0100461 406.684800
   1499   1500   1512     1   108.0100461 406.684800
   1499   1501   1513     1   108.0100461 406.684800
   1499   1501   1514     1   108.0100461 406.684800
   1499   1506   1519     1   108.0100461 406.684800
   1499   1506   1520     1   108.0100461 406.684800
   1500   1499   1524     1   110.1100470 384.091200
   1500   1502   1515     1   109.8000471 387.438400
   1500   1502   1516     1   109.8000471 387.438400
   1501   1499   1524     1   110.1100470 384.091200
   1501   1504   1517     1   109.8000471 387.438400
   1501   1504   1518     1   109.8000471 387.438400
   1502   1500   1511     1   110.5600475 386.601600
   1502   1500   1512     1   110.5600475 386.601600
   1503   1502   1515     1   108.7700466 392.459200
   1503   1502   1516     1   108.7700466 392.459200
   1503   5747   5748     1   117.5500507 404.174400
   1504   1501   1513     1   110.5600475 386.601600
   1504   1501   1514     1   110.5600475 386.601600
   1505   1504   1517     1   108.7700466 392.459200
   1505   1504   1518     1   108.7700466 392.459200
   1505   5821   5822     1   117.5500507 404.174400
   1506   1499   1524     1   110.1100470 384.091200
   1506   1507   1521     1   109.5600471 388.275200
   1506   1507   1522     1   109.5600471 388.275200
   1507   1506   1519     1   110.5600475 386.601600
   1507   1506   1520     1   110.5600475 386.601600
   1507   1508   1523     1   117.6800502 383.254400
   1508   1507   1521     1   108.8800464 416.726400
   1508   1507   1522     1   108.8800464 416.726400
   1511   1500   1512     1   109.7500473 328.025600
   1513   1501   1514     1   109.7500473 328.025600
   1515   1502   1516     1   107.5800459 329.699200
   1517   1504   1518     1   107.5800459 329.699200
   1519   1506   1520     1   109.7500473 328.025600
   1521   1507   1522     1   108.4600466 328.025600
   1525   1526   1537     1   108.0100461 406.684800
   1525   1526   1538     1   108.0100461 406.684800
   1525   1527   1539     1   108.0100461 406.684800
   1525   1527   1540     1   108.0100461 406.684800
   1525   1532   1545     1   108.0100461 406.684800
   1525   1532   1546     1   108.0100461 406.684800
   1526   1525   1550     1   110.1100470 384.091200
   1526   1528   1541     1   109.8000471 387.438400
   1526   1528   1542     1   109.8000471 387.438400
   1527   1525   1550     1   110.1100470 384.091200
   1527   1530   1543     1   109.8000471 387.438400
   1527   1530   1544     1   109.8000471 387.438400
   1528   1526   1537     1   110.5600475 386.601600
   1528   1526   1538     1   110.5600475 386.601600
   1529   1528   1541     1   108.7700466 392.459200
   1529   1528   1542     1   108.7700466 392.459200
   1529   5895   5896     1   117.5500507 404.174400
   1530   1527   1539     1   110.5600475 386.601600
   1530   1527   1540     1   110.5600475 386.601600
   1531   1530   1543     1   108.7700466 392.459200
   1531   1530   1544     1   108.7700466 392.459200
   1531   5969   5970     1   117.5500507 404.174400
   1532   1525   1550     1   110.1100470 384.091200
   1532   1533   1547     1   109.5600471 388.275200
   1532   1533   1548     1   109.5600471 388.275200
   1533   1532   1545     1   110.5600475 386.601600
   1533   1532   1546     1   110.5600475 386.601600
   1533   1534   1549     1   117.6800502 383.254400
   1534   1533   1547     1   108.8800464 416.726400
   1534   1533   1548     1   108.8800464 416.726400
   1537   1526   1538     1   109.7500473 328.025600
   1539   1527   1540     1   109.7500473 328.025600
   1541   1528   1542     1   107.5800459 329.699200
   1543   1530   1544     1   107.5800459 329.699200
   1545   1532   1546     1   109.7500473 328.025600
   1547   1533   1548     1   108.4600466 328.025600
   1551   1552   1563     1   108.0100461 406.684800
   1551   1552   1564     1   108.0100461 406.684800
   1551   1553   1565     1   108.0100461 406.684800
   1551   1553   1566     1   108.0100461 406.684800
   1551   1558   1571     1   108.0100461 406.684800
   1551   1558   1572     1   108.0100461 406.684800
   1552   1551   1576     1   110.1100470 384.091200
   1552   1554   1567     1   109.8000471 387.438400
   1552   1554   1568     1   109.8000471 387.438400
   1553   1551   1576     1   110.1100470 384.091200
   1553   1556   1569     1   109.8000471 387.438400
   1553   1556   1570     1   109.8000471 387.438400
   1554   1552   1563     1   110.5600475 386.601600
   1554   1552   1564     1   110.5600475 386.601600
   1555   1554   1567     1   108.7700466 392.459200
   1555   1554   1568     1   108.7700466 392.459200
   1555   6043   6044     1   117.5500507 404.174400
   1556   1553   1565     1   110.5600475 386.601600
   1556   1553   1566     1   110.5600475 386.601600
   1557   1556   1569     1   108.7700466 392.459200
   1557   1556   1570     1   108.7700466 392.459200
   1557   6117   6118     1   117.5500507 404.174400
   1558   1551   1576     1   110.1100470 384.091200
   1558   1559   1573     1   109.5600471 388.275200
   1558   1559   1574     1   109.5600471 388.275200
   1559   1558   1571     1   110.5600475 386.601600
   1559   1558   1572     1   110.5600475 386.601600
   1559   1560   1575     1   117.6800502 383.254400
   1560   1559   1573     1   108.8800464 416.726400
   1560   1559   1574     1   108.8800464 416.726400
   1563   1552   1564     1   109.7500473 328.025600
   1565   1553   1566     1   109.7500473 328.025600
   1567   1554   1568     1   107.5800459 329.699200
   1569   1556   1570     1   107.5800459 329.699200
   1571   1558   1572     1   109.7500473 328.025600
   1573   1559   1574     1   108.4600466 328.025600
   1577   1578   1589     1   108.0100461 406.684800
   1577   1578   1590     1   108.0100461 406.684800
   1577   1579   1591     1   108.0100461 406.684800
   1577   1579   1592     1   108.0100461 406.684800
   1577   1584   1597     1   108.0100461 406.684800
   1577   1584   1598     1   108.0100461 406.684800
   1578   1577   1602     1   110.1100470 384.091200
   1578   1580   1593     1   109.8000471 387.438400
   1578   1580   1594     1   109.8000471 387.438400
   1579   1577   1602     1   110.1100470 384.091200
   1579   1582   1595     1   109.8000471 387.438400
   1579   1582   1596     1   109.8000471 387.438400
   1580   1578   1589     1   110.5600475 386.601600
   1580   1578   1590     1   110.5600475 386.601600
   1581   1580   1593     1   108.7700466 392.459200
   1581   1580   1594     1   108.7700466 392.459200
   1581   6191   6192     1   117.5500507 404.174400
   1582   1579   1591     1   110.5600475 386.601600
   1582   1579   1592     1   110.5600475 386.601600
   1583   1582   1595     1   108.7700466 392.459200
   1583   1582   1596     1   108.7700466 392.459200
   1583   6265   6266     1   117.5500507 404.174400
   1584   1577   1602     1   110.1100470 384.091200
   1584   1585   1599     1   109.5600471 388.275200
   1584   1585   1600     1   109.5600471 388.275200
   1585   1584   1597     1   110.5600475 386.601600
   1585   1584   1598     1   110.5600475 386.601600
   1585   1586   1601     1   117.6800502 383.254400
   1586   1585   1599     1   108.8800464 416.726400
   1586   1585   1600     1   108.8800464 416.726400
   1589   1578   1590     1   109.7500473 328.025600
   1591   1579   1592     1   109.7500473 328.025600
   1593   1580   1594     1   107.5800459 329.699200
   1595   1582   1596     1   107.5800459 329.699200
   1597   1584   1598     1   109.7500473 328.025600
   1599   1585   1600     1   108.4600466 328.025600
   1603   1605   1606     1   108.8800464 416.726400
   1603   1605   1608     1   108.8800464 416.726400
   1604   1603   1605     1   117.6800502 383.254400
   1605   1607   1609     1   109.5600471 388.275200
   1605   1607   1610     1   109.5600471 388.275200
   1606   1605   1607     1   109.5600471 388.275200
   1606   1605   1608     1   108.4600466 328.025600
   1607   1605   1608     1   109.5600471 388.275200
   1607   1611   1676     1   110.1100470 384.091200
   1609   1607   1611     1   107.9000462 406.684800
   1609   1607   1610     1   108.4600466 328.025600
   1610   1607   1611     1   107.9000462 406.684800
   1611   1612   1621     1   107.9000462 406.684800
   1611   1612   1622     1   107.9000462 406.684800
   1611   1613   1614     1   107.9000462 406.684800
   1611   1613   1616     1   107.9000462 406.684800
   1612   1611   1676     1   110.1100470 384.091200
   1612   1623   1624     1   109.8000471 387.438400
   1612   1623   1625     1   109.8000471 387.438400
   1613   1611   1676     1   110.1100470 384.091200
   1613   1615   1617     1   109.8000471 387.438400
   1613   1615   1618     1   109.8000471 387.438400
   1614   1613   1615     1   109.5600471 388.275200
   1614   1613   1616     1   108.4600466 328.025600
   1615   1613   1616     1   109.5600471 388.275200
   1617   1615   1619     1   108.7700466 392.459200
   1617   1615   1618     1   107.5800459 329.699200
   1618   1615   1619     1   108.7700466 392.459200
   1619   1651   1641     1   119.3800509 410.868800
   1621   1612   1623     1   109.5600471 388.275200
   1621   1612   1622     1   108.4600466 328.025600
   1622   1612   1623     1   109.5600471 388.275200
   1624   1623   1626     1   108.7700466 392.459200
   1624   1623   1625     1   107.5800459 329.699200
   1625   1623   1626     1   108.7700466 392.459200
   1626   1675   1665     1   119.3800509 410.868800
   1628   1629   1648     1   109.5600471 388.275200
   1628   1639   1642     1   109.5600471 388.275200
   1628   1639   1643     1   109.5600471 388.275200
   1629   1628   1630     1   109.5600471 388.275200
   1629   1631   1635     1   109.5600471 388.275200
   1629   1649   1650     1   107.2600461 396.643200
   1630   1628   1639     1   109.5600471 388.275200
   1630   1628   1646     1   109.7800468 425.094400
   1631   1629   1648     1   109.5600471 388.275200
   1631   1632   1634     1   109.5600471 388.275200
   1631   1638   1640     1   107.2600461 396.643200
   1632   1631   1635     1   109.5600471 388.275200
   1632   1633   1636     1   110.2200475 386.601600
   1632   1651   1641     1   109.2900470 396.643200
   1633   1632   1634     1   109.5600471 388.275200
   1633   1637   1647     1   107.2600461 396.643200
   1634   1632   1651     1   109.8800469 414.216000
   1635   1631   1638     1   110.2600474 425.931200
   1636   1633   1637     1   109.4300470 427.604800
   1636   1633   1646     1   109.5800467 425.931200
   1639   1644   1645     1   107.2600461 396.643200
   1642   1639   1644     1   110.2600474 425.931200
   1642   1639   1643     1   108.4600466 328.025600
   1643   1639   1644     1   110.2600474 425.931200
   1648   1629   1649     1   110.2600474 425.931200
   1652   1653   1672     1   109.5600471 388.275200
   1652   1663   1666     1   109.5600471 388.275200
   1652   1663   1667     1   109.5600471 388.275200
   1653   1652   1654     1   109.5600471 388.275200
   1653   1655   1659     1   109.5600471 388.275200
   1653   1673   1674     1   107.2600461 396.643200
   1654   1652   1663     1   109.5600471 388.275200
   1654   1652   1670     1   109.7800468 425.094400
   1655   1653   1672     1   109.5600471 388.275200
   1655   1656   1658     1   109.5600471 388.275200
   1655   1662   1664     1   107.2600461 396.643200
   1656   1655   1659     1   109.5600471 388.275200
   1656   1657   1660     1   110.2200475 386.601600
   1656   1675   1665     1   109.2900470 396.643200
   1657   1656   1658     1   109.5600471 388.275200
   1657   1661   1671     1   107.2600461 396.643200
   1658   1656   1675     1   109.8800469 414.216000
   1659   1655   1662     1   110.2600474 425.931200
   1660   1657   1661     1   109.4300470 427.604800
   1660   1657   1670     1   109.5800467 425.931200
   1663   1668   1669     1   107.2600461 396.643200
   1666   1663   1668     1   110.2600474 425.931200
   1666   1663   1667     1   108.4600466 328.025600
   1667   1663   1668     1   110.2600474 425.931200
   1672   1653   1673     1   110.2600474 425.931200
   1677   1679   1680     1   108.8800464 416.726400
   1677   1679   1682     1   108.8800464 416.726400
   1678   1677   1679     1   117.6800502 383.254400
   1679   1681   1683     1   109.5600471 388.275200
   1679   1681   1684     1   109.5600471 388.275200
   1680   1679   1681     1   109.5600471 388.275200
   1680   1679   1682     1   108.4600466 328.025600
   1681   1685   1750     1   110.1100470 384.091200
   1681   1679   1682     1   109.5600471 388.275200
   1683   1681   1685     1   107.9000462 406.684800
   1683   1681   1684     1   108.4600466 328.025600
   1684   1681   1685     1   107.9000462 406.684800
   1685   1686   1695     1   107.9000462 406.684800
   1685   1686   1696     1   107.9000462 406.684800
   1685   1687   1688     1   107.9000462 406.684800
   1685   1687   1690     1   107.9000462 406.684800
   1686   1697   1698     1   109.8000471 387.438400
   1686   1697   1699     1   109.8000471 387.438400
   1686   1685   1750     1   110.1100470 384.091200
   1687   1689   1691     1   109.8000471 387.438400
   1687   1689   1692     1   109.8000471 387.438400
   1687   1685   1750     1   110.1100470 384.091200
   1688   1687   1689     1   109.5600471 388.275200
   1688   1687   1690     1   108.4600466 328.025600
   1689   1687   1690     1   109.5600471 388.275200
   1691   1689   1693     1   108.7700466 392.459200
   1691   1689   1692     1   107.5800459 329.699200
   1692   1689   1693     1   108.7700466 392.459200
   1693   1725   1715     1   119.3800509 410.868800
   1695   1686   1697     1   109.5600471 388.275200
   1695   1686   1696     1   108.4600466 328.025600
   1696   1686   1697     1   109.5600471 388.275200
   1698   1697   1700     1   108.7700466 392.459200
   1698   1697   1699     1   107.5800459 329.699200
   1699   1697   1700     1   108.7700466 392.459200
   1700   1749   1739     1   119.3800509 410.868800
   1702   1703   1722     1   109.5600471 388.275200
   1702   1713   1716     1   109.5600471 388.275200
   1702   1713   1717     1   109.5600471 388.275200
   1703   1705   1709     1   109.5600471 388.275200
   1703   1723   1724     1   107.2600461 396.643200
   1703   1702   1704     1   109.5600471 388.275200
   1704   1702   1713     1   109.5600471 388.275200
   1704   1702   1720     1   109.7800468 425.094400
   1705   1706   1708     1   109.5600471 388.275200
   1705   1712   1714     1   107.2600461 396.643200
   1705   1703   1722     1   109.5600471 388.275200
   1706   1707   1710     1   110.2200475 386.601600
   1706   1725   1715     1   109.2900470 396.643200
   1706   1705   1709     1   109.5600471 388.275200
   1707   1711   1721     1   107.2600461 396.643200
   1707   1706   1708     1   109.5600471 388.275200
   1708   1706   1725     1   109.8800469 414.216000
   1709   1705   1712     1   110.2600474 425.931200
   1710   1707   1711     1   109.4300470 427.604800
   1710   1707   1720     1   109.5800467 425.931200
   1713   1718   1719     1   107.2600461 396.643200
   1716   1713   1718     1   110.2600474 425.931200
   1716   1713   1717     1   108.4600466 328.025600
   1717   1713   1718     1   110.2600474 425.931200
   1722   1703   1723     1   110.2600474 425.931200
   1726   1727   1746     1   109.5600471 388.275200
   1726   1737   1740     1   109.5600471 388.275200
   1726   1737   1741     1   109.5600471 388.275200
   1727   1729   1733     1   109.5600471 388.275200
   1727   1747   1748     1   107.2600461 396.643200
   1727   1726   1728     1   109.5600471 388.275200
   1728   1726   1737     1   109.5600471 388.275200
   1728   1726   1744     1   109.7800468 425.094400
   1729   1730   1732     1   109.5600471 388.275200
   1729   1736   1738     1   107.2600461 396.643200
   1729   1727   1746     1   109.5600471 388.275200
   1730   1731   1734     1   110.2200475 386.601600
   1730   1749   1739     1   109.2900470 396.643200
   1730   1729   1733     1   109.5600471 388.275200
   1731   1735   1745     1   107.2600461 396.643200
   1731   1730   1732     1   109.5600471 388.275200
   1732   1730   1749     1   109.8800469 414.216000
   1733   1729   1736     1   110.2600474 425.931200
   1734   1731   1735     1   109.4300470 427.604800
   1734   1731   1744     1   109.5800467 425.931200
   1737   1742   1743     1   107.2600461 396.643200
   1740   1737   1742     1   110.2600474 425.931200
   1740   1737   1741     1   108.4600466 328.025600
   1741   1737   1742     1   110.2600474 425.931200
   1746   1727   1747     1   110.2600474 425.931200
   1751   1753   1754     1   108.8800464 416.726400
   1751   1753   1756     1   108.8800464 416.726400
   1752   1751   1753     1   117.6800502 383.254400
   1753   1755   1757     1   109.5600471 388.275200
   1753   1755   1758     1   109.5600471 388.275200
   1754   1753   1755     1   109.5600471 388.275200
   1754   1753   1756     1   108.4600466 328.025600
   1755   1753   1756     1   109.5600471 388.275200
   1755   1759   1824     1   110.1100470 384.091200
   1757   1755   1759     1   107.9000462 406.684800
   1757   1755   1758     1   108.4600466 328.025600
   1758   1755   1759     1   107.9000462 406.684800
   1759   1760   1769     1   107.9000462 406.684800
   1759   1760   1770     1   107.9000462 406.684800
   1759   1761   1762     1   107.9000462 406.684800
   1759   1761   1764     1   107.9000462 406.684800
   1760   1759   1824     1   110.1100470 384.091200
   1760   1771   1772     1   109.8000471 387.438400
   1760   1771   1773     1   109.8000471 387.438400
   1761   1759   1824     1   110.1100470 384.091200
   1761   1763   1765     1   109.8000471 387.438400
   1761   1763   1766     1   109.8000471 387.438400
   1762   1761   1763     1   109.5600471 388.275200
   1762   1761   1764     1   108.4600466 328.025600
   1763   1761   1764     1   109.5600471 388.275200
   1765   1763   1767     1   108.7700466 392.459200
   1765   1763   1766     1   107.5800459 329.699200
   1766   1763   1767     1   108.7700466 392.459200
   1767   1799   1789     1   119.3800509 410.868800
   1769   1760   1771     1   109.5600471 388.275200
   1769   1760   1770     1   108.4600466 328.025600
   1770   1760   1771     1   109.5600471 388.275200
   1772   1771   1774     1   108.7700466 392.459200
   1772   1771   1773     1   107.5800459 329.699200
   1773   1771   1774     1   108.7700466 392.459200
   1774   1823   1813     1   119.3800509 410.868800
   1776   1777   1796     1   109.5600471 388.275200
   1776   1787   1790     1   109.5600471 388.275200
   1776   1787   1791     1   109.5600471 388.275200
   1777   1776   1778     1   109.5600471 388.275200
   1777   1779   1783     1   109.5600471 388.275200
   1777   1797   1798     1   107.2600461 396.643200
   1778   1776   1787     1   109.5600471 388.275200
   1778   1776   1794     1   109.7800468 425.094400
   1779   1777   1796     1   109.5600471 388.275200
   1779   1780   1782     1   109.5600471 388.275200
   1779   1786   1788     1   107.2600461 396.643200
   1780   1779   1783     1   109.5600471 388.275200
   1780   1781   1784     1   110.2200475 386.601600
   1780   1799   1789     1   109.2900470 396.643200
   1781   1780   1782     1   109.5600471 388.275200
   1781   1785   1795     1   107.2600461 396.643200
   1782   1780   1799     1   109.8800469 414.216000
   1783   1779   1786     1   110.2600474 425.931200
   1784   1781   1785     1   109.4300470 427.604800
   1784   1781   1794     1   109.5800467 425.931200
   1787   1792   1793     1   107.2600461 396.643200
   1790   1787   1792     1   110.2600474 425.931200
   1790   1787   1791     1   108.4600466 328.025600
   1791   1787   1792     1   110.2600474 425.931200
   1796   1777   1797     1   110.2600474 425.931200
   1800   1801   1820     1   109.5600471 388.275200
   1800   1811   1814     1   109.5600471 388.275200
   1800   1811   1815     1   109.5600471 388.275200
   1801   1800   1802     1   109.5600471 388.275200
   1801   1803   1807     1   109.5600471 388.275200
   1801   1821   1822     1   107.2600461 396.643200
   1802   1800   1811     1   109.5600471 388.275200
   1802   1800   1818     1   109.7800468 425.094400
   1803   1801   1820     1   109.5600471 388.275200
   1803   1804   1806     1   109.5600471 388.275200
   1803   1810   1812     1   107.2600461 396.643200
   1804   1803   1807     1   109.5600471 388.275200
   1804   1805   1808     1   110.2200475 386.601600
   1804   1823   1813     1   109.2900470 396.643200
   1805   1804   1806     1   109.5600471 388.275200
   1805   1809   1819     1   107.2600461 396.643200
   1806   1804   1823     1   109.8800469 414.216000
   1807   1803   1810     1   110.2600474 425.931200
   1808   1805   1809     1   109.4300470 427.604800
   1808   1805   1818     1   109.5800467 425.931200
   1811   1816   1817     1   107.2600461 396.643200
   1814   1811   1816     1   110.2600474 425.931200
   1814   1811   1815     1   108.4600466 328.025600
   1815   1811   1816     1   110.2600474 425.931200
   1820   1801   1821     1   110.2600474 425.931200
   1825   1827   1828     1   108.8800464 416.726400
   1825   1827   1830     1   108.8800464 416.726400
   1826   1825   1827     1   117.6800502 383.254400
   1827   1829   1831     1   109.5600471 388.275200
   1827   1829   1832     1   109.5600471 388.275200
   1828   1827   1829     1   109.5600471 388.275200
   1828   1827   1830     1   108.4600466 328.025600
   1829   1833   1898     1   110.1100470 384.091200
   1829   1827   1830     1   109.5600471 388.275200
   1831   1829   1833     1   107.9000462 406.684800
   1831   1829   1832     1   108.4600466 328.025600
   1832   1829   1833     1   107.9000462 406.684800
   1833   1834   1843     1   107.9000462 406.684800
   1833   1834   1844     1   107.9000462 406.684800
   1833   1835   1836     1   107.9000462 406.684800
   1833   1835   1838     1   107.9000462 406.684800
   1834   1845   1846     1   109.8000471 387.438400
   1834   1845   1847     1   109.8000471 387.438400
   1834   1833   1898     1   110.1100470 384.091200
   1835   1837   1839     1   109.8000471 387.438400
   1835   1837   1840     1   109.8000471 387.438400
   1835   1833   1898     1   110.1100470 384.091200
   1836   1835   1837     1   109.5600471 388.275200
   1836   1835   1838     1   108.4600466 328.025600
   1837   1835   1838     1   109.5600471 388.275200
   1839   1837   1841     1   108.7700466 392.459200
   1839   1837   1840     1   107.5800459 329.699200
   1840   1837   1841     1   108.7700466 392.459200
   1841   1873   1863     1   119.3800509 410.868800
   1843   1834   1845     1   109.5600471 388.275200
   1843   1834   1844     1   108.4600466 328.025600
   1844   1834   1845     1   109.5600471 388.275200
   1846   1845   1848     1   108.7700466 392.459200
   1846   1845   1847     1   107.5800459 329.699200
   1847   1845   1848     1   108.7700466 392.459200
   1848   1897   1887     1   119.3800509 410.868800
   1850   1851   1870     1   109.5600471 388.275200
   1850   1861   1864     1   109.5600471 388.275200
   1850   1861   1865     1   109.5600471 388.275200
   1851   1853   1857     1   109.5600471 388.275200
   1851   1871   1872     1   107.2600461 396.643200
   1851   1850   1852     1   109.5600471 388.275200
   1852   1850   1861     1   109.5600471 388.275200
   1852   1850   1868     1   109.7800468 425.094400
   1853   1854   1856     1   109.5600471 388.275200
   1853   1860   1862     1   107.2600461 396.643200
   1853   1851   1870     1   109.5600471 388.275200
   1854   1855   1858     1   110.2200475 386.601600
   1854   1873   1863     1   109.2900470 396.643200
   1854   1853   1857     1   109.5600471 388.275200
   1855   1859   1869     1   107.2600461 396.643200
   1855   1854   1856     1   109.5600471 388.275200
   1856   1854   1873     1   109.8800469 414.216000
   1857   1853   1860     1   110.2600474 425.931200
   1858   1855   1859     1   109.4300470 427.604800
   1858   1855   1868     1   109.5800467 425.931200
   1861   1866   1867     1   107.2600461 396.643200
   1864   1861   1866     1   110.2600474 425.931200
   1864   1861   1865     1   108.4600466 328.025600
   1865   1861   1866     1   110.2600474 425.931200
   1870   1851   1871     1   110.2600474 425.931200
   1874   1875   1894     1   109.5600471 388.275200
   1874   1885   1888     1   109.5600471 388.275200
   1874   1885   1889     1   109.5600471 388.275200
   1875   1877   1881     1   109.5600471 388.275200
   1875   1895   1896     1   107.2600461 396.643200
   1875   1874   1876     1   109.5600471 388.275200
   1876   1874   1885     1   109.5600471 388.275200
   1876   1874   1892     1   109.7800468 425.094400
   1877   1878   1880     1   109.5600471 388.275200
   1877   1884   1886     1   107.2600461 396.643200
   1877   1875   1894     1   109.5600471 388.275200
   1878   1879   1882     1   110.2200475 386.601600
   1878   1897   1887     1   109.2900470 396.643200
   1878   1877   1881     1   109.5600471 388.275200
   1879   1883   1893     1   107.2600461 396.643200
   1879   1878   1880     1   109.5600471 388.275200
   1880   1878   1897     1   109.8800469 414.216000
   1881   1877   1884     1   110.2600474 425.931200
   1882   1879   1883     1   109.4300470 427.604800
   1882   1879   1892     1   109.5800467 425.931200
   1885   1890   1891     1   107.2600461 396.643200
   1888   1885   1890     1   110.2600474 425.931200
   1888   1885   1889     1   108.4600466 328.025600
   1889   1885   1890     1   110.2600474 425.931200
   1894   1875   1895     1   110.2600474 425.931200
   1899   1901   1902     1   108.8800464 416.726400
   1899   1901   1904     1   108.8800464 416.726400
   1900   1899   1901     1   117.6800502 383.254400
   1901   1903   1905     1   109.5600471 388.275200
   1901   1903   1906     1   109.5600471 388.275200
   1902   1901   1903     1   109.5600471 388.275200
   1902   1901   1904     1   108.4600466 328.025600
   1903   1901   1904     1   109.5600471 388.275200
   1903   1907   1972     1   110.1100470 384.091200
   1905   1903   1907     1   107.9000462 406.684800
   1905   1903   1906     1   108.4600466 328.025600
   1906   1903   1907     1   107.9000462 406.684800
   1907   1908   1917     1   107.9000462 406.684800
   1907   1908   1918     1   107.9000462 406.684800
   1907   1909   1910     1   107.9000462 406.684800
   1907   1909   1912     1   107.9000462 406.684800
   1908   1907   1972     1   110.1100470 384.091200
   1908   1919   1920     1   109.8000471 387.438400
   1908   1919   1921     1   109.8000471 387.438400
   1909   1907   1972     1   110.1100470 384.091200
   1909   1911   1913     1   109.8000471 387.438400
   1909   1911   1914     1   109.8000471 387.438400
   1910   1909   1911     1   109.5600471 388.275200
   1910   1909   1912     1   108.4600466 328.025600
   1911   1909   1912     1   109.5600471 388.275200
   1913   1911   1915     1   108.7700466 392.459200
   1913   1911   1914     1   107.5800459 329.699200
   1914   1911   1915     1   108.7700466 392.459200
   1915   1947   1937     1   119.3800509 410.868800
   1917   1908   1919     1   109.5600471 388.275200
   1917   1908   1918     1   108.4600466 328.025600
   1918   1908   1919     1   109.5600471 388.275200
   1920   1919   1922     1   108.7700466 392.459200
   1920   1919   1921     1   107.5800459 329.699200
   1921   1919   1922     1   108.7700466 392.459200
   1922   1971   1961     1   119.3800509 410.868800
   1924   1925   1944     1   109.5600471 388.275200
   1924   1935   1938     1   109.5600471 388.275200
   1924   1935   1939     1   109.5600471 388.275200
   1925   1924   1926     1   109.5600471 388.275200
   1925   1927   1931     1   109.5600471 388.275200
   1925   1945   1946     1   107.2600461 396.643200
   1926   1924   1935     1   109.5600471 388.275200
   1926   1924   1942     1   109.7800468 425.094400
   1927   1925   1944     1   109.5600471 388.275200
   1927   1928   1930     1   109.5600471 388.275200
   1927   1934   1936     1   107.2600461 396.643200
   1928   1927   1931     1   109.5600471 388.275200
   1928   1929   1932     1   110.2200475 386.601600
   1928   1947   1937     1   109.2900470 396.643200
   1929   1928   1930     1   109.5600471 388.275200
   1929   1933   1943     1   107.2600461 396.643200
   1930   1928   1947     1   109.8800469 414.216000
   1931   1927   1934     1   110.2600474 425.931200
   1932   1929   1933     1   109.4300470 427.604800
   1932   1929   1942     1   109.5800467 425.931200
   1935   1940   1941     1   107.2600461 396.643200
   1938   1935   1940     1   110.2600474 425.931200
   1938   1935   1939     1   108.4600466 328.025600
   1939   1935   1940     1   110.2600474 425.931200
   1944   1925   1945     1   110.2600474 425.931200
   1948   1949   1968     1   109.5600471 388.275200
   1948   1959   1962     1   109.5600471 388.275200
   1948   1959   1963     1   109.5600471 388.275200
   1949   1948   1950     1   109.5600471 388.275200
   1949   1951   1955     1   109.5600471 388.275200
   1949   1969   1970     1   107.2600461 396.643200
   1950   1948   1959     1   109.5600471 388.275200
   1950   1948   1966     1   109.7800468 425.094400
   1951   1949   1968     1   109.5600471 388.275200
   1951   1952   1954     1   109.5600471 388.275200
   1951   1958   1960     1   107.2600461 396.643200
   1952   1951   1955     1   109.5600471 388.275200
   1952   1953   1956     1   110.2200475 386.601600
   1952   1971   1961     1   109.2900470 396.643200
   1953   1952   1954     1   109.5600471 388.275200
   1953   1957   1967     1   107.2600461 396.643200
   1954   1952   1971     1   109.8800469 414.216000
   1955   1951   1958     1   110.2600474 425.931200
   1956   1953   1957     1   109.4300470 427.604800
   1956   1953   1966     1   109.5800467 425.931200
   1959   1964   1965     1   107.2600461 396.643200
   1962   1959   1964     1   110.2600474 425.931200
   1962   1959   1963     1   108.4600466 328.025600
   1963   1959   1964     1   110.2600474 425.931200
   1968   1949   1969     1   110.2600474 425.931200
   1973   1975   1976     1   108.8800464 416.726400
   1973   1975   1978     1   108.8800464 416.726400
   1974   1973   1975     1   117.6800502 383.254400
   1975   1977   1979     1   109.5600471 388.275200
   1975   1977   1980     1   109.5600471 388.275200
   1976   1975   1977     1   109.5600471 388.275200
   1976   1975   1978     1   108.4600466 328.025600
   1977   1981   2046     1   110.1100470 384.091200
   1977   1975   1978     1   109.5600471 388.275200
   1979   1977   1981     1   107.9000462 406.684800
   1979   1977   1980     1   108.4600466 328.025600
   1980   1977   1981     1   107.9000462 406.684800
   1981   1982   1991     1   107.9000462 406.684800
   1981   1982   1992     1   107.9000462 406.684800
   1981   1983   1984     1   107.9000462 406.684800
   1981   1983   1986     1   107.9000462 406.684800
   1982   1993   1994     1   109.8000471 387.438400
   1982   1993   1995     1   109.8000471 387.438400
   1982   1981   2046     1   110.1100470 384.091200
   1983   1985   1987     1   109.8000471 387.438400
   1983   1985   1988     1   109.8000471 387.438400
   1983   1981   2046     1   110.1100470 384.091200
   1984   1983   1985     1   109.5600471 388.275200
   1984   1983   1986     1   108.4600466 328.025600
   1985   1983   1986     1   109.5600471 388.275200
   1987   1985   1989     1   108.7700466 392.459200
   1987   1985   1988     1   107.5800459 329.699200
   1988   1985   1989     1   108.7700466 392.459200
   1989   2021   2011     1   119.3800509 410.868800
   1991   1982   1993     1   109.5600471 388.275200
   1991   1982   1992     1   108.4600466 328.025600
   1992   1982   1993     1   109.5600471 388.275200
   1994   1993   1996     1   108.7700466 392.459200
   1994   1993   1995     1   107.5800459 329.699200
   1995   1993   1996     1   108.7700466 392.459200
   1996   2045   2035     1   119.3800509 410.868800
   1998   1999   2018     1   109.5600471 388.275200
   1998   2009   2012     1   109.5600471 388.275200
   1998   2009   2013     1   109.5600471 388.275200
   1999   2001   2005     1   109.5600471 388.275200
   1999   2019   2020     1   107.2600461 396.643200
   1999   1998   2000     1   109.5600471 388.275200
   2000   1998   2009     1   109.5600471 388.275200
   2000   1998   2016     1   109.7800468 425.094400
   2001   2002   2004     1   109.5600471 388.275200
   2001   2008   2010     1   107.2600461 396.643200
   2001   1999   2018     1   109.5600471 388.275200
   2002   2003   2006     1   110.2200475 386.601600
   2002   2021   2011     1   109.2900470 396.643200
   2002   2001   2005     1   109.5600471 388.275200
   2003   2007   2017     1   107.2600461 396.643200
   2003   2002   2004     1   109.5600471 388.275200
   2004   2002   2021     1   109.8800469 414.216000
   2005   2001   2008     1   110.2600474 425.931200
   2006   2003   2007     1   109.4300470 427.604800
   2006   2003   2016     1   109.5800467 425.931200
   2009   2014   2015     1   107.2600461 396.643200
   2012   2009   2014     1   110.2600474 425.931200
   2012   2009   2013     1   108.4600466 328.025600
   2013   2009   2014     1   110.2600474 425.931200
   2018   1999   2019     1   110.2600474 425.931200
   2022   2023   2042     1   109.5600471 388.275200
   2022   2033   2036     1   109.5600471 388.275200
   2022   2033   2037     1   109.5600471 388.275200
   2023   2025   2029     1   109.5600471 388.275200
   2023   2043   2044     1   107.2600461 396.643200
   2023   2022   2024     1   109.5600471 388.275200
   2024   2022   2033     1   109.5600471 388.275200
   2024   2022   2040     1   109.7800468 425.094400
   2025   2026   2028     1   109.5600471 388.275200
   2025   2032   2034     1   107.2600461 396.643200
   2025   2023   2042     1   109.5600471 388.275200
   2026   2027   2030     1   110.2200475 386.601600
   2026   2045   2035     1   109.2900470 396.643200
   2026   2025   2029     1   109.5600471 388.275200
   2027   2031   2041     1   107.2600461 396.643200
   2027   2026   2028     1   109.5600471 388.275200
   2028   2026   2045     1   109.8800469 414.216000
   2029   2025   2032     1   110.2600474 425.931200
   2030   2027   2031     1   109.4300470 427.604800
   2030   2027   2040     1   109.5800467 425.931200
   2033   2038   2039     1   107.2600461 396.643200
   2036   2033   2038     1   110.2600474 425.931200
   2036   2033   2037     1   108.4600466 328.025600
   2037   2033   2038     1   110.2600474 425.931200
   2042   2023   2043     1   110.2600474 425.931200
   2047   2049   2050     1   108.8800464 416.726400
   2047   2049   2052     1   108.8800464 416.726400
   2048   2047   2049     1   117.6800502 383.254400
   2049   2051   2053     1   109.5600471 388.275200
   2049   2051   2054     1   109.5600471 388.275200
   2050   2049   2051     1   109.5600471 388.275200
   2050   2049   2052     1   108.4600466 328.025600
   2051   2049   2052     1   109.5600471 388.275200
   2051   2055   2120     1   110.1100470 384.091200
   2053   2051   2055     1   107.9000462 406.684800
   2053   2051   2054     1   108.4600466 328.025600
   2054   2051   2055     1   107.9000462 406.684800
   2055   2056   2065     1   107.9000462 406.684800
   2055   2056   2066     1   107.9000462 406.684800
   2055   2057   2058     1   107.9000462 406.684800
   2055   2057   2060     1   107.9000462 406.684800
   2056   2055   2120     1   110.1100470 384.091200
   2056   2067   2068     1   109.8000471 387.438400
   2056   2067   2069     1   109.8000471 387.438400
   2057   2055   2120     1   110.1100470 384.091200
   2057   2059   2061     1   109.8000471 387.438400
   2057   2059   2062     1   109.8000471 387.438400
   2058   2057   2059     1   109.5600471 388.275200
   2058   2057   2060     1   108.4600466 328.025600
   2059   2057   2060     1   109.5600471 388.275200
   2061   2059   2063     1   108.7700466 392.459200
   2061   2059   2062     1   107.5800459 329.699200
   2062   2059   2063     1   108.7700466 392.459200
   2063   2095   2085     1   119.3800509 410.868800
   2065   2056   2067     1   109.5600471 388.275200
   2065   2056   2066     1   108.4600466 328.025600
   2066   2056   2067     1   109.5600471 388.275200
   2068   2067   2070     1   108.7700466 392.459200
   2068   2067   2069     1   107.5800459 329.699200
   2069   2067   2070     1   108.7700466 392.459200
   2070   2119   2109     1   119.3800509 410.868800
   2072   2073   2092     1   109.5600471 388.275200
   2072   2083   2086     1   109.5600471 388.275200
   2072   2083   2087     1   109.5600471 388.275200
   2073   2072   2074     1   109.5600471 388.275200
   2073   2075   2079     1   109.5600471 388.275200
   2073   2093   2094     1   107.2600461 396.643200
   2074   2072   2083     1   109.5600471 388.275200
   2074   2072   2090     1   109.7800468 425.094400
   2075   2073   2092     1   109.5600471 388.275200
   2075   2076   2078     1   109.5600471 388.275200
   2075   2082   2084     1   107.2600461 396.643200
   2076   2075   2079     1   109.5600471 388.275200
   2076   2077   2080     1   110.2200475 386.601600
   2076   2095   2085     1   109.2900470 396.643200
   2077   2076   2078     1   109.5600471 388.275200
   2077   2081   2091     1   107.2600461 396.643200
   2078   2076   2095     1   109.8800469 414.216000
   2079   2075   2082     1   110.2600474 425.931200
   2080   2077   2081     1   109.4300470 427.604800
   2080   2077   2090     1   109.5800467 425.931200
   2083   2088   2089     1   107.2600461 396.643200
   2086   2083   2088     1   110.2600474 425.931200
   2086   2083   2087     1   108.4600466 328.025600
   2087   2083   2088     1   110.2600474 425.931200
   2092   2073   2093     1   110.2600474 425.931200
   2096   2097   2116     1   109.5600471 388.275200
   2096   2107   2110     1   109.5600471 388.275200
   2096   2107   2111     1   109.5600471 388.275200
   2097   2096   2098     1   109.5600471 388.275200
   2097   2099   2103     1   109.5600471 388.275200
   2097   2117   2118     1   107.2600461 396.643200
   2098   2096   2107     1   109.5600471 388.275200
   2098   2096   2114     1   109.7800468 425.094400
   2099   2097   2116     1   109.5600471 388.275200
   2099   2100   2102     1   109.5600471 388.275200
   2099   2106   2108     1   107.2600461 396.643200
   2100   2099   2103     1   109.5600471 388.275200
   2100   2101   2104     1   110.2200475 386.601600
   2100   2119   2109     1   109.2900470 396.643200
   2101   2100   2102     1   109.5600471 388.275200
   2101   2105   2115     1   107.2600461 396.643200
   2102   2100   2119     1   109.8800469 414.216000
   2103   2099   2106     1   110.2600474 425.931200
   2104   2101   2105     1   109.4300470 427.604800
   2104   2101   2114     1   109.5800467 425.931200
   2107   2112   2113     1   107.2600461 396.643200
   2110   2107   2112     1   110.2600474 425.931200
   2110   2107   2111     1   108.4600466 328.025600
   2111   2107   2112     1   110.2600474 425.931200
   2116   2097   2117     1   110.2600474 425.931200
   2121   2123   2124     1   108.8800464 416.726400
   2121   2123   2126     1   108.8800464 416.726400
   2122   2121   2123     1   117.6800502 383.254400
   2123   2125   2127     1   109.5600471 388.275200
   2123   2125   2128     1   109.5600471 388.275200
   2124   2123   2125     1   109.5600471 388.275200
   2124   2123   2126     1   108.4600466 328.025600
   2125   2129   2194     1   110.1100470 384.091200
   2125   2123   2126     1   109.5600471 388.275200
   2127   2125   2129     1   107.9000462 406.684800
   2127   2125   2128     1   108.4600466 328.025600
   2128   2125   2129     1   107.9000462 406.684800
   2129   2130   2139     1   107.9000462 406.684800
   2129   2130   2140     1   107.9000462 406.684800
   2129   2131   2132     1   107.9000462 406.684800
   2129   2131   2134     1   107.9000462 406.684800
   2130   2141   2142     1   109.8000471 387.438400
   2130   2141   2143     1   109.8000471 387.438400
   2130   2129   2194     1   110.1100470 384.091200
   2131   2133   2135     1   109.8000471 387.438400
   2131   2133   2136     1   109.8000471 387.438400
   2131   2129   2194     1   110.1100470 384.091200
   2132   2131   2133     1   109.5600471 388.275200
   2132   2131   2134     1   108.4600466 328.025600
   2133   2131   2134     1   109.5600471 388.275200
   2135   2133   2137     1   108.7700466 392.459200
   2135   2133   2136     1   107.5800459 329.699200
   2136   2133   2137     1   108.7700466 392.459200
   2137   2169   2159     1   119.3800509 410.868800
   2139   2130   2141     1   109.5600471 388.275200
   2139   2130   2140     1   108.4600466 328.025600
   2140   2130   2141     1   109.5600471 388.275200
   2142   2141   2144     1   108.7700466 392.459200
   2142   2141   2143     1   107.5800459 329.699200
   2143   2141   2144     1   108.7700466 392.459200
   2144   2193   2183     1   119.3800509 410.868800
   2146   2147   2166     1   109.5600471 388.275200
   2146   2157   2160     1   109.5600471 388.275200
   2146   2157   2161     1   109.5600471 388.275200
   2147   2149   2153     1   109.5600471 388.275200
   2147   2167   2168     1   107.2600461 396.643200
   2147   2146   2148     1   109.5600471 388.275200
   2148   2146   2157     1   109.5600471 388.275200
   2148   2146   2164     1   109.7800468 425.094400
   2149   2150   2152     1   109.5600471 388.275200
   2149   2156   2158     1   107.2600461 396.643200
   2149   2147   2166     1   109.5600471 388.275200
   2150   2151   2154     1   110.2200475 386.601600
   2150   2169   2159     1   109.2900470 396.643200
   2150   2149   2153     1   109.5600471 388.275200
   2151   2155   2165     1   107.2600461 396.643200
   2151   2150   2152     1   109.5600471 388.275200
   2152   2150   2169     1   109.8800469 414.216000
   2153   2149   2156     1   110.2600474 425.931200
   2154   2151   2155     1   109.4300470 427.604800
   2154   2151   2164     1   109.5800467 425.931200
   2157   2162   2163     1   107.2600461 396.643200
   2160   2157   2162     1   110.2600474 425.931200
   2160   2157   2161     1   108.4600466 328.025600
   2161   2157   2162     1   110.2600474 425.931200
   2166   2147   2167     1   110.2600474 425.931200
   2170   2171   2190     1   109.5600471 388.275200
   2170   2181   2184     1   109.5600471 388.275200
   2170   2181   2185     1   109.5600471 388.275200
   2171   2173   2177     1   109.5600471 388.275200
   2171   2191   2192     1   107.2600461 396.643200
   2171   2170   2172     1   109.5600471 388.275200
   2172   2170   2181     1   109.5600471 388.275200
   2172   2170   2188     1   109.7800468 425.094400
   2173   2174   2176     1   109.5600471 388.275200
   2173   2180   2182     1   107.2600461 396.643200
   2173   2171   2190     1   109.5600471 388.275200
   2174   2175   2178     1   110.2200475 386.601600
   2174   2193   2183     1   109.2900470 396.643200
   2174   2173   2177     1   109.5600471 388.275200
   2175   2179   2189     1   107.2600461 396.643200
   2175   2174   2176     1   109.5600471 388.275200
   2176   2174   2193     1   109.8800469 414.216000
   2177   2173   2180     1   110.2600474 425.931200
   2178   2175   2179     1   109.4300470 427.604800
   2178   2175   2188     1   109.5800467 425.931200
   2181   2186   2187     1   107.2600461 396.643200
   2184   2181   2186     1   110.2600474 425.931200
   2184   2181   2185     1   108.4600466 328.025600
   2185   2181   2186     1   110.2600474 425.931200
   2190   2171   2191     1   110.2600474 425.931200
   2195   2197   2198     1   108.8800464 416.726400
   2195   2197   2200     1   108.8800464 416.726400
   2196   2195   2197     1   117.6800502 383.254400
   2197   2199   2201     1   109.5600471 388.275200
   2197   2199   2202     1   109.5600471 388.275200
   2198   2197   2199     1   109.5600471 388.275200
   2198   2197   2200     1   108.4600466 328.025600
   2199   2197   2200     1   109.5600471 388.275200
   2199   2203   2268     1   110.1100470 384.091200
   2201   2199   2203     1   107.9000462 406.684800
   2201   2199   2202     1   108.4600466 328.025600
   2202   2199   2203     1   107.9000462 406.684800
   2203   2204   2213     1   107.9000462 406.684800
   2203   2204   2214     1   107.9000462 406.684800
   2203   2205   2206     1   107.9000462 406.684800
   2203   2205   2208     1   107.9000462 406.684800
   2204   2203   2268     1   110.1100470 384.091200
   2204   2215   2216     1   109.8000471 387.438400
   2204   2215   2217     1   109.8000471 387.438400
   2205   2203   2268     1   110.1100470 384.091200
   2205   2207   2209     1   109.8000471 387.438400
   2205   2207   2210     1   109.8000471 387.438400
   2206   2205   2207     1   109.5600471 388.275200
   2206   2205   2208     1   108.4600466 328.025600
   2207   2205   2208     1   109.5600471 388.275200
   2209   2207   2211     1   108.7700466 392.459200
   2209   2207   2210     1   107.5800459 329.699200
   2210   2207   2211     1   108.7700466 392.459200
   2211   2243   2233     1   119.3800509 410.868800
   2213   2204   2215     1   109.5600471 388.275200
   2213   2204   2214     1   108.4600466 328.025600
   2214   2204   2215     1   109.5600471 388.275200
   2216   2215   2218     1   108.7700466 392.459200
   2216   2215   2217     1   107.5800459 329.699200
   2217   2215   2218     1   108.7700466 392.459200
   2218   2267   2257     1   119.3800509 410.868800
   2220   2221   2240     1   109.5600471 388.275200
   2220   2231   2234     1   109.5600471 388.275200
   2220   2231   2235     1   109.5600471 388.275200
   2221   2220   2222     1   109.5600471 388.275200
   2221   2223   2227     1   109.5600471 388.275200
   2221   2241   2242     1   107.2600461 396.643200
   2222   2220   2231     1   109.5600471 388.275200
   2222   2220   2238     1   109.7800468 425.094400
   2223   2221   2240     1   109.5600471 388.275200
   2223   2224   2226     1   109.5600471 388.275200
   2223   2230   2232     1   107.2600461 396.643200
   2224   2223   2227     1   109.5600471 388.275200
   2224   2225   2228     1   110.2200475 386.601600
   2224   2243   2233     1   109.2900470 396.643200
   2225   2224   2226     1   109.5600471 388.275200
   2225   2229   2239     1   107.2600461 396.643200
   2226   2224   2243     1   109.8800469 414.216000
   2227   2223   2230     1   110.2600474 425.931200
   2228   2225   2229     1   109.4300470 427.604800
   2228   2225   2238     1   109.5800467 425.931200
   2231   2236   2237     1   107.2600461 396.643200
   2234   2231   2236     1   110.2600474 425.931200
   2234   2231   2235     1   108.4600466 328.025600
   2235   2231   2236     1   110.2600474 425.931200
   2240   2221   2241     1   110.2600474 425.931200
   2244   2245   2264     1   109.5600471 388.275200
   2244   2255   2258     1   109.5600471 388.275200
   2244   2255   2259     1   109.5600471 388.275200
   2245   2244   2246     1   109.5600471 388.275200
   2245   2247   2251     1   109.5600471 388.275200
   2245   2265   2266     1   107.2600461 396.643200
   2246   2244   2255     1   109.5600471 388.275200
   2246   2244   2262     1   109.7800468 425.094400
   2247   2245   2264     1   109.5600471 388.275200
   2247   2248   2250     1   109.5600471 388.275200
   2247   2254   2256     1   107.2600461 396.643200
   2248   2247   2251     1   109.5600471 388.275200
   2248   2249   2252     1   110.2200475 386.601600
   2248   2267   2257     1   109.2900470 396.643200
   2249   2248   2250     1   109.5600471 388.275200
   2249   2253   2263     1   107.2600461 396.643200
   2250   2248   2267     1   109.8800469 414.216000
   2251   2247   2254     1   110.2600474 425.931200
   2252   2249   2253     1   109.4300470 427.604800
   2252   2249   2262     1   109.5800467 425.931200
   2255   2260   2261     1   107.2600461 396.643200
   2258   2255   2260     1   110.2600474 425.931200
   2258   2255   2259     1   108.4600466 328.025600
   2259   2255   2260     1   110.2600474 425.931200
   2264   2245   2265     1   110.2600474 425.931200
   2269   2271   2272     1   108.8800464 416.726400
   2269   2271   2274     1   108.8800464 416.726400
   2270   2269   2271     1   117.6800502 383.254400
   2271   2273   2275     1   109.5600471 388.275200
   2271   2273   2276     1   109.5600471 388.275200
   2272   2271   2273     1   109.5600471 388.275200
   2272   2271   2274     1   108.4600466 328.025600
   2273   2277   2342     1   110.1100470 384.091200
   2273   2271   2274     1   109.5600471 388.275200
   2275   2273   2277     1   107.9000462 406.684800
   2275   2273   2276     1   108.4600466 328.025600
   2276   2273   2277     1   107.9000462 406.684800
   2277   2278   2287     1   107.9000462 406.684800
   2277   2278   2288     1   107.9000462 406.684800
   2277   2279   2280     1   107.9000462 406.684800
   2277   2279   2282     1   107.9000462 406.684800
   2278   2289   2290     1   109.8000471 387.438400
   2278   2289   2291     1   109.8000471 387.438400
   2278   2277   2342     1   110.1100470 384.091200
   2279   2281   2283     1   109.8000471 387.438400
   2279   2281   2284     1   109.8000471 387.438400
   2279   2277   2342     1   110.1100470 384.091200
   2280   2279   2281     1   109.5600471 388.275200
   2280   2279   2282     1   108.4600466 328.025600
   2281   2279   2282     1   109.5600471 388.275200
   2283   2281   2285     1   108.7700466 392.459200
   2283   2281   2284     1   107.5800459 329.699200
   2284   2281   2285     1   108.7700466 392.459200
   2285   2317   2307     1   119.3800509 410.868800
   2287   2278   2289     1   109.5600471 388.275200
   2287   2278   2288     1   108.4600466 328.025600
   2288   2278   2289     1   109.5600471 388.275200
   2290   2289   2292     1   108.7700466 392.459200
   2290   2289   2291     1   107.5800459 329.699200
   2291   2289   2292     1   108.7700466 392.459200
   2292   2341   2331     1   119.3800509 410.868800
   2294   2295   2314     1   109.5600471 388.275200
   2294   2305   2308     1   109.5600471 388.275200
   2294   2305   2309     1   109.5600471 388.275200
   2295   2297   2301     1   109.5600471 388.275200
   2295   2315   2316     1   107.2600461 396.643200
   2295   2294   2296     1   109.5600471 388.275200
   2296   2294   2305     1   109.5600471 388.275200
   2296   2294   2312     1   109.7800468 425.094400
   2297   2298   2300     1   109.5600471 388.275200
   2297   2304   2306     1   107.2600461 396.643200
   2297   2295   2314     1   109.5600471 388.275200
   2298   2299   2302     1   110.2200475 386.601600
   2298   2317   2307     1   109.2900470 396.643200
   2298   2297   2301     1   109.5600471 388.275200
   2299   2303   2313     1   107.2600461 396.643200
   2299   2298   2300     1   109.5600471 388.275200
   2300   2298   2317     1   109.8800469 414.216000
   2301   2297   2304     1   110.2600474 425.931200
   2302   2299   2303     1   109.4300470 427.604800
   2302   2299   2312     1   109.5800467 425.931200
   2305   2310   2311     1   107.2600461 396.643200
   2308   2305   2310     1   110.2600474 425.931200
   2308   2305   2309     1   108.4600466 328.025600
   2309   2305   2310     1   110.2600474 425.931200
   2314   2295   2315     1   110.2600474 425.931200
   2318   2319   2338     1   109.5600471 388.275200
   2318   2329   2332     1   109.5600471 388.275200
   2318   2329   2333     1   109.5600471 388.275200
   2319   2321   2325     1   109.5600471 388.275200
   2319   2339   2340     1   107.2600461 396.643200
   2319   2318   2320     1   109.5600471 388.275200
   2320   2318   2329     1   109.5600471 388.275200
   2320   2318   2336     1   109.7800468 425.094400
   2321   2322   2324     1   109.5600471 388.275200
   2321   2328   2330     1   107.2600461 396.643200
   2321   2319   2338     1   109.5600471 388.275200
   2322   2323   2326     1   110.2200475 386.601600
   2322   2341   2331     1   109.2900470 396.643200
   2322   2321   2325     1   109.5600471 388.275200
   2323   2327   2337     1   107.2600461 396.643200
   2323   2322   2324     1   109.5600471 388.275200
   2324   2322   2341     1   109.8800469 414.216000
   2325   2321   2328     1   110.2600474 425.931200
   2326   2323   2327     1   109.4300470 427.604800
   2326   2323   2336     1   109.5800467 425.931200
   2329   2334   2335     1   107.2600461 396.643200
   2332   2329   2334     1   110.2600474 425.931200
   2332   2329   2333     1   108.4600466 328.025600
   2333   2329   2334     1   110.2600474 425.931200
   2338   2319   2339     1   110.2600474 425.931200
   2343   2345   2346     1   108.8800464 416.726400
   2343   2345   2348     1   108.8800464 416.726400
   2344   2343   2345     1   117.6800502 383.254400
   2345   2347   2349     1   109.5600471 388.275200
   2345   2347   2350     1   109.5600471 388.275200
   2346   2345   2347     1   109.5600471 388.275200
   2346   2345   2348     1   108.4600466 328.025600
   2347   2345   2348     1   109.5600471 388.275200
   2347   2351   2416     1   110.1100470 384.091200
   2349   2347   2351     1   107.9000462 406.684800
   2349   2347   2350     1   108.4600466 328.025600
   2350   2347   2351     1   107.9000462 406.684800
   2351   2352   2361     1   107.9000462 406.684800
   2351   2352   2362     1   107.9000462 406.684800
   2351   2353   2354     1   107.9000462 406.684800
   2351   2353   2356     1   107.9000462 406.684800
   2352   2351   2416     1   110.1100470 384.091200
   2352   2363   2364     1   109.8000471 387.438400
   2352   2363   2365     1   109.8000471 387.438400
   2353   2351   2416     1   110.1100470 384.091200
   2353   2355   2357     1   109.8000471 387.438400
   2353   2355   2358     1   109.8000471 387.438400
   2354   2353   2355     1   109.5600471 388.275200
   2354   2353   2356     1   108.4600466 328.025600
   2355   2353   2356     1   109.5600471 388.275200
   2357   2355   2359     1   108.7700466 392.459200
   2357   2355   2358     1   107.5800459 329.699200
   2358   2355   2359     1   108.7700466 392.459200
   2359   2391   2381     1   119.3800509 410.868800
   2361   2352   2363     1   109.5600471 388.275200
   2361   2352   2362     1   108.4600466 328.025600
   2362   2352   2363     1   109.5600471 388.275200
   2364   2363   2366     1   108.7700466 392.459200
   2364   2363   2365     1   107.5800459 329.699200
   2365   2363   2366     1   108.7700466 392.459200
   2366   2415   2405     1   119.3800509 410.868800
   2368   2369   2388     1   109.5600471 388.275200
   2368   2379   2382     1   109.5600471 388.275200
   2368   2379   2383     1   109.5600471 388.275200
   2369   2368   2370     1   109.5600471 388.275200
   2369   2371   2375     1   109.5600471 388.275200
   2369   2389   2390     1   107.2600461 396.643200
   2370   2368   2379     1   109.5600471 388.275200
   2370   2368   2386     1   109.7800468 425.094400
   2371   2369   2388     1   109.5600471 388.275200
   2371   2372   2374     1   109.5600471 388.275200
   2371   2378   2380     1   107.2600461 396.643200
   2372   2371   2375     1   109.5600471 388.275200
   2372   2373   2376     1   110.2200475 386.601600
   2372   2391   2381     1   109.2900470 396.643200
   2373   2372   2374     1   109.5600471 388.275200
   2373   2377   2387     1   107.2600461 396.643200
   2374   2372   2391     1   109.8800469 414.216000
   2375   2371   2378     1   110.2600474 425.931200
   2376   2373   2377     1   109.4300470 427.604800
   2376   2373   2386     1   109.5800467 425.931200
   2379   2384   2385     1   107.2600461 396.643200
   2382   2379   2384     1   110.2600474 425.931200
   2382   2379   2383     1   108.4600466 328.025600
   2383   2379   2384     1   110.2600474 425.931200
   2388   2369   2389     1   110.2600474 425.931200
   2392   2393   2412     1   109.5600471 388.275200
   2392   2403   2406     1   109.5600471 388.275200
   2392   2403   2407     1   109.5600471 388.275200
   2393   2392   2394     1   109.5600471 388.275200
   2393   2395   2399     1   109.5600471 388.275200
   2393   2413   2414     1   107.2600461 396.643200
   2394   2392   2403     1   109.5600471 388.275200
   2394   2392   2410     1   109.7800468 425.094400
   2395   2393   2412     1   109.5600471 388.275200
   2395   2396   2398     1   109.5600471 388.275200
   2395   2402   2404     1   107.2600461 396.643200
   2396   2395   2399     1   109.5600471 388.275200
   2396   2397   2400     1   110.2200475 386.601600
   2396   2415   2405     1   109.2900470 396.643200
   2397   2396   2398     1   109.5600471 388.275200
   2397   2401   2411     1   107.2600461 396.643200
   2398   2396   2415     1   109.8800469 414.216000
   2399   2395   2402     1   110.2600474 425.931200
   2400   2397   2401     1   109.4300470 427.604800
   2400   2397   2410     1   109.5800467 425.931200
   2403   2408   2409     1   107.2600461 396.643200
   2406   2403   2408     1   110.2600474 425.931200
   2406   2403   2407     1   108.4600466 328.025600
   2407   2403   2408     1   110.2600474 425.931200
   2412   2393   2413     1   110.2600474 425.931200
   2417   2419   2420     1   108.8800464 416.726400
   2417   2419   2422     1   108.8800464 416.726400
   2418   2417   2419     1   117.6800502 383.254400
   2419   2421   2423     1   109.5600471 388.275200
   2419   2421   2424     1   109.5600471 388.275200
   2420   2419   2421     1   109.5600471 388.275200
   2420   2419   2422     1   108.4600466 328.025600
   2421   2425   2490     1   110.1100470 384.091200
   2421   2419   2422     1   109.5600471 388.275200
   2423   2421   2425     1   107.9000462 406.684800
   2423   2421   2424     1   108.4600466 328.025600
   2424   2421   2425     1   107.9000462 406.684800
   2425   2426   2435     1   107.9000462 406.684800
   2425   2426   2436     1   107.9000462 406.684800
   2425   2427   2428     1   107.9000462 406.684800
   2425   2427   2430     1   107.9000462 406.684800
   2426   2437   2438     1   109.8000471 387.438400
   2426   2437   2439     1   109.8000471 387.438400
   2426   2425   2490     1   110.1100470 384.091200
   2427   2429   2431     1   109.8000471 387.438400
   2427   2429   2432     1   109.8000471 387.438400
   2427   2425   2490     1   110.1100470 384.091200
   2428   2427   2429     1   109.5600471 388.275200
   2428   2427   2430     1   108.4600466 328.025600
   2429   2427   2430     1   109.5600471 388.275200
   2431   2429   2433     1   108.7700466 392.459200
   2431   2429   2432     1   107.5800459 329.699200
   2432   2429   2433     1   108.7700466 392.459200
   2433   2465   2455     1   119.3800509 410.868800
   2435   2426   2437     1   109.5600471 388.275200
   2435   2426   2436     1   108.4600466 328.025600
   2436   2426   2437     1   109.5600471 388.275200
   2438   2437   2440     1   108.7700466 392.459200
   2438   2437   2439     1   107.5800459 329.699200
   2439   2437   2440     1   108.7700466 392.459200
   2440   2489   2479     1   119.3800509 410.868800
   2442   2443   2462     1   109.5600471 388.275200
   2442   2453   2456     1   109.5600471 388.275200
   2442   2453   2457     1   109.5600471 388.275200
   2443   2445   2449     1   109.5600471 388.275200
   2443   2463   2464     1   107.2600461 396.643200
   2443   2442   2444     1   109.5600471 388.275200
   2444   2442   2453     1   109.5600471 388.275200
   2444   2442   2460     1   109.7800468 425.094400
   2445   2446   2448     1   109.5600471 388.275200
   2445   2452   2454     1   107.2600461 396.643200
   2445   2443   2462     1   109.5600471 388.275200
   2446   2447   2450     1   110.2200475 386.601600
   2446   2465   2455     1   109.2900470 396.643200
   2446   2445   2449     1   109.5600471 388.275200
   2447   2451   2461     1   107.2600461 396.643200
   2447   2446   2448     1   109.5600471 388.275200
   2448   2446   2465     1   109.8800469 414.216000
   2449   2445   2452     1   110.2600474 425.931200
   2450   2447   2451     1   109.4300470 427.604800
   2450   2447   2460     1   109.5800467 425.931200
   2453   2458   2459     1   107.2600461 396.643200
   2456   2453   2458     1   110.2600474 425.931200
   2456   2453   2457     1   108.4600466 328.025600
   2457   2453   2458     1   110.2600474 425.931200
   2462   2443   2463     1   110.2600474 425.931200
   2466   2467   2486     1   109.5600471 388.275200
   2466   2477   2480     1   109.5600471 388.275200
   2466   2477   2481     1   109.5600471 388.275200
   2467   2469   2473     1   109.5600471 388.275200
   2467   2487   2488     1   107.2600461 396.643200
   2467   2466   2468     1   109.5600471 388.275200
   2468   2466   2477     1   109.5600471 388.275200
   2468   2466   2484     1   109.7800468 425.094400
   2469   2470   2472     1   109.5600471 388.275200
   2469   2476   2478     1   107.2600461 396.643200
   2469   2467   2486     1   109.5600471 388.275200
   2470   2471   2474     1   110.2200475 386.601600
   2470   2489   2479     1   109.2900470 396.643200
   2470   2469   2473     1   109.5600471 388.275200
   2471   2475   2485     1   107.2600461 396.643200
   2471   2470   2472     1   109.5600471 388.275200
   2472   2470   2489     1   109.8800469 414.216000
   2473   2469   2476     1   110.2600474 425.931200
   2474   2471   2475     1   109.4300470 427.604800
   2474   2471   2484     1   109.5800467 425.931200
   2477   2482   2483     1   107.2600461 396.643200
   2480   2477   2482     1   110.2600474 425.931200
   2480   2477   2481     1   108.4600466 328.025600
   2481   2477   2482     1   110.2600474 425.931200
   2486   2467   2487     1   110.2600474 425.931200
   2491   2493   2494     1   108.8800464 416.726400
   2491   2493   2496     1   108.8800464 416.726400
   2492   2491   2493     1   117.6800502 383.254400
   2493   2495   2497     1   109.5600471 388.275200
   2493   2495   2498     1   109.5600471 388.275200
   2494   2493   2495     1   109.5600471 388.275200
   2494   2493   2496     1   108.4600466 328.025600
   2495   2493   2496     1   109.5600471 388.275200
   2495   2499   2564     1   110.1100470 384.091200
   2497   2495   2499     1   107.9000462 406.684800
   2497   2495   2498     1   108.4600466 328.025600
   2498   2495   2499     1   107.9000462 406.684800
   2499   2500   2509     1   107.9000462 406.684800
   2499   2500   2510     1   107.9000462 406.684800
   2499   2501   2502     1   107.9000462 406.684800
   2499   2501   2504     1   107.9000462 406.684800
   2500   2499   2564     1   110.1100470 384.091200
   2500   2511   2512     1   109.8000471 387.438400
   2500   2511   2513     1   109.8000471 387.438400
   2501   2499   2564     1   110.1100470 384.091200
   2501   2503   2505     1   109.8000471 387.438400
   2501   2503   2506     1   109.8000471 387.438400
   2502   2501   2503     1   109.5600471 388.275200
   2502   2501   2504     1   108.4600466 328.025600
   2503   2501   2504     1   109.5600471 388.275200
   2505   2503   2507     1   108.7700466 392.459200
   2505   2503   2506     1   107.5800459 329.699200
   2506   2503   2507     1   108.7700466 392.459200
   2507   2539   2529     1   119.3800509 410.868800
   2509   2500   2511     1   109.5600471 388.275200
   2509   2500   2510     1   108.4600466 328.025600
   2510   2500   2511     1   109.5600471 388.275200
   2512   2511   2514     1   108.7700466 392.459200
   2512   2511   2513     1   107.5800459 329.699200
   2513   2511   2514     1   108.7700466 392.459200
   2514   2563   2553     1   119.3800509 410.868800
   2516   2517   2536     1   109.5600471 388.275200
   2516   2527   2530     1   109.5600471 388.275200
   2516   2527   2531     1   109.5600471 388.275200
   2517   2516   2518     1   109.5600471 388.275200
   2517   2519   2523     1   109.5600471 388.275200
   2517   2537   2538     1   107.2600461 396.643200
   2518   2516   2527     1   109.5600471 388.275200
   2518   2516   2534     1   109.7800468 425.094400
   2519   2517   2536     1   109.5600471 388.275200
   2519   2520   2522     1   109.5600471 388.275200
   2519   2526   2528     1   107.2600461 396.643200
   2520   2519   2523     1   109.5600471 388.275200
   2520   2521   2524     1   110.2200475 386.601600
   2520   2539   2529     1   109.2900470 396.643200
   2521   2520   2522     1   109.5600471 388.275200
   2521   2525   2535     1   107.2600461 396.643200
   2522   2520   2539     1   109.8800469 414.216000
   2523   2519   2526     1   110.2600474 425.931200
   2524   2521   2525     1   109.4300470 427.604800
   2524   2521   2534     1   109.5800467 425.931200
   2527   2532   2533     1   107.2600461 396.643200
   2530   2527   2532     1   110.2600474 425.931200
   2530   2527   2531     1   108.4600466 328.025600
   2531   2527   2532     1   110.2600474 425.931200
   2536   2517   2537     1   110.2600474 425.931200
   2540   2541   2560     1   109.5600471 388.275200
   2540   2551   2554     1   109.5600471 388.275200
   2540   2551   2555     1   109.5600471 388.275200
   2541   2540   2542     1   109.5600471 388.275200
   2541   2543   2547     1   109.5600471 388.275200
   2541   2561   2562     1   107.2600461 396.643200
   2542   2540   2551     1   109.5600471 388.275200
   2542   2540   2558     1   109.7800468 425.094400
   2543   2541   2560     1   109.5600471 388.275200
   2543   2544   2546     1   109.5600471 388.275200
   2543   2550   2552     1   107.2600461 396.643200
   2544   2543   2547     1   109.5600471 388.275200
   2544   2545   2548     1   110.2200475 386.601600
   2544   2563   2553     1   109.2900470 396.643200
   2545   2544   2546     1   109.5600471 388.275200
   2545   2549   2559     1   107.2600461 396.643200
   2546   2544   2563     1   109.8800469 414.216000
   2547   2543   2550     1   110.2600474 425.931200
   2548   2545   2549     1   109.4300470 427.604800
   2548   2545   2558     1   109.5800467 425.931200
   2551   2556   2557     1   107.2600461 396.643200
   2554   2551   2556     1   110.2600474 425.931200
   2554   2551   2555     1   108.4600466 328.025600
   2555   2551   2556     1   110.2600474 425.931200
   2560   2541   2561     1   110.2600474 425.931200
   2565   2567   2568     1   108.8800464 416.726400
   2565   2567   2570     1   108.8800464 416.726400
   2566   2565   2567     1   117.6800502 383.254400
   2567   2569   2571     1   109.5600471 388.275200
   2567   2569   2572     1   109.5600471 388.275200
   2568   2567   2569     1   109.5600471 388.275200
   2568   2567   2570     1   108.4600466 328.025600
   2569   2573   2638     1   110.1100470 384.091200
   2569   2567   2570     1   109.5600471 388.275200
   2571   2569   2573     1   107.9000462 406.684800
   2571   2569   2572     1   108.4600466 328.025600
   2572   2569   2573     1   107.9000462 406.684800
   2573   2574   2583     1   107.9000462 406.684800
   2573   2574   2584     1   107.9000462 406.684800
   2573   2575   2576     1   107.9000462 406.684800
   2573   2575   2578     1   107.9000462 406.684800
   2574   2585   2586     1   109.8000471 387.438400
   2574   2585   2587     1   109.8000471 387.438400
   2574   2573   2638     1   110.1100470 384.091200
   2575   2577   2579     1   109.8000471 387.438400
   2575   2577   2580     1   109.8000471 387.438400
   2575   2573   2638     1   110.1100470 384.091200
   2576   2575   2577     1   109.5600471 388.275200
   2576   2575   2578     1   108.4600466 328.025600
   2577   2575   2578     1   109.5600471 388.275200
   2579   2577   2581     1   108.7700466 392.459200
   2579   2577   2580     1   107.5800459 329.699200
   2580   2577   2581     1   108.7700466 392.459200
   2581   2613   2603     1   119.3800509 410.868800
   2583   2574   2585     1   109.5600471 388.275200
   2583   2574   2584     1   108.4600466 328.025600
   2584   2574   2585     1   109.5600471 388.275200
   2586   2585   2588     1   108.7700466 392.459200
   2586   2585   2587     1   107.5800459 329.699200
   2587   2585   2588     1   108.7700466 392.459200
   2588   2637   2627     1   119.3800509 410.868800
   2590   2591   2610     1   109.5600471 388.275200
   2590   2601   2604     1   109.5600471 388.275200
   2590   2601   2605     1   109.5600471 388.275200
   2591   2593   2597     1   109.5600471 388.275200
   2591   2611   2612     1   107.2600461 396.643200
   2591   2590   2592     1   109.5600471 388.275200
   2592   2590   2601     1   109.5600471 388.275200
   2592   2590   2608     1   109.7800468 425.094400
   2593   2594   2596     1   109.5600471 388.275200
   2593   2600   2602     1   107.2600461 396.643200
   2593   2591   2610     1   109.5600471 388.275200
   2594   2595   2598     1   110.2200475 386.601600
   2594   2613   2603     1   109.2900470 396.643200
   2594   2593   2597     1   109.5600471 388.275200
   2595   2599   2609     1   107.2600461 396.643200
   2595   2594   2596     1   109.5600471 388.275200
   2596   2594   2613     1   109.8800469 414.216000
   2597   2593   2600     1   110.2600474 425.931200
   2598   2595   2599     1   109.4300470 427.604800
   2598   2595   2608     1   109.5800467 425.931200
   2601   2606   2607     1   107.2600461 396.643200
   2604   2601   2606     1   110.2600474 425.931200
   2604   2601   2605     1   108.4600466 328.025600
   2605   2601   2606     1   110.2600474 425.931200
   2610   2591   2611     1   110.2600474 425.931200
   2614   2615   2634     1   109.5600471 388.275200
   2614   2625   2628     1   109.5600471 388.275200
   2614   2625   2629     1   109.5600471 388.275200
   2615   2617   2621     1   109.5600471 388.275200
   2615   2635   2636     1   107.2600461 396.643200
   2615   2614   2616     1   109.5600471 388.275200
   2616   2614   2625     1   109.5600471 388.275200
   2616   2614   2632     1   109.7800468 425.094400
   2617   2618   2620     1   109.5600471 388.275200
   2617   2624   2626     1   107.2600461 396.643200
   2617   2615   2634     1   109.5600471 388.275200
   2618   2619   2622     1   110.2200475 386.601600
   2618   2637   2627     1   109.2900470 396.643200
   2618   2617   2621     1   109.5600471 388.275200
   2619   2623   2633     1   107.2600461 396.643200
   2619   2618   2620     1   109.5600471 388.275200
   2620   2618   2637     1   109.8800469 414.216000
   2621   2617   2624     1   110.2600474 425.931200
   2622   2619   2623     1   109.4300470 427.604800
   2622   2619   2632     1   109.5800467 425.931200
   2625   2630   2631     1   107.2600461 396.643200
   2628   2625   2630     1   110.2600474 425.931200
   2628   2625   2629     1   108.4600466 328.025600
   2629   2625   2630     1   110.2600474 425.931200
   2634   2615   2635     1   110.2600474 425.931200
   2639   2641   2642     1   108.8800464 416.726400
   2639   2641   2644     1   108.8800464 416.726400
   2640   2639   2641     1   117.6800502 383.254400
   2641   2643   2645     1   109.5600471 388.275200
   2641   2643   2646     1   109.5600471 388.275200
   2642   2641   2643     1   109.5600471 388.275200
   2642   2641   2644     1   108.4600466 328.025600
   2643   2641   2644     1   109.5600471 388.275200
   2643   2647   2712     1   110.1100470 384.091200
   2645   2643   2647     1   107.9000462 406.684800
   2645   2643   2646     1   108.4600466 328.025600
   2646   2643   2647     1   107.9000462 406.684800
   2647   2648   2657     1   107.9000462 406.684800
   2647   2648   2658     1   107.9000462 406.684800
   2647   2649   2650     1   107.9000462 406.684800
   2647   2649   2652     1   107.9000462 406.684800
   2648   2647   2712     1   110.1100470 384.091200
   2648   2659   2660     1   109.8000471 387.438400
   2648   2659   2661     1   109.8000471 387.438400
   2649   2647   2712     1   110.1100470 384.091200
   2649   2651   2653     1   109.8000471 387.438400
   2649   2651   2654     1   109.8000471 387.438400
   2650   2649   2651     1   109.5600471 388.275200
   2650   2649   2652     1   108.4600466 328.025600
   2651   2649   2652     1   109.5600471 388.275200
   2653   2651   2655     1   108.7700466 392.459200
   2653   2651   2654     1   107.5800459 329.699200
   2654   2651   2655     1   108.7700466 392.459200
   2655   2687   2677     1   119.3800509 410.868800
   2657   2648   2659     1   109.5600471 388.275200
   2657   2648   2658     1   108.4600466 328.025600
   2658   2648   2659     1   109.5600471 388.275200
   2660   2659   2662     1   108.7700466 392.459200
   2660   2659   2661     1   107.5800459 329.699200
   2661   2659   2662     1   108.7700466 392.459200
   2662   2711   2701     1   119.3800509 410.868800
   2664   2665   2684     1   109.5600471 388.275200
   2664   2675   2678     1   109.5600471 388.275200
   2664   2675   2679     1   109.5600471 388.275200
   2665   2664   2666     1   109.5600471 388.275200
   2665   2667   2671     1   109.5600471 388.275200
   2665   2685   2686     1   107.2600461 396.643200
   2666   2664   2675     1   109.5600471 388.275200
   2666   2664   2682     1   109.7800468 425.094400
   2667   2665   2684     1   109.5600471 388.275200
   2667   2668   2670     1   109.5600471 388.275200
   2667   2674   2676     1   107.2600461 396.643200
   2668   2667   2671     1   109.5600471 388.275200
   2668   2669   2672     1   110.2200475 386.601600
   2668   2687   2677     1   109.2900470 396.643200
   2669   2668   2670     1   109.5600471 388.275200
   2669   2673   2683     1   107.2600461 396.643200
   2670   2668   2687     1   109.8800469 414.216000
   2671   2667   2674     1   110.2600474 425.931200
   2672   2669   2673     1   109.4300470 427.604800
   2672   2669   2682     1   109.5800467 425.931200
   2675   2680   2681     1   107.2600461 396.643200
   2678   2675   2680     1   110.2600474 425.931200
   2678   2675   2679     1   108.4600466 328.025600
   2679   2675   2680     1   110.2600474 425.931200
   2684   2665   2685     1   110.2600474 425.931200
   2688   2689   2708     1   109.5600471 388.275200
   2688   2699   2702     1   109.5600471 388.275200
   2688   2699   2703     1   109.5600471 388.275200
   2689   2688   2690     1   109.5600471 388.275200
   2689   2691   2695     1   109.5600471 388.275200
   2689   2709   2710     1   107.2600461 396.643200
   2690   2688   2699     1   109.5600471 388.275200
   2690   2688   2706     1   109.7800468 425.094400
   2691   2689   2708     1   109.5600471 388.275200
   2691   2692   2694     1   109.5600471 388.275200
   2691   2698   2700     1   107.2600461 396.643200
   2692   2691   2695     1   109.5600471 388.275200
   2692   2693   2696     1   110.2200475 386.601600
   2692   2711   2701     1   109.2900470 396.643200
   2693   2692   2694     1   109.5600471 388.275200
   2693   2697   2707     1   107.2600461 396.643200
   2694   2692   2711     1   109.8800469 414.216000
   2695   2691   2698     1   110.2600474 425.931200
   2696   2693   2697     1   109.4300470 427.604800
   2696   2693   2706     1   109.5800467 425.931200
   2699   2704   2705     1   107.2600461 396.643200
   2702   2699   2704     1   110.2600474 425.931200
   2702   2699   2703     1   108.4600466 328.025600
   2703   2699   2704     1   110.2600474 425.931200
   2708   2689   2709     1   110.2600474 425.931200
   2713   2715   2716     1   108.8800464 416.726400
   2713   2715   2718     1   108.8800464 416.726400
   2714   2713   2715     1   117.6800502 383.254400
   2715   2717   2719     1   109.5600471 388.275200
   2715   2717   2720     1   109.5600471 388.275200
   2716   2715   2717     1   109.5600471 388.275200
   2716   2715   2718     1   108.4600466 328.025600
   2717   2721   2786     1   110.1100470 384.091200
   2717   2715   2718     1   109.5600471 388.275200
   2719   2717   2721     1   107.9000462 406.684800
   2719   2717   2720     1   108.4600466 328.025600
   2720   2717   2721     1   107.9000462 406.684800
   2721   2722   2731     1   107.9000462 406.684800
   2721   2722   2732     1   107.9000462 406.684800
   2721   2723   2724     1   107.9000462 406.684800
   2721   2723   2726     1   107.9000462 406.684800
   2722   2733   2734     1   109.8000471 387.438400
   2722   2733   2735     1   109.8000471 387.438400
   2722   2721   2786     1   110.1100470 384.091200
   2723   2725   2727     1   109.8000471 387.438400
   2723   2725   2728     1   109.8000471 387.438400
   2723   2721   2786     1   110.1100470 384.091200
   2724   2723   2725     1   109.5600471 388.275200
   2724   2723   2726     1   108.4600466 328.025600
   2725   2723   2726     1   109.5600471 388.275200
   2727   2725   2729     1   108.7700466 392.459200
   2727   2725   2728     1   107.5800459 329.699200
   2728   2725   2729     1   108.7700466 392.459200
   2729   2761   2751     1   119.3800509 410.868800
   2731   2722   2733     1   109.5600471 388.275200
   2731   2722   2732     1   108.4600466 328.025600
   2732   2722   2733     1   109.5600471 388.275200
   2734   2733   2736     1   108.7700466 392.459200
   2734   2733   2735     1   107.5800459 329.699200
   2735   2733   2736     1   108.7700466 392.459200
   2736   2785   2775     1   119.3800509 410.868800
   2738   2739   2758     1   109.5600471 388.275200
   2738   2749   2752     1   109.5600471 388.275200
   2738   2749   2753     1   109.5600471 388.275200
   2739   2741   2745     1   109.5600471 388.275200
   2739   2759   2760     1   107.2600461 396.643200
   2739   2738   2740     1   109.5600471 388.275200
   2740   2738   2749     1   109.5600471 388.275200
   2740   2738   2756     1   109.7800468 425.094400
   2741   2742   2744     1   109.5600471 388.275200
   2741   2748   2750     1   107.2600461 396.643200
   2741   2739   2758     1   109.5600471 388.275200
   2742   2743   2746     1   110.2200475 386.601600
   2742   2761   2751     1   109.2900470 396.643200
   2742   2741   2745     1   109.5600471 388.275200
   2743   2747   2757     1   107.2600461 396.643200
   2743   2742   2744     1   109.5600471 388.275200
   2744   2742   2761     1   109.8800469 414.216000
   2745   2741   2748     1   110.2600474 425.931200
   2746   2743   2747     1   109.4300470 427.604800
   2746   2743   2756     1   109.5800467 425.931200
   2749   2754   2755     1   107.2600461 396.643200
   2752   2749   2754     1   110.2600474 425.931200
   2752   2749   2753     1   108.4600466 328.025600
   2753   2749   2754     1   110.2600474 425.931200
   2758   2739   2759     1   110.2600474 425.931200
   2762   2763   2782     1   109.5600471 388.275200
   2762   2773   2776     1   109.5600471 388.275200
   2762   2773   2777     1   109.5600471 388.275200
   2763   2765   2769     1   109.5600471 388.275200
   2763   2783   2784     1   107.2600461 396.643200
   2763   2762   2764     1   109.5600471 388.275200
   2764   2762   2773     1   109.5600471 388.275200
   2764   2762   2780     1   109.7800468 425.094400
   2765   2766   2768     1   109.5600471 388.275200
   2765   2772   2774     1   107.2600461 396.643200
   2765   2763   2782     1   109.5600471 388.275200
   2766   2767   2770     1   110.2200475 386.601600
   2766   2785   2775     1   109.2900470 396.643200
   2766   2765   2769     1   109.5600471 388.275200
   2767   2771   2781     1   107.2600461 396.643200
   2767   2766   2768     1   109.5600471 388.275200
   2768   2766   2785     1   109.8800469 414.216000
   2769   2765   2772     1   110.2600474 425.931200
   2770   2767   2771     1   109.4300470 427.604800
   2770   2767   2780     1   109.5800467 425.931200
   2773   2778   2779     1   107.2600461 396.643200
   2776   2773   2778     1   110.2600474 425.931200
   2776   2773   2777     1   108.4600466 328.025600
   2777   2773   2778     1   110.2600474 425.931200
   2782   2763   2783     1   110.2600474 425.931200
   2787   2789   2790     1   108.8800464 416.726400
   2787   2789   2792     1   108.8800464 416.726400
   2788   2787   2789     1   117.6800502 383.254400
   2789   2791   2793     1   109.5600471 388.275200
   2789   2791   2794     1   109.5600471 388.275200
   2790   2789   2791     1   109.5600471 388.275200
   2790   2789   2792     1   108.4600466 328.025600
   2791   2789   2792     1   109.5600471 388.275200
   2791   2795   2860     1   110.1100470 384.091200
   2793   2791   2795     1   107.9000462 406.684800
   2793   2791   2794     1   108.4600466 328.025600
   2794   2791   2795     1   107.9000462 406.684800
   2795   2796   2805     1   107.9000462 406.684800
   2795   2796   2806     1   107.9000462 406.684800
   2795   2797   2798     1   107.9000462 406.684800
   2795   2797   2800     1   107.9000462 406.684800
   2796   2795   2860     1   110.1100470 384.091200
   2796   2807   2808     1   109.8000471 387.438400
   2796   2807   2809     1   109.8000471 387.438400
   2797   2795   2860     1   110.1100470 384.091200
   2797   2799   2801     1   109.8000471 387.438400
   2797   2799   2802     1   109.8000471 387.438400
   2798   2797   2799     1   109.5600471 388.275200
   2798   2797   2800     1   108.4600466 328.025600
   2799   2797   2800     1   109.5600471 388.275200
   2801   2799   2803     1   108.7700466 392.459200
   2801   2799   2802     1   107.5800459 329.699200
   2802   2799   2803     1   108.7700466 392.459200
   2803   2835   2825     1   119.3800509 410.868800
   2805   2796   2807     1   109.5600471 388.275200
   2805   2796   2806     1   108.4600466 328.025600
   2806   2796   2807     1   109.5600471 388.275200
   2808   2807   2810     1   108.7700466 392.459200
   2808   2807   2809     1   107.5800459 329.699200
   2809   2807   2810     1   108.7700466 392.459200
   2810   2859   2849     1   119.3800509 410.868800
   2812   2813   2832     1   109.5600471 388.275200
   2812   2823   2826     1   109.5600471 388.275200
   2812   2823   2827     1   109.5600471 388.275200
   2813   2812   2814     1   109.5600471 388.275200
   2813   2815   2819     1   109.5600471 388.275200
   2813   2833   2834     1   107.2600461 396.643200
   2814   2812   2823     1   109.5600471 388.275200
   2814   2812   2830     1   109.7800468 425.094400
   2815   2813   2832     1   109.5600471 388.275200
   2815   2816   2818     1   109.5600471 388.275200
   2815   2822   2824     1   107.2600461 396.643200
   2816   2815   2819     1   109.5600471 388.275200
   2816   2817   2820     1   110.2200475 386.601600
   2816   2835   2825     1   109.2900470 396.643200
   2817   2816   2818     1   109.5600471 388.275200
   2817   2821   2831     1   107.2600461 396.643200
   2818   2816   2835     1   109.8800469 414.216000
   2819   2815   2822     1   110.2600474 425.931200
   2820   2817   2821     1   109.4300470 427.604800
   2820   2817   2830     1   109.5800467 425.931200
   2823   2828   2829     1   107.2600461 396.643200
   2826   2823   2828     1   110.2600474 425.931200
   2826   2823   2827     1   108.4600466 328.025600
   2827   2823   2828     1   110.2600474 425.931200
   2832   2813   2833     1   110.2600474 425.931200
   2836   2837   2856     1   109.5600471 388.275200
   2836   2847   2850     1   109.5600471 388.275200
   2836   2847   2851     1   109.5600471 388.275200
   2837   2836   2838     1   109.5600471 388.275200
   2837   2839   2843     1   109.5600471 388.275200
   2837   2857   2858     1   107.2600461 396.643200
   2838   2836   2847     1   109.5600471 388.275200
   2838   2836   2854     1   109.7800468 425.094400
   2839   2837   2856     1   109.5600471 388.275200
   2839   2840   2842     1   109.5600471 388.275200
   2839   2846   2848     1   107.2600461 396.643200
   2840   2839   2843     1   109.5600471 388.275200
   2840   2841   2844     1   110.2200475 386.601600
   2840   2859   2849     1   109.2900470 396.643200
   2841   2840   2842     1   109.5600471 388.275200
   2841   2845   2855     1   107.2600461 396.643200
   2842   2840   2859     1   109.8800469 414.216000
   2843   2839   2846     1   110.2600474 425.931200
   2844   2841   2845     1   109.4300470 427.604800
   2844   2841   2854     1   109.5800467 425.931200
   2847   2852   2853     1   107.2600461 396.643200
   2850   2847   2852     1   110.2600474 425.931200
   2850   2847   2851     1   108.4600466 328.025600
   2851   2847   2852     1   110.2600474 425.931200
   2856   2837   2857     1   110.2600474 425.931200
   2861   2863   2864     1   108.8800464 416.726400
   2861   2863   2866     1   108.8800464 416.726400
   2862   2861   2863     1   117.6800502 383.254400
   2863   2865   2867     1   109.5600471 388.275200
   2863   2865   2868     1   109.5600471 388.275200
   2864   2863   2865     1   109.5600471 388.275200
   2864   2863   2866     1   108.4600466 328.025600
   2865   2869   2934     1   110.1100470 384.091200
   2865   2863   2866     1   109.5600471 388.275200
   2867   2865   2869     1   107.9000462 406.684800
   2867   2865   2868     1   108.4600466 328.025600
   2868   2865   2869     1   107.9000462 406.684800
   2869   2870   2879     1   107.9000462 406.684800
   2869   2870   2880     1   107.9000462 406.684800
   2869   2871   2872     1   107.9000462 406.684800
   2869   2871   2874     1   107.9000462 406.684800
   2870   2881   2882     1   109.8000471 387.438400
   2870   2881   2883     1   109.8000471 387.438400
   2870   2869   2934     1   110.1100470 384.091200
   2871   2873   2875     1   109.8000471 387.438400
   2871   2873   2876     1   109.8000471 387.438400
   2871   2869   2934     1   110.1100470 384.091200
   2872   2871   2873     1   109.5600471 388.275200
   2872   2871   2874     1   108.4600466 328.025600
   2873   2871   2874     1   109.5600471 388.275200
   2875   2873   2877     1   108.7700466 392.459200
   2875   2873   2876     1   107.5800459 329.699200
   2876   2873   2877     1   108.7700466 392.459200
   2877   2909   2899     1   119.3800509 410.868800
   2879   2870   2881     1   109.5600471 388.275200
   2879   2870   2880     1   108.4600466 328.025600
   2880   2870   2881     1   109.5600471 388.275200
   2882   2881   2884     1   108.7700466 392.459200
   2882   2881   2883     1   107.5800459 329.699200
   2883   2881   2884     1   108.7700466 392.459200
   2884   2933   2923     1   119.3800509 410.868800
   2886   2887   2906     1   109.5600471 388.275200
   2886   2897   2900     1   109.5600471 388.275200
   2886   2897   2901     1   109.5600471 388.275200
   2887   2889   2893     1   109.5600471 388.275200
   2887   2907   2908     1   107.2600461 396.643200
   2887   2886   2888     1   109.5600471 388.275200
   2888   2886   2897     1   109.5600471 388.275200
   2888   2886   2904     1   109.7800468 425.094400
   2889   2890   2892     1   109.5600471 388.275200
   2889   2896   2898     1   107.2600461 396.643200
   2889   2887   2906     1   109.5600471 388.275200
   2890   2891   2894     1   110.2200475 386.601600
   2890   2909   2899     1   109.2900470 396.643200
   2890   2889   2893     1   109.5600471 388.275200
   2891   2895   2905     1   107.2600461 396.643200
   2891   2890   2892     1   109.5600471 388.275200
   2892   2890   2909     1   109.8800469 414.216000
   2893   2889   2896     1   110.2600474 425.931200
   2894   2891   2895     1   109.4300470 427.604800
   2894   2891   2904     1   109.5800467 425.931200
   2897   2902   2903     1   107.2600461 396.643200
   2900   2897   2902     1   110.2600474 425.931200
   2900   2897   2901     1   108.4600466 328.025600
   2901   2897   2902     1   110.2600474 425.931200
   2906   2887   2907     1   110.2600474 425.931200
   2910   2911   2930     1   109.5600471 388.275200
   2910   2921   2924     1   109.5600471 388.275200
   2910   2921   2925     1   109.5600471 388.275200
   2911   2913   2917     1   109.5600471 388.275200
   2911   2931   2932     1   107.2600461 396.643200
   2911   2910   2912     1   109.5600471 388.275200
   2912   2910   2921     1   109.5600471 388.275200
   2912   2910   2928     1   109.7800468 425.094400
   2913   2914   2916     1   109.5600471 388.275200
   2913   2920   2922     1   107.2600461 396.643200
   2913   2911   2930     1   109.5600471 388.275200
   2914   2915   2918     1   110.2200475 386.601600
   2914   2933   2923     1   109.2900470 396.643200
   2914   2913   2917     1   109.5600471 388.275200
   2915   2919   2929     1   107.2600461 396.643200
   2915   2914   2916     1   109.5600471 388.275200
   2916   2914   2933     1   109.8800469 414.216000
   2917   2913   2920     1   110.2600474 425.931200
   2918   2915   2919     1   109.4300470 427.604800
   2918   2915   2928     1   109.5800467 425.931200
   2921   2926   2927     1   107.2600461 396.643200
   2924   2921   2926     1   110.2600474 425.931200
   2924   2921   2925     1   108.4600466 328.025600
   2925   2921   2926     1   110.2600474 425.931200
   2930   2911   2931     1   110.2600474 425.931200
   2935   2937   2938     1   108.8800464 416.726400
   2935   2937   2940     1   108.8800464 416.726400
   2936   2935   2937     1   117.6800502 383.254400
   2937   2939   2941     1   109.5600471 388.275200
   2937   2939   2942     1   109.5600471 388.275200
   2938   2937   2939     1   109.5600471 388.275200
   2938   2937   2940     1   108.4600466 328.025600
   2939   2937   2940     1   109.5600471 388.275200
   2939   2943   3008     1   110.1100470 384.091200
   2941   2939   2943     1   107.9000462 406.684800
   2941   2939   2942     1   108.4600466 328.025600
   2942   2939   2943     1   107.9000462 406.684800
   2943   2944   2953     1   107.9000462 406.684800
   2943   2944   2954     1   107.9000462 406.684800
   2943   2945   2946     1   107.9000462 406.684800
   2943   2945   2948     1   107.9000462 406.684800
   2944   2943   3008     1   110.1100470 384.091200
   2944   2955   2956     1   109.8000471 387.438400
   2944   2955   2957     1   109.8000471 387.438400
   2945   2943   3008     1   110.1100470 384.091200
   2945   2947   2949     1   109.8000471 387.438400
   2945   2947   2950     1   109.8000471 387.438400
   2946   2945   2947     1   109.5600471 388.275200
   2946   2945   2948     1   108.4600466 328.025600
   2947   2945   2948     1   109.5600471 388.275200
   2949   2947   2951     1   108.7700466 392.459200
   2949   2947   2950     1   107.5800459 329.699200
   2950   2947   2951     1   108.7700466 392.459200
   2951   2983   2973     1   119.3800509 410.868800
   2953   2944   2955     1   109.5600471 388.275200
   2953   2944   2954     1   108.4600466 328.025600
   2954   2944   2955     1   109.5600471 388.275200
   2956   2955   2958     1   108.7700466 392.459200
   2956   2955   2957     1   107.5800459 329.699200
   2957   2955   2958     1   108.7700466 392.459200
   2958   3007   2997     1   119.3800509 410.868800
   2960   2961   2980     1   109.5600471 388.275200
   2960   2971   2974     1   109.5600471 388.275200
   2960   2971   2975     1   109.5600471 388.275200
   2961   2960   2962     1   109.5600471 388.275200
   2961   2963   2967     1   109.5600471 388.275200
   2961   2981   2982     1   107.2600461 396.643200
   2962   2960   2971     1   109.5600471 388.275200
   2962   2960   2978     1   109.7800468 425.094400
   2963   2961   2980     1   109.5600471 388.275200
   2963   2964   2966     1   109.5600471 388.275200
   2963   2970   2972     1   107.2600461 396.643200
   2964   2963   2967     1   109.5600471 388.275200
   2964   2965   2968     1   110.2200475 386.601600
   2964   2983   2973     1   109.2900470 396.643200
   2965   2964   2966     1   109.5600471 388.275200
   2965   2969   2979     1   107.2600461 396.643200
   2966   2964   2983     1   109.8800469 414.216000
   2967   2963   2970     1   110.2600474 425.931200
   2968   2965   2969     1   109.4300470 427.604800
   2968   2965   2978     1   109.5800467 425.931200
   2971   2976   2977     1   107.2600461 396.643200
   2974   2971   2976     1   110.2600474 425.931200
   2974   2971   2975     1   108.4600466 328.025600
   2975   2971   2976     1   110.2600474 425.931200
   2980   2961   2981     1   110.2600474 425.931200
   2984   2985   3004     1   109.5600471 388.275200
   2984   2995   2998     1   109.5600471 388.275200
   2984   2995   2999     1   109.5600471 388.275200
   2985   2984   2986     1   109.5600471 388.275200
   2985   2987   2991     1   109.5600471 388.275200
   2985   3005   3006     1   107.2600461 396.643200
   2986   2984   2995     1   109.5600471 388.275200
   2986   2984   3002     1   109.7800468 425.094400
   2987   2985   3004     1   109.5600471 388.275200
   2987   2988   2990     1   109.5600471 388.275200
   2987   2994   2996     1   107.2600461 396.643200
   2988   2987   2991     1   109.5600471 388.275200
   2988   2989   2992     1   110.2200475 386.601600
   2988   3007   2997     1   109.2900470 396.643200
   2989   2988   2990     1   109.5600471 388.275200
   2989   2993   3003     1   107.2600461 396.643200
   2990   2988   3007     1   109.8800469 414.216000
   2991   2987   2994     1   110.2600474 425.931200
   2992   2989   2993     1   109.4300470 427.604800
   2992   2989   3002     1   109.5800467 425.931200
   2995   3000   3001     1   107.2600461 396.643200
   2998   2995   3000     1   110.2600474 425.931200
   2998   2995   2999     1   108.4600466 328.025600
   2999   2995   3000     1   110.2600474 425.931200
   3004   2985   3005     1   110.2600474 425.931200
   3009   3011   3012     1   108.8800464 416.726400
   3009   3011   3014     1   108.8800464 416.726400
   3010   3009   3011     1   117.6800502 383.254400
   3011   3013   3015     1   109.5600471 388.275200
   3011   3013   3016     1   109.5600471 388.275200
   3012   3011   3013     1   109.5600471 388.275200
   3012   3011   3014     1   108.4600466 328.025600
   3013   3017   3082     1   110.1100470 384.091200
   3013   3011   3014     1   109.5600471 388.275200
   3015   3013   3017     1   107.9000462 406.684800
   3015   3013   3016     1   108.4600466 328.025600
   3016   3013   3017     1   107.9000462 406.684800
   3017   3018   3027     1   107.9000462 406.684800
   3017   3018   3028     1   107.9000462 406.684800
   3017   3019   3020     1   107.9000462 406.684800
   3017   3019   3022     1   107.9000462 406.684800
   3018   3029   3030     1   109.8000471 387.438400
   3018   3029   3031     1   109.8000471 387.438400
   3018   3017   3082     1   110.1100470 384.091200
   3019   3021   3023     1   109.8000471 387.438400
   3019   3021   3024     1   109.8000471 387.438400
   3019   3017   3082     1   110.1100470 384.091200
   3020   3019   3021     1   109.5600471 388.275200
   3020   3019   3022     1   108.4600466 328.025600
   3021   3019   3022     1   109.5600471 388.275200
   3023   3021   3025     1   108.7700466 392.459200
   3023   3021   3024     1   107.5800459 329.699200
   3024   3021   3025     1   108.7700466 392.459200
   3025   3057   3047     1   119.3800509 410.868800
   3027   3018   3029     1   109.5600471 388.275200
   3027   3018   3028     1   108.4600466 328.025600
   3028   3018   3029     1   109.5600471 388.275200
   3030   3029   3032     1   108.7700466 392.459200
   3030   3029   3031     1   107.5800459 329.699200
   3031   3029   3032     1   108.7700466 392.459200
   3032   3081   3071     1   119.3800509 410.868800
   3034   3035   3054     1   109.5600471 388.275200
   3034   3045   3048     1   109.5600471 388.275200
   3034   3045   3049     1   109.5600471 388.275200
   3035   3037   3041     1   109.5600471 388.275200
   3035   3055   3056     1   107.2600461 396.643200
   3035   3034   3036     1   109.5600471 388.275200
   3036   3034   3045     1   109.5600471 388.275200
   3036   3034   3052     1   109.7800468 425.094400
   3037   3038   3040     1   109.5600471 388.275200
   3037   3044   3046     1   107.2600461 396.643200
   3037   3035   3054     1   109.5600471 388.275200
   3038   3039   3042     1   110.2200475 386.601600
   3038   3057   3047     1   109.2900470 396.643200
   3038   3037   3041     1   109.5600471 388.275200
   3039   3043   3053     1   107.2600461 396.643200
   3039   3038   3040     1   109.5600471 388.275200
   3040   3038   3057     1   109.8800469 414.216000
   3041   3037   3044     1   110.2600474 425.931200
   3042   3039   3043     1   109.4300470 427.604800
   3042   3039   3052     1   109.5800467 425.931200
   3045   3050   3051     1   107.2600461 396.643200
   3048   3045   3050     1   110.2600474 425.931200
   3048   3045   3049     1   108.4600466 328.025600
   3049   3045   3050     1   110.2600474 425.931200
   3054   3035   3055     1   110.2600474 425.931200
   3058   3059   3078     1   109.5600471 388.275200
   3058   3069   3072     1   109.5600471 388.275200
   3058   3069   3073     1   109.5600471 388.275200
   3059   3061   3065     1   109.5600471 388.275200
   3059   3079   3080     1   107.2600461 396.643200
   3059   3058   3060     1   109.5600471 388.275200
   3060   3058   3069     1   109.5600471 388.275200
   3060   3058   3076     1   109.7800468 425.094400
   3061   3062   3064     1   109.5600471 388.275200
   3061   3068   3070     1   107.2600461 396.643200
   3061   3059   3078     1   109.5600471 388.275200
   3062   3063   3066     1   110.2200475 386.601600
   3062   3081   3071     1   109.2900470 396.643200
   3062   3061   3065     1   109.5600471 388.275200
   3063   3067   3077     1   107.2600461 396.643200
   3063   3062   3064     1   109.5600471 388.275200
   3064   3062   3081     1   109.8800469 414.216000
   3065   3061   3068     1   110.2600474 425.931200
   3066   3063   3067     1   109.4300470 427.604800
   3066   3063   3076     1   109.5800467 425.931200
   3069   3074   3075     1   107.2600461 396.643200
   3072   3069   3074     1   110.2600474 425.931200
   3072   3069   3073     1   108.4600466 328.025600
   3073   3069   3074     1   110.2600474 425.931200
   3078   3059   3079     1   110.2600474 425.931200
   3083   3085   3086     1   108.8800464 416.726400
   3083   3085   3088     1   108.8800464 416.726400
   3084   3083   3085     1   117.6800502 383.254400
   3085   3087   3089     1   109.5600471 388.275200
   3085   3087   3090     1   109.5600471 388.275200
   3086   3085   3087     1   109.5600471 388.275200
   3086   3085   3088     1   108.4600466 328.025600
   3087   3085   3088     1   109.5600471 388.275200
   3087   3091   3156     1   110.1100470 384.091200
   3089   3087   3091     1   107.9000462 406.684800
   3089   3087   3090     1   108.4600466 328.025600
   3090   3087   3091     1   107.9000462 406.684800
   3091   3092   3101     1   107.9000462 406.684800
   3091   3092   3102     1   107.9000462 406.684800
   3091   3093   3094     1   107.9000462 406.684800
   3091   3093   3096     1   107.9000462 406.684800
   3092   3091   3156     1   110.1100470 384.091200
   3092   3103   3104     1   109.8000471 387.438400
   3092   3103   3105     1   109.8000471 387.438400
   3093   3091   3156     1   110.1100470 384.091200
   3093   3095   3097     1   109.8000471 387.438400
   3093   3095   3098     1   109.8000471 387.438400
   3094   3093   3095     1   109.5600471 388.275200
   3094   3093   3096     1   108.4600466 328.025600
   3095   3093   3096     1   109.5600471 388.275200
   3097   3095   3099     1   108.7700466 392.459200
   3097   3095   3098     1   107.5800459 329.699200
   3098   3095   3099     1   108.7700466 392.459200
   3099   3131   3121     1   119.3800509 410.868800
   3101   3092   3103     1   109.5600471 388.275200
   3101   3092   3102     1   108.4600466 328.025600
   3102   3092   3103     1   109.5600471 388.275200
   3104   3103   3106     1   108.7700466 392.459200
   3104   3103   3105     1   107.5800459 329.699200
   3105   3103   3106     1   108.7700466 392.459200
   3106   3155   3145     1   119.3800509 410.868800
   3108   3109   3128     1   109.5600471 388.275200
   3108   3119   3122     1   109.5600471 388.275200
   3108   3119   3123     1   109.5600471 388.275200
   3109   3108   3110     1   109.5600471 388.275200
   3109   3111   3115     1   109.5600471 388.275200
   3109   3129   3130     1   107.2600461 396.643200
   3110   3108   3119     1   109.5600471 388.275200
   3110   3108   3126     1   109.7800468 425.094400
   3111   3109   3128     1   109.5600471 388.275200
   3111   3112   3114     1   109.5600471 388.275200
   3111   3118   3120     1   107.2600461 396.643200
   3112   3111   3115     1   109.5600471 388.275200
   3112   3113   3116     1   110.2200475 386.601600
   3112   3131   3121     1   109.2900470 396.643200
   3113   3112   3114     1   109.5600471 388.275200
   3113   3117   3127     1   107.2600461 396.643200
   3114   3112   3131     1   109.8800469 414.216000
   3115   3111   3118     1   110.2600474 425.931200
   3116   3113   3117     1   109.4300470 427.604800
   3116   3113   3126     1   109.5800467 425.931200
   3119   3124   3125     1   107.2600461 396.643200
   3122   3119   3124     1   110.2600474 425.931200
   3122   3119   3123     1   108.4600466 328.025600
   3123   3119   3124     1   110.2600474 425.931200
   3128   3109   3129     1   110.2600474 425.931200
   3132   3133   3152     1   109.5600471 388.275200
   3132   3143   3146     1   109.5600471 388.275200
   3132   3143   3147     1   109.5600471 388.275200
   3133   3132   3134     1   109.5600471 388.275200
   3133   3135   3139     1   109.5600471 388.275200
   3133   3153   3154     1   107.2600461 396.643200
   3134   3132   3143     1   109.5600471 388.275200
   3134   3132   3150     1   109.7800468 425.094400
   3135   3133   3152     1   109.5600471 388.275200
   3135   3136   3138     1   109.5600471 388.275200
   3135   3142   3144     1   107.2600461 396.643200
   3136   3135   3139     1   109.5600471 388.275200
   3136   3137   3140     1   110.2200475 386.601600
   3136   3155   3145     1   109.2900470 396.643200
   3137   3136   3138     1   109.5600471 388.275200
   3137   3141   3151     1   107.2600461 396.643200
   3138   3136   3155     1   109.8800469 414.216000
   3139   3135   3142     1   110.2600474 425.931200
   3140   3137   3141     1   109.4300470 427.604800
   3140   3137   3150     1   109.5800467 425.931200
   3143   3148   3149     1   107.2600461 396.643200
   3146   3143   3148     1   110.2600474 425.931200
   3146   3143   3147     1   108.4600466 328.025600
   3147   3143   3148     1   110.2600474 425.931200
   3152   3133   3153     1   110.2600474 425.931200
   3157   3159   3160     1   108.8800464 416.726400
   3157   3159   3162     1   108.8800464 416.726400
   3158   3157   3159     1   117.6800502 383.254400
   3159   3161   3163     1   109.5600471 388.275200
   3159   3161   3164     1   109.5600471 388.275200
   3160   3159   3161     1   109.5600471 388.275200
   3160   3159   3162     1   108.4600466 328.025600
   3161   3165   3230     1   110.1100470 384.091200
   3161   3159   3162     1   109.5600471 388.275200
   3163   3161   3165     1   107.9000462 406.684800
   3163   3161   3164     1   108.4600466 328.025600
   3164   3161   3165     1   107.9000462 406.684800
   3165   3166   3175     1   107.9000462 406.684800
   3165   3166   3176     1   107.9000462 406.684800
   3165   3167   3168     1   107.9000462 406.684800
   3165   3167   3170     1   107.9000462 406.684800
   3166   3177   3178     1   109.8000471 387.438400
   3166   3177   3179     1   109.8000471 387.438400
   3166   3165   3230     1   110.1100470 384.091200
   3167   3169   3171     1   109.8000471 387.438400
   3167   3169   3172     1   109.8000471 387.438400
   3167   3165   3230     1   110.1100470 384.091200
   3168   3167   3169     1   109.5600471 388.275200
   3168   3167   3170     1   108.4600466 328.025600
   3169   3167   3170     1   109.5600471 388.275200
   3171   3169   3173     1   108.7700466 392.459200
   3171   3169   3172     1   107.5800459 329.699200
   3172   3169   3173     1   108.7700466 392.459200
   3173   3205   3195     1   119.3800509 410.868800
   3175   3166   3177     1   109.5600471 388.275200
   3175   3166   3176     1   108.4600466 328.025600
   3176   3166   3177     1   109.5600471 388.275200
   3178   3177   3180     1   108.7700466 392.459200
   3178   3177   3179     1   107.5800459 329.699200
   3179   3177   3180     1   108.7700466 392.459200
   3180   3229   3219     1   119.3800509 410.868800
   3182   3183   3202     1   109.5600471 388.275200
   3182   3193   3196     1   109.5600471 388.275200
   3182   3193   3197     1   109.5600471 388.275200
   3183   3185   3189     1   109.5600471 388.275200
   3183   3203   3204     1   107.2600461 396.643200
   3183   3182   3184     1   109.5600471 388.275200
   3184   3182   3193     1   109.5600471 388.275200
   3184   3182   3200     1   109.7800468 425.094400
   3185   3186   3188     1   109.5600471 388.275200
   3185   3192   3194     1   107.2600461 396.643200
   3185   3183   3202     1   109.5600471 388.275200
   3186   3187   3190     1   110.2200475 386.601600
   3186   3205   3195     1   109.2900470 396.643200
   3186   3185   3189     1   109.5600471 388.275200
   3187   3191   3201     1   107.2600461 396.643200
   3187   3186   3188     1   109.5600471 388.275200
   3188   3186   3205     1   109.8800469 414.216000
   3189   3185   3192     1   110.2600474 425.931200
   3190   3187   3191     1   109.4300470 427.604800
   3190   3187   3200     1   109.5800467 425.931200
   3193   3198   3199     1   107.2600461 396.643200
   3196   3193   3198     1   110.2600474 425.931200
   3196   3193   3197     1   108.4600466 328.025600
   3197   3193   3198     1   110.2600474 425.931200
   3202   3183   3203     1   110.2600474 425.931200
   3206   3207   3226     1   109.5600471 388.275200
   3206   3217   3220     1   109.5600471 388.275200
   3206   3217   3221     1   109.5600471 388.275200
   3207   3209   3213     1   109.5600471 388.275200
   3207   3227   3228     1   107.2600461 396.643200
   3207   3206   3208     1   109.5600471 388.275200
   3208   3206   3217     1   109.5600471 388.275200
   3208   3206   3224     1   109.7800468 425.094400
   3209   3210   3212     1   109.5600471 388.275200
   3209   3216   3218     1   107.2600461 396.643200
   3209   3207   3226     1   109.5600471 388.275200
   3210   3211   3214     1   110.2200475 386.601600
   3210   3229   3219     1   109.2900470 396.643200
   3210   3209   3213     1   109.5600471 388.275200
   3211   3215   3225     1   107.2600461 396.643200
   3211   3210   3212     1   109.5600471 388.275200
   3212   3210   3229     1   109.8800469 414.216000
   3213   3209   3216     1   110.2600474 425.931200
   3214   3211   3215     1   109.4300470 427.604800
   3214   3211   3224     1   109.5800467 425.931200
   3217   3222   3223     1   107.2600461 396.643200
   3220   3217   3222     1   110.2600474 425.931200
   3220   3217   3221     1   108.4600466 328.025600
   3221   3217   3222     1   110.2600474 425.931200
   3226   3207   3227     1   110.2600474 425.931200
   3231   3233   3234     1   108.8800464 416.726400
   3231   3233   3236     1   108.8800464 416.726400
   3232   3231   3233     1   117.6800502 383.254400
   3233   3235   3237     1   109.5600471 388.275200
   3233   3235   3238     1   109.5600471 388.275200
   3234   3233   3235     1   109.5600471 388.275200
   3234   3233   3236     1   108.4600466 328.025600
   3235   3233   3236     1   109.5600471 388.275200
   3235   3239   3304     1   110.1100470 384.091200
   3237   3235   3239     1   107.9000462 406.684800
   3237   3235   3238     1   108.4600466 328.025600
   3238   3235   3239     1   107.9000462 406.684800
   3239   3240   3249     1   107.9000462 406.684800
   3239   3240   3250     1   107.9000462 406.684800
   3239   3241   3242     1   107.9000462 406.684800
   3239   3241   3244     1   107.9000462 406.684800
   3240   3239   3304     1   110.1100470 384.091200
   3240   3251   3252     1   109.8000471 387.438400
   3240   3251   3253     1   109.8000471 387.438400
   3241   3239   3304     1   110.1100470 384.091200
   3241   3243   3245     1   109.8000471 387.438400
   3241   3243   3246     1   109.8000471 387.438400
   3242   3241   3243     1   109.5600471 388.275200
   3242   3241   3244     1   108.4600466 328.025600
   3243   3241   3244     1   109.5600471 388.275200
   3245   3243   3247     1   108.7700466 392.459200
   3245   3243   3246     1   107.5800459 329.699200
   3246   3243   3247     1   108.7700466 392.459200
   3247   3279   3269     1   119.3800509 410.868800
   3249   3240   3251     1   109.5600471 388.275200
   3249   3240   3250     1   108.4600466 328.025600
   3250   3240   3251     1   109.5600471 388.275200
   3252   3251   3254     1   108.7700466 392.459200
   3252   3251   3253     1   107.5800459 329.699200
   3253   3251   3254     1   108.7700466 392.459200
   3254   3303   3293     1   119.3800509 410.868800
   3256   3257   3276     1   109.5600471 388.275200
   3256   3267   3270     1   109.5600471 388.275200
   3256   3267   3271     1   109.5600471 388.275200
   3257   3256   3258     1   109.5600471 388.275200
   3257   3259   3263     1   109.5600471 388.275200
   3257   3277   3278     1   107.2600461 396.643200
   3258   3256   3267     1   109.5600471 388.275200
   3258   3256   3274     1   109.7800468 425.094400
   3259   3257   3276     1   109.5600471 388.275200
   3259   3260   3262     1   109.5600471 388.275200
   3259   3266   3268     1   107.2600461 396.643200
   3260   3259   3263     1   109.5600471 388.275200
   3260   3261   3264     1   110.2200475 386.601600
   3260   3279   3269     1   109.2900470 396.643200
   3261   3260   3262     1   109.5600471 388.275200
   3261   3265   3275     1   107.2600461 396.643200
   3262   3260   3279     1   109.8800469 414.216000
   3263   3259   3266     1   110.2600474 425.931200
   3264   3261   3265     1   109.4300470 427.604800
   3264   3261   3274     1   109.5800467 425.931200
   3267   3272   3273     1   107.2600461 396.643200
   3270   3267   3272     1   110.2600474 425.931200
   3270   3267   3271     1   108.4600466 328.025600
   3271   3267   3272     1   110.2600474 425.931200
   3276   3257   3277     1   110.2600474 425.931200
   3280   3281   3300     1   109.5600471 388.275200
   3280   3291   3294     1   109.5600471 388.275200
   3280   3291   3295     1   109.5600471 388.275200
   3281   3280   3282     1   109.5600471 388.275200
   3281   3283   3287     1   109.5600471 388.275200
   3281   3301   3302     1   107.2600461 396.643200
   3282   3280   3291     1   109.5600471 388.275200
   3282   3280   3298     1   109.7800468 425.094400
   3283   3281   3300     1   109.5600471 388.275200
   3283   3284   3286     1   109.5600471 388.275200
   3283   3290   3292     1   107.2600461 396.643200
   3284   3283   3287     1   109.5600471 388.275200
   3284   3285   3288     1   110.2200475 386.601600
   3284   3303   3293     1   109.2900470 396.643200
   3285   3284   3286     1   109.5600471 388.275200
   3285   3289   3299     1   107.2600461 396.643200
   3286   3284   3303     1   109.8800469 414.216000
   3287   3283   3290     1   110.2600474 425.931200
   3288   3285   3289     1   109.4300470 427.604800
   3288   3285   3298     1   109.5800467 425.931200
   3291   3296   3297     1   107.2600461 396.643200
   3294   3291   3296     1   110.2600474 425.931200
   3294   3291   3295     1   108.4600466 328.025600
   3295   3291   3296     1   110.2600474 425.931200
   3300   3281   3301     1   110.2600474 425.931200
   3305   3307   3308     1   108.8800464 416.726400
   3305   3307   3310     1   108.8800464 416.726400
   3306   3305   3307     1   117.6800502 383.254400
   3307   3309   3311     1   109.5600471 388.275200
   3307   3309   3312     1   109.5600471 388.275200
   3308   3307   3309     1   109.5600471 388.275200
   3308   3307   3310     1   108.4600466 328.025600
   3309   3313   3378     1   110.1100470 384.091200
   3309   3307   3310     1   109.5600471 388.275200
   3311   3309   3313     1   107.9000462 406.684800
   3311   3309   3312     1   108.4600466 328.025600
   3312   3309   3313     1   107.9000462 406.684800
   3313   3314   3323     1   107.9000462 406.684800
   3313   3314   3324     1   107.9000462 406.684800
   3313   3315   3316     1   107.9000462 406.684800
   3313   3315   3318     1   107.9000462 406.684800
   3314   3325   3326     1   109.8000471 387.438400
   3314   3325   3327     1   109.8000471 387.438400
   3314   3313   3378     1   110.1100470 384.091200
   3315   3317   3319     1   109.8000471 387.438400
   3315   3317   3320     1   109.8000471 387.438400
   3315   3313   3378     1   110.1100470 384.091200
   3316   3315   3317     1   109.5600471 388.275200
   3316   3315   3318     1   108.4600466 328.025600
   3317   3315   3318     1   109.5600471 388.275200
   3319   3317   3321     1   108.7700466 392.459200
   3319   3317   3320     1   107.5800459 329.699200
   3320   3317   3321     1   108.7700466 392.459200
   3321   3353   3343     1   119.3800509 410.868800
   3323   3314   3325     1   109.5600471 388.275200
   3323   3314   3324     1   108.4600466 328.025600
   3324   3314   3325     1   109.5600471 388.275200
   3326   3325   3328     1   108.7700466 392.459200
   3326   3325   3327     1   107.5800459 329.699200
   3327   3325   3328     1   108.7700466 392.459200
   3328   3377   3367     1   119.3800509 410.868800
   3330   3331   3350     1   109.5600471 388.275200
   3330   3341   3344     1   109.5600471 388.275200
   3330   3341   3345     1   109.5600471 388.275200
   3331   3333   3337     1   109.5600471 388.275200
   3331   3351   3352     1   107.2600461 396.643200
   3331   3330   3332     1   109.5600471 388.275200
   3332   3330   3341     1   109.5600471 388.275200
   3332   3330   3348     1   109.7800468 425.094400
   3333   3334   3336     1   109.5600471 388.275200
   3333   3340   3342     1   107.2600461 396.643200
   3333   3331   3350     1   109.5600471 388.275200
   3334   3335   3338     1   110.2200475 386.601600
   3334   3353   3343     1   109.2900470 396.643200
   3334   3333   3337     1   109.5600471 388.275200
   3335   3339   3349     1   107.2600461 396.643200
   3335   3334   3336     1   109.5600471 388.275200
   3336   3334   3353     1   109.8800469 414.216000
   3337   3333   3340     1   110.2600474 425.931200
   3338   3335   3339     1   109.4300470 427.604800
   3338   3335   3348     1   109.5800467 425.931200
   3341   3346   3347     1   107.2600461 396.643200
   3344   3341   3346     1   110.2600474 425.931200
   3344   3341   3345     1   108.4600466 328.025600
   3345   3341   3346     1   110.2600474 425.931200
   3350   3331   3351     1   110.2600474 425.931200
   3354   3355   3374     1   109.5600471 388.275200
   3354   3365   3368     1   109.5600471 388.275200
   3354   3365   3369     1   109.5600471 388.275200
   3355   3357   3361     1   109.5600471 388.275200
   3355   3375   3376     1   107.2600461 396.643200
   3355   3354   3356     1   109.5600471 388.275200
   3356   3354   3365     1   109.5600471 388.275200
   3356   3354   3372     1   109.7800468 425.094400
   3357   3358   3360     1   109.5600471 388.275200
   3357   3364   3366     1   107.2600461 396.643200
   3357   3355   3374     1   109.5600471 388.275200
   3358   3359   3362     1   110.2200475 386.601600
   3358   3377   3367     1   109.2900470 396.643200
   3358   3357   3361     1   109.5600471 388.275200
   3359   3363   3373     1   107.2600461 396.643200
   3359   3358   3360     1   109.5600471 388.275200
   3360   3358   3377     1   109.8800469 414.216000
   3361   3357   3364     1   110.2600474 425.931200
   3362   3359   3363     1   109.4300470 427.604800
   3362   3359   3372     1   109.5800467 425.931200
   3365   3370   3371     1   107.2600461 396.643200
   3368   3365   3370     1   110.2600474 425.931200
   3368   3365   3369     1   108.4600466 328.025600
   3369   3365   3370     1   110.2600474 425.931200
   3374   3355   3375     1   110.2600474 425.931200
   3379   3381   3382     1   108.8800464 416.726400
   3379   3381   3384     1   108.8800464 416.726400
   3380   3379   3381     1   117.6800502 383.254400
   3381   3383   3385     1   109.5600471 388.275200
   3381   3383   3386     1   109.5600471 388.275200
   3382   3381   3383     1   109.5600471 388.275200
   3382   3381   3384     1   108.4600466 328.025600
   3383   3381   3384     1   109.5600471 388.275200
   3383   3387   3452     1   110.1100470 384.091200
   3385   3383   3387     1   107.9000462 406.684800
   3385   3383   3386     1   108.4600466 328.025600
   3386   3383   3387     1   107.9000462 406.684800
   3387   3388   3397     1   107.9000462 406.684800
   3387   3388   3398     1   107.9000462 406.684800
   3387   3389   3390     1   107.9000462 406.684800
   3387   3389   3392     1   107.9000462 406.684800
   3388   3387   3452     1   110.1100470 384.091200
   3388   3399   3400     1   109.8000471 387.438400
   3388   3399   3401     1   109.8000471 387.438400
   3389   3387   3452     1   110.1100470 384.091200
   3389   3391   3393     1   109.8000471 387.438400
   3389   3391   3394     1   109.8000471 387.438400
   3390   3389   3391     1   109.5600471 388.275200
   3390   3389   3392     1   108.4600466 328.025600
   3391   3389   3392     1   109.5600471 388.275200
   3393   3391   3395     1   108.7700466 392.459200
   3393   3391   3394     1   107.5800459 329.699200
   3394   3391   3395     1   108.7700466 392.459200
   3395   3427   3417     1   119.3800509 410.868800
   3397   3388   3399     1   109.5600471 388.275200
   3397   3388   3398     1   108.4600466 328.025600
   3398   3388   3399     1   109.5600471 388.275200
   3400   3399   3402     1   108.7700466 392.459200
   3400   3399   3401     1   107.5800459 329.699200
   3401   3399   3402     1   108.7700466 392.459200
   3402   3451   3441     1   119.3800509 410.868800
   3404   3405   3424     1   109.5600471 388.275200
   3404   3415   3418     1   109.5600471 388.275200
   3404   3415   3419     1   109.5600471 388.275200
   3405   3404   3406     1   109.5600471 388.275200
   3405   3407   3411     1   109.5600471 388.275200
   3405   3425   3426     1   107.2600461 396.643200
   3406   3404   3415     1   109.5600471 388.275200
   3406   3404   3422     1   109.7800468 425.094400
   3407   3405   3424     1   109.5600471 388.275200
   3407   3408   3410     1   109.5600471 388.275200
   3407   3414   3416     1   107.2600461 396.643200
   3408   3407   3411     1   109.5600471 388.275200
   3408   3409   3412     1   110.2200475 386.601600
   3408   3427   3417     1   109.2900470 396.643200
   3409   3408   3410     1   109.5600471 388.275200
   3409   3413   3423     1   107.2600461 396.643200
   3410   3408   3427     1   109.8800469 414.216000
   3411   3407   3414     1   110.2600474 425.931200
   3412   3409   3413     1   109.4300470 427.604800
   3412   3409   3422     1   109.5800467 425.931200
   3415   3420   3421     1   107.2600461 396.643200
   3418   3415   3420     1   110.2600474 425.931200
   3418   3415   3419     1   108.4600466 328.025600
   3419   3415   3420     1   110.2600474 425.931200
   3424   3405   3425     1   110.2600474 425.931200
   3428   3429   3448     1   109.5600471 388.275200
   3428   3439   3442     1   109.5600471 388.275200
   3428   3439   3443     1   109.5600471 388.275200
   3429   3428   3430     1   109.5600471 388.275200
   3429   3431   3435     1   109.5600471 388.275200
   3429   3449   3450     1   107.2600461 396.643200
   3430   3428   3439     1   109.5600471 388.275200
   3430   3428   3446     1   109.7800468 425.094400
   3431   3429   3448     1   109.5600471 388.275200
   3431   3432   3434     1   109.5600471 388.275200
   3431   3438   3440     1   107.2600461 396.643200
   3432   3431   3435     1   109.5600471 388.275200
   3432   3433   3436     1   110.2200475 386.601600
   3432   3451   3441     1   109.2900470 396.643200
   3433   3432   3434     1   109.5600471 388.275200
   3433   3437   3447     1   107.2600461 396.643200
   3434   3432   3451     1   109.8800469 414.216000
   3435   3431   3438     1   110.2600474 425.931200
   3436   3433   3437     1   109.4300470 427.604800
   3436   3433   3446     1   109.5800467 425.931200
   3439   3444   3445     1   107.2600461 396.643200
   3442   3439   3444     1   110.2600474 425.931200
   3442   3439   3443     1   108.4600466 328.025600
   3443   3439   3444     1   110.2600474 425.931200
   3448   3429   3449     1   110.2600474 425.931200
   3453   3455   3456     1   108.8800464 416.726400
   3453   3455   3458     1   108.8800464 416.726400
   3454   3453   3455     1   117.6800502 383.254400
   3455   3457   3459     1   109.5600471 388.275200
   3455   3457   3460     1   109.5600471 388.275200
   3456   3455   3457     1   109.5600471 388.275200
   3456   3455   3458     1   108.4600466 328.025600
   3457   3461   3526     1   110.1100470 384.091200
   3457   3455   3458     1   109.5600471 388.275200
   3459   3457   3461     1   107.9000462 406.684800
   3459   3457   3460     1   108.4600466 328.025600
   3460   3457   3461     1   107.9000462 406.684800
   3461   3462   3471     1   107.9000462 406.684800
   3461   3462   3472     1   107.9000462 406.684800
   3461   3463   3464     1   107.9000462 406.684800
   3461   3463   3466     1   107.9000462 406.684800
   3462   3473   3474     1   109.8000471 387.438400
   3462   3473   3475     1   109.8000471 387.438400
   3462   3461   3526     1   110.1100470 384.091200
   3463   3465   3467     1   109.8000471 387.438400
   3463   3465   3468     1   109.8000471 387.438400
   3463   3461   3526     1   110.1100470 384.091200
   3464   3463   3465     1   109.5600471 388.275200
   3464   3463   3466     1   108.4600466 328.025600
   3465   3463   3466     1   109.5600471 388.275200
   3467   3465   3469     1   108.7700466 392.459200
   3467   3465   3468     1   107.5800459 329.699200
   3468   3465   3469     1   108.7700466 392.459200
   3469   3501   3491     1   119.3800509 410.868800
   3471   3462   3473     1   109.5600471 388.275200
   3471   3462   3472     1   108.4600466 328.025600
   3472   3462   3473     1   109.5600471 388.275200
   3474   3473   3476     1   108.7700466 392.459200
   3474   3473   3475     1   107.5800459 329.699200
   3475   3473   3476     1   108.7700466 392.459200
   3476   3525   3515     1   119.3800509 410.868800
   3478   3479   3498     1   109.5600471 388.275200
   3478   3489   3492     1   109.5600471 388.275200
   3478   3489   3493     1   109.5600471 388.275200
   3479   3481   3485     1   109.5600471 388.275200
   3479   3499   3500     1   107.2600461 396.643200
   3479   3478   3480     1   109.5600471 388.275200
   3480   3478   3489     1   109.5600471 388.275200
   3480   3478   3496     1   109.7800468 425.094400
   3481   3482   3484     1   109.5600471 388.275200
   3481   3488   3490     1   107.2600461 396.643200
   3481   3479   3498     1   109.5600471 388.275200
   3482   3483   3486     1   110.2200475 386.601600
   3482   3501   3491     1   109.2900470 396.643200
   3482   3481   3485     1   109.5600471 388.275200
   3483   3487   3497     1   107.2600461 396.643200
   3483   3482   3484     1   109.5600471 388.275200
   3484   3482   3501     1   109.8800469 414.216000
   3485   3481   3488     1   110.2600474 425.931200
   3486   3483   3487     1   109.4300470 427.604800
   3486   3483   3496     1   109.5800467 425.931200
   3489   3494   3495     1   107.2600461 396.643200
   3492   3489   3494     1   110.2600474 425.931200
   3492   3489   3493     1   108.4600466 328.025600
   3493   3489   3494     1   110.2600474 425.931200
   3498   3479   3499     1   110.2600474 425.931200
   3502   3503   3522     1   109.5600471 388.275200
   3502   3513   3516     1   109.5600471 388.275200
   3502   3513   3517     1   109.5600471 388.275200
   3503   3505   3509     1   109.5600471 388.275200
   3503   3523   3524     1   107.2600461 396.643200
   3503   3502   3504     1   109.5600471 388.275200
   3504   3502   3513     1   109.5600471 388.275200
   3504   3502   3520     1   109.7800468 425.094400
   3505   3506   3508     1   109.5600471 388.275200
   3505   3512   3514     1   107.2600461 396.643200
   3505   3503   3522     1   109.5600471 388.275200
   3506   3507   3510     1   110.2200475 386.601600
   3506   3525   3515     1   109.2900470 396.643200
   3506   3505   3509     1   109.5600471 388.275200
   3507   3511   3521     1   107.2600461 396.643200
   3507   3506   3508     1   109.5600471 388.275200
   3508   3506   3525     1   109.8800469 414.216000
   3509   3505   3512     1   110.2600474 425.931200
   3510   3507   3511     1   109.4300470 427.604800
   3510   3507   3520     1   109.5800467 425.931200
   3513   3518   3519     1   107.2600461 396.643200
   3516   3513   3518     1   110.2600474 425.931200
   3516   3513   3517     1   108.4600466 328.025600
   3517   3513   3518     1   110.2600474 425.931200
   3522   3503   3523     1   110.2600474 425.931200
   3527   3529   3530     1   108.8800464 416.726400
   3527   3529   3532     1   108.8800464 416.726400
   3528   3527   3529     1   117.6800502 383.254400
   3529   3531   3533     1   109.5600471 388.275200
   3529   3531   3534     1   109.5600471 388.275200
   3530   3529   3531     1   109.5600471 388.275200
   3530   3529   3532     1   108.4600466 328.025600
   3531   3529   3532     1   109.5600471 388.275200
   3531   3535   3600     1   110.1100470 384.091200
   3533   3531   3535     1   107.9000462 406.684800
   3533   3531   3534     1   108.4600466 328.025600
   3534   3531   3535     1   107.9000462 406.684800
   3535   3536   3545     1   107.9000462 406.684800
   3535   3536   3546     1   107.9000462 406.684800
   3535   3537   3538     1   107.9000462 406.684800
   3535   3537   3540     1   107.9000462 406.684800
   3536   3535   3600     1   110.1100470 384.091200
   3536   3547   3548     1   109.8000471 387.438400
   3536   3547   3549     1   109.8000471 387.438400
   3537   3535   3600     1   110.1100470 384.091200
   3537   3539   3541     1   109.8000471 387.438400
   3537   3539   3542     1   109.8000471 387.438400
   3538   3537   3539     1   109.5600471 388.275200
   3538   3537   3540     1   108.4600466 328.025600
   3539   3537   3540     1   109.5600471 388.275200
   3541   3539   3543     1   108.7700466 392.459200
   3541   3539   3542     1   107.5800459 329.699200
   3542   3539   3543     1   108.7700466 392.459200
   3543   3575   3565     1   119.3800509 410.868800
   3545   3536   3547     1   109.5600471 388.275200
   3545   3536   3546     1   108.4600466 328.025600
   3546   3536   3547     1   109.5600471 388.275200
   3548   3547   3550     1   108.7700466 392.459200
   3548   3547   3549     1   107.5800459 329.699200
   3549   3547   3550     1   108.7700466 392.459200
   3550   3599   3589     1   119.3800509 410.868800
   3552   3553   3572     1   109.5600471 388.275200
   3552   3563   3566     1   109.5600471 388.275200
   3552   3563   3567     1   109.5600471 388.275200
   3553   3552   3554     1   109.5600471 388.275200
   3553   3555   3559     1   109.5600471 388.275200
   3553   3573   3574     1   107.2600461 396.643200
   3554   3552   3563     1   109.5600471 388.275200
   3554   3552   3570     1   109.7800468 425.094400
   3555   3553   3572     1   109.5600471 388.275200
   3555   3556   3558     1   109.5600471 388.275200
   3555   3562   3564     1   107.2600461 396.643200
   3556   3555   3559     1   109.5600471 388.275200
   3556   3557   3560     1   110.2200475 386.601600
   3556   3575   3565     1   109.2900470 396.643200
   3557   3556   3558     1   109.5600471 388.275200
   3557   3561   3571     1   107.2600461 396.643200
   3558   3556   3575     1   109.8800469 414.216000
   3559   3555   3562     1   110.2600474 425.931200
   3560   3557   3561     1   109.4300470 427.604800
   3560   3557   3570     1   109.5800467 425.931200
   3563   3568   3569     1   107.2600461 396.643200
   3566   3563   3568     1   110.2600474 425.931200
   3566   3563   3567     1   108.4600466 328.025600
   3567   3563   3568     1   110.2600474 425.931200
   3572   3553   3573     1   110.2600474 425.931200
   3576   3577   3596     1   109.5600471 388.275200
   3576   3587   3590     1   109.5600471 388.275200
   3576   3587   3591     1   109.5600471 388.275200
   3577   3576   3578     1   109.5600471 388.275200
   3577   3579   3583     1   109.5600471 388.275200
   3577   3597   3598     1   107.2600461 396.643200
   3578   3576   3587     1   109.5600471 388.275200
   3578   3576   3594     1   109.7800468 425.094400
   3579   3577   3596     1   109.5600471 388.275200
   3579   3580   3582     1   109.5600471 388.275200
   3579   3586   3588     1   107.2600461 396.643200
   3580   3579   3583     1   109.5600471 388.275200
   3580   3581   3584     1   110.2200475 386.601600
   3580   3599   3589     1   109.2900470 396.643200
   3581   3580   3582     1   109.5600471 388.275200
   3581   3585   3595     1   107.2600461 396.643200
   3582   3580   3599     1   109.8800469 414.216000
   3583   3579   3586     1   110.2600474 425.931200
   3584   3581   3585     1   109.4300470 427.604800
   3584   3581   3594     1   109.5800467 425.931200
   3587   3592   3593     1   107.2600461 396.643200
   3590   3587   3592     1   110.2600474 425.931200
   3590   3587   3591     1   108.4600466 328.025600
   3591   3587   3592     1   110.2600474 425.931200
   3596   3577   3597     1   110.2600474 425.931200
   3601   3603   3604     1   108.8800464 416.726400
   3601   3603   3606     1   108.8800464 416.726400
   3602   3601   3603     1   117.6800502 383.254400
   3603   3605   3607     1   109.5600471 388.275200
   3603   3605   3608     1   109.5600471 388.275200
   3604   3603   3605     1   109.5600471 388.275200
   3604   3603   3606     1   108.4600466 328.025600
   3605   3609   3674     1   110.1100470 384.091200
   3605   3603   3606     1   109.5600471 388.275200
   3607   3605   3609     1   107.9000462 406.684800
   3607   3605   3608     1   108.4600466 328.025600
   3608   3605   3609     1   107.9000462 406.684800
   3609   3610   3619     1   107.9000462 406.684800
   3609   3610   3620     1   107.9000462 406.684800
   3609   3611   3612     1   107.9000462 406.684800
   3609   3611   3614     1   107.9000462 406.684800
   3610   3621   3622     1   109.8000471 387.438400
   3610   3621   3623     1   109.8000471 387.438400
   3610   3609   3674     1   110.1100470 384.091200
   3611   3613   3615     1   109.8000471 387.438400
   3611   3613   3616     1   109.8000471 387.438400
   3611   3609   3674     1   110.1100470 384.091200
   3612   3611   3613     1   109.5600471 388.275200
   3612   3611   3614     1   108.4600466 328.025600
   3613   3611   3614     1   109.5600471 388.275200
   3615   3613   3617     1   108.7700466 392.459200
   3615   3613   3616     1   107.5800459 329.699200
   3616   3613   3617     1   108.7700466 392.459200
   3617   3649   3639     1   119.3800509 410.868800
   3619   3610   3621     1   109.5600471 388.275200
   3619   3610   3620     1   108.4600466 328.025600
   3620   3610   3621     1   109.5600471 388.275200
   3622   3621   3624     1   108.7700466 392.459200
   3622   3621   3623     1   107.5800459 329.699200
   3623   3621   3624     1   108.7700466 392.459200
   3624   3673   3663     1   119.3800509 410.868800
   3626   3627   3646     1   109.5600471 388.275200
   3626   3637   3640     1   109.5600471 388.275200
   3626   3637   3641     1   109.5600471 388.275200
   3627   3629   3633     1   109.5600471 388.275200
   3627   3647   3648     1   107.2600461 396.643200
   3627   3626   3628     1   109.5600471 388.275200
   3628   3626   3637     1   109.5600471 388.275200
   3628   3626   3644     1   109.7800468 425.094400
   3629   3630   3632     1   109.5600471 388.275200
   3629   3636   3638     1   107.2600461 396.643200
   3629   3627   3646     1   109.5600471 388.275200
   3630   3631   3634     1   110.2200475 386.601600
   3630   3649   3639     1   109.2900470 396.643200
   3630   3629   3633     1   109.5600471 388.275200
   3631   3635   3645     1   107.2600461 396.643200
   3631   3630   3632     1   109.5600471 388.275200
   3632   3630   3649     1   109.8800469 414.216000
   3633   3629   3636     1   110.2600474 425.931200
   3634   3631   3635     1   109.4300470 427.604800
   3634   3631   3644     1   109.5800467 425.931200
   3637   3642   3643     1   107.2600461 396.643200
   3640   3637   3642     1   110.2600474 425.931200
   3640   3637   3641     1   108.4600466 328.025600
   3641   3637   3642     1   110.2600474 425.931200
   3646   3627   3647     1   110.2600474 425.931200
   3650   3651   3670     1   109.5600471 388.275200
   3650   3661   3664     1   109.5600471 388.275200
   3650   3661   3665     1   109.5600471 388.275200
   3651   3653   3657     1   109.5600471 388.275200
   3651   3671   3672     1   107.2600461 396.643200
   3651   3650   3652     1   109.5600471 388.275200
   3652   3650   3661     1   109.5600471 388.275200
   3652   3650   3668     1   109.7800468 425.094400
   3653   3654   3656     1   109.5600471 388.275200
   3653   3660   3662     1   107.2600461 396.643200
   3653   3651   3670     1   109.5600471 388.275200
   3654   3655   3658     1   110.2200475 386.601600
   3654   3673   3663     1   109.2900470 396.643200
   3654   3653   3657     1   109.5600471 388.275200
   3655   3659   3669     1   107.2600461 396.643200
   3655   3654   3656     1   109.5600471 388.275200
   3656   3654   3673     1   109.8800469 414.216000
   3657   3653   3660     1   110.2600474 425.931200
   3658   3655   3659     1   109.4300470 427.604800
   3658   3655   3668     1   109.5800467 425.931200
   3661   3666   3667     1   107.2600461 396.643200
   3664   3661   3666     1   110.2600474 425.931200
   3664   3661   3665     1   108.4600466 328.025600
   3665   3661   3666     1   110.2600474 425.931200
   3670   3651   3671     1   110.2600474 425.931200
   3675   3677   3678     1   108.8800464 416.726400
   3675   3677   3680     1   108.8800464 416.726400
   3676   3675   3677     1   117.6800502 383.254400
   3677   3679   3681     1   109.5600471 388.275200
   3677   3679   3682     1   109.5600471 388.275200
   3678   3677   3679     1   109.5600471 388.275200
   3678   3677   3680     1   108.4600466 328.025600
   3679   3677   3680     1   109.5600471 388.275200
   3679   3683   3748     1   110.1100470 384.091200
   3681   3679   3683     1   107.9000462 406.684800
   3681   3679   3682     1   108.4600466 328.025600
   3682   3679   3683     1   107.9000462 406.684800
   3683   3684   3693     1   107.9000462 406.684800
   3683   3684   3694     1   107.9000462 406.684800
   3683   3685   3686     1   107.9000462 406.684800
   3683   3685   3688     1   107.9000462 406.684800
   3684   3683   3748     1   110.1100470 384.091200
   3684   3695   3696     1   109.8000471 387.438400
   3684   3695   3697     1   109.8000471 387.438400
   3685   3683   3748     1   110.1100470 384.091200
   3685   3687   3689     1   109.8000471 387.438400
   3685   3687   3690     1   109.8000471 387.438400
   3686   3685   3687     1   109.5600471 388.275200
   3686   3685   3688     1   108.4600466 328.025600
   3687   3685   3688     1   109.5600471 388.275200
   3689   3687   3691     1   108.7700466 392.459200
   3689   3687   3690     1   107.5800459 329.699200
   3690   3687   3691     1   108.7700466 392.459200
   3691   3723   3713     1   119.3800509 410.868800
   3693   3684   3695     1   109.5600471 388.275200
   3693   3684   3694     1   108.4600466 328.025600
   3694   3684   3695     1   109.5600471 388.275200
   3696   3695   3698     1   108.7700466 392.459200
   3696   3695   3697     1   107.5800459 329.699200
   3697   3695   3698     1   108.7700466 392.459200
   3698   3747   3737     1   119.3800509 410.868800
   3700   3701   3720     1   109.5600471 388.275200
   3700   3711   3714     1   109.5600471 388.275200
   3700   3711   3715     1   109.5600471 388.275200
   3701   3700   3702     1   109.5600471 388.275200
   3701   3703   3707     1   109.5600471 388.275200
   3701   3721   3722     1   107.2600461 396.643200
   3702   3700   3711     1   109.5600471 388.275200
   3702   3700   3718     1   109.7800468 425.094400
   3703   3701   3720     1   109.5600471 388.275200
   3703   3704   3706     1   109.5600471 388.275200
   3703   3710   3712     1   107.2600461 396.643200
   3704   3703   3707     1   109.5600471 388.275200
   3704   3705   3708     1   110.2200475 386.601600
   3704   3723   3713     1   109.2900470 396.643200
   3705   3704   3706     1   109.5600471 388.275200
   3705   3709   3719     1   107.2600461 396.643200
   3706   3704   3723     1   109.8800469 414.216000
   3707   3703   3710     1   110.2600474 425.931200
   3708   3705   3709     1   109.4300470 427.604800
   3708   3705   3718     1   109.5800467 425.931200
   3711   3716   3717     1   107.2600461 396.643200
   3714   3711   3716     1   110.2600474 425.931200
   3714   3711   3715     1   108.4600466 328.025600
   3715   3711   3716     1   110.2600474 425.931200
   3720   3701   3721     1   110.2600474 425.931200
   3724   3725   3744     1   109.5600471 388.275200
   3724   3735   3738     1   109.5600471 388.275200
   3724   3735   3739     1   109.5600471 388.275200
   3725   3724   3726     1   109.5600471 388.275200
   3725   3727   3731     1   109.5600471 388.275200
   3725   3745   3746     1   107.2600461 396.643200
   3726   3724   3735     1   109.5600471 388.275200
   3726   3724   3742     1   109.7800468 425.094400
   3727   3725   3744     1   109.5600471 388.275200
   3727   3728   3730     1   109.5600471 388.275200
   3727   3734   3736     1   107.2600461 396.643200
   3728   3727   3731     1   109.5600471 388.275200
   3728   3729   3732     1   110.2200475 386.601600
   3728   3747   3737     1   109.2900470 396.643200
   3729   3728   3730     1   109.5600471 388.275200
   3729   3733   3743     1   107.2600461 396.643200
   3730   3728   3747     1   109.8800469 414.216000
   3731   3727   3734     1   110.2600474 425.931200
   3732   3729   3733     1   109.4300470 427.604800
   3732   3729   3742     1   109.5800467 425.931200
   3735   3740   3741     1   107.2600461 396.643200
   3738   3735   3740     1   110.2600474 425.931200
   3738   3735   3739     1   108.4600466 328.025600
   3739   3735   3740     1   110.2600474 425.931200
   3744   3725   3745     1   110.2600474 425.931200
   3749   3751   3752     1   108.8800464 416.726400
   3749   3751   3754     1   108.8800464 416.726400
   3750   3749   3751     1   117.6800502 383.254400
   3751   3753   3755     1   109.5600471 388.275200
   3751   3753   3756     1   109.5600471 388.275200
   3752   3751   3753     1   109.5600471 388.275200
   3752   3751   3754     1   108.4600466 328.025600
   3753   3757   3822     1   110.1100470 384.091200
   3753   3751   3754     1   109.5600471 388.275200
   3755   3753   3757     1   107.9000462 406.684800
   3755   3753   3756     1   108.4600466 328.025600
   3756   3753   3757     1   107.9000462 406.684800
   3757   3758   3767     1   107.9000462 406.684800
   3757   3758   3768     1   107.9000462 406.684800
   3757   3759   3760     1   107.9000462 406.684800
   3757   3759   3762     1   107.9000462 406.684800
   3758   3769   3770     1   109.8000471 387.438400
   3758   3769   3771     1   109.8000471 387.438400
   3758   3757   3822     1   110.1100470 384.091200
   3759   3761   3763     1   109.8000471 387.438400
   3759   3761   3764     1   109.8000471 387.438400
   3759   3757   3822     1   110.1100470 384.091200
   3760   3759   3761     1   109.5600471 388.275200
   3760   3759   3762     1   108.4600466 328.025600
   3761   3759   3762     1   109.5600471 388.275200
   3763   3761   3765     1   108.7700466 392.459200
   3763   3761   3764     1   107.5800459 329.699200
   3764   3761   3765     1   108.7700466 392.459200
   3765   3797   3787     1   119.3800509 410.868800
   3767   3758   3769     1   109.5600471 388.275200
   3767   3758   3768     1   108.4600466 328.025600
   3768   3758   3769     1   109.5600471 388.275200
   3770   3769   3772     1   108.7700466 392.459200
   3770   3769   3771     1   107.5800459 329.699200
   3771   3769   3772     1   108.7700466 392.459200
   3772   3821   3811     1   119.3800509 410.868800
   3774   3775   3794     1   109.5600471 388.275200
   3774   3785   3788     1   109.5600471 388.275200
   3774   3785   3789     1   109.5600471 388.275200
   3775   3777   3781     1   109.5600471 388.275200
   3775   3795   3796     1   107.2600461 396.643200
   3775   3774   3776     1   109.5600471 388.275200
   3776   3774   3785     1   109.5600471 388.275200
   3776   3774   3792     1   109.7800468 425.094400
   3777   3778   3780     1   109.5600471 388.275200
   3777   3784   3786     1   107.2600461 396.643200
   3777   3775   3794     1   109.5600471 388.275200
   3778   3779   3782     1   110.2200475 386.601600
   3778   3797   3787     1   109.2900470 396.643200
   3778   3777   3781     1   109.5600471 388.275200
   3779   3783   3793     1   107.2600461 396.643200
   3779   3778   3780     1   109.5600471 388.275200
   3780   3778   3797     1   109.8800469 414.216000
   3781   3777   3784     1   110.2600474 425.931200
   3782   3779   3783     1   109.4300470 427.604800
   3782   3779   3792     1   109.5800467 425.931200
   3785   3790   3791     1   107.2600461 396.643200
   3788   3785   3790     1   110.2600474 425.931200
   3788   3785   3789     1   108.4600466 328.025600
   3789   3785   3790     1   110.2600474 425.931200
   3794   3775   3795     1   110.2600474 425.931200
   3798   3799   3818     1   109.5600471 388.275200
   3798   3809   3812     1   109.5600471 388.275200
   3798   3809   3813     1   109.5600471 388.275200
   3799   3801   3805     1   109.5600471 388.275200
   3799   3819   3820     1   107.2600461 396.643200
   3799   3798   3800     1   109.5600471 388.275200
   3800   3798   3809     1   109.5600471 388.275200
   3800   3798   3816     1   109.7800468 425.094400
   3801   3802   3804     1   109.5600471 388.275200
   3801   3808   3810     1   107.2600461 396.643200
   3801   3799   3818     1   109.5600471 388.275200
   3802   3803   3806     1   110.2200475 386.601600
   3802   3821   3811     1   109.2900470 396.643200
   3802   3801   3805     1   109.5600471 388.275200
   3803   3807   3817     1   107.2600461 396.643200
   3803   3802   3804     1   109.5600471 388.275200
   3804   3802   3821     1   109.8800469 414.216000
   3805   3801   3808     1   110.2600474 425.931200
   3806   3803   3807     1   109.4300470 427.604800
   3806   3803   3816     1   109.5800467 425.931200
   3809   3814   3815     1   107.2600461 396.643200
   3812   3809   3814     1   110.2600474 425.931200
   3812   3809   3813     1   108.4600466 328.025600
   3813   3809   3814     1   110.2600474 425.931200
   3818   3799   3819     1   110.2600474 425.931200
   3823   3825   3826     1   108.8800464 416.726400
   3823   3825   3828     1   108.8800464 416.726400
   3824   3823   3825     1   117.6800502 383.254400
   3825   3827   3829     1   109.5600471 388.275200
   3825   3827   3830     1   109.5600471 388.275200
   3826   3825   3827     1   109.5600471 388.275200
   3826   3825   3828     1   108.4600466 328.025600
   3827   3825   3828     1   109.5600471 388.275200
   3827   3831   3896     1   110.1100470 384.091200
   3829   3827   3831     1   107.9000462 406.684800
   3829   3827   3830     1   108.4600466 328.025600
   3830   3827   3831     1   107.9000462 406.684800
   3831   3832   3841     1   107.9000462 406.684800
   3831   3832   3842     1   107.9000462 406.684800
   3831   3833   3834     1   107.9000462 406.684800
   3831   3833   3836     1   107.9000462 406.684800
   3832   3831   3896     1   110.1100470 384.091200
   3832   3843   3844     1   109.8000471 387.438400
   3832   3843   3845     1   109.8000471 387.438400
   3833   3831   3896     1   110.1100470 384.091200
   3833   3835   3837     1   109.8000471 387.438400
   3833   3835   3838     1   109.8000471 387.438400
   3834   3833   3835     1   109.5600471 388.275200
   3834   3833   3836     1   108.4600466 328.025600
   3835   3833   3836     1   109.5600471 388.275200
   3837   3835   3839     1   108.7700466 392.459200
   3837   3835   3838     1   107.5800459 329.699200
   3838   3835   3839     1   108.7700466 392.459200
   3839   3871   3861     1   119.3800509 410.868800
   3841   3832   3843     1   109.5600471 388.275200
   3841   3832   3842     1   108.4600466 328.025600
   3842   3832   3843     1   109.5600471 388.275200
   3844   3843   3846     1   108.7700466 392.459200
   3844   3843   3845     1   107.5800459 329.699200
   3845   3843   3846     1   108.7700466 392.459200
   3846   3895   3885     1   119.3800509 410.868800
   3848   3849   3868     1   109.5600471 388.275200
   3848   3859   3862     1   109.5600471 388.275200
   3848   3859   3863     1   109.5600471 388.275200
   3849   3848   3850     1   109.5600471 388.275200
   3849   3851   3855     1   109.5600471 388.275200
   3849   3869   3870     1   107.2600461 396.643200
   3850   3848   3859     1   109.5600471 388.275200
   3850   3848   3866     1   109.7800468 425.094400
   3851   3849   3868     1   109.5600471 388.275200
   3851   3852   3854     1   109.5600471 388.275200
   3851   3858   3860     1   107.2600461 396.643200
   3852   3851   3855     1   109.5600471 388.275200
   3852   3853   3856     1   110.2200475 386.601600
   3852   3871   3861     1   109.2900470 396.643200
   3853   3852   3854     1   109.5600471 388.275200
   3853   3857   3867     1   107.2600461 396.643200
   3854   3852   3871     1   109.8800469 414.216000
   3855   3851   3858     1   110.2600474 425.931200
   3856   3853   3857     1   109.4300470 427.604800
   3856   3853   3866     1   109.5800467 425.931200
   3859   3864   3865     1   107.2600461 396.643200
   3862   3859   3864     1   110.2600474 425.931200
   3862   3859   3863     1   108.4600466 328.025600
   3863   3859   3864     1   110.2600474 425.931200
   3868   3849   3869     1   110.2600474 425.931200
   3872   3873   3892     1   109.5600471 388.275200
   3872   3883   3886     1   109.5600471 388.275200
   3872   3883   3887     1   109.5600471 388.275200
   3873   3872   3874     1   109.5600471 388.275200
   3873   3875   3879     1   109.5600471 388.275200
   3873   3893   3894     1   107.2600461 396.643200
   3874   3872   3883     1   109.5600471 388.275200
   3874   3872   3890     1   109.7800468 425.094400
   3875   3873   3892     1   109.5600471 388.275200
   3875   3876   3878     1   109.5600471 388.275200
   3875   3882   3884     1   107.2600461 396.643200
   3876   3875   3879     1   109.5600471 388.275200
   3876   3877   3880     1   110.2200475 386.601600
   3876   3895   3885     1   109.2900470 396.643200
   3877   3876   3878     1   109.5600471 388.275200
   3877   3881   3891     1   107.2600461 396.643200
   3878   3876   3895     1   109.8800469 414.216000
   3879   3875   3882     1   110.2600474 425.931200
   3880   3877   3881     1   109.4300470 427.604800
   3880   3877   3890     1   109.5800467 425.931200
   3883   3888   3889     1   107.2600461 396.643200
   3886   3883   3888     1   110.2600474 425.931200
   3886   3883   3887     1   108.4600466 328.025600
   3887   3883   3888     1   110.2600474 425.931200
   3892   3873   3893     1   110.2600474 425.931200
   3897   3899   3900     1   108.8800464 416.726400
   3897   3899   3902     1   108.8800464 416.726400
   3898   3897   3899     1   117.6800502 383.254400
   3899   3901   3903     1   109.5600471 388.275200
   3899   3901   3904     1   109.5600471 388.275200
   3900   3899   3901     1   109.5600471 388.275200
   3900   3899   3902     1   108.4600466 328.025600
   3901   3905   3970     1   110.1100470 384.091200
   3901   3899   3902     1   109.5600471 388.275200
   3903   3901   3905     1   107.9000462 406.684800
   3903   3901   3904     1   108.4600466 328.025600
   3904   3901   3905     1   107.9000462 406.684800
   3905   3906   3915     1   107.9000462 406.684800
   3905   3906   3916     1   107.9000462 406.684800
   3905   3907   3908     1   107.9000462 406.684800
   3905   3907   3910     1   107.9000462 406.684800
   3906   3917   3918     1   109.8000471 387.438400
   3906   3917   3919     1   109.8000471 387.438400
   3906   3905   3970     1   110.1100470 384.091200
   3907   3909   3911     1   109.8000471 387.438400
   3907   3909   3912     1   109.8000471 387.438400
   3907   3905   3970     1   110.1100470 384.091200
   3908   3907   3909     1   109.5600471 388.275200
   3908   3907   3910     1   108.4600466 328.025600
   3909   3907   3910     1   109.5600471 388.275200
   3911   3909   3913     1   108.7700466 392.459200
   3911   3909   3912     1   107.5800459 329.699200
   3912   3909   3913     1   108.7700466 392.459200
   3913   3945   3935     1   119.3800509 410.868800
   3915   3906   3917     1   109.5600471 388.275200
   3915   3906   3916     1   108.4600466 328.025600
   3916   3906   3917     1   109.5600471 388.275200
   3918   3917   3920     1   108.7700466 392.459200
   3918   3917   3919     1   107.5800459 329.699200
   3919   3917   3920     1   108.7700466 392.459200
   3920   3969   3959     1   119.3800509 410.868800
   3922   3923   3942     1   109.5600471 388.275200
   3922   3933   3936     1   109.5600471 388.275200
   3922   3933   3937     1   109.5600471 388.275200
   3923   3925   3929     1   109.5600471 388.275200
   3923   3943   3944     1   107.2600461 396.643200
   3923   3922   3924     1   109.5600471 388.275200
   3924   3922   3933     1   109.5600471 388.275200
   3924   3922   3940     1   109.7800468 425.094400
   3925   3926   3928     1   109.5600471 388.275200
   3925   3932   3934     1   107.2600461 396.643200
   3925   3923   3942     1   109.5600471 388.275200
   3926   3927   3930     1   110.2200475 386.601600
   3926   3945   3935     1   109.2900470 396.643200
   3926   3925   3929     1   109.5600471 388.275200
   3927   3931   3941     1   107.2600461 396.643200
   3927   3926   3928     1   109.5600471 388.275200
   3928   3926   3945     1   109.8800469 414.216000
   3929   3925   3932     1   110.2600474 425.931200
   3930   3927   3931     1   109.4300470 427.604800
   3930   3927   3940     1   109.5800467 425.931200
   3933   3938   3939     1   107.2600461 396.643200
   3936   3933   3938     1   110.2600474 425.931200
   3936   3933   3937     1   108.4600466 328.025600
   3937   3933   3938     1   110.2600474 425.931200
   3942   3923   3943     1   110.2600474 425.931200
   3946   3947   3966     1   109.5600471 388.275200
   3946   3957   3960     1   109.5600471 388.275200
   3946   3957   3961     1   109.5600471 388.275200
   3947   3949   3953     1   109.5600471 388.275200
   3947   3967   3968     1   107.2600461 396.643200
   3947   3946   3948     1   109.5600471 388.275200
   3948   3946   3957     1   109.5600471 388.275200
   3948   3946   3964     1   109.7800468 425.094400
   3949   3950   3952     1   109.5600471 388.275200
   3949   3956   3958     1   107.2600461 396.643200
   3949   3947   3966     1   109.5600471 388.275200
   3950   3951   3954     1   110.2200475 386.601600
   3950   3969   3959     1   109.2900470 396.643200
   3950   3949   3953     1   109.5600471 388.275200
   3951   3955   3965     1   107.2600461 396.643200
   3951   3950   3952     1   109.5600471 388.275200
   3952   3950   3969     1   109.8800469 414.216000
   3953   3949   3956     1   110.2600474 425.931200
   3954   3951   3955     1   109.4300470 427.604800
   3954   3951   3964     1   109.5800467 425.931200
   3957   3962   3963     1   107.2600461 396.643200
   3960   3957   3962     1   110.2600474 425.931200
   3960   3957   3961     1   108.4600466 328.025600
   3961   3957   3962     1   110.2600474 425.931200
   3966   3947   3967     1   110.2600474 425.931200
   3971   3973   3974     1   108.8800464 416.726400
   3971   3973   3976     1   108.8800464 416.726400
   3972   3971   3973     1   117.6800502 383.254400
   3973   3975   3977     1   109.5600471 388.275200
   3973   3975   3978     1   109.5600471 388.275200
   3974   3973   3975     1   109.5600471 388.275200
   3974   3973   3976     1   108.4600466 328.025600
   3975   3973   3976     1   109.5600471 388.275200
   3975   3979   4044     1   110.1100470 384.091200
   3977   3975   3979     1   107.9000462 406.684800
   3977   3975   3978     1   108.4600466 328.025600
   3978   3975   3979     1   107.9000462 406.684800
   3979   3980   3989     1   107.9000462 406.684800
   3979   3980   3990     1   107.9000462 406.684800
   3979   3981   3982     1   107.9000462 406.684800
   3979   3981   3984     1   107.9000462 406.684800
   3980   3979   4044     1   110.1100470 384.091200
   3980   3991   3992     1   109.8000471 387.438400
   3980   3991   3993     1   109.8000471 387.438400
   3981   3979   4044     1   110.1100470 384.091200
   3981   3983   3985     1   109.8000471 387.438400
   3981   3983   3986     1   109.8000471 387.438400
   3982   3981   3983     1   109.5600471 388.275200
   3982   3981   3984     1   108.4600466 328.025600
   3983   3981   3984     1   109.5600471 388.275200
   3985   3983   3987     1   108.7700466 392.459200
   3985   3983   3986     1   107.5800459 329.699200
   3986   3983   3987     1   108.7700466 392.459200
   3987   4019   4009     1   119.3800509 410.868800
   3989   3980   3991     1   109.5600471 388.275200
   3989   3980   3990     1   108.4600466 328.025600
   3990   3980   3991     1   109.5600471 388.275200
   3992   3991   3994     1   108.7700466 392.459200
   3992   3991   3993     1   107.5800459 329.699200
   3993   3991   3994     1   108.7700466 392.459200
   3994   4043   4033     1   119.3800509 410.868800
   3996   3997   4016     1   109.5600471 388.275200
   3996   4007   4010     1   109.5600471 388.275200
   3996   4007   4011     1   109.5600471 388.275200
   3997   3996   3998     1   109.5600471 388.275200
   3997   3999   4003     1   109.5600471 388.275200
   3997   4017   4018     1   107.2600461 396.643200
   3998   3996   4007     1   109.5600471 388.275200
   3998   3996   4014     1   109.7800468 425.094400
   3999   3997   4016     1   109.5600471 388.275200
   3999   4000   4002     1   109.5600471 388.275200
   3999   4006   4008     1   107.2600461 396.643200
   4000   3999   4003     1   109.5600471 388.275200
   4000   4001   4004     1   110.2200475 386.601600
   4000   4019   4009     1   109.2900470 396.643200
   4001   4000   4002     1   109.5600471 388.275200
   4001   4005   4015     1   107.2600461 396.643200
   4002   4000   4019     1   109.8800469 414.216000
   4003   3999   4006     1   110.2600474 425.931200
   4004   4001   4005     1   109.4300470 427.604800
   4004   4001   4014     1   109.5800467 425.931200
   4007   4012   4013     1   107.2600461 396.643200
   4010   4007   4012     1   110.2600474 425.931200
   4010   4007   4011     1   108.4600466 328.025600
   4011   4007   4012     1   110.2600474 425.931200
   4016   3997   4017     1   110.2600474 425.931200
   4020   4021   4040     1   109.5600471 388.275200
   4020   4031   4034     1   109.5600471 388.275200
   4020   4031   4035     1   109.5600471 388.275200
   4021   4020   4022     1   109.5600471 388.275200
   4021   4023   4027     1   109.5600471 388.275200
   4021   4041   4042     1   107.2600461 396.643200
   4022   4020   4031     1   109.5600471 388.275200
   4022   4020   4038     1   109.7800468 425.094400
   4023   4021   4040     1   109.5600471 388.275200
   4023   4024   4026     1   109.5600471 388.275200
   4023   4030   4032     1   107.2600461 396.643200
   4024   4023   4027     1   109.5600471 388.275200
   4024   4025   4028     1   110.2200475 386.601600
   4024   4043   4033     1   109.2900470 396.643200
   4025   4024   4026     1   109.5600471 388.275200
   4025   4029   4039     1   107.2600461 396.643200
   4026   4024   4043     1   109.8800469 414.216000
   4027   4023   4030     1   110.2600474 425.931200
   4028   4025   4029     1   109.4300470 427.604800
   4028   4025   4038     1   109.5800467 425.931200
   4031   4036   4037     1   107.2600461 396.643200
   4034   4031   4036     1   110.2600474 425.931200
   4034   4031   4035     1   108.4600466 328.025600
   4035   4031   4036     1   110.2600474 425.931200
   4040   4021   4041     1   110.2600474 425.931200
   4045   4047   4048     1   108.8800464 416.726400
   4045   4047   4050     1   108.8800464 416.726400
   4046   4045   4047     1   117.6800502 383.254400
   4047   4049   4051     1   109.5600471 388.275200
   4047   4049   4052     1   109.5600471 388.275200
   4048   4047   4049     1   109.5600471 388.275200
   4048   4047   4050     1   108.4600466 328.025600
   4049   4053   4118     1   110.1100470 384.091200
   4049   4047   4050     1   109.5600471 388.275200
   4051   4049   4053     1   107.9000462 406.684800
   4051   4049   4052     1   108.4600466 328.025600
   4052   4049   4053     1   107.9000462 406.684800
   4053   4054   4063     1   107.9000462 406.684800
   4053   4054   4064     1   107.9000462 406.684800
   4053   4055   4056     1   107.9000462 406.684800
   4053   4055   4058     1   107.9000462 406.684800
   4054   4065   4066     1   109.8000471 387.438400
   4054   4065   4067     1   109.8000471 387.438400
   4054   4053   4118     1   110.1100470 384.091200
   4055   4057   4059     1   109.8000471 387.438400
   4055   4057   4060     1   109.8000471 387.438400
   4055   4053   4118     1   110.1100470 384.091200
   4056   4055   4057     1   109.5600471 388.275200
   4056   4055   4058     1   108.4600466 328.025600
   4057   4055   4058     1   109.5600471 388.275200
   4059   4057   4061     1   108.7700466 392.459200
   4059   4057   4060     1   107.5800459 329.699200
   4060   4057   4061     1   108.7700466 392.459200
   4061   4093   4083     1   119.3800509 410.868800
   4063   4054   4065     1   109.5600471 388.275200
   4063   4054   4064     1   108.4600466 328.025600
   4064   4054   4065     1   109.5600471 388.275200
   4066   4065   4068     1   108.7700466 392.459200
   4066   4065   4067     1   107.5800459 329.699200
   4067   4065   4068     1   108.7700466 392.459200
   4068   4117   4107     1   119.3800509 410.868800
   4070   4071   4090     1   109.5600471 388.275200
   4070   4081   4084     1   109.5600471 388.275200
   4070   4081   4085     1   109.5600471 388.275200
   4071   4073   4077     1   109.5600471 388.275200
   4071   4091   4092     1   107.2600461 396.643200
   4071   4070   4072     1   109.5600471 388.275200
   4072   4070   4081     1   109.5600471 388.275200
   4072   4070   4088     1   109.7800468 425.094400
   4073   4074   4076     1   109.5600471 388.275200
   4073   4080   4082     1   107.2600461 396.643200
   4073   4071   4090     1   109.5600471 388.275200
   4074   4075   4078     1   110.2200475 386.601600
   4074   4093   4083     1   109.2900470 396.643200
   4074   4073   4077     1   109.5600471 388.275200
   4075   4079   4089     1   107.2600461 396.643200
   4075   4074   4076     1   109.5600471 388.275200
   4076   4074   4093     1   109.8800469 414.216000
   4077   4073   4080     1   110.2600474 425.931200
   4078   4075   4079     1   109.4300470 427.604800
   4078   4075   4088     1   109.5800467 425.931200
   4081   4086   4087     1   107.2600461 396.643200
   4084   4081   4086     1   110.2600474 425.931200
   4084   4081   4085     1   108.4600466 328.025600
   4085   4081   4086     1   110.2600474 425.931200
   4090   4071   4091     1   110.2600474 425.931200
   4094   4095   4114     1   109.5600471 388.275200
   4094   4105   4108     1   109.5600471 388.275200
   4094   4105   4109     1   109.5600471 388.275200
   4095   4097   4101     1   109.5600471 388.275200
   4095   4115   4116     1   107.2600461 396.643200
   4095   4094   4096     1   109.5600471 388.275200
   4096   4094   4105     1   109.5600471 388.275200
   4096   4094   4112     1   109.7800468 425.094400
   4097   4098   4100     1   109.5600471 388.275200
   4097   4104   4106     1   107.2600461 396.643200
   4097   4095   4114     1   109.5600471 388.275200
   4098   4099   4102     1   110.2200475 386.601600
   4098   4117   4107     1   109.2900470 396.643200
   4098   4097   4101     1   109.5600471 388.275200
   4099   4103   4113     1   107.2600461 396.643200
   4099   4098   4100     1   109.5600471 388.275200
   4100   4098   4117     1   109.8800469 414.216000
   4101   4097   4104     1   110.2600474 425.931200
   4102   4099   4103     1   109.4300470 427.604800
   4102   4099   4112     1   109.5800467 425.931200
   4105   4110   4111     1   107.2600461 396.643200
   4108   4105   4110     1   110.2600474 425.931200
   4108   4105   4109     1   108.4600466 328.025600
   4109   4105   4110     1   110.2600474 425.931200
   4114   4095   4115     1   110.2600474 425.931200
   4119   4121   4122     1   108.8800464 416.726400
   4119   4121   4124     1   108.8800464 416.726400
   4120   4119   4121     1   117.6800502 383.254400
   4121   4123   4125     1   109.5600471 388.275200
   4121   4123   4126     1   109.5600471 388.275200
   4122   4121   4123     1   109.5600471 388.275200
   4122   4121   4124     1   108.4600466 328.025600
   4123   4121   4124     1   109.5600471 388.275200
   4123   4127   4192     1   110.1100470 384.091200
   4125   4123   4127     1   107.9000462 406.684800
   4125   4123   4126     1   108.4600466 328.025600
   4126   4123   4127     1   107.9000462 406.684800
   4127   4128   4137     1   107.9000462 406.684800
   4127   4128   4138     1   107.9000462 406.684800
   4127   4129   4130     1   107.9000462 406.684800
   4127   4129   4132     1   107.9000462 406.684800
   4128   4127   4192     1   110.1100470 384.091200
   4128   4139   4140     1   109.8000471 387.438400
   4128   4139   4141     1   109.8000471 387.438400
   4129   4127   4192     1   110.1100470 384.091200
   4129   4131   4133     1   109.8000471 387.438400
   4129   4131   4134     1   109.8000471 387.438400
   4130   4129   4131     1   109.5600471 388.275200
   4130   4129   4132     1   108.4600466 328.025600
   4131   4129   4132     1   109.5600471 388.275200
   4133   4131   4135     1   108.7700466 392.459200
   4133   4131   4134     1   107.5800459 329.699200
   4134   4131   4135     1   108.7700466 392.459200
   4135   4167   4157     1   119.3800509 410.868800
   4137   4128   4139     1   109.5600471 388.275200
   4137   4128   4138     1   108.4600466 328.025600
   4138   4128   4139     1   109.5600471 388.275200
   4140   4139   4142     1   108.7700466 392.459200
   4140   4139   4141     1   107.5800459 329.699200
   4141   4139   4142     1   108.7700466 392.459200
   4142   4191   4181     1   119.3800509 410.868800
   4144   4145   4164     1   109.5600471 388.275200
   4144   4155   4158     1   109.5600471 388.275200
   4144   4155   4159     1   109.5600471 388.275200
   4145   4144   4146     1   109.5600471 388.275200
   4145   4147   4151     1   109.5600471 388.275200
   4145   4165   4166     1   107.2600461 396.643200
   4146   4144   4155     1   109.5600471 388.275200
   4146   4144   4162     1   109.7800468 425.094400
   4147   4145   4164     1   109.5600471 388.275200
   4147   4148   4150     1   109.5600471 388.275200
   4147   4154   4156     1   107.2600461 396.643200
   4148   4147   4151     1   109.5600471 388.275200
   4148   4149   4152     1   110.2200475 386.601600
   4148   4167   4157     1   109.2900470 396.643200
   4149   4148   4150     1   109.5600471 388.275200
   4149   4153   4163     1   107.2600461 396.643200
   4150   4148   4167     1   109.8800469 414.216000
   4151   4147   4154     1   110.2600474 425.931200
   4152   4149   4153     1   109.4300470 427.604800
   4152   4149   4162     1   109.5800467 425.931200
   4155   4160   4161     1   107.2600461 396.643200
   4158   4155   4160     1   110.2600474 425.931200
   4158   4155   4159     1   108.4600466 328.025600
   4159   4155   4160     1   110.2600474 425.931200
   4164   4145   4165     1   110.2600474 425.931200
   4168   4169   4188     1   109.5600471 388.275200
   4168   4179   4182     1   109.5600471 388.275200
   4168   4179   4183     1   109.5600471 388.275200
   4169   4168   4170     1   109.5600471 388.275200
   4169   4171   4175     1   109.5600471 388.275200
   4169   4189   4190     1   107.2600461 396.643200
   4170   4168   4179     1   109.5600471 388.275200
   4170   4168   4186     1   109.7800468 425.094400
   4171   4169   4188     1   109.5600471 388.275200
   4171   4172   4174     1   109.5600471 388.275200
   4171   4178   4180     1   107.2600461 396.643200
   4172   4171   4175     1   109.5600471 388.275200
   4172   4173   4176     1   110.2200475 386.601600
   4172   4191   4181     1   109.2900470 396.643200
   4173   4172   4174     1   109.5600471 388.275200
   4173   4177   4187     1   107.2600461 396.643200
   4174   4172   4191     1   109.8800469 414.216000
   4175   4171   4178     1   110.2600474 425.931200
   4176   4173   4177     1   109.4300470 427.604800
   4176   4173   4186     1   109.5800467 425.931200
   4179   4184   4185     1   107.2600461 396.643200
   4182   4179   4184     1   110.2600474 425.931200
   4182   4179   4183     1   108.4600466 328.025600
   4183   4179   4184     1   110.2600474 425.931200
   4188   4169   4189     1   110.2600474 425.931200
   4193   4195   4196     1   108.8800464 416.726400
   4193   4195   4198     1   108.8800464 416.726400
   4194   4193   4195     1   117.6800502 383.254400
   4195   4197   4199     1   109.5600471 388.275200
   4195   4197   4200     1   109.5600471 388.275200
   4196   4195   4197     1   109.5600471 388.275200
   4196   4195   4198     1   108.4600466 328.025600
   4197   4201   4266     1   110.1100470 384.091200
   4197   4195   4198     1   109.5600471 388.275200
   4199   4197   4201     1   107.9000462 406.684800
   4199   4197   4200     1   108.4600466 328.025600
   4200   4197   4201     1   107.9000462 406.684800
   4201   4202   4211     1   107.9000462 406.684800
   4201   4202   4212     1   107.9000462 406.684800
   4201   4203   4204     1   107.9000462 406.684800
   4201   4203   4206     1   107.9000462 406.684800
   4202   4213   4214     1   109.8000471 387.438400
   4202   4213   4215     1   109.8000471 387.438400
   4202   4201   4266     1   110.1100470 384.091200
   4203   4205   4207     1   109.8000471 387.438400
   4203   4205   4208     1   109.8000471 387.438400
   4203   4201   4266     1   110.1100470 384.091200
   4204   4203   4205     1   109.5600471 388.275200
   4204   4203   4206     1   108.4600466 328.025600
   4205   4203   4206     1   109.5600471 388.275200
   4207   4205   4209     1   108.7700466 392.459200
   4207   4205   4208     1   107.5800459 329.699200
   4208   4205   4209     1   108.7700466 392.459200
   4209   4241   4231     1   119.3800509 410.868800
   4211   4202   4213     1   109.5600471 388.275200
   4211   4202   4212     1   108.4600466 328.025600
   4212   4202   4213     1   109.5600471 388.275200
   4214   4213   4216     1   108.7700466 392.459200
   4214   4213   4215     1   107.5800459 329.699200
   4215   4213   4216     1   108.7700466 392.459200
   4216   4265   4255     1   119.3800509 410.868800
   4218   4219   4238     1   109.5600471 388.275200
   4218   4229   4232     1   109.5600471 388.275200
   4218   4229   4233     1   109.5600471 388.275200
   4219   4221   4225     1   109.5600471 388.275200
   4219   4239   4240     1   107.2600461 396.643200
   4219   4218   4220     1   109.5600471 388.275200
   4220   4218   4229     1   109.5600471 388.275200
   4220   4218   4236     1   109.7800468 425.094400
   4221   4222   4224     1   109.5600471 388.275200
   4221   4228   4230     1   107.2600461 396.643200
   4221   4219   4238     1   109.5600471 388.275200
   4222   4223   4226     1   110.2200475 386.601600
   4222   4241   4231     1   109.2900470 396.643200
   4222   4221   4225     1   109.5600471 388.275200
   4223   4227   4237     1   107.2600461 396.643200
   4223   4222   4224     1   109.5600471 388.275200
   4224   4222   4241     1   109.8800469 414.216000
   4225   4221   4228     1   110.2600474 425.931200
   4226   4223   4227     1   109.4300470 427.604800
   4226   4223   4236     1   109.5800467 425.931200
   4229   4234   4235     1   107.2600461 396.643200
   4232   4229   4234     1   110.2600474 425.931200
   4232   4229   4233     1   108.4600466 328.025600
   4233   4229   4234     1   110.2600474 425.931200
   4238   4219   4239     1   110.2600474 425.931200
   4242   4243   4262     1   109.5600471 388.275200
   4242   4253   4256     1   109.5600471 388.275200
   4242   4253   4257     1   109.5600471 388.275200
   4243   4245   4249     1   109.5600471 388.275200
   4243   4263   4264     1   107.2600461 396.643200
   4243   4242   4244     1   109.5600471 388.275200
   4244   4242   4253     1   109.5600471 388.275200
   4244   4242   4260     1   109.7800468 425.094400
   4245   4246   4248     1   109.5600471 388.275200
   4245   4252   4254     1   107.2600461 396.643200
   4245   4243   4262     1   109.5600471 388.275200
   4246   4247   4250     1   110.2200475 386.601600
   4246   4265   4255     1   109.2900470 396.643200
   4246   4245   4249     1   109.5600471 388.275200
   4247   4251   4261     1   107.2600461 396.643200
   4247   4246   4248     1   109.5600471 388.275200
   4248   4246   4265     1   109.8800469 414.216000
   4249   4245   4252     1   110.2600474 425.931200
   4250   4247   4251     1   109.4300470 427.604800
   4250   4247   4260     1   109.5800467 425.931200
   4253   4258   4259     1   107.2600461 396.643200
   4256   4253   4258     1   110.2600474 425.931200
   4256   4253   4257     1   108.4600466 328.025600
   4257   4253   4258     1   110.2600474 425.931200
   4262   4243   4263     1   110.2600474 425.931200
   4267   4269   4270     1   108.8800464 416.726400
   4267   4269   4272     1   108.8800464 416.726400
   4268   4267   4269     1   117.6800502 383.254400
   4269   4271   4273     1   109.5600471 388.275200
   4269   4271   4274     1   109.5600471 388.275200
   4270   4269   4271     1   109.5600471 388.275200
   4270   4269   4272     1   108.4600466 328.025600
   4271   4269   4272     1   109.5600471 388.275200
   4271   4275   4340     1   110.1100470 384.091200
   4273   4271   4275     1   107.9000462 406.684800
   4273   4271   4274     1   108.4600466 328.025600
   4274   4271   4275     1   107.9000462 406.684800
   4275   4276   4285     1   107.9000462 406.684800
   4275   4276   4286     1   107.9000462 406.684800
   4275   4277   4278     1   107.9000462 406.684800
   4275   4277   4280     1   107.9000462 406.684800
   4276   4275   4340     1   110.1100470 384.091200
   4276   4287   4288     1   109.8000471 387.438400
   4276   4287   4289     1   109.8000471 387.438400
   4277   4275   4340     1   110.1100470 384.091200
   4277   4279   4281     1   109.8000471 387.438400
   4277   4279   4282     1   109.8000471 387.438400
   4278   4277   4279     1   109.5600471 388.275200
   4278   4277   4280     1   108.4600466 328.025600
   4279   4277   4280     1   109.5600471 388.275200
   4281   4279   4283     1   108.7700466 392.459200
   4281   4279   4282     1   107.5800459 329.699200
   4282   4279   4283     1   108.7700466 392.459200
   4283   4315   4305     1   119.3800509 410.868800
   4285   4276   4287     1   109.5600471 388.275200
   4285   4276   4286     1   108.4600466 328.025600
   4286   4276   4287     1   109.5600471 388.275200
   4288   4287   4290     1   108.7700466 392.459200
   4288   4287   4289     1   107.5800459 329.699200
   4289   4287   4290     1   108.7700466 392.459200
   4290   4339   4329     1   119.3800509 410.868800
   4292   4293   4312     1   109.5600471 388.275200
   4292   4303   4306     1   109.5600471 388.275200
   4292   4303   4307     1   109.5600471 388.275200
   4293   4292   4294     1   109.5600471 388.275200
   4293   4295   4299     1   109.5600471 388.275200
   4293   4313   4314     1   107.2600461 396.643200
   4294   4292   4303     1   109.5600471 388.275200
   4294   4292   4310     1   109.7800468 425.094400
   4295   4293   4312     1   109.5600471 388.275200
   4295   4296   4298     1   109.5600471 388.275200
   4295   4302   4304     1   107.2600461 396.643200
   4296   4295   4299     1   109.5600471 388.275200
   4296   4297   4300     1   110.2200475 386.601600
   4296   4315   4305     1   109.2900470 396.643200
   4297   4296   4298     1   109.5600471 388.275200
   4297   4301   4311     1   107.2600461 396.643200
   4298   4296   4315     1   109.8800469 414.216000
   4299   4295   4302     1   110.2600474 425.931200
   4300   4297   4301     1   109.4300470 427.604800
   4300   4297   4310     1   109.5800467 425.931200
   4303   4308   4309     1   107.2600461 396.643200
   4306   4303   4308     1   110.2600474 425.931200
   4306   4303   4307     1   108.4600466 328.025600
   4307   4303   4308     1   110.2600474 425.931200
   4312   4293   4313     1   110.2600474 425.931200
   4316   4317   4336     1   109.5600471 388.275200
   4316   4327   4330     1   109.5600471 388.275200
   4316   4327   4331     1   109.5600471 388.275200
   4317   4316   4318     1   109.5600471 388.275200
   4317   4319   4323     1   109.5600471 388.275200
   4317   4337   4338     1   107.2600461 396.643200
   4318   4316   4327     1   109.5600471 388.275200
   4318   4316   4334     1   109.7800468 425.094400
   4319   4317   4336     1   109.5600471 388.275200
   4319   4320   4322     1   109.5600471 388.275200
   4319   4326   4328     1   107.2600461 396.643200
   4320   4319   4323     1   109.5600471 388.275200
   4320   4321   4324     1   110.2200475 386.601600
   4320   4339   4329     1   109.2900470 396.643200
   4321   4320   4322     1   109.5600471 388.275200
   4321   4325   4335     1   107.2600461 396.643200
   4322   4320   4339     1   109.8800469 414.216000
   4323   4319   4326     1   110.2600474 425.931200
   4324   4321   4325     1   109.4300470 427.604800
   4324   4321   4334     1   109.5800467 425.931200
   4327   4332   4333     1   107.2600461 396.643200
   4330   4327   4332     1   110.2600474 425.931200
   4330   4327   4331     1   108.4600466 328.025600
   4331   4327   4332     1   110.2600474 425.931200
   4336   4317   4337     1   110.2600474 425.931200
   4341   4343   4344     1   108.8800464 416.726400
   4341   4343   4346     1   108.8800464 416.726400
   4342   4341   4343     1   117.6800502 383.254400
   4343   4345   4347     1   109.5600471 388.275200
   4343   4345   4348     1   109.5600471 388.275200
   4344   4343   4345     1   109.5600471 388.275200
   4344   4343   4346     1   108.4600466 328.025600
   4345   4349   4414     1   110.1100470 384.091200
   4345   4343   4346     1   109.5600471 388.275200
   4347   4345   4349     1   107.9000462 406.684800
   4347   4345   4348     1   108.4600466 328.025600
   4348   4345   4349     1   107.9000462 406.684800
   4349   4350   4359     1   107.9000462 406.684800
   4349   4350   4360     1   107.9000462 406.684800
   4349   4351   4352     1   107.9000462 406.684800
   4349   4351   4354     1   107.9000462 406.684800
   4350   4361   4362     1   109.8000471 387.438400
   4350   4361   4363     1   109.8000471 387.438400
   4350   4349   4414     1   110.1100470 384.091200
   4351   4353   4355     1   109.8000471 387.438400
   4351   4353   4356     1   109.8000471 387.438400
   4351   4349   4414     1   110.1100470 384.091200
   4352   4351   4353     1   109.5600471 388.275200
   4352   4351   4354     1   108.4600466 328.025600
   4353   4351   4354     1   109.5600471 388.275200
   4355   4353   4357     1   108.7700466 392.459200
   4355   4353   4356     1   107.5800459 329.699200
   4356   4353   4357     1   108.7700466 392.459200
   4357   4389   4379     1   119.3800509 410.868800
   4359   4350   4361     1   109.5600471 388.275200
   4359   4350   4360     1   108.4600466 328.025600
   4360   4350   4361     1   109.5600471 388.275200
   4362   4361   4364     1   108.7700466 392.459200
   4362   4361   4363     1   107.5800459 329.699200
   4363   4361   4364     1   108.7700466 392.459200
   4364   4413   4403     1   119.3800509 410.868800
   4366   4367   4386     1   109.5600471 388.275200
   4366   4377   4380     1   109.5600471 388.275200
   4366   4377   4381     1   109.5600471 388.275200
   4367   4369   4373     1   109.5600471 388.275200
   4367   4387   4388     1   107.2600461 396.643200
   4367   4366   4368     1   109.5600471 388.275200
   4368   4366   4377     1   109.5600471 388.275200
   4368   4366   4384     1   109.7800468 425.094400
   4369   4370   4372     1   109.5600471 388.275200
   4369   4376   4378     1   107.2600461 396.643200
   4369   4367   4386     1   109.5600471 388.275200
   4370   4371   4374     1   110.2200475 386.601600
   4370   4389   4379     1   109.2900470 396.643200
   4370   4369   4373     1   109.5600471 388.275200
   4371   4375   4385     1   107.2600461 396.643200
   4371   4370   4372     1   109.5600471 388.275200
   4372   4370   4389     1   109.8800469 414.216000
   4373   4369   4376     1   110.2600474 425.931200
   4374   4371   4375     1   109.4300470 427.604800
   4374   4371   4384     1   109.5800467 425.931200
   4377   4382   4383     1   107.2600461 396.643200
   4380   4377   4382     1   110.2600474 425.931200
   4380   4377   4381     1   108.4600466 328.025600
   4381   4377   4382     1   110.2600474 425.931200
   4386   4367   4387     1   110.2600474 425.931200
   4390   4391   4410     1   109.5600471 388.275200
   4390   4401   4404     1   109.5600471 388.275200
   4390   4401   4405     1   109.5600471 388.275200
   4391   4393   4397     1   109.5600471 388.275200
   4391   4411   4412     1   107.2600461 396.643200
   4391   4390   4392     1   109.5600471 388.275200
   4392   4390   4401     1   109.5600471 388.275200
   4392   4390   4408     1   109.7800468 425.094400
   4393   4394   4396     1   109.5600471 388.275200
   4393   4400   4402     1   107.2600461 396.643200
   4393   4391   4410     1   109.5600471 388.275200
   4394   4395   4398     1   110.2200475 386.601600
   4394   4413   4403     1   109.2900470 396.643200
   4394   4393   4397     1   109.5600471 388.275200
   4395   4399   4409     1   107.2600461 396.643200
   4395   4394   4396     1   109.5600471 388.275200
   4396   4394   4413     1   109.8800469 414.216000
   4397   4393   4400     1   110.2600474 425.931200
   4398   4395   4399     1   109.4300470 427.604800
   4398   4395   4408     1   109.5800467 425.931200
   4401   4406   4407     1   107.2600461 396.643200
   4404   4401   4406     1   110.2600474 425.931200
   4404   4401   4405     1   108.4600466 328.025600
   4405   4401   4406     1   110.2600474 425.931200
   4410   4391   4411     1   110.2600474 425.931200
   4415   4417   4418     1   108.8800464 416.726400
   4415   4417   4420     1   108.8800464 416.726400
   4416   4415   4417     1   117.6800502 383.254400
   4417   4419   4421     1   109.5600471 388.275200
   4417   4419   4422     1   109.5600471 388.275200
   4418   4417   4419     1   109.5600471 388.275200
   4418   4417   4420     1   108.4600466 328.025600
   4419   4417   4420     1   109.5600471 388.275200
   4419   4423   4488     1   110.1100470 384.091200
   4421   4419   4423     1   107.9000462 406.684800
   4421   4419   4422     1   108.4600466 328.025600
   4422   4419   4423     1   107.9000462 406.684800
   4423   4424   4433     1   107.9000462 406.684800
   4423   4424   4434     1   107.9000462 406.684800
   4423   4425   4426     1   107.9000462 406.684800
   4423   4425   4428     1   107.9000462 406.684800
   4424   4423   4488     1   110.1100470 384.091200
   4424   4435   4436     1   109.8000471 387.438400
   4424   4435   4437     1   109.8000471 387.438400
   4425   4423   4488     1   110.1100470 384.091200
   4425   4427   4429     1   109.8000471 387.438400
   4425   4427   4430     1   109.8000471 387.438400
   4426   4425   4427     1   109.5600471 388.275200
   4426   4425   4428     1   108.4600466 328.025600
   4427   4425   4428     1   109.5600471 388.275200
   4429   4427   4431     1   108.7700466 392.459200
   4429   4427   4430     1   107.5800459 329.699200
   4430   4427   4431     1   108.7700466 392.459200
   4431   4463   4453     1   119.3800509 410.868800
   4433   4424   4435     1   109.5600471 388.275200
   4433   4424   4434     1   108.4600466 328.025600
   4434   4424   4435     1   109.5600471 388.275200
   4436   4435   4438     1   108.7700466 392.459200
   4436   4435   4437     1   107.5800459 329.699200
   4437   4435   4438     1   108.7700466 392.459200
   4438   4487   4477     1   119.3800509 410.868800
   4440   4441   4460     1   109.5600471 388.275200
   4440   4451   4454     1   109.5600471 388.275200
   4440   4451   4455     1   109.5600471 388.275200
   4441   4440   4442     1   109.5600471 388.275200
   4441   4443   4447     1   109.5600471 388.275200
   4441   4461   4462     1   107.2600461 396.643200
   4442   4440   4451     1   109.5600471 388.275200
   4442   4440   4458     1   109.7800468 425.094400
   4443   4441   4460     1   109.5600471 388.275200
   4443   4444   4446     1   109.5600471 388.275200
   4443   4450   4452     1   107.2600461 396.643200
   4444   4443   4447     1   109.5600471 388.275200
   4444   4445   4448     1   110.2200475 386.601600
   4444   4463   4453     1   109.2900470 396.643200
   4445   4444   4446     1   109.5600471 388.275200
   4445   4449   4459     1   107.2600461 396.643200
   4446   4444   4463     1   109.8800469 414.216000
   4447   4443   4450     1   110.2600474 425.931200
   4448   4445   4449     1   109.4300470 427.604800
   4448   4445   4458     1   109.5800467 425.931200
   4451   4456   4457     1   107.2600461 396.643200
   4454   4451   4456     1   110.2600474 425.931200
   4454   4451   4455     1   108.4600466 328.025600
   4455   4451   4456     1   110.2600474 425.931200
   4460   4441   4461     1   110.2600474 425.931200
   4464   4465   4484     1   109.5600471 388.275200
   4464   4475   4478     1   109.5600471 388.275200
   4464   4475   4479     1   109.5600471 388.275200
   4465   4464   4466     1   109.5600471 388.275200
   4465   4467   4471     1   109.5600471 388.275200
   4465   4485   4486     1   107.2600461 396.643200
   4466   4464   4475     1   109.5600471 388.275200
   4466   4464   4482     1   109.7800468 425.094400
   4467   4465   4484     1   109.5600471 388.275200
   4467   4468   4470     1   109.5600471 388.275200
   4467   4474   4476     1   107.2600461 396.643200
   4468   4467   4471     1   109.5600471 388.275200
   4468   4469   4472     1   110.2200475 386.601600
   4468   4487   4477     1   109.2900470 396.643200
   4469   4468   4470     1   109.5600471 388.275200
   4469   4473   4483     1   107.2600461 396.643200
   4470   4468   4487     1   109.8800469 414.216000
   4471   4467   4474     1   110.2600474 425.931200
   4472   4469   4473     1   109.4300470 427.604800
   4472   4469   4482     1   109.5800467 425.931200
   4475   4480   4481     1   107.2600461 396.643200
   4478   4475   4480     1   110.2600474 425.931200
   4478   4475   4479     1   108.4600466 328.025600
   4479   4475   4480     1   110.2600474 425.931200
   4484   4465   4485     1   110.2600474 425.931200
   4489   4491   4492     1   108.8800464 416.726400
   4489   4491   4494     1   108.8800464 416.726400
   4490   4489   4491     1   117.6800502 383.254400
   4491   4493   4495     1   109.5600471 388.275200
   4491   4493   4496     1   109.5600471 388.275200
   4492   4491   4493     1   109.5600471 388.275200
   4492   4491   4494     1   108.4600466 328.025600
   4493   4497   4562     1   110.1100470 384.091200
   4493   4491   4494     1   109.5600471 388.275200
   4495   4493   4497     1   107.9000462 406.684800
   4495   4493   4496     1   108.4600466 328.025600
   4496   4493   4497     1   107.9000462 406.684800
   4497   4498   4507     1   107.9000462 406.684800
   4497   4498   4508     1   107.9000462 406.684800
   4497   4499   4500     1   107.9000462 406.684800
   4497   4499   4502     1   107.9000462 406.684800
   4498   4509   4510     1   109.8000471 387.438400
   4498   4509   4511     1   109.8000471 387.438400
   4498   4497   4562     1   110.1100470 384.091200
   4499   4501   4503     1   109.8000471 387.438400
   4499   4501   4504     1   109.8000471 387.438400
   4499   4497   4562     1   110.1100470 384.091200
   4500   4499   4501     1   109.5600471 388.275200
   4500   4499   4502     1   108.4600466 328.025600
   4501   4499   4502     1   109.5600471 388.275200
   4503   4501   4505     1   108.7700466 392.459200
   4503   4501   4504     1   107.5800459 329.699200
   4504   4501   4505     1   108.7700466 392.459200
   4505   4537   4527     1   119.3800509 410.868800
   4507   4498   4509     1   109.5600471 388.275200
   4507   4498   4508     1   108.4600466 328.025600
   4508   4498   4509     1   109.5600471 388.275200
   4510   4509   4512     1   108.7700466 392.459200
   4510   4509   4511     1   107.5800459 329.699200
   4511   4509   4512     1   108.7700466 392.459200
   4512   4561   4551     1   119.3800509 410.868800
   4514   4515   4534     1   109.5600471 388.275200
   4514   4525   4528     1   109.5600471 388.275200
   4514   4525   4529     1   109.5600471 388.275200
   4515   4517   4521     1   109.5600471 388.275200
   4515   4535   4536     1   107.2600461 396.643200
   4515   4514   4516     1   109.5600471 388.275200
   4516   4514   4525     1   109.5600471 388.275200
   4516   4514   4532     1   109.7800468 425.094400
   4517   4518   4520     1   109.5600471 388.275200
   4517   4524   4526     1   107.2600461 396.643200
   4517   4515   4534     1   109.5600471 388.275200
   4518   4519   4522     1   110.2200475 386.601600
   4518   4537   4527     1   109.2900470 396.643200
   4518   4517   4521     1   109.5600471 388.275200
   4519   4523   4533     1   107.2600461 396.643200
   4519   4518   4520     1   109.5600471 388.275200
   4520   4518   4537     1   109.8800469 414.216000
   4521   4517   4524     1   110.2600474 425.931200
   4522   4519   4523     1   109.4300470 427.604800
   4522   4519   4532     1   109.5800467 425.931200
   4525   4530   4531     1   107.2600461 396.643200
   4528   4525   4530     1   110.2600474 425.931200
   4528   4525   4529     1   108.4600466 328.025600
   4529   4525   4530     1   110.2600474 425.931200
   4534   4515   4535     1   110.2600474 425.931200
   4538   4539   4558     1   109.5600471 388.275200
   4538   4549   4552     1   109.5600471 388.275200
   4538   4549   4553     1   109.5600471 388.275200
   4539   4541   4545     1   109.5600471 388.275200
   4539   4559   4560     1   107.2600461 396.643200
   4539   4538   4540     1   109.5600471 388.275200
   4540   4538   4549     1   109.5600471 388.275200
   4540   4538   4556     1   109.7800468 425.094400
   4541   4542   4544     1   109.5600471 388.275200
   4541   4548   4550     1   107.2600461 396.643200
   4541   4539   4558     1   109.5600471 388.275200
   4542   4543   4546     1   110.2200475 386.601600
   4542   4561   4551     1   109.2900470 396.643200
   4542   4541   4545     1   109.5600471 388.275200
   4543   4547   4557     1   107.2600461 396.643200
   4543   4542   4544     1   109.5600471 388.275200
   4544   4542   4561     1   109.8800469 414.216000
   4545   4541   4548     1   110.2600474 425.931200
   4546   4543   4547     1   109.4300470 427.604800
   4546   4543   4556     1   109.5800467 425.931200
   4549   4554   4555     1   107.2600461 396.643200
   4552   4549   4554     1   110.2600474 425.931200
   4552   4549   4553     1   108.4600466 328.025600
   4553   4549   4554     1   110.2600474 425.931200
   4558   4539   4559     1   110.2600474 425.931200
   4563   4565   4566     1   108.8800464 416.726400
   4563   4565   4568     1   108.8800464 416.726400
   4564   4563   4565     1   117.6800502 383.254400
   4565   4567   4569     1   109.5600471 388.275200
   4565   4567   4570     1   109.5600471 388.275200
   4566   4565   4567     1   109.5600471 388.275200
   4566   4565   4568     1   108.4600466 328.025600
   4567   4565   4568     1   109.5600471 388.275200
   4567   4571   4636     1   110.1100470 384.091200
   4569   4567   4571     1   107.9000462 406.684800
   4569   4567   4570     1   108.4600466 328.025600
   4570   4567   4571     1   107.9000462 406.684800
   4571   4572   4581     1   107.9000462 406.684800
   4571   4572   4582     1   107.9000462 406.684800
   4571   4573   4574     1   107.9000462 406.684800
   4571   4573   4576     1   107.9000462 406.684800
   4572   4571   4636     1   110.1100470 384.091200
   4572   4583   4584     1   109.8000471 387.438400
   4572   4583   4585     1   109.8000471 387.438400
   4573   4571   4636     1   110.1100470 384.091200
   4573   4575   4577     1   109.8000471 387.438400
   4573   4575   4578     1   109.8000471 387.438400
   4574   4573   4575     1   109.5600471 388.275200
   4574   4573   4576     1   108.4600466 328.025600
   4575   4573   4576     1   109.5600471 388.275200
   4577   4575   4579     1   108.7700466 392.459200
   4577   4575   4578     1   107.5800459 329.699200
   4578   4575   4579     1   108.7700466 392.459200
   4579   4611   4601     1   119.3800509 410.868800
   4581   4572   4583     1   109.5600471 388.275200
   4581   4572   4582     1   108.4600466 328.025600
   4582   4572   4583     1   109.5600471 388.275200
   4584   4583   4586     1   108.7700466 392.459200
   4584   4583   4585     1   107.5800459 329.699200
   4585   4583   4586     1   108.7700466 392.459200
   4586   4635   4625     1   119.3800509 410.868800
   4588   4589   4608     1   109.5600471 388.275200
   4588   4599   4602     1   109.5600471 388.275200
   4588   4599   4603     1   109.5600471 388.275200
   4589   4588   4590     1   109.5600471 388.275200
   4589   4591   4595     1   109.5600471 388.275200
   4589   4609   4610     1   107.2600461 396.643200
   4590   4588   4599     1   109.5600471 388.275200
   4590   4588   4606     1   109.7800468 425.094400
   4591   4589   4608     1   109.5600471 388.275200
   4591   4592   4594     1   109.5600471 388.275200
   4591   4598   4600     1   107.2600461 396.643200
   4592   4591   4595     1   109.5600471 388.275200
   4592   4593   4596     1   110.2200475 386.601600
   4592   4611   4601     1   109.2900470 396.643200
   4593   4592   4594     1   109.5600471 388.275200
   4593   4597   4607     1   107.2600461 396.643200
   4594   4592   4611     1   109.8800469 414.216000
   4595   4591   4598     1   110.2600474 425.931200
   4596   4593   4597     1   109.4300470 427.604800
   4596   4593   4606     1   109.5800467 425.931200
   4599   4604   4605     1   107.2600461 396.643200
   4602   4599   4604     1   110.2600474 425.931200
   4602   4599   4603     1   108.4600466 328.025600
   4603   4599   4604     1   110.2600474 425.931200
   4608   4589   4609     1   110.2600474 425.931200
   4612   4613   4632     1   109.5600471 388.275200
   4612   4623   4626     1   109.5600471 388.275200
   4612   4623   4627     1   109.5600471 388.275200
   4613   4612   4614     1   109.5600471 388.275200
   4613   4615   4619     1   109.5600471 388.275200
   4613   4633   4634     1   107.2600461 396.643200
   4614   4612   4623     1   109.5600471 388.275200
   4614   4612   4630     1   109.7800468 425.094400
   4615   4613   4632     1   109.5600471 388.275200
   4615   4616   4618     1   109.5600471 388.275200
   4615   4622   4624     1   107.2600461 396.643200
   4616   4615   4619     1   109.5600471 388.275200
   4616   4617   4620     1   110.2200475 386.601600
   4616   4635   4625     1   109.2900470 396.643200
   4617   4616   4618     1   109.5600471 388.275200
   4617   4621   4631     1   107.2600461 396.643200
   4618   4616   4635     1   109.8800469 414.216000
   4619   4615   4622     1   110.2600474 425.931200
   4620   4617   4621     1   109.4300470 427.604800
   4620   4617   4630     1   109.5800467 425.931200
   4623   4628   4629     1   107.2600461 396.643200
   4626   4623   4628     1   110.2600474 425.931200
   4626   4623   4627     1   108.4600466 328.025600
   4627   4623   4628     1   110.2600474 425.931200
   4632   4613   4633     1   110.2600474 425.931200
   4637   4639   4640     1   108.8800464 416.726400
   4637   4639   4642     1   108.8800464 416.726400
   4638   4637   4639     1   117.6800502 383.254400
   4639   4641   4643     1   109.5600471 388.275200
   4639   4641   4644     1   109.5600471 388.275200
   4640   4639   4641     1   109.5600471 388.275200
   4640   4639   4642     1   108.4600466 328.025600
   4641   4645   4710     1   110.1100470 384.091200
   4641   4639   4642     1   109.5600471 388.275200
   4643   4641   4645     1   107.9000462 406.684800
   4643   4641   4644     1   108.4600466 328.025600
   4644   4641   4645     1   107.9000462 406.684800
   4645   4646   4655     1   107.9000462 406.684800
   4645   4646   4656     1   107.9000462 406.684800
   4645   4647   4648     1   107.9000462 406.684800
   4645   4647   4650     1   107.9000462 406.684800
   4646   4657   4658     1   109.8000471 387.438400
   4646   4657   4659     1   109.8000471 387.438400
   4646   4645   4710     1   110.1100470 384.091200
   4647   4649   4651     1   109.8000471 387.438400
   4647   4649   4652     1   109.8000471 387.438400
   4647   4645   4710     1   110.1100470 384.091200
   4648   4647   4649     1   109.5600471 388.275200
   4648   4647   4650     1   108.4600466 328.025600
   4649   4647   4650     1   109.5600471 388.275200
   4651   4649   4653     1   108.7700466 392.459200
   4651   4649   4652     1   107.5800459 329.699200
   4652   4649   4653     1   108.7700466 392.459200
   4653   4685   4675     1   119.3800509 410.868800
   4655   4646   4657     1   109.5600471 388.275200
   4655   4646   4656     1   108.4600466 328.025600
   4656   4646   4657     1   109.5600471 388.275200
   4658   4657   4660     1   108.7700466 392.459200
   4658   4657   4659     1   107.5800459 329.699200
   4659   4657   4660     1   108.7700466 392.459200
   4660   4709   4699     1   119.3800509 410.868800
   4662   4663   4682     1   109.5600471 388.275200
   4662   4673   4676     1   109.5600471 388.275200
   4662   4673   4677     1   109.5600471 388.275200
   4663   4665   4669     1   109.5600471 388.275200
   4663   4683   4684     1   107.2600461 396.643200
   4663   4662   4664     1   109.5600471 388.275200
   4664   4662   4673     1   109.5600471 388.275200
   4664   4662   4680     1   109.7800468 425.094400
   4665   4666   4668     1   109.5600471 388.275200
   4665   4672   4674     1   107.2600461 396.643200
   4665   4663   4682     1   109.5600471 388.275200
   4666   4667   4670     1   110.2200475 386.601600
   4666   4685   4675     1   109.2900470 396.643200
   4666   4665   4669     1   109.5600471 388.275200
   4667   4671   4681     1   107.2600461 396.643200
   4667   4666   4668     1   109.5600471 388.275200
   4668   4666   4685     1   109.8800469 414.216000
   4669   4665   4672     1   110.2600474 425.931200
   4670   4667   4671     1   109.4300470 427.604800
   4670   4667   4680     1   109.5800467 425.931200
   4673   4678   4679     1   107.2600461 396.643200
   4676   4673   4678     1   110.2600474 425.931200
   4676   4673   4677     1   108.4600466 328.025600
   4677   4673   4678     1   110.2600474 425.931200
   4682   4663   4683     1   110.2600474 425.931200
   4686   4687   4706     1   109.5600471 388.275200
   4686   4697   4700     1   109.5600471 388.275200
   4686   4697   4701     1   109.5600471 388.275200
   4687   4689   4693     1   109.5600471 388.275200
   4687   4707   4708     1   107.2600461 396.643200
   4687   4686   4688     1   109.5600471 388.275200
   4688   4686   4697     1   109.5600471 388.275200
   4688   4686   4704     1   109.7800468 425.094400
   4689   4690   4692     1   109.5600471 388.275200
   4689   4696   4698     1   107.2600461 396.643200
   4689   4687   4706     1   109.5600471 388.275200
   4690   4691   4694     1   110.2200475 386.601600
   4690   4709   4699     1   109.2900470 396.643200
   4690   4689   4693     1   109.5600471 388.275200
   4691   4695   4705     1   107.2600461 396.643200
   4691   4690   4692     1   109.5600471 388.275200
   4692   4690   4709     1   109.8800469 414.216000
   4693   4689   4696     1   110.2600474 425.931200
   4694   4691   4695     1   109.4300470 427.604800
   4694   4691   4704     1   109.5800467 425.931200
   4697   4702   4703     1   107.2600461 396.643200
   4700   4697   4702     1   110.2600474 425.931200
   4700   4697   4701     1   108.4600466 328.025600
   4701   4697   4702     1   110.2600474 425.931200
   4706   4687   4707     1   110.2600474 425.931200
   4711   4713   4714     1   108.8800464 416.726400
   4711   4713   4716     1   108.8800464 416.726400
   4712   4711   4713     1   117.6800502 383.254400
   4713   4715   4717     1   109.5600471 388.275200
   4713   4715   4718     1   109.5600471 388.275200
   4714   4713   4715     1   109.5600471 388.275200
   4714   4713   4716     1   108.4600466 328.025600
   4715   4713   4716     1   109.5600471 388.275200
   4715   4719   4784     1   110.1100470 384.091200
   4717   4715   4719     1   107.9000462 406.684800
   4717   4715   4718     1   108.4600466 328.025600
   4718   4715   4719     1   107.9000462 406.684800
   4719   4720   4729     1   107.9000462 406.684800
   4719   4720   4730     1   107.9000462 406.684800
   4719   4721   4722     1   107.9000462 406.684800
   4719   4721   4724     1   107.9000462 406.684800
   4720   4719   4784     1   110.1100470 384.091200
   4720   4731   4732     1   109.8000471 387.438400
   4720   4731   4733     1   109.8000471 387.438400
   4721   4719   4784     1   110.1100470 384.091200
   4721   4723   4725     1   109.8000471 387.438400
   4721   4723   4726     1   109.8000471 387.438400
   4722   4721   4723     1   109.5600471 388.275200
   4722   4721   4724     1   108.4600466 328.025600
   4723   4721   4724     1   109.5600471 388.275200
   4725   4723   4727     1   108.7700466 392.459200
   4725   4723   4726     1   107.5800459 329.699200
   4726   4723   4727     1   108.7700466 392.459200
   4727   4759   4749     1   119.3800509 410.868800
   4729   4720   4731     1   109.5600471 388.275200
   4729   4720   4730     1   108.4600466 328.025600
   4730   4720   4731     1   109.5600471 388.275200
   4732   4731   4734     1   108.7700466 392.459200
   4732   4731   4733     1   107.5800459 329.699200
   4733   4731   4734     1   108.7700466 392.459200
   4734   4783   4773     1   119.3800509 410.868800
   4736   4737   4756     1   109.5600471 388.275200
   4736   4747   4750     1   109.5600471 388.275200
   4736   4747   4751     1   109.5600471 388.275200
   4737   4736   4738     1   109.5600471 388.275200
   4737   4739   4743     1   109.5600471 388.275200
   4737   4757   4758     1   107.2600461 396.643200
   4738   4736   4747     1   109.5600471 388.275200
   4738   4736   4754     1   109.7800468 425.094400
   4739   4737   4756     1   109.5600471 388.275200
   4739   4740   4742     1   109.5600471 388.275200
   4739   4746   4748     1   107.2600461 396.643200
   4740   4739   4743     1   109.5600471 388.275200
   4740   4741   4744     1   110.2200475 386.601600
   4740   4759   4749     1   109.2900470 396.643200
   4741   4740   4742     1   109.5600471 388.275200
   4741   4745   4755     1   107.2600461 396.643200
   4742   4740   4759     1   109.8800469 414.216000
   4743   4739   4746     1   110.2600474 425.931200
   4744   4741   4745     1   109.4300470 427.604800
   4744   4741   4754     1   109.5800467 425.931200
   4747   4752   4753     1   107.2600461 396.643200
   4750   4747   4752     1   110.2600474 425.931200
   4750   4747   4751     1   108.4600466 328.025600
   4751   4747   4752     1   110.2600474 425.931200
   4756   4737   4757     1   110.2600474 425.931200
   4760   4761   4780     1   109.5600471 388.275200
   4760   4771   4774     1   109.5600471 388.275200
   4760   4771   4775     1   109.5600471 388.275200
   4761   4760   4762     1   109.5600471 388.275200
   4761   4763   4767     1   109.5600471 388.275200
   4761   4781   4782     1   107.2600461 396.643200
   4762   4760   4771     1   109.5600471 388.275200
   4762   4760   4778     1   109.7800468 425.094400
   4763   4761   4780     1   109.5600471 388.275200
   4763   4764   4766     1   109.5600471 388.275200
   4763   4770   4772     1   107.2600461 396.643200
   4764   4763   4767     1   109.5600471 388.275200
   4764   4765   4768     1   110.2200475 386.601600
   4764   4783   4773     1   109.2900470 396.643200
   4765   4764   4766     1   109.5600471 388.275200
   4765   4769   4779     1   107.2600461 396.643200
   4766   4764   4783     1   109.8800469 414.216000
   4767   4763   4770     1   110.2600474 425.931200
   4768   4765   4769     1   109.4300470 427.604800
   4768   4765   4778     1   109.5800467 425.931200
   4771   4776   4777     1   107.2600461 396.643200
   4774   4771   4776     1   110.2600474 425.931200
   4774   4771   4775     1   108.4600466 328.025600
   4775   4771   4776     1   110.2600474 425.931200
   4780   4761   4781     1   110.2600474 425.931200
   4785   4787   4788     1   108.8800464 416.726400
   4785   4787   4790     1   108.8800464 416.726400
   4786   4785   4787     1   117.6800502 383.254400
   4787   4789   4791     1   109.5600471 388.275200
   4787   4789   4792     1   109.5600471 388.275200
   4788   4787   4789     1   109.5600471 388.275200
   4788   4787   4790     1   108.4600466 328.025600
   4789   4793   4858     1   110.1100470 384.091200
   4789   4787   4790     1   109.5600471 388.275200
   4791   4789   4793     1   107.9000462 406.684800
   4791   4789   4792     1   108.4600466 328.025600
   4792   4789   4793     1   107.9000462 406.684800
   4793   4794   4803     1   107.9000462 406.684800
   4793   4794   4804     1   107.9000462 406.684800
   4793   4795   4796     1   107.9000462 406.684800
   4793   4795   4798     1   107.9000462 406.684800
   4794   4805   4806     1   109.8000471 387.438400
   4794   4805   4807     1   109.8000471 387.438400
   4794   4793   4858     1   110.1100470 384.091200
   4795   4797   4799     1   109.8000471 387.438400
   4795   4797   4800     1   109.8000471 387.438400
   4795   4793   4858     1   110.1100470 384.091200
   4796   4795   4797     1   109.5600471 388.275200
   4796   4795   4798     1   108.4600466 328.025600
   4797   4795   4798     1   109.5600471 388.275200
   4799   4797   4801     1   108.7700466 392.459200
   4799   4797   4800     1   107.5800459 329.699200
   4800   4797   4801     1   108.7700466 392.459200
   4801   4833   4823     1   119.3800509 410.868800
   4803   4794   4805     1   109.5600471 388.275200
   4803   4794   4804     1   108.4600466 328.025600
   4804   4794   4805     1   109.5600471 388.275200
   4806   4805   4808     1   108.7700466 392.459200
   4806   4805   4807     1   107.5800459 329.699200
   4807   4805   4808     1   108.7700466 392.459200
   4808   4857   4847     1   119.3800509 410.868800
   4810   4811   4830     1   109.5600471 388.275200
   4810   4821   4824     1   109.5600471 388.275200
   4810   4821   4825     1   109.5600471 388.275200
   4811   4813   4817     1   109.5600471 388.275200
   4811   4831   4832     1   107.2600461 396.643200
   4811   4810   4812     1   109.5600471 388.275200
   4812   4810   4821     1   109.5600471 388.275200
   4812   4810   4828     1   109.7800468 425.094400
   4813   4814   4816     1   109.5600471 388.275200
   4813   4820   4822     1   107.2600461 396.643200
   4813   4811   4830     1   109.5600471 388.275200
   4814   4815   4818     1   110.2200475 386.601600
   4814   4833   4823     1   109.2900470 396.643200
   4814   4813   4817     1   109.5600471 388.275200
   4815   4819   4829     1   107.2600461 396.643200
   4815   4814   4816     1   109.5600471 388.275200
   4816   4814   4833     1   109.8800469 414.216000
   4817   4813   4820     1   110.2600474 425.931200
   4818   4815   4819     1   109.4300470 427.604800
   4818   4815   4828     1   109.5800467 425.931200
   4821   4826   4827     1   107.2600461 396.643200
   4824   4821   4826     1   110.2600474 425.931200
   4824   4821   4825     1   108.4600466 328.025600
   4825   4821   4826     1   110.2600474 425.931200
   4830   4811   4831     1   110.2600474 425.931200
   4834   4835   4854     1   109.5600471 388.275200
   4834   4845   4848     1   109.5600471 388.275200
   4834   4845   4849     1   109.5600471 388.275200
   4835   4837   4841     1   109.5600471 388.275200
   4835   4855   4856     1   107.2600461 396.643200
   4835   4834   4836     1   109.5600471 388.275200
   4836   4834   4845     1   109.5600471 388.275200
   4836   4834   4852     1   109.7800468 425.094400
   4837   4838   4840     1   109.5600471 388.275200
   4837   4844   4846     1   107.2600461 396.643200
   4837   4835   4854     1   109.5600471 388.275200
   4838   4839   4842     1   110.2200475 386.601600
   4838   4857   4847     1   109.2900470 396.643200
   4838   4837   4841     1   109.5600471 388.275200
   4839   4843   4853     1   107.2600461 396.643200
   4839   4838   4840     1   109.5600471 388.275200
   4840   4838   4857     1   109.8800469 414.216000
   4841   4837   4844     1   110.2600474 425.931200
   4842   4839   4843     1   109.4300470 427.604800
   4842   4839   4852     1   109.5800467 425.931200
   4845   4850   4851     1   107.2600461 396.643200
   4848   4845   4850     1   110.2600474 425.931200
   4848   4845   4849     1   108.4600466 328.025600
   4849   4845   4850     1   110.2600474 425.931200
   4854   4835   4855     1   110.2600474 425.931200
   4859   4861   4862     1   108.8800464 416.726400
   4859   4861   4864     1   108.8800464 416.726400
   4860   4859   4861     1   117.6800502 383.254400
   4861   4863   4865     1   109.5600471 388.275200
   4861   4863   4866     1   109.5600471 388.275200
   4862   4861   4863     1   109.5600471 388.275200
   4862   4861   4864     1   108.4600466 328.025600
   4863   4861   4864     1   109.5600471 388.275200
   4863   4867   4932     1   110.1100470 384.091200
   4865   4863   4867     1   107.9000462 406.684800
   4865   4863   4866     1   108.4600466 328.025600
   4866   4863   4867     1   107.9000462 406.684800
   4867   4868   4877     1   107.9000462 406.684800
   4867   4868   4878     1   107.9000462 406.684800
   4867   4869   4870     1   107.9000462 406.684800
   4867   4869   4872     1   107.9000462 406.684800
   4868   4867   4932     1   110.1100470 384.091200
   4868   4879   4880     1   109.8000471 387.438400
   4868   4879   4881     1   109.8000471 387.438400
   4869   4867   4932     1   110.1100470 384.091200
   4869   4871   4873     1   109.8000471 387.438400
   4869   4871   4874     1   109.8000471 387.438400
   4870   4869   4871     1   109.5600471 388.275200
   4870   4869   4872     1   108.4600466 328.025600
   4871   4869   4872     1   109.5600471 388.275200
   4873   4871   4875     1   108.7700466 392.459200
   4873   4871   4874     1   107.5800459 329.699200
   4874   4871   4875     1   108.7700466 392.459200
   4875   4907   4897     1   119.3800509 410.868800
   4877   4868   4879     1   109.5600471 388.275200
   4877   4868   4878     1   108.4600466 328.025600
   4878   4868   4879     1   109.5600471 388.275200
   4880   4879   4882     1   108.7700466 392.459200
   4880   4879   4881     1   107.5800459 329.699200
   4881   4879   4882     1   108.7700466 392.459200
   4882   4931   4921     1   119.3800509 410.868800
   4884   4885   4904     1   109.5600471 388.275200
   4884   4895   4898     1   109.5600471 388.275200
   4884   4895   4899     1   109.5600471 388.275200
   4885   4884   4886     1   109.5600471 388.275200
   4885   4887   4891     1   109.5600471 388.275200
   4885   4905   4906     1   107.2600461 396.643200
   4886   4884   4895     1   109.5600471 388.275200
   4886   4884   4902     1   109.7800468 425.094400
   4887   4885   4904     1   109.5600471 388.275200
   4887   4888   4890     1   109.5600471 388.275200
   4887   4894   4896     1   107.2600461 396.643200
   4888   4887   4891     1   109.5600471 388.275200
   4888   4889   4892     1   110.2200475 386.601600
   4888   4907   4897     1   109.2900470 396.643200
   4889   4888   4890     1   109.5600471 388.275200
   4889   4893   4903     1   107.2600461 396.643200
   4890   4888   4907     1   109.8800469 414.216000
   4891   4887   4894     1   110.2600474 425.931200
   4892   4889   4893     1   109.4300470 427.604800
   4892   4889   4902     1   109.5800467 425.931200
   4895   4900   4901     1   107.2600461 396.643200
   4898   4895   4900     1   110.2600474 425.931200
   4898   4895   4899     1   108.4600466 328.025600
   4899   4895   4900     1   110.2600474 425.931200
   4904   4885   4905     1   110.2600474 425.931200
   4908   4909   4928     1   109.5600471 388.275200
   4908   4919   4922     1   109.5600471 388.275200
   4908   4919   4923     1   109.5600471 388.275200
   4909   4908   4910     1   109.5600471 388.275200
   4909   4911   4915     1   109.5600471 388.275200
   4909   4929   4930     1   107.2600461 396.643200
   4910   4908   4919     1   109.5600471 388.275200
   4910   4908   4926     1   109.7800468 425.094400
   4911   4909   4928     1   109.5600471 388.275200
   4911   4912   4914     1   109.5600471 388.275200
   4911   4918   4920     1   107.2600461 396.643200
   4912   4911   4915     1   109.5600471 388.275200
   4912   4913   4916     1   110.2200475 386.601600
   4912   4931   4921     1   109.2900470 396.643200
   4913   4912   4914     1   109.5600471 388.275200
   4913   4917   4927     1   107.2600461 396.643200
   4914   4912   4931     1   109.8800469 414.216000
   4915   4911   4918     1   110.2600474 425.931200
   4916   4913   4917     1   109.4300470 427.604800
   4916   4913   4926     1   109.5800467 425.931200
   4919   4924   4925     1   107.2600461 396.643200
   4922   4919   4924     1   110.2600474 425.931200
   4922   4919   4923     1   108.4600466 328.025600
   4923   4919   4924     1   110.2600474 425.931200
   4928   4909   4929     1   110.2600474 425.931200
   4933   4935   4936     1   108.8800464 416.726400
   4933   4935   4938     1   108.8800464 416.726400
   4934   4933   4935     1   117.6800502 383.254400
   4935   4937   4939     1   109.5600471 388.275200
   4935   4937   4940     1   109.5600471 388.275200
   4936   4935   4937     1   109.5600471 388.275200
   4936   4935   4938     1   108.4600466 328.025600
   4937   4941   5006     1   110.1100470 384.091200
   4937   4935   4938     1   109.5600471 388.275200
   4939   4937   4941     1   107.9000462 406.684800
   4939   4937   4940     1   108.4600466 328.025600
   4940   4937   4941     1   107.9000462 406.684800
   4941   4942   4951     1   107.9000462 406.684800
   4941   4942   4952     1   107.9000462 406.684800
   4941   4943   4944     1   107.9000462 406.684800
   4941   4943   4946     1   107.9000462 406.684800
   4942   4953   4954     1   109.8000471 387.438400
   4942   4953   4955     1   109.8000471 387.438400
   4942   4941   5006     1   110.1100470 384.091200
   4943   4945   4947     1   109.8000471 387.438400
   4943   4945   4948     1   109.8000471 387.438400
   4943   4941   5006     1   110.1100470 384.091200
   4944   4943   4945     1   109.5600471 388.275200
   4944   4943   4946     1   108.4600466 328.025600
   4945   4943   4946     1   109.5600471 388.275200
   4947   4945   4949     1   108.7700466 392.459200
   4947   4945   4948     1   107.5800459 329.699200
   4948   4945   4949     1   108.7700466 392.459200
   4949   4981   4971     1   119.3800509 410.868800
   4951   4942   4953     1   109.5600471 388.275200
   4951   4942   4952     1   108.4600466 328.025600
   4952   4942   4953     1   109.5600471 388.275200
   4954   4953   4956     1   108.7700466 392.459200
   4954   4953   4955     1   107.5800459 329.699200
   4955   4953   4956     1   108.7700466 392.459200
   4956   5005   4995     1   119.3800509 410.868800
   4958   4959   4978     1   109.5600471 388.275200
   4958   4969   4972     1   109.5600471 388.275200
   4958   4969   4973     1   109.5600471 388.275200
   4959   4961   4965     1   109.5600471 388.275200
   4959   4979   4980     1   107.2600461 396.643200
   4959   4958   4960     1   109.5600471 388.275200
   4960   4958   4969     1   109.5600471 388.275200
   4960   4958   4976     1   109.7800468 425.094400
   4961   4962   4964     1   109.5600471 388.275200
   4961   4968   4970     1   107.2600461 396.643200
   4961   4959   4978     1   109.5600471 388.275200
   4962   4963   4966     1   110.2200475 386.601600
   4962   4981   4971     1   109.2900470 396.643200
   4962   4961   4965     1   109.5600471 388.275200
   4963   4967   4977     1   107.2600461 396.643200
   4963   4962   4964     1   109.5600471 388.275200
   4964   4962   4981     1   109.8800469 414.216000
   4965   4961   4968     1   110.2600474 425.931200
   4966   4963   4967     1   109.4300470 427.604800
   4966   4963   4976     1   109.5800467 425.931200
   4969   4974   4975     1   107.2600461 396.643200
   4972   4969   4974     1   110.2600474 425.931200
   4972   4969   4973     1   108.4600466 328.025600
   4973   4969   4974     1   110.2600474 425.931200
   4978   4959   4979     1   110.2600474 425.931200
   4982   4983   5002     1   109.5600471 388.275200
   4982   4993   4996     1   109.5600471 388.275200
   4982   4993   4997     1   109.5600471 388.275200
   4983   4985   4989     1   109.5600471 388.275200
   4983   5003   5004     1   107.2600461 396.643200
   4983   4982   4984     1   109.5600471 388.275200
   4984   4982   4993     1   109.5600471 388.275200
   4984   4982   5000     1   109.7800468 425.094400
   4985   4986   4988     1   109.5600471 388.275200
   4985   4992   4994     1   107.2600461 396.643200
   4985   4983   5002     1   109.5600471 388.275200
   4986   4987   4990     1   110.2200475 386.601600
   4986   5005   4995     1   109.2900470 396.643200
   4986   4985   4989     1   109.5600471 388.275200
   4987   4991   5001     1   107.2600461 396.643200
   4987   4986   4988     1   109.5600471 388.275200
   4988   4986   5005     1   109.8800469 414.216000
   4989   4985   4992     1   110.2600474 425.931200
   4990   4987   4991     1   109.4300470 427.604800
   4990   4987   5000     1   109.5800467 425.931200
   4993   4998   4999     1   107.2600461 396.643200
   4996   4993   4998     1   110.2600474 425.931200
   4996   4993   4997     1   108.4600466 328.025600
   4997   4993   4998     1   110.2600474 425.931200
   5002   4983   5003     1   110.2600474 425.931200
   5007   5009   5010     1   108.8800464 416.726400
   5007   5009   5012     1   108.8800464 416.726400
   5008   5007   5009     1   117.6800502 383.254400
   5009   5011   5013     1   109.5600471 388.275200
   5009   5011   5014     1   109.5600471 388.275200
   5010   5009   5011     1   109.5600471 388.275200
   5010   5009   5012     1   108.4600466 328.025600
   5011   5009   5012     1   109.5600471 388.275200
   5011   5015   5080     1   110.1100470 384.091200
   5013   5011   5015     1   107.9000462 406.684800
   5013   5011   5014     1   108.4600466 328.025600
   5014   5011   5015     1   107.9000462 406.684800
   5015   5016   5025     1   107.9000462 406.684800
   5015   5016   5026     1   107.9000462 406.684800
   5015   5017   5018     1   107.9000462 406.684800
   5015   5017   5020     1   107.9000462 406.684800
   5016   5015   5080     1   110.1100470 384.091200
   5016   5027   5028     1   109.8000471 387.438400
   5016   5027   5029     1   109.8000471 387.438400
   5017   5015   5080     1   110.1100470 384.091200
   5017   5019   5021     1   109.8000471 387.438400
   5017   5019   5022     1   109.8000471 387.438400
   5018   5017   5019     1   109.5600471 388.275200
   5018   5017   5020     1   108.4600466 328.025600
   5019   5017   5020     1   109.5600471 388.275200
   5021   5019   5023     1   108.7700466 392.459200
   5021   5019   5022     1   107.5800459 329.699200
   5022   5019   5023     1   108.7700466 392.459200
   5023   5055   5045     1   119.3800509 410.868800
   5025   5016   5027     1   109.5600471 388.275200
   5025   5016   5026     1   108.4600466 328.025600
   5026   5016   5027     1   109.5600471 388.275200
   5028   5027   5030     1   108.7700466 392.459200
   5028   5027   5029     1   107.5800459 329.699200
   5029   5027   5030     1   108.7700466 392.459200
   5030   5079   5069     1   119.3800509 410.868800
   5032   5033   5052     1   109.5600471 388.275200
   5032   5043   5046     1   109.5600471 388.275200
   5032   5043   5047     1   109.5600471 388.275200
   5033   5032   5034     1   109.5600471 388.275200
   5033   5035   5039     1   109.5600471 388.275200
   5033   5053   5054     1   107.2600461 396.643200
   5034   5032   5043     1   109.5600471 388.275200
   5034   5032   5050     1   109.7800468 425.094400
   5035   5033   5052     1   109.5600471 388.275200
   5035   5036   5038     1   109.5600471 388.275200
   5035   5042   5044     1   107.2600461 396.643200
   5036   5035   5039     1   109.5600471 388.275200
   5036   5037   5040     1   110.2200475 386.601600
   5036   5055   5045     1   109.2900470 396.643200
   5037   5036   5038     1   109.5600471 388.275200
   5037   5041   5051     1   107.2600461 396.643200
   5038   5036   5055     1   109.8800469 414.216000
   5039   5035   5042     1   110.2600474 425.931200
   5040   5037   5041     1   109.4300470 427.604800
   5040   5037   5050     1   109.5800467 425.931200
   5043   5048   5049     1   107.2600461 396.643200
   5046   5043   5048     1   110.2600474 425.931200
   5046   5043   5047     1   108.4600466 328.025600
   5047   5043   5048     1   110.2600474 425.931200
   5052   5033   5053     1   110.2600474 425.931200
   5056   5057   5076     1   109.5600471 388.275200
   5056   5067   5070     1   109.5600471 388.275200
   5056   5067   5071     1   109.5600471 388.275200
   5057   5056   5058     1   109.5600471 388.275200
   5057   5059   5063     1   109.5600471 388.275200
   5057   5077   5078     1   107.2600461 396.643200
   5058   5056   5067     1   109.5600471 388.275200
   5058   5056   5074     1   109.7800468 425.094400
   5059   5057   5076     1   109.5600471 388.275200
   5059   5060   5062     1   109.5600471 388.275200
   5059   5066   5068     1   107.2600461 396.643200
   5060   5059   5063     1   109.5600471 388.275200
   5060   5061   5064     1   110.2200475 386.601600
   5060   5079   5069     1   109.2900470 396.643200
   5061   5060   5062     1   109.5600471 388.275200
   5061   5065   5075     1   107.2600461 396.643200
   5062   5060   5079     1   109.8800469 414.216000
   5063   5059   5066     1   110.2600474 425.931200
   5064   5061   5065     1   109.4300470 427.604800
   5064   5061   5074     1   109.5800467 425.931200
   5067   5072   5073     1   107.2600461 396.643200
   5070   5067   5072     1   110.2600474 425.931200
   5070   5067   5071     1   108.4600466 328.025600
   5071   5067   5072     1   110.2600474 425.931200
   5076   5057   5077     1   110.2600474 425.931200
   5081   5083   5084     1   108.8800464 416.726400
   5081   5083   5086     1   108.8800464 416.726400
   5082   5081   5083     1   117.6800502 383.254400
   5083   5085   5087     1   109.5600471 388.275200
   5083   5085   5088     1   109.5600471 388.275200
   5084   5083   5085     1   109.5600471 388.275200
   5084   5083   5086     1   108.4600466 328.025600
   5085   5089   5154     1   110.1100470 384.091200
   5085   5083   5086     1   109.5600471 388.275200
   5087   5085   5089     1   107.9000462 406.684800
   5087   5085   5088     1   108.4600466 328.025600
   5088   5085   5089     1   107.9000462 406.684800
   5089   5090   5099     1   107.9000462 406.684800
   5089   5090   5100     1   107.9000462 406.684800
   5089   5091   5092     1   107.9000462 406.684800
   5089   5091   5094     1   107.9000462 406.684800
   5090   5101   5102     1   109.8000471 387.438400
   5090   5101   5103     1   109.8000471 387.438400
   5090   5089   5154     1   110.1100470 384.091200
   5091   5093   5095     1   109.8000471 387.438400
   5091   5093   5096     1   109.8000471 387.438400
   5091   5089   5154     1   110.1100470 384.091200
   5092   5091   5093     1   109.5600471 388.275200
   5092   5091   5094     1   108.4600466 328.025600
   5093   5091   5094     1   109.5600471 388.275200
   5095   5093   5097     1   108.7700466 392.459200
   5095   5093   5096     1   107.5800459 329.699200
   5096   5093   5097     1   108.7700466 392.459200
   5097   5129   5119     1   119.3800509 410.868800
   5099   5090   5101     1   109.5600471 388.275200
   5099   5090   5100     1   108.4600466 328.025600
   5100   5090   5101     1   109.5600471 388.275200
   5102   5101   5104     1   108.7700466 392.459200
   5102   5101   5103     1   107.5800459 329.699200
   5103   5101   5104     1   108.7700466 392.459200
   5104   5153   5143     1   119.3800509 410.868800
   5106   5107   5126     1   109.5600471 388.275200
   5106   5117   5120     1   109.5600471 388.275200
   5106   5117   5121     1   109.5600471 388.275200
   5107   5109   5113     1   109.5600471 388.275200
   5107   5127   5128     1   107.2600461 396.643200
   5107   5106   5108     1   109.5600471 388.275200
   5108   5106   5117     1   109.5600471 388.275200
   5108   5106   5124     1   109.7800468 425.094400
   5109   5110   5112     1   109.5600471 388.275200
   5109   5116   5118     1   107.2600461 396.643200
   5109   5107   5126     1   109.5600471 388.275200
   5110   5111   5114     1   110.2200475 386.601600
   5110   5129   5119     1   109.2900470 396.643200
   5110   5109   5113     1   109.5600471 388.275200
   5111   5115   5125     1   107.2600461 396.643200
   5111   5110   5112     1   109.5600471 388.275200
   5112   5110   5129     1   109.8800469 414.216000
   5113   5109   5116     1   110.2600474 425.931200
   5114   5111   5115     1   109.4300470 427.604800
   5114   5111   5124     1   109.5800467 425.931200
   5117   5122   5123     1   107.2600461 396.643200
   5120   5117   5122     1   110.2600474 425.931200
   5120   5117   5121     1   108.4600466 328.025600
   5121   5117   5122     1   110.2600474 425.931200
   5126   5107   5127     1   110.2600474 425.931200
   5130   5131   5150     1   109.5600471 388.275200
   5130   5141   5144     1   109.5600471 388.275200
   5130   5141   5145     1   109.5600471 388.275200
   5131   5133   5137     1   109.5600471 388.275200
   5131   5151   5152     1   107.2600461 396.643200
   5131   5130   5132     1   109.5600471 388.275200
   5132   5130   5141     1   109.5600471 388.275200
   5132   5130   5148     1   109.7800468 425.094400
   5133   5134   5136     1   109.5600471 388.275200
   5133   5140   5142     1   107.2600461 396.643200
   5133   5131   5150     1   109.5600471 388.275200
   5134   5135   5138     1   110.2200475 386.601600
   5134   5153   5143     1   109.2900470 396.643200
   5134   5133   5137     1   109.5600471 388.275200
   5135   5139   5149     1   107.2600461 396.643200
   5135   5134   5136     1   109.5600471 388.275200
   5136   5134   5153     1   109.8800469 414.216000
   5137   5133   5140     1   110.2600474 425.931200
   5138   5135   5139     1   109.4300470 427.604800
   5138   5135   5148     1   109.5800467 425.931200
   5141   5146   5147     1   107.2600461 396.643200
   5144   5141   5146     1   110.2600474 425.931200
   5144   5141   5145     1   108.4600466 328.025600
   5145   5141   5146     1   110.2600474 425.931200
   5150   5131   5151     1   110.2600474 425.931200
   5155   5157   5158     1   108.8800464 416.726400
   5155   5157   5160     1   108.8800464 416.726400
   5156   5155   5157     1   117.6800502 383.254400
   5157   5159   5161     1   109.5600471 388.275200
   5157   5159   5162     1   109.5600471 388.275200
   5158   5157   5159     1   109.5600471 388.275200
   5158   5157   5160     1   108.4600466 328.025600
   5159   5157   5160     1   109.5600471 388.275200
   5159   5163   5228     1   110.1100470 384.091200
   5161   5159   5163     1   107.9000462 406.684800
   5161   5159   5162     1   108.4600466 328.025600
   5162   5159   5163     1   107.9000462 406.684800
   5163   5164   5173     1   107.9000462 406.684800
   5163   5164   5174     1   107.9000462 406.684800
   5163   5165   5166     1   107.9000462 406.684800
   5163   5165   5168     1   107.9000462 406.684800
   5164   5163   5228     1   110.1100470 384.091200
   5164   5175   5176     1   109.8000471 387.438400
   5164   5175   5177     1   109.8000471 387.438400
   5165   5163   5228     1   110.1100470 384.091200
   5165   5167   5169     1   109.8000471 387.438400
   5165   5167   5170     1   109.8000471 387.438400
   5166   5165   5167     1   109.5600471 388.275200
   5166   5165   5168     1   108.4600466 328.025600
   5167   5165   5168     1   109.5600471 388.275200
   5169   5167   5171     1   108.7700466 392.459200
   5169   5167   5170     1   107.5800459 329.699200
   5170   5167   5171     1   108.7700466 392.459200
   5171   5203   5193     1   119.3800509 410.868800
   5173   5164   5175     1   109.5600471 388.275200
   5173   5164   5174     1   108.4600466 328.025600
   5174   5164   5175     1   109.5600471 388.275200
   5176   5175   5178     1   108.7700466 392.459200
   5176   5175   5177     1   107.5800459 329.699200
   5177   5175   5178     1   108.7700466 392.459200
   5178   5227   5217     1   119.3800509 410.868800
   5180   5181   5200     1   109.5600471 388.275200
   5180   5191   5194     1   109.5600471 388.275200
   5180   5191   5195     1   109.5600471 388.275200
   5181   5180   5182     1   109.5600471 388.275200
   5181   5183   5187     1   109.5600471 388.275200
   5181   5201   5202     1   107.2600461 396.643200
   5182   5180   5191     1   109.5600471 388.275200
   5182   5180   5198     1   109.7800468 425.094400
   5183   5181   5200     1   109.5600471 388.275200
   5183   5184   5186     1   109.5600471 388.275200
   5183   5190   5192     1   107.2600461 396.643200
   5184   5183   5187     1   109.5600471 388.275200
   5184   5185   5188     1   110.2200475 386.601600
   5184   5203   5193     1   109.2900470 396.643200
   5185   5184   5186     1   109.5600471 388.275200
   5185   5189   5199     1   107.2600461 396.643200
   5186   5184   5203     1   109.8800469 414.216000
   5187   5183   5190     1   110.2600474 425.931200
   5188   5185   5189     1   109.4300470 427.604800
   5188   5185   5198     1   109.5800467 425.931200
   5191   5196   5197     1   107.2600461 396.643200
   5194   5191   5196     1   110.2600474 425.931200
   5194   5191   5195     1   108.4600466 328.025600
   5195   5191   5196     1   110.2600474 425.931200
   5200   5181   5201     1   110.2600474 425.931200
   5204   5205   5224     1   109.5600471 388.275200
   5204   5215   5218     1   109.5600471 388.275200
   5204   5215   5219     1   109.5600471 388.275200
   5205   5204   5206     1   109.5600471 388.275200
   5205   5207   5211     1   109.5600471 388.275200
   5205   5225   5226     1   107.2600461 396.643200
   5206   5204   5215     1   109.5600471 388.275200
   5206   5204   5222     1   109.7800468 425.094400
   5207   5205   5224     1   109.5600471 388.275200
   5207   5208   5210     1   109.5600471 388.275200
   5207   5214   5216     1   107.2600461 396.643200
   5208   5207   5211     1   109.5600471 388.275200
   5208   5209   5212     1   110.2200475 386.601600
   5208   5227   5217     1   109.2900470 396.643200
   5209   5208   5210     1   109.5600471 388.275200
   5209   5213   5223     1   107.2600461 396.643200
   5210   5208   5227     1   109.8800469 414.216000
   5211   5207   5214     1   110.2600474 425.931200
   5212   5209   5213     1   109.4300470 427.604800
   5212   5209   5222     1   109.5800467 425.931200
   5215   5220   5221     1   107.2600461 396.643200
   5218   5215   5220     1   110.2600474 425.931200
   5218   5215   5219     1   108.4600466 328.025600
   5219   5215   5220     1   110.2600474 425.931200
   5224   5205   5225     1   110.2600474 425.931200
   5229   5231   5232     1   108.8800464 416.726400
   5229   5231   5234     1   108.8800464 416.726400
   5230   5229   5231     1   117.6800502 383.254400
   5231   5233   5235     1   109.5600471 388.275200
   5231   5233   5236     1   109.5600471 388.275200
   5232   5231   5233     1   109.5600471 388.275200
   5232   5231   5234     1   108.4600466 328.025600
   5233   5237   5302     1   110.1100470 384.091200
   5233   5231   5234     1   109.5600471 388.275200
   5235   5233   5237     1   107.9000462 406.684800
   5235   5233   5236     1   108.4600466 328.025600
   5236   5233   5237     1   107.9000462 406.684800
   5237   5238   5247     1   107.9000462 406.684800
   5237   5238   5248     1   107.9000462 406.684800
   5237   5239   5240     1   107.9000462 406.684800
   5237   5239   5242     1   107.9000462 406.684800
   5238   5249   5250     1   109.8000471 387.438400
   5238   5249   5251     1   109.8000471 387.438400
   5238   5237   5302     1   110.1100470 384.091200
   5239   5241   5243     1   109.8000471 387.438400
   5239   5241   5244     1   109.8000471 387.438400
   5239   5237   5302     1   110.1100470 384.091200
   5240   5239   5241     1   109.5600471 388.275200
   5240   5239   5242     1   108.4600466 328.025600
   5241   5239   5242     1   109.5600471 388.275200
   5243   5241   5245     1   108.7700466 392.459200
   5243   5241   5244     1   107.5800459 329.699200
   5244   5241   5245     1   108.7700466 392.459200
   5245   5277   5267     1   119.3800509 410.868800
   5247   5238   5249     1   109.5600471 388.275200
   5247   5238   5248     1   108.4600466 328.025600
   5248   5238   5249     1   109.5600471 388.275200
   5250   5249   5252     1   108.7700466 392.459200
   5250   5249   5251     1   107.5800459 329.699200
   5251   5249   5252     1   108.7700466 392.459200
   5252   5301   5291     1   119.3800509 410.868800
   5254   5255   5274     1   109.5600471 388.275200
   5254   5265   5268     1   109.5600471 388.275200
   5254   5265   5269     1   109.5600471 388.275200
   5255   5257   5261     1   109.5600471 388.275200
   5255   5275   5276     1   107.2600461 396.643200
   5255   5254   5256     1   109.5600471 388.275200
   5256   5254   5265     1   109.5600471 388.275200
   5256   5254   5272     1   109.7800468 425.094400
   5257   5258   5260     1   109.5600471 388.275200
   5257   5264   5266     1   107.2600461 396.643200
   5257   5255   5274     1   109.5600471 388.275200
   5258   5259   5262     1   110.2200475 386.601600
   5258   5277   5267     1   109.2900470 396.643200
   5258   5257   5261     1   109.5600471 388.275200
   5259   5263   5273     1   107.2600461 396.643200
   5259   5258   5260     1   109.5600471 388.275200
   5260   5258   5277     1   109.8800469 414.216000
   5261   5257   5264     1   110.2600474 425.931200
   5262   5259   5263     1   109.4300470 427.604800
   5262   5259   5272     1   109.5800467 425.931200
   5265   5270   5271     1   107.2600461 396.643200
   5268   5265   5270     1   110.2600474 425.931200
   5268   5265   5269     1   108.4600466 328.025600
   5269   5265   5270     1   110.2600474 425.931200
   5274   5255   5275     1   110.2600474 425.931200
   5278   5279   5298     1   109.5600471 388.275200
   5278   5289   5292     1   109.5600471 388.275200
   5278   5289   5293     1   109.5600471 388.275200
   5279   5281   5285     1   109.5600471 388.275200
   5279   5299   5300     1   107.2600461 396.643200
   5279   5278   5280     1   109.5600471 388.275200
   5280   5278   5289     1   109.5600471 388.275200
   5280   5278   5296     1   109.7800468 425.094400
   5281   5282   5284     1   109.5600471 388.275200
   5281   5288   5290     1   107.2600461 396.643200
   5281   5279   5298     1   109.5600471 388.275200
   5282   5283   5286     1   110.2200475 386.601600
   5282   5301   5291     1   109.2900470 396.643200
   5282   5281   5285     1   109.5600471 388.275200
   5283   5287   5297     1   107.2600461 396.643200
   5283   5282   5284     1   109.5600471 388.275200
   5284   5282   5301     1   109.8800469 414.216000
   5285   5281   5288     1   110.2600474 425.931200
   5286   5283   5287     1   109.4300470 427.604800
   5286   5283   5296     1   109.5800467 425.931200
   5289   5294   5295     1   107.2600461 396.643200
   5292   5289   5294     1   110.2600474 425.931200
   5292   5289   5293     1   108.4600466 328.025600
   5293   5289   5294     1   110.2600474 425.931200
   5298   5279   5299     1   110.2600474 425.931200
   5303   5305   5306     1   108.8800464 416.726400
   5303   5305   5308     1   108.8800464 416.726400
   5304   5303   5305     1   117.6800502 383.254400
   5305   5307   5309     1   109.5600471 388.275200
   5305   5307   5310     1   109.5600471 388.275200
   5306   5305   5307     1   109.5600471 388.275200
   5306   5305   5308     1   108.4600466 328.025600
   5307   5305   5308     1   109.5600471 388.275200
   5307   5311   5376     1   110.1100470 384.091200
   5309   5307   5311     1   107.9000462 406.684800
   5309   5307   5310     1   108.4600466 328.025600
   5310   5307   5311     1   107.9000462 406.684800
   5311   5312   5321     1   107.9000462 406.684800
   5311   5312   5322     1   107.9000462 406.684800
   5311   5313   5314     1   107.9000462 406.684800
   5311   5313   5316     1   107.9000462 406.684800
   5312   5311   5376     1   110.1100470 384.091200
   5312   5323   5324     1   109.8000471 387.438400
   5312   5323   5325     1   109.8000471 387.438400
   5313   5311   5376     1   110.1100470 384.091200
   5313   5315   5317     1   109.8000471 387.438400
   5313   5315   5318     1   109.8000471 387.438400
   5314   5313   5315     1   109.5600471 388.275200
   5314   5313   5316     1   108.4600466 328.025600
   5315   5313   5316     1   109.5600471 388.275200
   5317   5315   5319     1   108.7700466 392.459200
   5317   5315   5318     1   107.5800459 329.699200
   5318   5315   5319     1   108.7700466 392.459200
   5319   5351   5341     1   119.3800509 410.868800
   5321   5312   5323     1   109.5600471 388.275200
   5321   5312   5322     1   108.4600466 328.025600
   5322   5312   5323     1   109.5600471 388.275200
   5324   5323   5326     1   108.7700466 392.459200
   5324   5323   5325     1   107.5800459 329.699200
   5325   5323   5326     1   108.7700466 392.459200
   5326   5375   5365     1   119.3800509 410.868800
   5328   5329   5348     1   109.5600471 388.275200
   5328   5339   5342     1   109.5600471 388.275200
   5328   5339   5343     1   109.5600471 388.275200
   5329   5328   5330     1   109.5600471 388.275200
   5329   5331   5335     1   109.5600471 388.275200
   5329   5349   5350     1   107.2600461 396.643200
   5330   5328   5339     1   109.5600471 388.275200
   5330   5328   5346     1   109.7800468 425.094400
   5331   5329   5348     1   109.5600471 388.275200
   5331   5332   5334     1   109.5600471 388.275200
   5331   5338   5340     1   107.2600461 396.643200
   5332   5331   5335     1   109.5600471 388.275200
   5332   5333   5336     1   110.2200475 386.601600
   5332   5351   5341     1   109.2900470 396.643200
   5333   5332   5334     1   109.5600471 388.275200
   5333   5337   5347     1   107.2600461 396.643200
   5334   5332   5351     1   109.8800469 414.216000
   5335   5331   5338     1   110.2600474 425.931200
   5336   5333   5337     1   109.4300470 427.604800
   5336   5333   5346     1   109.5800467 425.931200
   5339   5344   5345     1   107.2600461 396.643200
   5342   5339   5344     1   110.2600474 425.931200
   5342   5339   5343     1   108.4600466 328.025600
   5343   5339   5344     1   110.2600474 425.931200
   5348   5329   5349     1   110.2600474 425.931200
   5352   5353   5372     1   109.5600471 388.275200
   5352   5363   5366     1   109.5600471 388.275200
   5352   5363   5367     1   109.5600471 388.275200
   5353   5352   5354     1   109.5600471 388.275200
   5353   5355   5359     1   109.5600471 388.275200
   5353   5373   5374     1   107.2600461 396.643200
   5354   5352   5363     1   109.5600471 388.275200
   5354   5352   5370     1   109.7800468 425.094400
   5355   5353   5372     1   109.5600471 388.275200
   5355   5356   5358     1   109.5600471 388.275200
   5355   5362   5364     1   107.2600461 396.643200
   5356   5355   5359     1   109.5600471 388.275200
   5356   5357   5360     1   110.2200475 386.601600
   5356   5375   5365     1   109.2900470 396.643200
   5357   5356   5358     1   109.5600471 388.275200
   5357   5361   5371     1   107.2600461 396.643200
   5358   5356   5375     1   109.8800469 414.216000
   5359   5355   5362     1   110.2600474 425.931200
   5360   5357   5361     1   109.4300470 427.604800
   5360   5357   5370     1   109.5800467 425.931200
   5363   5368   5369     1   107.2600461 396.643200
   5366   5363   5368     1   110.2600474 425.931200
   5366   5363   5367     1   108.4600466 328.025600
   5367   5363   5368     1   110.2600474 425.931200
   5372   5353   5373     1   110.2600474 425.931200
   5377   5379   5380     1   108.8800464 416.726400
   5377   5379   5382     1   108.8800464 416.726400
   5378   5377   5379     1   117.6800502 383.254400
   5379   5381   5383     1   109.5600471 388.275200
   5379   5381   5384     1   109.5600471 388.275200
   5380   5379   5381     1   109.5600471 388.275200
   5380   5379   5382     1   108.4600466 328.025600
   5381   5385   5450     1   110.1100470 384.091200
   5381   5379   5382     1   109.5600471 388.275200
   5383   5381   5385     1   107.9000462 406.684800
   5383   5381   5384     1   108.4600466 328.025600
   5384   5381   5385     1   107.9000462 406.684800
   5385   5386   5395     1   107.9000462 406.684800
   5385   5386   5396     1   107.9000462 406.684800
   5385   5387   5388     1   107.9000462 406.684800
   5385   5387   5390     1   107.9000462 406.684800
   5386   5397   5398     1   109.8000471 387.438400
   5386   5397   5399     1   109.8000471 387.438400
   5386   5385   5450     1   110.1100470 384.091200
   5387   5389   5391     1   109.8000471 387.438400
   5387   5389   5392     1   109.8000471 387.438400
   5387   5385   5450     1   110.1100470 384.091200
   5388   5387   5389     1   109.5600471 388.275200
   5388   5387   5390     1   108.4600466 328.025600
   5389   5387   5390     1   109.5600471 388.275200
   5391   5389   5393     1   108.7700466 392.459200
   5391   5389   5392     1   107.5800459 329.699200
   5392   5389   5393     1   108.7700466 392.459200
   5393   5425   5415     1   119.3800509 410.868800
   5395   5386   5397     1   109.5600471 388.275200
   5395   5386   5396     1   108.4600466 328.025600
   5396   5386   5397     1   109.5600471 388.275200
   5398   5397   5400     1   108.7700466 392.459200
   5398   5397   5399     1   107.5800459 329.699200
   5399   5397   5400     1   108.7700466 392.459200
   5400   5449   5439     1   119.3800509 410.868800
   5402   5403   5422     1   109.5600471 388.275200
   5402   5413   5416     1   109.5600471 388.275200
   5402   5413   5417     1   109.5600471 388.275200
   5403   5405   5409     1   109.5600471 388.275200
   5403   5423   5424     1   107.2600461 396.643200
   5403   5402   5404     1   109.5600471 388.275200
   5404   5402   5413     1   109.5600471 388.275200
   5404   5402   5420     1   109.7800468 425.094400
   5405   5406   5408     1   109.5600471 388.275200
   5405   5412   5414     1   107.2600461 396.643200
   5405   5403   5422     1   109.5600471 388.275200
   5406   5407   5410     1   110.2200475 386.601600
   5406   5425   5415     1   109.2900470 396.643200
   5406   5405   5409     1   109.5600471 388.275200
   5407   5411   5421     1   107.2600461 396.643200
   5407   5406   5408     1   109.5600471 388.275200
   5408   5406   5425     1   109.8800469 414.216000
   5409   5405   5412     1   110.2600474 425.931200
   5410   5407   5411     1   109.4300470 427.604800
   5410   5407   5420     1   109.5800467 425.931200
   5413   5418   5419     1   107.2600461 396.643200
   5416   5413   5418     1   110.2600474 425.931200
   5416   5413   5417     1   108.4600466 328.025600
   5417   5413   5418     1   110.2600474 425.931200
   5422   5403   5423     1   110.2600474 425.931200
   5426   5427   5446     1   109.5600471 388.275200
   5426   5437   5440     1   109.5600471 388.275200
   5426   5437   5441     1   109.5600471 388.275200
   5427   5429   5433     1   109.5600471 388.275200
   5427   5447   5448     1   107.2600461 396.643200
   5427   5426   5428     1   109.5600471 388.275200
   5428   5426   5437     1   109.5600471 388.275200
   5428   5426   5444     1   109.7800468 425.094400
   5429   5430   5432     1   109.5600471 388.275200
   5429   5436   5438     1   107.2600461 396.643200
   5429   5427   5446     1   109.5600471 388.275200
   5430   5431   5434     1   110.2200475 386.601600
   5430   5449   5439     1   109.2900470 396.643200
   5430   5429   5433     1   109.5600471 388.275200
   5431   5435   5445     1   107.2600461 396.643200
   5431   5430   5432     1   109.5600471 388.275200
   5432   5430   5449     1   109.8800469 414.216000
   5433   5429   5436     1   110.2600474 425.931200
   5434   5431   5435     1   109.4300470 427.604800
   5434   5431   5444     1   109.5800467 425.931200
   5437   5442   5443     1   107.2600461 396.643200
   5440   5437   5442     1   110.2600474 425.931200
   5440   5437   5441     1   108.4600466 328.025600
   5441   5437   5442     1   110.2600474 425.931200
   5446   5427   5447     1   110.2600474 425.931200
   5451   5453   5454     1   108.8800464 416.726400
   5451   5453   5456     1   108.8800464 416.726400
   5452   5451   5453     1   117.6800502 383.254400
   5453   5455   5457     1   109.5600471 388.275200
   5453   5455   5458     1   109.5600471 388.275200
   5454   5453   5455     1   109.5600471 388.275200
   5454   5453   5456     1   108.4600466 328.025600
   5455   5453   5456     1   109.5600471 388.275200
   5455   5459   5524     1   110.1100470 384.091200
   5457   5455   5459     1   107.9000462 406.684800
   5457   5455   5458     1   108.4600466 328.025600
   5458   5455   5459     1   107.9000462 406.684800
   5459   5460   5469     1   107.9000462 406.684800
   5459   5460   5470     1   107.9000462 406.684800
   5459   5461   5462     1   107.9000462 406.684800
   5459   5461   5464     1   107.9000462 406.684800
   5460   5459   5524     1   110.1100470 384.091200
   5460   5471   5472     1   109.8000471 387.438400
   5460   5471   5473     1   109.8000471 387.438400
   5461   5459   5524     1   110.1100470 384.091200
   5461   5463   5465     1   109.8000471 387.438400
   5461   5463   5466     1   109.8000471 387.438400
   5462   5461   5463     1   109.5600471 388.275200
   5462   5461   5464     1   108.4600466 328.025600
   5463   5461   5464     1   109.5600471 388.275200
   5465   5463   5467     1   108.7700466 392.459200
   5465   5463   5466     1   107.5800459 329.699200
   5466   5463   5467     1   108.7700466 392.459200
   5467   5499   5489     1   119.3800509 410.868800
   5469   5460   5471     1   109.5600471 388.275200
   5469   5460   5470     1   108.4600466 328.025600
   5470   5460   5471     1   109.5600471 388.275200
   5472   5471   5474     1   108.7700466 392.459200
   5472   5471   5473     1   107.5800459 329.699200
   5473   5471   5474     1   108.7700466 392.459200
   5474   5523   5513     1   119.3800509 410.868800
   5476   5477   5496     1   109.5600471 388.275200
   5476   5487   5490     1   109.5600471 388.275200
   5476   5487   5491     1   109.5600471 388.275200
   5477   5476   5478     1   109.5600471 388.275200
   5477   5479   5483     1   109.5600471 388.275200
   5477   5497   5498     1   107.2600461 396.643200
   5478   5476   5487     1   109.5600471 388.275200
   5478   5476   5494     1   109.7800468 425.094400
   5479   5477   5496     1   109.5600471 388.275200
   5479   5480   5482     1   109.5600471 388.275200
   5479   5486   5488     1   107.2600461 396.643200
   5480   5479   5483     1   109.5600471 388.275200
   5480   5481   5484     1   110.2200475 386.601600
   5480   5499   5489     1   109.2900470 396.643200
   5481   5480   5482     1   109.5600471 388.275200
   5481   5485   5495     1   107.2600461 396.643200
   5482   5480   5499     1   109.8800469 414.216000
   5483   5479   5486     1   110.2600474 425.931200
   5484   5481   5485     1   109.4300470 427.604800
   5484   5481   5494     1   109.5800467 425.931200
   5487   5492   5493     1   107.2600461 396.643200
   5490   5487   5492     1   110.2600474 425.931200
   5490   5487   5491     1   108.4600466 328.025600
   5491   5487   5492     1   110.2600474 425.931200
   5496   5477   5497     1   110.2600474 425.931200
   5500   5501   5520     1   109.5600471 388.275200
   5500   5511   5514     1   109.5600471 388.275200
   5500   5511   5515     1   109.5600471 388.275200
   5501   5500   5502     1   109.5600471 388.275200
   5501   5503   5507     1   109.5600471 388.275200
   5501   5521   5522     1   107.2600461 396.643200
   5502   5500   5511     1   109.5600471 388.275200
   5502   5500   5518     1   109.7800468 425.094400
   5503   5501   5520     1   109.5600471 388.275200
   5503   5504   5506     1   109.5600471 388.275200
   5503   5510   5512     1   107.2600461 396.643200
   5504   5503   5507     1   109.5600471 388.275200
   5504   5505   5508     1   110.2200475 386.601600
   5504   5523   5513     1   109.2900470 396.643200
   5505   5504   5506     1   109.5600471 388.275200
   5505   5509   5519     1   107.2600461 396.643200
   5506   5504   5523     1   109.8800469 414.216000
   5507   5503   5510     1   110.2600474 425.931200
   5508   5505   5509     1   109.4300470 427.604800
   5508   5505   5518     1   109.5800467 425.931200
   5511   5516   5517     1   107.2600461 396.643200
   5514   5511   5516     1   110.2600474 425.931200
   5514   5511   5515     1   108.4600466 328.025600
   5515   5511   5516     1   110.2600474 425.931200
   5520   5501   5521     1   110.2600474 425.931200
   5525   5527   5528     1   108.8800464 416.726400
   5525   5527   5530     1   108.8800464 416.726400
   5526   5525   5527     1   117.6800502 383.254400
   5527   5529   5531     1   109.5600471 388.275200
   5527   5529   5532     1   109.5600471 388.275200
   5528   5527   5529     1   109.5600471 388.275200
   5528   5527   5530     1   108.4600466 328.025600
   5529   5533   5598     1   110.1100470 384.091200
   5529   5527   5530     1   109.5600471 388.275200
   5531   5529   5533     1   107.9000462 406.684800
   5531   5529   5532     1   108.4600466 328.025600
   5532   5529   5533     1   107.9000462 406.684800
   5533   5534   5543     1   107.9000462 406.684800
   5533   5534   5544     1   107.9000462 406.684800
   5533   5535   5536     1   107.9000462 406.684800
   5533   5535   5538     1   107.9000462 406.684800
   5534   5545   5546     1   109.8000471 387.438400
   5534   5545   5547     1   109.8000471 387.438400
   5534   5533   5598     1   110.1100470 384.091200
   5535   5537   5539     1   109.8000471 387.438400
   5535   5537   5540     1   109.8000471 387.438400
   5535   5533   5598     1   110.1100470 384.091200
   5536   5535   5537     1   109.5600471 388.275200
   5536   5535   5538     1   108.4600466 328.025600
   5537   5535   5538     1   109.5600471 388.275200
   5539   5537   5541     1   108.7700466 392.459200
   5539   5537   5540     1   107.5800459 329.699200
   5540   5537   5541     1   108.7700466 392.459200
   5541   5573   5563     1   119.3800509 410.868800
   5543   5534   5545     1   109.5600471 388.275200
   5543   5534   5544     1   108.4600466 328.025600
   5544   5534   5545     1   109.5600471 388.275200
   5546   5545   5548     1   108.7700466 392.459200
   5546   5545   5547     1   107.5800459 329.699200
   5547   5545   5548     1   108.7700466 392.459200
   5548   5597   5587     1   119.3800509 410.868800
   5550   5551   5570     1   109.5600471 388.275200
   5550   5561   5564     1   109.5600471 388.275200
   5550   5561   5565     1   109.5600471 388.275200
   5551   5553   5557     1   109.5600471 388.275200
   5551   5571   5572     1   107.2600461 396.643200
   5551   5550   5552     1   109.5600471 388.275200
   5552   5550   5561     1   109.5600471 388.275200
   5552   5550   5568     1   109.7800468 425.094400
   5553   5554   5556     1   109.5600471 388.275200
   5553   5560   5562     1   107.2600461 396.643200
   5553   5551   5570     1   109.5600471 388.275200
   5554   5555   5558     1   110.2200475 386.601600
   5554   5573   5563     1   109.2900470 396.643200
   5554   5553   5557     1   109.5600471 388.275200
   5555   5559   5569     1   107.2600461 396.643200
   5555   5554   5556     1   109.5600471 388.275200
   5556   5554   5573     1   109.8800469 414.216000
   5557   5553   5560     1   110.2600474 425.931200
   5558   5555   5559     1   109.4300470 427.604800
   5558   5555   5568     1   109.5800467 425.931200
   5561   5566   5567     1   107.2600461 396.643200
   5564   5561   5566     1   110.2600474 425.931200
   5564   5561   5565     1   108.4600466 328.025600
   5565   5561   5566     1   110.2600474 425.931200
   5570   5551   5571     1   110.2600474 425.931200
   5574   5575   5594     1   109.5600471 388.275200
   5574   5585   5588     1   109.5600471 388.275200
   5574   5585   5589     1   109.5600471 388.275200
   5575   5577   5581     1   109.5600471 388.275200
   5575   5595   5596     1   107.2600461 396.643200
   5575   5574   5576     1   109.5600471 388.275200
   5576   5574   5585     1   109.5600471 388.275200
   5576   5574   5592     1   109.7800468 425.094400
   5577   5578   5580     1   109.5600471 388.275200
   5577   5584   5586     1   107.2600461 396.643200
   5577   5575   5594     1   109.5600471 388.275200
   5578   5579   5582     1   110.2200475 386.601600
   5578   5597   5587     1   109.2900470 396.643200
   5578   5577   5581     1   109.5600471 388.275200
   5579   5583   5593     1   107.2600461 396.643200
   5579   5578   5580     1   109.5600471 388.275200
   5580   5578   5597     1   109.8800469 414.216000
   5581   5577   5584     1   110.2600474 425.931200
   5582   5579   5583     1   109.4300470 427.604800
   5582   5579   5592     1   109.5800467 425.931200
   5585   5590   5591     1   107.2600461 396.643200
   5588   5585   5590     1   110.2600474 425.931200
   5588   5585   5589     1   108.4600466 328.025600
   5589   5585   5590     1   110.2600474 425.931200
   5594   5575   5595     1   110.2600474 425.931200
   5599   5601   5602     1   108.8800464 416.726400
   5599   5601   5604     1   108.8800464 416.726400
   5600   5599   5601     1   117.6800502 383.254400
   5601   5603   5605     1   109.5600471 388.275200
   5601   5603   5606     1   109.5600471 388.275200
   5602   5601   5603     1   109.5600471 388.275200
   5602   5601   5604     1   108.4600466 328.025600
   5603   5601   5604     1   109.5600471 388.275200
   5603   5607   5672     1   110.1100470 384.091200
   5605   5603   5607     1   107.9000462 406.684800
   5605   5603   5606     1   108.4600466 328.025600
   5606   5603   5607     1   107.9000462 406.684800
   5607   5608   5617     1   107.9000462 406.684800
   5607   5608   5618     1   107.9000462 406.684800
   5607   5609   5610     1   107.9000462 406.684800
   5607   5609   5612     1   107.9000462 406.684800
   5608   5607   5672     1   110.1100470 384.091200
   5608   5619   5620     1   109.8000471 387.438400
   5608   5619   5621     1   109.8000471 387.438400
   5609   5607   5672     1   110.1100470 384.091200
   5609   5611   5613     1   109.8000471 387.438400
   5609   5611   5614     1   109.8000471 387.438400
   5610   5609   5611     1   109.5600471 388.275200
   5610   5609   5612     1   108.4600466 328.025600
   5611   5609   5612     1   109.5600471 388.275200
   5613   5611   5615     1   108.7700466 392.459200
   5613   5611   5614     1   107.5800459 329.699200
   5614   5611   5615     1   108.7700466 392.459200
   5615   5647   5637     1   119.3800509 410.868800
   5617   5608   5619     1   109.5600471 388.275200
   5617   5608   5618     1   108.4600466 328.025600
   5618   5608   5619     1   109.5600471 388.275200
   5620   5619   5622     1   108.7700466 392.459200
   5620   5619   5621     1   107.5800459 329.699200
   5621   5619   5622     1   108.7700466 392.459200
   5622   5671   5661     1   119.3800509 410.868800
   5624   5625   5644     1   109.5600471 388.275200
   5624   5635   5638     1   109.5600471 388.275200
   5624   5635   5639     1   109.5600471 388.275200
   5625   5624   5626     1   109.5600471 388.275200
   5625   5627   5631     1   109.5600471 388.275200
   5625   5645   5646     1   107.2600461 396.643200
   5626   5624   5635     1   109.5600471 388.275200
   5626   5624   5642     1   109.7800468 425.094400
   5627   5625   5644     1   109.5600471 388.275200
   5627   5628   5630     1   109.5600471 388.275200
   5627   5634   5636     1   107.2600461 396.643200
   5628   5627   5631     1   109.5600471 388.275200
   5628   5629   5632     1   110.2200475 386.601600
   5628   5647   5637     1   109.2900470 396.643200
   5629   5628   5630     1   109.5600471 388.275200
   5629   5633   5643     1   107.2600461 396.643200
   5630   5628   5647     1   109.8800469 414.216000
   5631   5627   5634     1   110.2600474 425.931200
   5632   5629   5633     1   109.4300470 427.604800
   5632   5629   5642     1   109.5800467 425.931200
   5635   5640   5641     1   107.2600461 396.643200
   5638   5635   5640     1   110.2600474 425.931200
   5638   5635   5639     1   108.4600466 328.025600
   5639   5635   5640     1   110.2600474 425.931200
   5644   5625   5645     1   110.2600474 425.931200
   5648   5649   5668     1   109.5600471 388.275200
   5648   5659   5662     1   109.5600471 388.275200
   5648   5659   5663     1   109.5600471 388.275200
   5649   5648   5650     1   109.5600471 388.275200
   5649   5651   5655     1   109.5600471 388.275200
   5649   5669   5670     1   107.2600461 396.643200
   5650   5648   5659     1   109.5600471 388.275200
   5650   5648   5666     1   109.7800468 425.094400
   5651   5649   5668     1   109.5600471 388.275200
   5651   5652   5654     1   109.5600471 388.275200
   5651   5658   5660     1   107.2600461 396.643200
   5652   5651   5655     1   109.5600471 388.275200
   5652   5653   5656     1   110.2200475 386.601600
   5652   5671   5661     1   109.2900470 396.643200
   5653   5652   5654     1   109.5600471 388.275200
   5653   5657   5667     1   107.2600461 396.643200
   5654   5652   5671     1   109.8800469 414.216000
   5655   5651   5658     1   110.2600474 425.931200
   5656   5653   5657     1   109.4300470 427.604800
   5656   5653   5666     1   109.5800467 425.931200
   5659   5664   5665     1   107.2600461 396.643200
   5662   5659   5664     1   110.2600474 425.931200
   5662   5659   5663     1   108.4600466 328.025600
   5663   5659   5664     1   110.2600474 425.931200
   5668   5649   5669     1   110.2600474 425.931200
   5673   5675   5676     1   108.8800464 416.726400
   5673   5675   5678     1   108.8800464 416.726400
   5674   5673   5675     1   117.6800502 383.254400
   5675   5677   5679     1   109.5600471 388.275200
   5675   5677   5680     1   109.5600471 388.275200
   5676   5675   5677     1   109.5600471 388.275200
   5676   5675   5678     1   108.4600466 328.025600
   5677   5681   5746     1   110.1100470 384.091200
   5677   5675   5678     1   109.5600471 388.275200
   5679   5677   5681     1   107.9000462 406.684800
   5679   5677   5680     1   108.4600466 328.025600
   5680   5677   5681     1   107.9000462 406.684800
   5681   5682   5691     1   107.9000462 406.684800
   5681   5682   5692     1   107.9000462 406.684800
   5681   5683   5684     1   107.9000462 406.684800
   5681   5683   5686     1   107.9000462 406.684800
   5682   5693   5694     1   109.8000471 387.438400
   5682   5693   5695     1   109.8000471 387.438400
   5682   5681   5746     1   110.1100470 384.091200
   5683   5685   5687     1   109.8000471 387.438400
   5683   5685   5688     1   109.8000471 387.438400
   5683   5681   5746     1   110.1100470 384.091200
   5684   5683   5685     1   109.5600471 388.275200
   5684   5683   5686     1   108.4600466 328.025600
   5685   5683   5686     1   109.5600471 388.275200
   5687   5685   5689     1   108.7700466 392.459200
   5687   5685   5688     1   107.5800459 329.699200
   5688   5685   5689     1   108.7700466 392.459200
   5689   5721   5711     1   119.3800509 410.868800
   5691   5682   5693     1   109.5600471 388.275200
   5691   5682   5692     1   108.4600466 328.025600
   5692   5682   5693     1   109.5600471 388.275200
   5694   5693   5696     1   108.7700466 392.459200
   5694   5693   5695     1   107.5800459 329.699200
   5695   5693   5696     1   108.7700466 392.459200
   5696   5745   5735     1   119.3800509 410.868800
   5698   5699   5718     1   109.5600471 388.275200
   5698   5709   5712     1   109.5600471 388.275200
   5698   5709   5713     1   109.5600471 388.275200
   5699   5701   5705     1   109.5600471 388.275200
   5699   5719   5720     1   107.2600461 396.643200
   5699   5698   5700     1   109.5600471 388.275200
   5700   5698   5709     1   109.5600471 388.275200
   5700   5698   5716     1   109.7800468 425.094400
   5701   5702   5704     1   109.5600471 388.275200
   5701   5708   5710     1   107.2600461 396.643200
   5701   5699   5718     1   109.5600471 388.275200
   5702   5703   5706     1   110.2200475 386.601600
   5702   5721   5711     1   109.2900470 396.643200
   5702   5701   5705     1   109.5600471 388.275200
   5703   5707   5717     1   107.2600461 396.643200
   5703   5702   5704     1   109.5600471 388.275200
   5704   5702   5721     1   109.8800469 414.216000
   5705   5701   5708     1   110.2600474 425.931200
   5706   5703   5707     1   109.4300470 427.604800
   5706   5703   5716     1   109.5800467 425.931200
   5709   5714   5715     1   107.2600461 396.643200
   5712   5709   5714     1   110.2600474 425.931200
   5712   5709   5713     1   108.4600466 328.025600
   5713   5709   5714     1   110.2600474 425.931200
   5718   5699   5719     1   110.2600474 425.931200
   5722   5723   5742     1   109.5600471 388.275200
   5722   5733   5736     1   109.5600471 388.275200
   5722   5733   5737     1   109.5600471 388.275200
   5723   5725   5729     1   109.5600471 388.275200
   5723   5743   5744     1   107.2600461 396.643200
   5723   5722   5724     1   109.5600471 388.275200
   5724   5722   5733     1   109.5600471 388.275200
   5724   5722   5740     1   109.7800468 425.094400
   5725   5726   5728     1   109.5600471 388.275200
   5725   5732   5734     1   107.2600461 396.643200
   5725   5723   5742     1   109.5600471 388.275200
   5726   5727   5730     1   110.2200475 386.601600
   5726   5745   5735     1   109.2900470 396.643200
   5726   5725   5729     1   109.5600471 388.275200
   5727   5731   5741     1   107.2600461 396.643200
   5727   5726   5728     1   109.5600471 388.275200
   5728   5726   5745     1   109.8800469 414.216000
   5729   5725   5732     1   110.2600474 425.931200
   5730   5727   5731     1   109.4300470 427.604800
   5730   5727   5740     1   109.5800467 425.931200
   5733   5738   5739     1   107.2600461 396.643200
   5736   5733   5738     1   110.2600474 425.931200
   5736   5733   5737     1   108.4600466 328.025600
   5737   5733   5738     1   110.2600474 425.931200
   5742   5723   5743     1   110.2600474 425.931200
   5747   5749   5750     1   108.8800464 416.726400
   5747   5749   5752     1   108.8800464 416.726400
   5748   5747   5749     1   117.6800502 383.254400
   5749   5751   5753     1   109.5600471 388.275200
   5749   5751   5754     1   109.5600471 388.275200
   5750   5749   5751     1   109.5600471 388.275200
   5750   5749   5752     1   108.4600466 328.025600
   5751   5749   5752     1   109.5600471 388.275200
   5751   5755   5820     1   110.1100470 384.091200
   5753   5751   5755     1   107.9000462 406.684800
   5753   5751   5754     1   108.4600466 328.025600
   5754   5751   5755     1   107.9000462 406.684800
   5755   5756   5765     1   107.9000462 406.684800
   5755   5756   5766     1   107.9000462 406.684800
   5755   5757   5758     1   107.9000462 406.684800
   5755   5757   5760     1   107.9000462 406.684800
   5756   5755   5820     1   110.1100470 384.091200
   5756   5767   5768     1   109.8000471 387.438400
   5756   5767   5769     1   109.8000471 387.438400
   5757   5755   5820     1   110.1100470 384.091200
   5757   5759   5761     1   109.8000471 387.438400
   5757   5759   5762     1   109.8000471 387.438400
   5758   5757   5759     1   109.5600471 388.275200
   5758   5757   5760     1   108.4600466 328.025600
   5759   5757   5760     1   109.5600471 388.275200
   5761   5759   5763     1   108.7700466 392.459200
   5761   5759   5762     1   107.5800459 329.699200
   5762   5759   5763     1   108.7700466 392.459200
   5763   5795   5785     1   119.3800509 410.868800
   5765   5756   5767     1   109.5600471 388.275200
   5765   5756   5766     1   108.4600466 328.025600
   5766   5756   5767     1   109.5600471 388.275200
   5768   5767   5770     1   108.7700466 392.459200
   5768   5767   5769     1   107.5800459 329.699200
   5769   5767   5770     1   108.7700466 392.459200
   5770   5819   5809     1   119.3800509 410.868800
   5772   5773   5792     1   109.5600471 388.275200
   5772   5783   5786     1   109.5600471 388.275200
   5772   5783   5787     1   109.5600471 388.275200
   5773   5772   5774     1   109.5600471 388.275200
   5773   5775   5779     1   109.5600471 388.275200
   5773   5793   5794     1   107.2600461 396.643200
   5774   5772   5783     1   109.5600471 388.275200
   5774   5772   5790     1   109.7800468 425.094400
   5775   5773   5792     1   109.5600471 388.275200
   5775   5776   5778     1   109.5600471 388.275200
   5775   5782   5784     1   107.2600461 396.643200
   5776   5775   5779     1   109.5600471 388.275200
   5776   5777   5780     1   110.2200475 386.601600
   5776   5795   5785     1   109.2900470 396.643200
   5777   5776   5778     1   109.5600471 388.275200
   5777   5781   5791     1   107.2600461 396.643200
   5778   5776   5795     1   109.8800469 414.216000
   5779   5775   5782     1   110.2600474 425.931200
   5780   5777   5781     1   109.4300470 427.604800
   5780   5777   5790     1   109.5800467 425.931200
   5783   5788   5789     1   107.2600461 396.643200
   5786   5783   5788     1   110.2600474 425.931200
   5786   5783   5787     1   108.4600466 328.025600
   5787   5783   5788     1   110.2600474 425.931200
   5792   5773   5793     1   110.2600474 425.931200
   5796   5797   5816     1   109.5600471 388.275200
   5796   5807   5810     1   109.5600471 388.275200
   5796   5807   5811     1   109.5600471 388.275200
   5797   5796   5798     1   109.5600471 388.275200
   5797   5799   5803     1   109.5600471 388.275200
   5797   5817   5818     1   107.2600461 396.643200
   5798   5796   5807     1   109.5600471 388.275200
   5798   5796   5814     1   109.7800468 425.094400
   5799   5797   5816     1   109.5600471 388.275200
   5799   5800   5802     1   109.5600471 388.275200
   5799   5806   5808     1   107.2600461 396.643200
   5800   5799   5803     1   109.5600471 388.275200
   5800   5801   5804     1   110.2200475 386.601600
   5800   5819   5809     1   109.2900470 396.643200
   5801   5800   5802     1   109.5600471 388.275200
   5801   5805   5815     1   107.2600461 396.643200
   5802   5800   5819     1   109.8800469 414.216000
   5803   5799   5806     1   110.2600474 425.931200
   5804   5801   5805     1   109.4300470 427.604800
   5804   5801   5814     1   109.5800467 425.931200
   5807   5812   5813     1   107.2600461 396.643200
   5810   5807   5812     1   110.2600474 425.931200
   5810   5807   5811     1   108.4600466 328.025600
   5811   5807   5812     1   110.2600474 425.931200
   5816   5797   5817     1   110.2600474 425.931200
   5821   5823   5824     1   108.8800464 416.726400
   5821   5823   5826     1   108.8800464 416.726400
   5822   5821   5823     1   117.6800502 383.254400
   5823   5825   5827     1   109.5600471 388.275200
   5823   5825   5828     1   109.5600471 388.275200
   5824   5823   5825     1   109.5600471 388.275200
   5824   5823   5826     1   108.4600466 328.025600
   5825   5829   5894     1   110.1100470 384.091200
   5825   5823   5826     1   109.5600471 388.275200
   5827   5825   5829     1   107.9000462 406.684800
   5827   5825   5828     1   108.4600466 328.025600
   5828   5825   5829     1   107.9000462 406.684800
   5829   5830   5839     1   107.9000462 406.684800
   5829   5830   5840     1   107.9000462 406.684800
   5829   5831   5832     1   107.9000462 406.684800
   5829   5831   5834     1   107.9000462 406.684800
   5830   5841   5842     1   109.8000471 387.438400
   5830   5841   5843     1   109.8000471 387.438400
   5830   5829   5894     1   110.1100470 384.091200
   5831   5833   5835     1   109.8000471 387.438400
   5831   5833   5836     1   109.8000471 387.438400
   5831   5829   5894     1   110.1100470 384.091200
   5832   5831   5833     1   109.5600471 388.275200
   5832   5831   5834     1   108.4600466 328.025600
   5833   5831   5834     1   109.5600471 388.275200
   5835   5833   5837     1   108.7700466 392.459200
   5835   5833   5836     1   107.5800459 329.699200
   5836   5833   5837     1   108.7700466 392.459200
   5837   5869   5859     1   119.3800509 410.868800
   5839   5830   5841     1   109.5600471 388.275200
   5839   5830   5840     1   108.4600466 328.025600
   5840   5830   5841     1   109.5600471 388.275200
   5842   5841   5844     1   108.7700466 392.459200
   5842   5841   5843     1   107.5800459 329.699200
   5843   5841   5844     1   108.7700466 392.459200
   5844   5893   5883     1   119.3800509 410.868800
   5846   5847   5866     1   109.5600471 388.275200
   5846   5857   5860     1   109.5600471 388.275200
   5846   5857   5861     1   109.5600471 388.275200
   5847   5849   5853     1   109.5600471 388.275200
   5847   5867   5868     1   107.2600461 396.643200
   5847   5846   5848     1   109.5600471 388.275200
   5848   5846   5857     1   109.5600471 388.275200
   5848   5846   5864     1   109.7800468 425.094400
   5849   5850   5852     1   109.5600471 388.275200
   5849   5856   5858     1   107.2600461 396.643200
   5849   5847   5866     1   109.5600471 388.275200
   5850   5851   5854     1   110.2200475 386.601600
   5850   5869   5859     1   109.2900470 396.643200
   5850   5849   5853     1   109.5600471 388.275200
   5851   5855   5865     1   107.2600461 396.643200
   5851   5850   5852     1   109.5600471 388.275200
   5852   5850   5869     1   109.8800469 414.216000
   5853   5849   5856     1   110.2600474 425.931200
   5854   5851   5855     1   109.4300470 427.604800
   5854   5851   5864     1   109.5800467 425.931200
   5857   5862   5863     1   107.2600461 396.643200
   5860   5857   5862     1   110.2600474 425.931200
   5860   5857   5861     1   108.4600466 328.025600
   5861   5857   5862     1   110.2600474 425.931200
   5866   5847   5867     1   110.2600474 425.931200
   5870   5871   5890     1   109.5600471 388.275200
   5870   5881   5884     1   109.5600471 388.275200
   5870   5881   5885     1   109.5600471 388.275200
   5871   5873   5877     1   109.5600471 388.275200
   5871   5891   5892     1   107.2600461 396.643200
   5871   5870   5872     1   109.5600471 388.275200
   5872   5870   5881     1   109.5600471 388.275200
   5872   5870   5888     1   109.7800468 425.094400
   5873   5874   5876     1   109.5600471 388.275200
   5873   5880   5882     1   107.2600461 396.643200
   5873   5871   5890     1   109.5600471 388.275200
   5874   5875   5878     1   110.2200475 386.601600
   5874   5893   5883     1   109.2900470 396.643200
   5874   5873   5877     1   109.5600471 388.275200
   5875   5879   5889     1   107.2600461 396.643200
   5875   5874   5876     1   109.5600471 388.275200
   5876   5874   5893     1   109.8800469 414.216000
   5877   5873   5880     1   110.2600474 425.931200
   5878   5875   5879     1   109.4300470 427.604800
   5878   5875   5888     1   109.5800467 425.931200
   5881   5886   5887     1   107.2600461 396.643200
   5884   5881   5886     1   110.2600474 425.931200
   5884   5881   5885     1   108.4600466 328.025600
   5885   5881   5886     1   110.2600474 425.931200
   5890   5871   5891     1   110.2600474 425.931200
   5895   5897   5898     1   108.8800464 416.726400
   5895   5897   5900     1   108.8800464 416.726400
   5896   5895   5897     1   117.6800502 383.254400
   5897   5899   5901     1   109.5600471 388.275200
   5897   5899   5902     1   109.5600471 388.275200
   5898   5897   5899     1   109.5600471 388.275200
   5898   5897   5900     1   108.4600466 328.025600
   5899   5897   5900     1   109.5600471 388.275200
   5899   5903   5968     1   110.1100470 384.091200
   5901   5899   5903     1   107.9000462 406.684800
   5901   5899   5902     1   108.4600466 328.025600
   5902   5899   5903     1   107.9000462 406.684800
   5903   5904   5913     1   107.9000462 406.684800
   5903   5904   5914     1   107.9000462 406.684800
   5903   5905   5906     1   107.9000462 406.684800
   5903   5905   5908     1   107.9000462 406.684800
   5904   5903   5968     1   110.1100470 384.091200
   5904   5915   5916     1   109.8000471 387.438400
   5904   5915   5917     1   109.8000471 387.438400
   5905   5903   5968     1   110.1100470 384.091200
   5905   5907   5909     1   109.8000471 387.438400
   5905   5907   5910     1   109.8000471 387.438400
   5906   5905   5907     1   109.5600471 388.275200
   5906   5905   5908     1   108.4600466 328.025600
   5907   5905   5908     1   109.5600471 388.275200
   5909   5907   5911     1   108.7700466 392.459200
   5909   5907   5910     1   107.5800459 329.699200
   5910   5907   5911     1   108.7700466 392.459200
   5911   5943   5933     1   119.3800509 410.868800
   5913   5904   5915     1   109.5600471 388.275200
   5913   5904   5914     1   108.4600466 328.025600
   5914   5904   5915     1   109.5600471 388.275200
   5916   5915   5918     1   108.7700466 392.459200
   5916   5915   5917     1   107.5800459 329.699200
   5917   5915   5918     1   108.7700466 392.459200
   5918   5967   5957     1   119.3800509 410.868800
   5920   5921   5940     1   109.5600471 388.275200
   5920   5931   5934     1   109.5600471 388.275200
   5920   5931   5935     1   109.5600471 388.275200
   5921   5920   5922     1   109.5600471 388.275200
   5921   5923   5927     1   109.5600471 388.275200
   5921   5941   5942     1   107.2600461 396.643200
   5922   5920   5931     1   109.5600471 388.275200
   5922   5920   5938     1   109.7800468 425.094400
   5923   5921   5940     1   109.5600471 388.275200
   5923   5924   5926     1   109.5600471 388.275200
   5923   5930   5932     1   107.2600461 396.643200
   5924   5923   5927     1   109.5600471 388.275200
   5924   5925   5928     1   110.2200475 386.601600
   5924   5943   5933     1   109.2900470 396.643200
   5925   5924   5926     1   109.5600471 388.275200
   5925   5929   5939     1   107.2600461 396.643200
   5926   5924   5943     1   109.8800469 414.216000
   5927   5923   5930     1   110.2600474 425.931200
   5928   5925   5929     1   109.4300470 427.604800
   5928   5925   5938     1   109.5800467 425.931200
   5931   5936   5937     1   107.2600461 396.643200
   5934   5931   5936     1   110.2600474 425.931200
   5934   5931   5935     1   108.4600466 328.025600
   5935   5931   5936     1   110.2600474 425.931200
   5940   5921   5941     1   110.2600474 425.931200
   5944   5945   5964     1   109.5600471 388.275200
   5944   5955   5958     1   109.5600471 388.275200
   5944   5955   5959     1   109.5600471 388.275200
   5945   5944   5946     1   109.5600471 388.275200
   5945   5947   5951     1   109.5600471 388.275200
   5945   5965   5966     1   107.2600461 396.643200
   5946   5944   5955     1   109.5600471 388.275200
   5946   5944   5962     1   109.7800468 425.094400
   5947   5945   5964     1   109.5600471 388.275200
   5947   5948   5950     1   109.5600471 388.275200
   5947   5954   5956     1   107.2600461 396.643200
   5948   5947   5951     1   109.5600471 388.275200
   5948   5949   5952     1   110.2200475 386.601600
   5948   5967   5957     1   109.2900470 396.643200
   5949   5948   5950     1   109.5600471 388.275200
   5949   5953   5963     1   107.2600461 396.643200
   5950   5948   5967     1   109.8800469 414.216000
   5951   5947   5954     1   110.2600474 425.931200
   5952   5949   5953     1   109.4300470 427.604800
   5952   5949   5962     1   109.5800467 425.931200
   5955   5960   5961     1   107.2600461 396.643200
   5958   5955   5960     1   110.2600474 425.931200
   5958   5955   5959     1   108.4600466 328.025600
   5959   5955   5960     1   110.2600474 425.931200
   5964   5945   5965     1   110.2600474 425.931200
   5969   5971   5972     1   108.8800464 416.726400
   5969   5971   5974     1   108.8800464 416.726400
   5970   5969   5971     1   117.6800502 383.254400
   5971   5973   5975     1   109.5600471 388.275200
   5971   5973   5976     1   109.5600471 388.275200
   5972   5971   5973     1   109.5600471 388.275200
   5972   5971   5974     1   108.4600466 328.025600
   5973   5977   6042     1   110.1100470 384.091200
   5973   5971   5974     1   109.5600471 388.275200
   5975   5973   5977     1   107.9000462 406.684800
   5975   5973   5976     1   108.4600466 328.025600
   5976   5973   5977     1   107.9000462 406.684800
   5977   5978   5987     1   107.9000462 406.684800
   5977   5978   5988     1   107.9000462 406.684800
   5977   5979   5980     1   107.9000462 406.684800
   5977   5979   5982     1   107.9000462 406.684800
   5978   5989   5990     1   109.8000471 387.438400
   5978   5989   5991     1   109.8000471 387.438400
   5978   5977   6042     1   110.1100470 384.091200
   5979   5981   5983     1   109.8000471 387.438400
   5979   5981   5984     1   109.8000471 387.438400
   5979   5977   6042     1   110.1100470 384.091200
   5980   5979   5981     1   109.5600471 388.275200
   5980   5979   5982     1   108.4600466 328.025600
   5981   5979   5982     1   109.5600471 388.275200
   5983   5981   5985     1   108.7700466 392.459200
   5983   5981   5984     1   107.5800459 329.699200
   5984   5981   5985     1   108.7700466 392.459200
   5985   6017   6007     1   119.3800509 410.868800
   5987   5978   5989     1   109.5600471 388.275200
   5987   5978   5988     1   108.4600466 328.025600
   5988   5978   5989     1   109.5600471 388.275200
   5990   5989   5992     1   108.7700466 392.459200
   5990   5989   5991     1   107.5800459 329.699200
   5991   5989   5992     1   108.7700466 392.459200
   5992   6041   6031     1   119.3800509 410.868800
   5994   5995   6014     1   109.5600471 388.275200
   5994   6005   6008     1   109.5600471 388.275200
   5994   6005   6009     1   109.5600471 388.275200
   5995   5997   6001     1   109.5600471 388.275200
   5995   6015   6016     1   107.2600461 396.643200
   5995   5994   5996     1   109.5600471 388.275200
   5996   5994   6005     1   109.5600471 388.275200
   5996   5994   6012     1   109.7800468 425.094400
   5997   5998   6000     1   109.5600471 388.275200
   5997   6004   6006     1   107.2600461 396.643200
   5997   5995   6014     1   109.5600471 388.275200
   5998   5999   6002     1   110.2200475 386.601600
   5998   6017   6007     1   109.2900470 396.643200
   5998   5997   6001     1   109.5600471 388.275200
   5999   6003   6013     1   107.2600461 396.643200
   5999   5998   6000     1   109.5600471 388.275200
   6000   5998   6017     1   109.8800469 414.216000
   6001   5997   6004     1   110.2600474 425.931200
   6002   5999   6003     1   109.4300470 427.604800
   6002   5999   6012     1   109.5800467 425.931200
   6005   6010   6011     1   107.2600461 396.643200
   6008   6005   6010     1   110.2600474 425.931200
   6008   6005   6009     1   108.4600466 328.025600
   6009   6005   6010     1   110.2600474 425.931200
   6014   5995   6015     1   110.2600474 425.931200
   6018   6019   6038     1   109.5600471 388.275200
   6018   6029   6032     1   109.5600471 388.275200
   6018   6029   6033     1   109.5600471 388.275200
   6019   6021   6025     1   109.5600471 388.275200
   6019   6039   6040     1   107.2600461 396.643200
   6019   6018   6020     1   109.5600471 388.275200
   6020   6018   6029     1   109.5600471 388.275200
   6020   6018   6036     1   109.7800468 425.094400
   6021   6022   6024     1   109.5600471 388.275200
   6021   6028   6030     1   107.2600461 396.643200
   6021   6019   6038     1   109.5600471 388.275200
   6022   6023   6026     1   110.2200475 386.601600
   6022   6041   6031     1   109.2900470 396.643200
   6022   6021   6025     1   109.5600471 388.275200
   6023   6027   6037     1   107.2600461 396.643200
   6023   6022   6024     1   109.5600471 388.275200
   6024   6022   6041     1   109.8800469 414.216000
   6025   6021   6028     1   110.2600474 425.931200
   6026   6023   6027     1   109.4300470 427.604800
   6026   6023   6036     1   109.5800467 425.931200
   6029   6034   6035     1   107.2600461 396.643200
   6032   6029   6034     1   110.2600474 425.931200
   6032   6029   6033     1   108.4600466 328.025600
   6033   6029   6034     1   110.2600474 425.931200
   6038   6019   6039     1   110.2600474 425.931200
   6043   6045   6046     1   108.8800464 416.726400
   6043   6045   6048     1   108.8800464 416.726400
   6044   6043   6045     1   117.6800502 383.254400
   6045   6047   6049     1   109.5600471 388.275200
   6045   6047   6050     1   109.5600471 388.275200
   6046   6045   6047     1   109.5600471 388.275200
   6046   6045   6048     1   108.4600466 328.025600
   6047   6045   6048     1   109.5600471 388.275200
   6047   6051   6116     1   110.1100470 384.091200
   6049   6047   6051     1   107.9000462 406.684800
   6049   6047   6050     1   108.4600466 328.025600
   6050   6047   6051     1   107.9000462 406.684800
   6051   6052   6061     1   107.9000462 406.684800
   6051   6052   6062     1   107.9000462 406.684800
   6051   6053   6054     1   107.9000462 406.684800
   6051   6053   6056     1   107.9000462 406.684800
   6052   6051   6116     1   110.1100470 384.091200
   6052   6063   6064     1   109.8000471 387.438400
   6052   6063   6065     1   109.8000471 387.438400
   6053   6051   6116     1   110.1100470 384.091200
   6053   6055   6057     1   109.8000471 387.438400
   6053   6055   6058     1   109.8000471 387.438400
   6054   6053   6055     1   109.5600471 388.275200
   6054   6053   6056     1   108.4600466 328.025600
   6055   6053   6056     1   109.5600471 388.275200
   6057   6055   6059     1   108.7700466 392.459200
   6057   6055   6058     1   107.5800459 329.699200
   6058   6055   6059     1   108.7700466 392.459200
   6059   6091   6081     1   119.3800509 410.868800
   6061   6052   6063     1   109.5600471 388.275200
   6061   6052   6062     1   108.4600466 328.025600
   6062   6052   6063     1   109.5600471 388.275200
   6064   6063   6066     1   108.7700466 392.459200
   6064   6063   6065     1   107.5800459 329.699200
   6065   6063   6066     1   108.7700466 392.459200
   6066   6115   6105     1   119.3800509 410.868800
   6068   6069   6088     1   109.5600471 388.275200
   6068   6079   6082     1   109.5600471 388.275200
   6068   6079   6083     1   109.5600471 388.275200
   6069   6068   6070     1   109.5600471 388.275200
   6069   6071   6075     1   109.5600471 388.275200
   6069   6089   6090     1   107.2600461 396.643200
   6070   6068   6079     1   109.5600471 388.275200
   6070   6068   6086     1   109.7800468 425.094400
   6071   6069   6088     1   109.5600471 388.275200
   6071   6072   6074     1   109.5600471 388.275200
   6071   6078   6080     1   107.2600461 396.643200
   6072   6071   6075     1   109.5600471 388.275200
   6072   6073   6076     1   110.2200475 386.601600
   6072   6091   6081     1   109.2900470 396.643200
   6073   6072   6074     1   109.5600471 388.275200
   6073   6077   6087     1   107.2600461 396.643200
   6074   6072   6091     1   109.8800469 414.216000
   6075   6071   6078     1   110.2600474 425.931200
   6076   6073   6077     1   109.4300470 427.604800
   6076   6073   6086     1   109.5800467 425.931200
   6079   6084   6085     1   107.2600461 396.643200
   6082   6079   6084     1   110.2600474 425.931200
   6082   6079   6083     1   108.4600466 328.025600
   6083   6079   6084     1   110.2600474 425.931200
   6088   6069   6089     1   110.2600474 425.931200
   6092   6093   6112     1   109.5600471 388.275200
   6092   6103   6106     1   109.5600471 388.275200
   6092   6103   6107     1   109.5600471 388.275200
   6093   6092   6094     1   109.5600471 388.275200
   6093   6095   6099     1   109.5600471 388.275200
   6093   6113   6114     1   107.2600461 396.643200
   6094   6092   6103     1   109.5600471 388.275200
   6094   6092   6110     1   109.7800468 425.094400
   6095   6093   6112     1   109.5600471 388.275200
   6095   6096   6098     1   109.5600471 388.275200
   6095   6102   6104     1   107.2600461 396.643200
   6096   6095   6099     1   109.5600471 388.275200
   6096   6097   6100     1   110.2200475 386.601600
   6096   6115   6105     1   109.2900470 396.643200
   6097   6096   6098     1   109.5600471 388.275200
   6097   6101   6111     1   107.2600461 396.643200
   6098   6096   6115     1   109.8800469 414.216000
   6099   6095   6102     1   110.2600474 425.931200
   6100   6097   6101     1   109.4300470 427.604800
   6100   6097   6110     1   109.5800467 425.931200
   6103   6108   6109     1   107.2600461 396.643200
   6106   6103   6108     1   110.2600474 425.931200
   6106   6103   6107     1   108.4600466 328.025600
   6107   6103   6108     1   110.2600474 425.931200
   6112   6093   6113     1   110.2600474 425.931200
   6117   6119   6120     1   108.8800464 416.726400
   6117   6119   6122     1   108.8800464 416.726400
   6118   6117   6119     1   117.6800502 383.254400
   6119   6121   6123     1   109.5600471 388.275200
   6119   6121   6124     1   109.5600471 388.275200
   6120   6119   6121     1   109.5600471 388.275200
   6120   6119   6122     1   108.4600466 328.025600
   6121   6125   6190     1   110.1100470 384.091200
   6121   6119   6122     1   109.5600471 388.275200
   6123   6121   6125     1   107.9000462 406.684800
   6123   6121   6124     1   108.4600466 328.025600
   6124   6121   6125     1   107.9000462 406.684800
   6125   6126   6135     1   107.9000462 406.684800
   6125   6126   6136     1   107.9000462 406.684800
   6125   6127   6128     1   107.9000462 406.684800
   6125   6127   6130     1   107.9000462 406.684800
   6126   6137   6138     1   109.8000471 387.438400
   6126   6137   6139     1   109.8000471 387.438400
   6126   6125   6190     1   110.1100470 384.091200
   6127   6129   6131     1   109.8000471 387.438400
   6127   6129   6132     1   109.8000471 387.438400
   6127   6125   6190     1   110.1100470 384.091200
   6128   6127   6129     1   109.5600471 388.275200
   6128   6127   6130     1   108.4600466 328.025600
   6129   6127   6130     1   109.5600471 388.275200
   6131   6129   6133     1   108.7700466 392.459200
   6131   6129   6132     1   107.5800459 329.699200
   6132   6129   6133     1   108.7700466 392.459200
   6133   6165   6155     1   119.3800509 410.868800
   6135   6126   6137     1   109.5600471 388.275200
   6135   6126   6136     1   108.4600466 328.025600
   6136   6126   6137     1   109.5600471 388.275200
   6138   6137   6140     1   108.7700466 392.459200
   6138   6137   6139     1   107.5800459 329.699200
   6139   6137   6140     1   108.7700466 392.459200
   6140   6189   6179     1   119.3800509 410.868800
   6142   6143   6162     1   109.5600471 388.275200
   6142   6153   6156     1   109.5600471 388.275200
   6142   6153   6157     1   109.5600471 388.275200
   6143   6145   6149     1   109.5600471 388.275200
   6143   6163   6164     1   107.2600461 396.643200
   6143   6142   6144     1   109.5600471 388.275200
   6144   6142   6153     1   109.5600471 388.275200
   6144   6142   6160     1   109.7800468 425.094400
   6145   6146   6148     1   109.5600471 388.275200
   6145   6152   6154     1   107.2600461 396.643200
   6145   6143   6162     1   109.5600471 388.275200
   6146   6147   6150     1   110.2200475 386.601600
   6146   6165   6155     1   109.2900470 396.643200
   6146   6145   6149     1   109.5600471 388.275200
   6147   6151   6161     1   107.2600461 396.643200
   6147   6146   6148     1   109.5600471 388.275200
   6148   6146   6165     1   109.8800469 414.216000
   6149   6145   6152     1   110.2600474 425.931200
   6150   6147   6151     1   109.4300470 427.604800
   6150   6147   6160     1   109.5800467 425.931200
   6153   6158   6159     1   107.2600461 396.643200
   6156   6153   6158     1   110.2600474 425.931200
   6156   6153   6157     1   108.4600466 328.025600
   6157   6153   6158     1   110.2600474 425.931200
   6162   6143   6163     1   110.2600474 425.931200
   6166   6167   6186     1   109.5600471 388.275200
   6166   6177   6180     1   109.5600471 388.275200
   6166   6177   6181     1   109.5600471 388.275200
   6167   6169   6173     1   109.5600471 388.275200
   6167   6187   6188     1   107.2600461 396.643200
   6167   6166   6168     1   109.5600471 388.275200
   6168   6166   6177     1   109.5600471 388.275200
   6168   6166   6184     1   109.7800468 425.094400
   6169   6170   6172     1   109.5600471 388.275200
   6169   6176   6178     1   107.2600461 396.643200
   6169   6167   6186     1   109.5600471 388.275200
   6170   6171   6174     1   110.2200475 386.601600
   6170   6189   6179     1   109.2900470 396.643200
   6170   6169   6173     1   109.5600471 388.275200
   6171   6175   6185     1   107.2600461 396.643200
   6171   6170   6172     1   109.5600471 388.275200
   6172   6170   6189     1   109.8800469 414.216000
   6173   6169   6176     1   110.2600474 425.931200
   6174   6171   6175     1   109.4300470 427.604800
   6174   6171   6184     1   109.5800467 425.931200
   6177   6182   6183     1   107.2600461 396.643200
   6180   6177   6182     1   110.2600474 425.931200
   6180   6177   6181     1   108.4600466 328.025600
   6181   6177   6182     1   110.2600474 425.931200
   6186   6167   6187     1   110.2600474 425.931200
   6191   6193   6194     1   108.8800464 416.726400
   6191   6193   6196     1   108.8800464 416.726400
   6192   6191   6193     1   117.6800502 383.254400
   6193   6195   6197     1   109.5600471 388.275200
   6193   6195   6198     1   109.5600471 388.275200
   6194   6193   6195     1   109.5600471 388.275200
   6194   6193   6196     1   108.4600466 328.025600
   6195   6193   6196     1   109.5600471 388.275200
   6195   6199   6264     1   110.1100470 384.091200
   6197   6195   6199     1   107.9000462 406.684800
   6197   6195   6198     1   108.4600466 328.025600
   6198   6195   6199     1   107.9000462 406.684800
   6199   6200   6209     1   107.9000462 406.684800
   6199   6200   6210     1   107.9000462 406.684800
   6199   6201   6202     1   107.9000462 406.684800
   6199   6201   6204     1   107.9000462 406.684800
   6200   6199   6264     1   110.1100470 384.091200
   6200   6211   6212     1   109.8000471 387.438400
   6200   6211   6213     1   109.8000471 387.438400
   6201   6199   6264     1   110.1100470 384.091200
   6201   6203   6205     1   109.8000471 387.438400
   6201   6203   6206     1   109.8000471 387.438400
   6202   6201   6203     1   109.5600471 388.275200
   6202   6201   6204     1   108.4600466 328.025600
   6203   6201   6204     1   109.5600471 388.275200
   6205   6203   6207     1   108.7700466 392.459200
   6205   6203   6206     1   107.5800459 329.699200
   6206   6203   6207     1   108.7700466 392.459200
   6207   6239   6229     1   119.3800509 410.868800
   6209   6200   6211     1   109.5600471 388.275200
   6209   6200   6210     1   108.4600466 328.025600
   6210   6200   6211     1   109.5600471 388.275200
   6212   6211   6214     1   108.7700466 392.459200
   6212   6211   6213     1   107.5800459 329.699200
   6213   6211   6214     1   108.7700466 392.459200
   6214   6263   6253     1   119.3800509 410.868800
   6216   6217   6236     1   109.5600471 388.275200
   6216   6227   6230     1   109.5600471 388.275200
   6216   6227   6231     1   109.5600471 388.275200
   6217   6216   6218     1   109.5600471 388.275200
   6217   6219   6223     1   109.5600471 388.275200
   6217   6237   6238     1   107.2600461 396.643200
   6218   6216   6227     1   109.5600471 388.275200
   6218   6216   6234     1   109.7800468 425.094400
   6219   6217   6236     1   109.5600471 388.275200
   6219   6220   6222     1   109.5600471 388.275200
   6219   6226   6228     1   107.2600461 396.643200
   6220   6219   6223     1   109.5600471 388.275200
   6220   6221   6224     1   110.2200475 386.601600
   6220   6239   6229     1   109.2900470 396.643200
   6221   6220   6222     1   109.5600471 388.275200
   6221   6225   6235     1   107.2600461 396.643200
   6222   6220   6239     1   109.8800469 414.216000
   6223   6219   6226     1   110.2600474 425.931200
   6224   6221   6225     1   109.4300470 427.604800
   6224   6221   6234     1   109.5800467 425.931200
   6227   6232   6233     1   107.2600461 396.643200
   6230   6227   6232     1   110.2600474 425.931200
   6230   6227   6231     1   108.4600466 328.025600
   6231   6227   6232     1   110.2600474 425.931200
   6236   6217   6237     1   110.2600474 425.931200
   6240   6241   6260     1   109.5600471 388.275200
   6240   6251   6254     1   109.5600471 388.275200
   6240   6251   6255     1   109.5600471 388.275200
   6241   6240   6242     1   109.5600471 388.275200
   6241   6243   6247     1   109.5600471 388.275200
   6241   6261   6262     1   107.2600461 396.643200
   6242   6240   6251     1   109.5600471 388.275200
   6242   6240   6258     1   109.7800468 425.094400
   6243   6241   6260     1   109.5600471 388.275200
   6243   6244   6246     1   109.5600471 388.275200
   6243   6250   6252     1   107.2600461 396.643200
   6244   6243   6247     1   109.5600471 388.275200
   6244   6245   6248     1   110.2200475 386.601600
   6244   6263   6253     1   109.2900470 396.643200
   6245   6244   6246     1   109.5600471 388.275200
   6245   6249   6259     1   107.2600461 396.643200
   6246   6244   6263     1   109.8800469 414.216000
   6247   6243   6250     1   110.2600474 425.931200
   6248   6245   6249     1   109.4300470 427.604800
   6248   6245   6258     1   109.5800467 425.931200
   6251   6256   6257     1   107.2600461 396.643200
   6254   6251   6256     1   110.2600474 425.931200
   6254   6251   6255     1   108.4600466 328.025600
   6255   6251   6256     1   110.2600474 425.931200
   6260   6241   6261     1   110.2600474 425.931200
   6265   6267   6268     1   108.8800464 416.726400
   6265   6267   6270     1   108.8800464 416.726400
   6266   6265   6267     1   117.6800502 383.254400
   6267   6269   6271     1   109.5600471 388.275200
   6267   6269   6272     1   109.5600471 388.275200
   6268   6267   6269     1   109.5600471 388.275200
   6268   6267   6270     1   108.4600466 328.025600
   6269   6273   6338     1   110.1100470 384.091200
   6269   6267   6270     1   109.5600471 388.275200
   6271   6269   6273     1   107.9000462 406.684800
   6271   6269   6272     1   108.4600466 328.025600
   6272   6269   6273     1   107.9000462 406.684800
   6273   6274   6283     1   107.9000462 406.684800
   6273   6274   6284     1   107.9000462 406.684800
   6273   6275   6276     1   107.9000462 406.684800
   6273   6275   6278     1   107.9000462 406.684800
   6274   6285   6286     1   109.8000471 387.438400
   6274   6285   6287     1   109.8000471 387.438400
   6274   6273   6338     1   110.1100470 384.091200
   6275   6277   6279     1   109.8000471 387.438400
   6275   6277   6280     1   109.8000471 387.438400
   6275   6273   6338     1   110.1100470 384.091200
   6276   6275   6277     1   109.5600471 388.275200
   6276   6275   6278     1   108.4600466 328.025600
   6277   6275   6278     1   109.5600471 388.275200
   6279   6277   6281     1   108.7700466 392.459200
   6279   6277   6280     1   107.5800459 329.699200
   6280   6277   6281     1   108.7700466 392.459200
   6281   6313   6303     1   119.3800509 410.868800
   6283   6274   6285     1   109.5600471 388.275200
   6283   6274   6284     1   108.4600466 328.025600
   6284   6274   6285     1   109.5600471 388.275200
   6286   6285   6288     1   108.7700466 392.459200
   6286   6285   6287     1   107.5800459 329.699200
   6287   6285   6288     1   108.7700466 392.459200
   6288   6337   6327     1   119.3800509 410.868800
   6290   6291   6310     1   109.5600471 388.275200
   6290   6301   6304     1   109.5600471 388.275200
   6290   6301   6305     1   109.5600471 388.275200
   6291   6293   6297     1   109.5600471 388.275200
   6291   6311   6312     1   107.2600461 396.643200
   6291   6290   6292     1   109.5600471 388.275200
   6292   6290   6301     1   109.5600471 388.275200
   6292   6290   6308     1   109.7800468 425.094400
   6293   6294   6296     1   109.5600471 388.275200
   6293   6300   6302     1   107.2600461 396.643200
   6293   6291   6310     1   109.5600471 388.275200
   6294   6295   6298     1   110.2200475 386.601600
   6294   6313   6303     1   109.2900470 396.643200
   6294   6293   6297     1   109.5600471 388.275200
   6295   6299   6309     1   107.2600461 396.643200
   6295   6294   6296     1   109.5600471 388.275200
   6296   6294   6313     1   109.8800469 414.216000
   6297   6293   6300     1   110.2600474 425.931200
   6298   6295   6299     1   109.4300470 427.604800
   6298   6295   6308     1   109.5800467 425.931200
   6301   6306   6307     1   107.2600461 396.643200
   6304   6301   6306     1   110.2600474 425.931200
   6304   6301   6305     1   108.4600466 328.025600
   6305   6301   6306     1   110.2600474 425.931200
   6310   6291   6311     1   110.2600474 425.931200
   6314   6315   6334     1   109.5600471 388.275200
   6314   6325   6328     1   109.5600471 388.275200
   6314   6325   6329     1   109.5600471 388.275200
   6315   6317   6321     1   109.5600471 388.275200
   6315   6335   6336     1   107.2600461 396.643200
   6315   6314   6316     1   109.5600471 388.275200
   6316   6314   6325     1   109.5600471 388.275200
   6316   6314   6332     1   109.7800468 425.094400
   6317   6318   6320     1   109.5600471 388.275200
   6317   6324   6326     1   107.2600461 396.643200
   6317   6315   6334     1   109.5600471 388.275200
   6318   6319   6322     1   110.2200475 386.601600
   6318   6337   6327     1   109.2900470 396.643200
   6318   6317   6321     1   109.5600471 388.275200
   6319   6323   6333     1   107.2600461 396.643200
   6319   6318   6320     1   109.5600471 388.275200
   6320   6318   6337     1   109.8800469 414.216000
   6321   6317   6324     1   110.2600474 425.931200
   6322   6319   6323     1   109.4300470 427.604800
   6322   6319   6332     1   109.5800467 425.931200
   6325   6330   6331     1   107.2600461 396.643200
   6328   6325   6330     1   110.2600474 425.931200
   6328   6325   6329     1   108.4600466 328.025600
   6329   6325   6330     1   110.2600474 425.931200
   6334   6315   6335     1   110.2600474 425.931200

[ dihedrals ]
;    ai     aj     ak     al funct         c0         c1         c2         c3         c4         c5
      1      2      3      4     1  0.0000000  0.6508444  3
      1      7     13     14     1  0.0000000  0.6508444  3
      1      8     15     16     1  0.0000000  0.6508444  3
      2      1      7     13     1  0.0000000  0.6508444  3
      2      1      8     15     1  0.0000000  0.6508444  3
      2      3      4      5     1  0.0000000  0.6508444  3
      2      3      4      6     1  0.0000000  0.6508444  3
      7      1      2      3     1  0.0000000  0.6508444  3
      8      1      2      3     1  0.0000000  0.6508444  3
      3      4      5     11     1  0.0000000  0.6508444  3
      3      4      6      9     1  0.0000000  0.6508444  3
      4      5     11     12     1  0.0000000  0.6508444  3
      4      6      9     10     1  0.0000000  0.6508444  3
      5      4      6      9     1  0.0000000  0.6508444  3
      5     11     12     17     1  180.0000771  0.0000000  2
      5     11     12     78     1  0.0000000  0.2928800  2
      5     11     12     78     1  0.0000000  0.4184000  4
      6      4      5     11     1  0.0000000  0.6508444  3
      6      9     10     18     1  180.0000771  0.0000000  2
      6      9     10     52     1  0.0000000  0.2928800  2
      6      9     10     52     1  0.0000000  0.4184000  4
      7      1      8     15     1  0.0000000  0.6508444  3
      7     13     14     20     1  180.0000771  0.0000000  2
      7     13     14    104     1  0.0000000  0.2928800  2
      7     13     14    104     1  0.0000000  0.4184000  4
      8      1      7     13     1  0.0000000  0.6508444  3
      8     15     16     19     1  180.0000771  0.0000000  2
      8     15     16    130     1  0.0000000  0.2928800  2
      8     15     16    130     1  0.0000000  0.4184000  4
      9     10     52     51     1  180.0000771  6.2760000  1
      9     10     52     51     1  0.0000000  0.0000000  2
     10     52     51     50     1  0.0000000  2.2175200  1
     10     52     51     50     1  0.0000000  0.0000000  2
     10     52     51     50     1  180.0000771  0.6276000  3
     10     52     51     50     1  180.0000771  2.0920000  4
     11     12     78     77     1  180.0000771  6.2760000  1
     11     12     78     77     1  0.0000000  0.0000000  2
     12     78     77     76     1  0.0000000  2.2175200  1
     12     78     77     76     1  0.0000000  0.0000000  2
     12     78     77     76     1  180.0000771  0.6276000  3
     12     78     77     76     1  180.0000771  2.0920000  4
     13     14    104    103     1  180.0000771  6.2760000  1
     13     14    104    103     1  0.0000000  0.0000000  2
     14    104    103    102     1  0.0000000  2.2175200  1
     14    104    103    102     1  0.0000000  0.0000000  2
     14    104    103    102     1  180.0000771  0.6276000  3
     14    104    103    102     1  180.0000771  2.0920000  4
     15     16    130    129     1  180.0000771  6.2760000  1
     15     16    130    129     1  0.0000000  0.0000000  2
     16    130    129    128     1  0.0000000  2.2175200  1
     16    130    129    128     1  0.0000000  0.0000000  2
     16    130    129    128     1  180.0000771  0.6276000  3
     16    130    129    128     1  180.0000771  2.0920000  4
     17     12     78     77     1  180.0000771  10.4600000  2
     18     10     52     51     1  180.0000771  10.4600000  2
     19     16    130    129     1  180.0000771  10.4600000  2
     20     14    104    103     1  180.0000771  10.4600000  2
     43     44     46     47     1  0.0000000  0.6508444  3
     43     45     48     49     1  0.0000000  0.6508444  3
     43     50     51     52     1  0.0000000  0.6508444  3
     44     43     45     48     1  0.0000000  0.6508444  3
     44     43     50     51     1  0.0000000  0.6508444  3
     44     46     47     53     1  180.0000771  0.0000000  2
     44     46     47    156     1  0.0000000  0.2928800  2
     44     46     47    156     1  0.0000000  0.4184000  4
     45     43     44     46     1  0.0000000  0.6508444  3
     45     43     50     51     1  0.0000000  0.6508444  3
     45     48     49     54     1  180.0000771  0.0000000  2
     45     48     49    182     1  0.0000000  0.2928800  2
     45     48     49    182     1  0.0000000  0.4184000  4
     46     44     43     50     1  0.0000000  0.6508444  3
     46     47    156    155     1  180.0000771  6.2760000  1
     46     47    156    155     1  0.0000000  0.0000000  2
     47    156    155    154     1  0.0000000  2.2175200  1
     47    156    155    154     1  0.0000000  0.0000000  2
     47    156    155    154     1  180.0000771  0.6276000  3
     47    156    155    154     1  180.0000771  2.0920000  4
     48     45     43     50     1  0.0000000  0.6508444  3
     48     49    182    181     1  180.0000771  6.2760000  1
     48     49    182    181     1  0.0000000  0.0000000  2
     49    182    181    180     1  0.0000000  2.2175200  1
     49    182    181    180     1  0.0000000  0.0000000  2
     49    182    181    180     1  180.0000771  0.6276000  3
     49    182    181    180     1  180.0000771  2.0920000  4
     53     47    156    155     1  180.0000771  10.4600000  2
     54     49    182    181     1  180.0000771  10.4600000  2
     69     70     72     73     1  0.0000000  0.6508444  3
     69     71     74     75     1  0.0000000  0.6508444  3
     69     76     77     78     1  0.0000000  0.6508444  3
     70     69     71     74     1  0.0000000  0.6508444  3
     70     69     76     77     1  0.0000000  0.6508444  3
     70     72     73     79     1  180.0000771  0.0000000  2
     70     72     73    208     1  0.0000000  0.2928800  2
     70     72     73    208     1  0.0000000  0.4184000  4
     71     69     70     72     1  0.0000000  0.6508444  3
     71     69     76     77     1  0.0000000  0.6508444  3
     71     74     75     80     1  180.0000771  0.0000000  2
     71     74     75    234     1  0.0000000  0.2928800  2
     71     74     75    234     1  0.0000000  0.4184000  4
     72     70     69     76     1  0.0000000  0.6508444  3
     72     73    208    207     1  180.0000771  6.2760000  1
     72     73    208    207     1  0.0000000  0.0000000  2
     73    208    207    206     1  0.0000000  2.2175200  1
     73    208    207    206     1  0.0000000  0.0000000  2
     73    208    207    206     1  180.0000771  0.6276000  3
     73    208    207    206     1  180.0000771  2.0920000  4
     74     71     69     76     1  0.0000000  0.6508444  3
     74     75    234    233     1  180.0000771  6.2760000  1
     74     75    234    233     1  0.0000000  0.0000000  2
     75    234    233    232     1  0.0000000  2.2175200  1
     75    234    233    232     1  0.0000000  0.0000000  2
     75    234    233    232     1  180.0000771  0.6276000  3
     75    234    233    232     1  180.0000771  2.0920000  4
     79     73    208    207     1  180.0000771  10.4600000  2
     80     75    234    233     1  180.0000771  10.4600000  2
     95     96     98     99     1  0.0000000  0.6508444  3
     95     97    100    101     1  0.0000000  0.6508444  3
     95    102    103    104     1  0.0000000  0.6508444  3
     96     95     97    100     1  0.0000000  0.6508444  3
     96     95    102    103     1  0.0000000  0.6508444  3
     96     98     99    105     1  180.0000771  0.0000000  2
     96     98     99    260     1  0.0000000  0.2928800  2
     96     98     99    260     1  0.0000000  0.4184000  4
     97     95     96     98     1  0.0000000  0.6508444  3
     97     95    102    103     1  0.0000000  0.6508444  3
     97    100    101    106     1  180.0000771  0.0000000  2
     97    100    101    286     1  0.0000000  0.2928800  2
     97    100    101    286     1  0.0000000  0.4184000  4
     98     96     95    102     1  0.0000000  0.6508444  3
     98     99    260    259     1  180.0000771  6.2760000  1
     98     99    260    259     1  0.0000000  0.0000000  2
     99    260    259    258     1  0.0000000  2.2175200  1
     99    260    259    258     1  0.0000000  0.0000000  2
     99    260    259    258     1  180.0000771  0.6276000  3
     99    260    259    258     1  180.0000771  2.0920000  4
    100     97     95    102     1  0.0000000  0.6508444  3
    100    101    286    285     1  180.0000771  6.2760000  1
    100    101    286    285     1  0.0000000  0.0000000  2
    101    286    285    284     1  0.0000000  2.2175200  1
    101    286    285    284     1  0.0000000  0.0000000  2
    101    286    285    284     1  180.0000771  0.6276000  3
    101    286    285    284     1  180.0000771  2.0920000  4
    105     99    260    259     1  180.0000771  10.4600000  2
    106    101    286    285     1  180.0000771  10.4600000  2
    121    122    124    125     1  0.0000000  0.6508444  3
    121    123    126    127     1  0.0000000  0.6508444  3
    121    128    129    130     1  0.0000000  0.6508444  3
    122    121    123    126     1  0.0000000  0.6508444  3
    122    121    128    129     1  0.0000000  0.6508444  3
    122    124    125    131     1  180.0000771  0.0000000  2
    122    124    125    312     1  0.0000000  0.2928800  2
    122    124    125    312     1  0.0000000  0.4184000  4
    123    121    122    124     1  0.0000000  0.6508444  3
    123    121    128    129     1  0.0000000  0.6508444  3
    123    126    127    132     1  180.0000771  0.0000000  2
    123    126    127    338     1  0.0000000  0.2928800  2
    123    126    127    338     1  0.0000000  0.4184000  4
    124    122    121    128     1  0.0000000  0.6508444  3
    124    125    312    311     1  180.0000771  6.2760000  1
    124    125    312    311     1  0.0000000  0.0000000  2
    125    312    311    310     1  0.0000000  2.2175200  1
    125    312    311    310     1  0.0000000  0.0000000  2
    125    312    311    310     1  180.0000771  0.6276000  3
    125    312    311    310     1  180.0000771  2.0920000  4
    126    123    121    128     1  0.0000000  0.6508444  3
    126    127    338    337     1  180.0000771  6.2760000  1
    126    127    338    337     1  0.0000000  0.0000000  2
    127    338    337    336     1  0.0000000  2.2175200  1
    127    338    337    336     1  0.0000000  0.0000000  2
    127    338    337    336     1  180.0000771  0.6276000  3
    127    338    337    336     1  180.0000771  2.0920000  4
    131    125    312    311     1  180.0000771  10.4600000  2
    132    127    338    337     1  180.0000771  10.4600000  2
    147    148    150    151     1  0.0000000  0.6508444  3
    147    149    152    153     1  0.0000000  0.6508444  3
    147    154    155    156     1  0.0000000  0.6508444  3
    148    147    149    152     1  0.0000000  0.6508444  3
    148    147    154    155     1  0.0000000  0.6508444  3
    148    150    151    157     1  180.0000771  0.0000000  2
    148    150    151    364     1  0.0000000  0.2928800  2
    148    150    151    364     1  0.0000000  0.4184000  4
    149    147    148    150     1  0.0000000  0.6508444  3
    149    147    154    155     1  0.0000000  0.6508444  3
    149    152    153    158     1  180.0000771  0.0000000  2
    149    152    153    390     1  0.0000000  0.2928800  2
    149    152    153    390     1  0.0000000  0.4184000  4
    150    148    147    154     1  0.0000000  0.6508444  3
    150    151    364    363     1  180.0000771  6.2760000  1
    150    151    364    363     1  0.0000000  0.0000000  2
    151    364    363    362     1  0.0000000  2.2175200  1
    151    364    363    362     1  0.0000000  0.0000000  2
    151    364    363    362     1  180.0000771  0.6276000  3
    151    364    363    362     1  180.0000771  2.0920000  4
    152    149    147    154     1  0.0000000  0.6508444  3
    152    153    390    389     1  180.0000771  6.2760000  1
    152    153    390    389     1  0.0000000  0.0000000  2
    153    390    389    388     1  0.0000000  2.2175200  1
    153    390    389    388     1  0.0000000  0.0000000  2
    153    390    389    388     1  180.0000771  0.6276000  3
    153    390    389    388     1  180.0000771  2.0920000  4
    157    151    364    363     1  180.0000771  10.4600000  2
    158    153    390    389     1  180.0000771  10.4600000  2
    173    174    176    177     1  0.0000000  0.6508444  3
    173    175    178    179     1  0.0000000  0.6508444  3
    173    180    181    182     1  0.0000000  0.6508444  3
    174    173    175    178     1  0.0000000  0.6508444  3
    174    173    180    181     1  0.0000000  0.6508444  3
    174    176    177    183     1  180.0000771  0.0000000  2
    174    176    177    416     1  0.0000000  0.2928800  2
    174    176    177    416     1  0.0000000  0.4184000  4
    175    173    174    176     1  0.0000000  0.6508444  3
    175    173    180    181     1  0.0000000  0.6508444  3
    175    178    179    184     1  180.0000771  0.0000000  2
    175    178    179    442     1  0.0000000  0.2928800  2
    175    178    179    442     1  0.0000000  0.4184000  4
    176    174    173    180     1  0.0000000  0.6508444  3
    176    177    416    415     1  180.0000771  6.2760000  1
    176    177    416    415     1  0.0000000  0.0000000  2
    177    416    415    414     1  0.0000000  2.2175200  1
    177    416    415    414     1  0.0000000  0.0000000  2
    177    416    415    414     1  180.0000771  0.6276000  3
    177    416    415    414     1  180.0000771  2.0920000  4
    178    175    173    180     1  0.0000000  0.6508444  3
    178    179    442    441     1  180.0000771  6.2760000  1
    178    179    442    441     1  0.0000000  0.0000000  2
    179    442    441    440     1  0.0000000  2.2175200  1
    179    442    441    440     1  0.0000000  0.0000000  2
    179    442    441    440     1  180.0000771  0.6276000  3
    179    442    441    440     1  180.0000771  2.0920000  4
    183    177    416    415     1  180.0000771  10.4600000  2
    184    179    442    441     1  180.0000771  10.4600000  2
    199    200    202    203     1  0.0000000  0.6508444  3
    199    201    204    205     1  0.0000000  0.6508444  3
    199    206    207    208     1  0.0000000  0.6508444  3
    200    199    201    204     1  0.0000000  0.6508444  3
    200    199    206    207     1  0.0000000  0.6508444  3
    200    202    203    209     1  180.0000771  0.0000000  2
    200    202    203    468     1  0.0000000  0.2928800  2
    200    202    203    468     1  0.0000000  0.4184000  4
    201    199    200    202     1  0.0000000  0.6508444  3
    201    199    206    207     1  0.0000000  0.6508444  3
    201    204    205    210     1  180.0000771  0.0000000  2
    201    204    205    494     1  0.0000000  0.2928800  2
    201    204    205    494     1  0.0000000  0.4184000  4
    202    200    199    206     1  0.0000000  0.6508444  3
    202    203    468    467     1  180.0000771  6.2760000  1
    202    203    468    467     1  0.0000000  0.0000000  2
    203    468    467    466     1  0.0000000  2.2175200  1
    203    468    467    466     1  0.0000000  0.0000000  2
    203    468    467    466     1  180.0000771  0.6276000  3
    203    468    467    466     1  180.0000771  2.0920000  4
    204    201    199    206     1  0.0000000  0.6508444  3
    204    205    494    493     1  180.0000771  6.2760000  1
    204    205    494    493     1  0.0000000  0.0000000  2
    205    494    493    492     1  0.0000000  2.2175200  1
    205    494    493    492     1  0.0000000  0.0000000  2
    205    494    493    492     1  180.0000771  0.6276000  3
    205    494    493    492     1  180.0000771  2.0920000  4
    209    203    468    467     1  180.0000771  10.4600000  2
    210    205    494    493     1  180.0000771  10.4600000  2
    225    226    228    229     1  0.0000000  0.6508444  3
    225    227    230    231     1  0.0000000  0.6508444  3
    225    232    233    234     1  0.0000000  0.6508444  3
    226    225    227    230     1  0.0000000  0.6508444  3
    226    225    232    233     1  0.0000000  0.6508444  3
    226    228    229    235     1  180.0000771  0.0000000  2
    226    228    229    520     1  0.0000000  0.2928800  2
    226    228    229    520     1  0.0000000  0.4184000  4
    227    225    226    228     1  0.0000000  0.6508444  3
    227    225    232    233     1  0.0000000  0.6508444  3
    227    230    231    236     1  180.0000771  0.0000000  2
    227    230    231    546     1  0.0000000  0.2928800  2
    227    230    231    546     1  0.0000000  0.4184000  4
    228    226    225    232     1  0.0000000  0.6508444  3
    228    229    520    519     1  180.0000771  6.2760000  1
    228    229    520    519     1  0.0000000  0.0000000  2
    229    520    519    518     1  0.0000000  2.2175200  1
    229    520    519    518     1  0.0000000  0.0000000  2
    229    520    519    518     1  180.0000771  0.6276000  3
    229    520    519    518     1  180.0000771  2.0920000  4
    230    227    225    232     1  0.0000000  0.6508444  3
    230    231    546    545     1  180.0000771  6.2760000  1
    230    231    546    545     1  0.0000000  0.0000000  2
    231    546    545    544     1  0.0000000  2.2175200  1
    231    546    545    544     1  0.0000000  0.0000000  2
    231    546    545    544     1  180.0000771  0.6276000  3
    231    546    545    544     1  180.0000771  2.0920000  4
    235    229    520    519     1  180.0000771  10.4600000  2
    236    231    546    545     1  180.0000771  10.4600000  2
    251    252    254    255     1  0.0000000  0.6508444  3
    251    253    256    257     1  0.0000000  0.6508444  3
    251    258    259    260     1  0.0000000  0.6508444  3
    252    251    253    256     1  0.0000000  0.6508444  3
    252    251    258    259     1  0.0000000  0.6508444  3
    252    254    255    261     1  180.0000771  0.0000000  2
    252    254    255    572     1  0.0000000  0.2928800  2
    252    254    255    572     1  0.0000000  0.4184000  4
    253    251    252    254     1  0.0000000  0.6508444  3
    253    251    258    259     1  0.0000000  0.6508444  3
    253    256    257    262     1  180.0000771  0.0000000  2
    253    256    257    598     1  0.0000000  0.2928800  2
    253    256    257    598     1  0.0000000  0.4184000  4
    254    252    251    258     1  0.0000000  0.6508444  3
    254    255    572    571     1  180.0000771  6.2760000  1
    254    255    572    571     1  0.0000000  0.0000000  2
    255    572    571    570     1  0.0000000  2.2175200  1
    255    572    571    570     1  0.0000000  0.0000000  2
    255    572    571    570     1  180.0000771  0.6276000  3
    255    572    571    570     1  180.0000771  2.0920000  4
    256    253    251    258     1  0.0000000  0.6508444  3
    256    257    598    597     1  180.0000771  6.2760000  1
    256    257    598    597     1  0.0000000  0.0000000  2
    257    598    597    596     1  0.0000000  2.2175200  1
    257    598    597    596     1  0.0000000  0.0000000  2
    257    598    597    596     1  180.0000771  0.6276000  3
    257    598    597    596     1  180.0000771  2.0920000  4
    261    255    572    571     1  180.0000771  10.4600000  2
    262    257    598    597     1  180.0000771  10.4600000  2
    277    278    280    281     1  0.0000000  0.6508444  3
    277    279    282    283     1  0.0000000  0.6508444  3
    277    284    285    286     1  0.0000000  0.6508444  3
    278    277    279    282     1  0.0000000  0.6508444  3
    278    277    284    285     1  0.0000000  0.6508444  3
    278    280    281    287     1  180.0000771  0.0000000  2
    278    280    281    624     1  0.0000000  0.2928800  2
    278    280    281    624     1  0.0000000  0.4184000  4
    279    277    278    280     1  0.0000000  0.6508444  3
    279    277    284    285     1  0.0000000  0.6508444  3
    279    282    283    288     1  180.0000771  0.0000000  2
    279    282    283    650     1  0.0000000  0.2928800  2
    279    282    283    650     1  0.0000000  0.4184000  4
    280    278    277    284     1  0.0000000  0.6508444  3
    280    281    624    623     1  180.0000771  6.2760000  1
    280    281    624    623     1  0.0000000  0.0000000  2
    281    624    623    622     1  0.0000000  2.2175200  1
    281    624    623    622     1  0.0000000  0.0000000  2
    281    624    623    622     1  180.0000771  0.6276000  3
    281    624    623    622     1  180.0000771  2.0920000  4
    282    279    277    284     1  0.0000000  0.6508444  3
    282    283    650    649     1  180.0000771  6.2760000  1
    282    283    650    649     1  0.0000000  0.0000000  2
    283    650    649    648     1  0.0000000  2.2175200  1
    283    650    649    648     1  0.0000000  0.0000000  2
    283    650    649    648     1  180.0000771  0.6276000  3
    283    650    649    648     1  180.0000771  2.0920000  4
    287    281    624    623     1  180.0000771  10.4600000  2
    288    283    650    649     1  180.0000771  10.4600000  2
    303    304    306    307     1  0.0000000  0.6508444  3
    303    305    308    309     1  0.0000000  0.6508444  3
    303    310    311    312     1  0.0000000  0.6508444  3
    304    303    305    308     1  0.0000000  0.6508444  3
    304    303    310    311     1  0.0000000  0.6508444  3
    304    306    307    313     1  180.0000771  0.0000000  2
    304    306    307    676     1  0.0000000  0.2928800  2
    304    306    307    676     1  0.0000000  0.4184000  4
    305    303    304    306     1  0.0000000  0.6508444  3
    305    303    310    311     1  0.0000000  0.6508444  3
    305    308    309    314     1  180.0000771  0.0000000  2
    305    308    309    702     1  0.0000000  0.2928800  2
    305    308    309    702     1  0.0000000  0.4184000  4
    306    304    303    310     1  0.0000000  0.6508444  3
    306    307    676    675     1  180.0000771  6.2760000  1
    306    307    676    675     1  0.0000000  0.0000000  2
    307    676    675    674     1  0.0000000  2.2175200  1
    307    676    675    674     1  0.0000000  0.0000000  2
    307    676    675    674     1  180.0000771  0.6276000  3
    307    676    675    674     1  180.0000771  2.0920000  4
    308    305    303    310     1  0.0000000  0.6508444  3
    308    309    702    701     1  180.0000771  6.2760000  1
    308    309    702    701     1  0.0000000  0.0000000  2
    309    702    701    700     1  0.0000000  2.2175200  1
    309    702    701    700     1  0.0000000  0.0000000  2
    309    702    701    700     1  180.0000771  0.6276000  3
    309    702    701    700     1  180.0000771  2.0920000  4
    313    307    676    675     1  180.0000771  10.4600000  2
    314    309    702    701     1  180.0000771  10.4600000  2
    329    330    332    333     1  0.0000000  0.6508444  3
    329    331    334    335     1  0.0000000  0.6508444  3
    329    336    337    338     1  0.0000000  0.6508444  3
    330    329    331    334     1  0.0000000  0.6508444  3
    330    329    336    337     1  0.0000000  0.6508444  3
    330    332    333    339     1  180.0000771  0.0000000  2
    330    332    333    728     1  0.0000000  0.2928800  2
    330    332    333    728     1  0.0000000  0.4184000  4
    331    329    330    332     1  0.0000000  0.6508444  3
    331    329    336    337     1  0.0000000  0.6508444  3
    331    334    335    340     1  180.0000771  0.0000000  2
    331    334    335    754     1  0.0000000  0.2928800  2
    331    334    335    754     1  0.0000000  0.4184000  4
    332    330    329    336     1  0.0000000  0.6508444  3
    332    333    728    727     1  180.0000771  6.2760000  1
    332    333    728    727     1  0.0000000  0.0000000  2
    333    728    727    726     1  0.0000000  2.2175200  1
    333    728    727    726     1  0.0000000  0.0000000  2
    333    728    727    726     1  180.0000771  0.6276000  3
    333    728    727    726     1  180.0000771  2.0920000  4
    334    331    329    336     1  0.0000000  0.6508444  3
    334    335    754    753     1  180.0000771  6.2760000  1
    334    335    754    753     1  0.0000000  0.0000000  2
    335    754    753    752     1  0.0000000  2.2175200  1
    335    754    753    752     1  0.0000000  0.0000000  2
    335    754    753    752     1  180.0000771  0.6276000  3
    335    754    753    752     1  180.0000771  2.0920000  4
    339    333    728    727     1  180.0000771  10.4600000  2
    340    335    754    753     1  180.0000771  10.4600000  2
    355    356    358    359     1  0.0000000  0.6508444  3
    355    357    360    361     1  0.0000000  0.6508444  3
    355    362    363    364     1  0.0000000  0.6508444  3
    356    355    357    360     1  0.0000000  0.6508444  3
    356    355    362    363     1  0.0000000  0.6508444  3
    356    358    359    365     1  180.0000771  0.0000000  2
    356    358    359    780     1  0.0000000  0.2928800  2
    356    358    359    780     1  0.0000000  0.4184000  4
    357    355    356    358     1  0.0000000  0.6508444  3
    357    355    362    363     1  0.0000000  0.6508444  3
    357    360    361    366     1  180.0000771  0.0000000  2
    357    360    361    806     1  0.0000000  0.2928800  2
    357    360    361    806     1  0.0000000  0.4184000  4
    358    356    355    362     1  0.0000000  0.6508444  3
    358    359    780    779     1  180.0000771  6.2760000  1
    358    359    780    779     1  0.0000000  0.0000000  2
    359    780    779    778     1  0.0000000  2.2175200  1
    359    780    779    778     1  0.0000000  0.0000000  2
    359    780    779    778     1  180.0000771  0.6276000  3
    359    780    779    778     1  180.0000771  2.0920000  4
    360    357    355    362     1  0.0000000  0.6508444  3
    360    361    806    805     1  180.0000771  6.2760000  1
    360    361    806    805     1  0.0000000  0.0000000  2
    361    806    805    804     1  0.0000000  2.2175200  1
    361    806    805    804     1  0.0000000  0.0000000  2
    361    806    805    804     1  180.0000771  0.6276000  3
    361    806    805    804     1  180.0000771  2.0920000  4
    365    359    780    779     1  180.0000771  10.4600000  2
    366    361    806    805     1  180.0000771  10.4600000  2
    381    382    384    385     1  0.0000000  0.6508444  3
    381    383    386    387     1  0.0000000  0.6508444  3
    381    388    389    390     1  0.0000000  0.6508444  3
    382    381    383    386     1  0.0000000  0.6508444  3
    382    381    388    389     1  0.0000000  0.6508444  3
    382    384    385    391     1  180.0000771  0.0000000  2
    382    384    385    832     1  0.0000000  0.2928800  2
    382    384    385    832     1  0.0000000  0.4184000  4
    383    381    382    384     1  0.0000000  0.6508444  3
    383    381    388    389     1  0.0000000  0.6508444  3
    383    386    387    392     1  180.0000771  0.0000000  2
    383    386    387    858     1  0.0000000  0.2928800  2
    383    386    387    858     1  0.0000000  0.4184000  4
    384    382    381    388     1  0.0000000  0.6508444  3
    384    385    832    831     1  180.0000771  6.2760000  1
    384    385    832    831     1  0.0000000  0.0000000  2
    385    832    831    830     1  0.0000000  2.2175200  1
    385    832    831    830     1  0.0000000  0.0000000  2
    385    832    831    830     1  180.0000771  0.6276000  3
    385    832    831    830     1  180.0000771  2.0920000  4
    386    383    381    388     1  0.0000000  0.6508444  3
    386    387    858    857     1  180.0000771  6.2760000  1
    386    387    858    857     1  0.0000000  0.0000000  2
    387    858    857    856     1  0.0000000  2.2175200  1
    387    858    857    856     1  0.0000000  0.0000000  2
    387    858    857    856     1  180.0000771  0.6276000  3
    387    858    857    856     1  180.0000771  2.0920000  4
    391    385    832    831     1  180.0000771  10.4600000  2
    392    387    858    857     1  180.0000771  10.4600000  2
    407    408    410    411     1  0.0000000  0.6508444  3
    407    409    412    413     1  0.0000000  0.6508444  3
    407    414    415    416     1  0.0000000  0.6508444  3
    408    407    409    412     1  0.0000000  0.6508444  3
    408    407    414    415     1  0.0000000  0.6508444  3
    408    410    411    417     1  180.0000771  0.0000000  2
    408    410    411    884     1  0.0000000  0.2928800  2
    408    410    411    884     1  0.0000000  0.4184000  4
    409    407    408    410     1  0.0000000  0.6508444  3
    409    407    414    415     1  0.0000000  0.6508444  3
    409    412    413    418     1  180.0000771  0.0000000  2
    409    412    413    910     1  0.0000000  0.2928800  2
    409    412    413    910     1  0.0000000  0.4184000  4
    410    408    407    414     1  0.0000000  0.6508444  3
    410    411    884    883     1  180.0000771  6.2760000  1
    410    411    884    883     1  0.0000000  0.0000000  2
    411    884    883    882     1  0.0000000  2.2175200  1
    411    884    883    882     1  0.0000000  0.0000000  2
    411    884    883    882     1  180.0000771  0.6276000  3
    411    884    883    882     1  180.0000771  2.0920000  4
    412    409    407    414     1  0.0000000  0.6508444  3
    412    413    910    909     1  180.0000771  6.2760000  1
    412    413    910    909     1  0.0000000  0.0000000  2
    413    910    909    908     1  0.0000000  2.2175200  1
    413    910    909    908     1  0.0000000  0.0000000  2
    413    910    909    908     1  180.0000771  0.6276000  3
    413    910    909    908     1  180.0000771  2.0920000  4
    417    411    884    883     1  180.0000771  10.4600000  2
    418    413    910    909     1  180.0000771  10.4600000  2
    433    434    436    437     1  0.0000000  0.6508444  3
    433    435    438    439     1  0.0000000  0.6508444  3
    433    440    441    442     1  0.0000000  0.6508444  3
    434    433    435    438     1  0.0000000  0.6508444  3
    434    433    440    441     1  0.0000000  0.6508444  3
    434    436    437    443     1  180.0000771  0.0000000  2
    434    436    437    936     1  0.0000000  0.2928800  2
    434    436    437    936     1  0.0000000  0.4184000  4
    435    433    434    436     1  0.0000000  0.6508444  3
    435    433    440    441     1  0.0000000  0.6508444  3
    435    438    439    444     1  180.0000771  0.0000000  2
    435    438    439    962     1  0.0000000  0.2928800  2
    435    438    439    962     1  0.0000000  0.4184000  4
    436    434    433    440     1  0.0000000  0.6508444  3
    436    437    936    935     1  180.0000771  6.2760000  1
    436    437    936    935     1  0.0000000  0.0000000  2
    437    936    935    934     1  0.0000000  2.2175200  1
    437    936    935    934     1  0.0000000  0.0000000  2
    437    936    935    934     1  180.0000771  0.6276000  3
    437    936    935    934     1  180.0000771  2.0920000  4
    438    435    433    440     1  0.0000000  0.6508444  3
    438    439    962    961     1  180.0000771  6.2760000  1
    438    439    962    961     1  0.0000000  0.0000000  2
    439    962    961    960     1  0.0000000  2.2175200  1
    439    962    961    960     1  0.0000000  0.0000000  2
    439    962    961    960     1  180.0000771  0.6276000  3
    439    962    961    960     1  180.0000771  2.0920000  4
    443    437    936    935     1  180.0000771  10.4600000  2
    444    439    962    961     1  180.0000771  10.4600000  2
    459    460    462    463     1  0.0000000  0.6508444  3
    459    461    464    465     1  0.0000000  0.6508444  3
    459    466    467    468     1  0.0000000  0.6508444  3
    460    459    461    464     1  0.0000000  0.6508444  3
    460    459    466    467     1  0.0000000  0.6508444  3
    460    462    463    469     1  180.0000771  0.0000000  2
    460    462    463    988     1  0.0000000  0.2928800  2
    460    462    463    988     1  0.0000000  0.4184000  4
    461    459    460    462     1  0.0000000  0.6508444  3
    461    459    466    467     1  0.0000000  0.6508444  3
    461    464    465    470     1  180.0000771  0.0000000  2
    461    464    465   1014     1  0.0000000  0.2928800  2
    461    464    465   1014     1  0.0000000  0.4184000  4
    462    460    459    466     1  0.0000000  0.6508444  3
    462    463    988    987     1  180.0000771  6.2760000  1
    462    463    988    987     1  0.0000000  0.0000000  2
    463    988    987    986     1  0.0000000  2.2175200  1
    463    988    987    986     1  0.0000000  0.0000000  2
    463    988    987    986     1  180.0000771  0.6276000  3
    463    988    987    986     1  180.0000771  2.0920000  4
    464    461    459    466     1  0.0000000  0.6508444  3
    464    465   1014   1013     1  180.0000771  6.2760000  1
    464    465   1014   1013     1  0.0000000  0.0000000  2
    465   1014   1013   1012     1  0.0000000  2.2175200  1
    465   1014   1013   1012     1  0.0000000  0.0000000  2
    465   1014   1013   1012     1  180.0000771  0.6276000  3
    465   1014   1013   1012     1  180.0000771  2.0920000  4
    469    463    988    987     1  180.0000771  10.4600000  2
    470    465   1014   1013     1  180.0000771  10.4600000  2
    485    486    488    489     1  0.0000000  0.6508444  3
    485    487    490    491     1  0.0000000  0.6508444  3
    485    492    493    494     1  0.0000000  0.6508444  3
    486    485    487    490     1  0.0000000  0.6508444  3
    486    485    492    493     1  0.0000000  0.6508444  3
    486    488    489    495     1  180.0000771  0.0000000  2
    486    488    489   1040     1  0.0000000  0.2928800  2
    486    488    489   1040     1  0.0000000  0.4184000  4
    487    485    486    488     1  0.0000000  0.6508444  3
    487    485    492    493     1  0.0000000  0.6508444  3
    487    490    491    496     1  180.0000771  0.0000000  2
    487    490    491   1066     1  0.0000000  0.2928800  2
    487    490    491   1066     1  0.0000000  0.4184000  4
    488    486    485    492     1  0.0000000  0.6508444  3
    488    489   1040   1039     1  180.0000771  6.2760000  1
    488    489   1040   1039     1  0.0000000  0.0000000  2
    489   1040   1039   1038     1  0.0000000  2.2175200  1
    489   1040   1039   1038     1  0.0000000  0.0000000  2
    489   1040   1039   1038     1  180.0000771  0.6276000  3
    489   1040   1039   1038     1  180.0000771  2.0920000  4
    490    487    485    492     1  0.0000000  0.6508444  3
    490    491   1066   1065     1  180.0000771  6.2760000  1
    490    491   1066   1065     1  0.0000000  0.0000000  2
    491   1066   1065   1064     1  0.0000000  2.2175200  1
    491   1066   1065   1064     1  0.0000000  0.0000000  2
    491   1066   1065   1064     1  180.0000771  0.6276000  3
    491   1066   1065   1064     1  180.0000771  2.0920000  4
    495    489   1040   1039     1  180.0000771  10.4600000  2
    496    491   1066   1065     1  180.0000771  10.4600000  2
    511    512    514    515     1  0.0000000  0.6508444  3
    511    513    516    517     1  0.0000000  0.6508444  3
    511    518    519    520     1  0.0000000  0.6508444  3
    512    511    513    516     1  0.0000000  0.6508444  3
    512    511    518    519     1  0.0000000  0.6508444  3
    512    514    515    521     1  180.0000771  0.0000000  2
    512    514    515   1092     1  0.0000000  0.2928800  2
    512    514    515   1092     1  0.0000000  0.4184000  4
    513    511    512    514     1  0.0000000  0.6508444  3
    513    511    518    519     1  0.0000000  0.6508444  3
    513    516    517    522     1  180.0000771  0.0000000  2
    513    516    517   1118     1  0.0000000  0.2928800  2
    513    516    517   1118     1  0.0000000  0.4184000  4
    514    512    511    518     1  0.0000000  0.6508444  3
    514    515   1092   1091     1  180.0000771  6.2760000  1
    514    515   1092   1091     1  0.0000000  0.0000000  2
    515   1092   1091   1090     1  0.0000000  2.2175200  1
    515   1092   1091   1090     1  0.0000000  0.0000000  2
    515   1092   1091   1090     1  180.0000771  0.6276000  3
    515   1092   1091   1090     1  180.0000771  2.0920000  4
    516    513    511    518     1  0.0000000  0.6508444  3
    516    517   1118   1117     1  180.0000771  6.2760000  1
    516    517   1118   1117     1  0.0000000  0.0000000  2
    517   1118   1117   1116     1  0.0000000  2.2175200  1
    517   1118   1117   1116     1  0.0000000  0.0000000  2
    517   1118   1117   1116     1  180.0000771  0.6276000  3
    517   1118   1117   1116     1  180.0000771  2.0920000  4
    521    515   1092   1091     1  180.0000771  10.4600000  2
    522    517   1118   1117     1  180.0000771  10.4600000  2
    537    538    540    541     1  0.0000000  0.6508444  3
    537    539    542    543     1  0.0000000  0.6508444  3
    537    544    545    546     1  0.0000000  0.6508444  3
    538    537    539    542     1  0.0000000  0.6508444  3
    538    537    544    545     1  0.0000000  0.6508444  3
    538    540    541    547     1  180.0000771  0.0000000  2
    538    540    541   1144     1  0.0000000  0.2928800  2
    538    540    541   1144     1  0.0000000  0.4184000  4
    539    537    538    540     1  0.0000000  0.6508444  3
    539    537    544    545     1  0.0000000  0.6508444  3
    539    542    543    548     1  180.0000771  0.0000000  2
    539    542    543   1170     1  0.0000000  0.2928800  2
    539    542    543   1170     1  0.0000000  0.4184000  4
    540    538    537    544     1  0.0000000  0.6508444  3
    540    541   1144   1143     1  180.0000771  6.2760000  1
    540    541   1144   1143     1  0.0000000  0.0000000  2
    541   1144   1143   1142     1  0.0000000  2.2175200  1
    541   1144   1143   1142     1  0.0000000  0.0000000  2
    541   1144   1143   1142     1  180.0000771  0.6276000  3
    541   1144   1143   1142     1  180.0000771  2.0920000  4
    542    539    537    544     1  0.0000000  0.6508444  3
    542    543   1170   1169     1  180.0000771  6.2760000  1
    542    543   1170   1169     1  0.0000000  0.0000000  2
    543   1170   1169   1168     1  0.0000000  2.2175200  1
    543   1170   1169   1168     1  0.0000000  0.0000000  2
    543   1170   1169   1168     1  180.0000771  0.6276000  3
    543   1170   1169   1168     1  180.0000771  2.0920000  4
    547    541   1144   1143     1  180.0000771  10.4600000  2
    548    543   1170   1169     1  180.0000771  10.4600000  2
    563    564    566    567     1  0.0000000  0.6508444  3
    563    565    568    569     1  0.0000000  0.6508444  3
    563    570    571    572     1  0.0000000  0.6508444  3
    564    563    565    568     1  0.0000000  0.6508444  3
    564    563    570    571     1  0.0000000  0.6508444  3
    564    566    567    573     1  180.0000771  0.0000000  2
    564    566    567   1196     1  0.0000000  0.2928800  2
    564    566    567   1196     1  0.0000000  0.4184000  4
    565    563    564    566     1  0.0000000  0.6508444  3
    565    563    570    571     1  0.0000000  0.6508444  3
    565    568    569    574     1  180.0000771  0.0000000  2
    565    568    569   1222     1  0.0000000  0.2928800  2
    565    568    569   1222     1  0.0000000  0.4184000  4
    566    564    563    570     1  0.0000000  0.6508444  3
    566    567   1196   1195     1  180.0000771  6.2760000  1
    566    567   1196   1195     1  0.0000000  0.0000000  2
    567   1196   1195   1194     1  0.0000000  2.2175200  1
    567   1196   1195   1194     1  0.0000000  0.0000000  2
    567   1196   1195   1194     1  180.0000771  0.6276000  3
    567   1196   1195   1194     1  180.0000771  2.0920000  4
    568    565    563    570     1  0.0000000  0.6508444  3
    568    569   1222   1221     1  180.0000771  6.2760000  1
    568    569   1222   1221     1  0.0000000  0.0000000  2
    569   1222   1221   1220     1  0.0000000  2.2175200  1
    569   1222   1221   1220     1  0.0000000  0.0000000  2
    569   1222   1221   1220     1  180.0000771  0.6276000  3
    569   1222   1221   1220     1  180.0000771  2.0920000  4
    573    567   1196   1195     1  180.0000771  10.4600000  2
    574    569   1222   1221     1  180.0000771  10.4600000  2
    589    590    592    593     1  0.0000000  0.6508444  3
    589    591    594    595     1  0.0000000  0.6508444  3
    589    596    597    598     1  0.0000000  0.6508444  3
    590    589    591    594     1  0.0000000  0.6508444  3
    590    589    596    597     1  0.0000000  0.6508444  3
    590    592    593    599     1  180.0000771  0.0000000  2
    590    592    593   1248     1  0.0000000  0.2928800  2
    590    592    593   1248     1  0.0000000  0.4184000  4
    591    589    590    592     1  0.0000000  0.6508444  3
    591    589    596    597     1  0.0000000  0.6508444  3
    591    594    595    600     1  180.0000771  0.0000000  2
    591    594    595   1274     1  0.0000000  0.2928800  2
    591    594    595   1274     1  0.0000000  0.4184000  4
    592    590    589    596     1  0.0000000  0.6508444  3
    592    593   1248   1247     1  180.0000771  6.2760000  1
    592    593   1248   1247     1  0.0000000  0.0000000  2
    593   1248   1247   1246     1  0.0000000  2.2175200  1
    593   1248   1247   1246     1  0.0000000  0.0000000  2
    593   1248   1247   1246     1  180.0000771  0.6276000  3
    593   1248   1247   1246     1  180.0000771  2.0920000  4
    594    591    589    596     1  0.0000000  0.6508444  3
    594    595   1274   1273     1  180.0000771  6.2760000  1
    594    595   1274   1273     1  0.0000000  0.0000000  2
    595   1274   1273   1272     1  0.0000000  2.2175200  1
    595   1274   1273   1272     1  0.0000000  0.0000000  2
    595   1274   1273   1272     1  180.0000771  0.6276000  3
    595   1274   1273   1272     1  180.0000771  2.0920000  4
    599    593   1248   1247     1  180.0000771  10.4600000  2
    600    595   1274   1273     1  180.0000771  10.4600000  2
    615    616    618    619     1  0.0000000  0.6508444  3
    615    617    620    621     1  0.0000000  0.6508444  3
    615    622    623    624     1  0.0000000  0.6508444  3
    616    615    617    620     1  0.0000000  0.6508444  3
    616    615    622    623     1  0.0000000  0.6508444  3
    616    618    619    625     1  180.0000771  0.0000000  2
    616    618    619   1300     1  0.0000000  0.2928800  2
    616    618    619   1300     1  0.0000000  0.4184000  4
    617    615    616    618     1  0.0000000  0.6508444  3
    617    615    622    623     1  0.0000000  0.6508444  3
    617    620    621    626     1  180.0000771  0.0000000  2
    617    620    621   1326     1  0.0000000  0.2928800  2
    617    620    621   1326     1  0.0000000  0.4184000  4
    618    616    615    622     1  0.0000000  0.6508444  3
    618    619   1300   1299     1  180.0000771  6.2760000  1
    618    619   1300   1299     1  0.0000000  0.0000000  2
    619   1300   1299   1298     1  0.0000000  2.2175200  1
    619   1300   1299   1298     1  0.0000000  0.0000000  2
    619   1300   1299   1298     1  180.0000771  0.6276000  3
    619   1300   1299   1298     1  180.0000771  2.0920000  4
    620    617    615    622     1  0.0000000  0.6508444  3
    620    621   1326   1325     1  180.0000771  6.2760000  1
    620    621   1326   1325     1  0.0000000  0.0000000  2
    621   1326   1325   1324     1  0.0000000  2.2175200  1
    621   1326   1325   1324     1  0.0000000  0.0000000  2
    621   1326   1325   1324     1  180.0000771  0.6276000  3
    621   1326   1325   1324     1  180.0000771  2.0920000  4
    625    619   1300   1299     1  180.0000771  10.4600000  2
    626    621   1326   1325     1  180.0000771  10.4600000  2
    641    642    644    645     1  0.0000000  0.6508444  3
    641    643    646    647     1  0.0000000  0.6508444  3
    641    648    649    650     1  0.0000000  0.6508444  3
    642    641    643    646     1  0.0000000  0.6508444  3
    642    641    648    649     1  0.0000000  0.6508444  3
    642    644    645    651     1  180.0000771  0.0000000  2
    642    644    645   1352     1  0.0000000  0.2928800  2
    642    644    645   1352     1  0.0000000  0.4184000  4
    643    641    642    644     1  0.0000000  0.6508444  3
    643    641    648    649     1  0.0000000  0.6508444  3
    643    646    647    652     1  180.0000771  0.0000000  2
    643    646    647   1378     1  0.0000000  0.2928800  2
    643    646    647   1378     1  0.0000000  0.4184000  4
    644    642    641    648     1  0.0000000  0.6508444  3
    644    645   1352   1351     1  180.0000771  6.2760000  1
    644    645   1352   1351     1  0.0000000  0.0000000  2
    645   1352   1351   1350     1  0.0000000  2.2175200  1
    645   1352   1351   1350     1  0.0000000  0.0000000  2
    645   1352   1351   1350     1  180.0000771  0.6276000  3
    645   1352   1351   1350     1  180.0000771  2.0920000  4
    646    643    641    648     1  0.0000000  0.6508444  3
    646    647   1378   1377     1  180.0000771  6.2760000  1
    646    647   1378   1377     1  0.0000000  0.0000000  2
    647   1378   1377   1376     1  0.0000000  2.2175200  1
    647   1378   1377   1376     1  0.0000000  0.0000000  2
    647   1378   1377   1376     1  180.0000771  0.6276000  3
    647   1378   1377   1376     1  180.0000771  2.0920000  4
    651    645   1352   1351     1  180.0000771  10.4600000  2
    652    647   1378   1377     1  180.0000771  10.4600000  2
    667    668    670    671     1  0.0000000  0.6508444  3
    667    669    672    673     1  0.0000000  0.6508444  3
    667    674    675    676     1  0.0000000  0.6508444  3
    668    667    669    672     1  0.0000000  0.6508444  3
    668    667    674    675     1  0.0000000  0.6508444  3
    668    670    671    677     1  180.0000771  0.0000000  2
    668    670    671   1404     1  0.0000000  0.2928800  2
    668    670    671   1404     1  0.0000000  0.4184000  4
    669    667    668    670     1  0.0000000  0.6508444  3
    669    667    674    675     1  0.0000000  0.6508444  3
    669    672    673    678     1  180.0000771  0.0000000  2
    669    672    673   1430     1  0.0000000  0.2928800  2
    669    672    673   1430     1  0.0000000  0.4184000  4
    670    668    667    674     1  0.0000000  0.6508444  3
    670    671   1404   1403     1  180.0000771  6.2760000  1
    670    671   1404   1403     1  0.0000000  0.0000000  2
    671   1404   1403   1402     1  0.0000000  2.2175200  1
    671   1404   1403   1402     1  0.0000000  0.0000000  2
    671   1404   1403   1402     1  180.0000771  0.6276000  3
    671   1404   1403   1402     1  180.0000771  2.0920000  4
    672    669    667    674     1  0.0000000  0.6508444  3
    672    673   1430   1429     1  180.0000771  6.2760000  1
    672    673   1430   1429     1  0.0000000  0.0000000  2
    673   1430   1429   1428     1  0.0000000  2.2175200  1
    673   1430   1429   1428     1  0.0000000  0.0000000  2
    673   1430   1429   1428     1  180.0000771  0.6276000  3
    673   1430   1429   1428     1  180.0000771  2.0920000  4
    677    671   1404   1403     1  180.0000771  10.4600000  2
    678    673   1430   1429     1  180.0000771  10.4600000  2
    693    694    696    697     1  0.0000000  0.6508444  3
    693    695    698    699     1  0.0000000  0.6508444  3
    693    700    701    702     1  0.0000000  0.6508444  3
    694    693    695    698     1  0.0000000  0.6508444  3
    694    693    700    701     1  0.0000000  0.6508444  3
    694    696    697    703     1  180.0000771  0.0000000  2
    694    696    697   1456     1  0.0000000  0.2928800  2
    694    696    697   1456     1  0.0000000  0.4184000  4
    695    693    694    696     1  0.0000000  0.6508444  3
    695    693    700    701     1  0.0000000  0.6508444  3
    695    698    699    704     1  180.0000771  0.0000000  2
    695    698    699   1482     1  0.0000000  0.2928800  2
    695    698    699   1482     1  0.0000000  0.4184000  4
    696    694    693    700     1  0.0000000  0.6508444  3
    696    697   1456   1455     1  180.0000771  6.2760000  1
    696    697   1456   1455     1  0.0000000  0.0000000  2
    697   1456   1455   1454     1  0.0000000  2.2175200  1
    697   1456   1455   1454     1  0.0000000  0.0000000  2
    697   1456   1455   1454     1  180.0000771  0.6276000  3
    697   1456   1455   1454     1  180.0000771  2.0920000  4
    698    695    693    700     1  0.0000000  0.6508444  3
    698    699   1482   1481     1  180.0000771  6.2760000  1
    698    699   1482   1481     1  0.0000000  0.0000000  2
    699   1482   1481   1480     1  0.0000000  2.2175200  1
    699   1482   1481   1480     1  0.0000000  0.0000000  2
    699   1482   1481   1480     1  180.0000771  0.6276000  3
    699   1482   1481   1480     1  180.0000771  2.0920000  4
    703    697   1456   1455     1  180.0000771  10.4600000  2
    704    699   1482   1481     1  180.0000771  10.4600000  2
    719    720    722    723     1  0.0000000  0.6508444  3
    719    721    724    725     1  0.0000000  0.6508444  3
    719    726    727    728     1  0.0000000  0.6508444  3
    720    719    721    724     1  0.0000000  0.6508444  3
    720    719    726    727     1  0.0000000  0.6508444  3
    720    722    723    729     1  180.0000771  0.0000000  2
    720    722    723   1508     1  0.0000000  0.2928800  2
    720    722    723   1508     1  0.0000000  0.4184000  4
    721    719    720    722     1  0.0000000  0.6508444  3
    721    719    726    727     1  0.0000000  0.6508444  3
    721    724    725    730     1  180.0000771  0.0000000  2
    721    724    725   1534     1  0.0000000  0.2928800  2
    721    724    725   1534     1  0.0000000  0.4184000  4
    722    720    719    726     1  0.0000000  0.6508444  3
    722    723   1508   1507     1  180.0000771  6.2760000  1
    722    723   1508   1507     1  0.0000000  0.0000000  2
    723   1508   1507   1506     1  0.0000000  2.2175200  1
    723   1508   1507   1506     1  0.0000000  0.0000000  2
    723   1508   1507   1506     1  180.0000771  0.6276000  3
    723   1508   1507   1506     1  180.0000771  2.0920000  4
    724    721    719    726     1  0.0000000  0.6508444  3
    724    725   1534   1533     1  180.0000771  6.2760000  1
    724    725   1534   1533     1  0.0000000  0.0000000  2
    725   1534   1533   1532     1  0.0000000  2.2175200  1
    725   1534   1533   1532     1  0.0000000  0.0000000  2
    725   1534   1533   1532     1  180.0000771  0.6276000  3
    725   1534   1533   1532     1  180.0000771  2.0920000  4
    729    723   1508   1507     1  180.0000771  10.4600000  2
    730    725   1534   1533     1  180.0000771  10.4600000  2
    745    746    748    749     1  0.0000000  0.6508444  3
    745    747    750    751     1  0.0000000  0.6508444  3
    745    752    753    754     1  0.0000000  0.6508444  3
    746    745    747    750     1  0.0000000  0.6508444  3
    746    745    752    753     1  0.0000000  0.6508444  3
    746    748    749    755     1  180.0000771  0.0000000  2
    746    748    749   1560     1  0.0000000  0.2928800  2
    746    748    749   1560     1  0.0000000  0.4184000  4
    747    745    746    748     1  0.0000000  0.6508444  3
    747    745    752    753     1  0.0000000  0.6508444  3
    747    750    751    756     1  180.0000771  0.0000000  2
    747    750    751   1586     1  0.0000000  0.2928800  2
    747    750    751   1586     1  0.0000000  0.4184000  4
    748    746    745    752     1  0.0000000  0.6508444  3
    748    749   1560   1559     1  180.0000771  6.2760000  1
    748    749   1560   1559     1  0.0000000  0.0000000  2
    749   1560   1559   1558     1  0.0000000  2.2175200  1
    749   1560   1559   1558     1  0.0000000  0.0000000  2
    749   1560   1559   1558     1  180.0000771  0.6276000  3
    749   1560   1559   1558     1  180.0000771  2.0920000  4
    750    747    745    752     1  0.0000000  0.6508444  3
    750    751   1586   1585     1  180.0000771  6.2760000  1
    750    751   1586   1585     1  0.0000000  0.0000000  2
    751   1586   1585   1584     1  0.0000000  2.2175200  1
    751   1586   1585   1584     1  0.0000000  0.0000000  2
    751   1586   1585   1584     1  180.0000771  0.6276000  3
    751   1586   1585   1584     1  180.0000771  2.0920000  4
    755    749   1560   1559     1  180.0000771  10.4600000  2
    756    751   1586   1585     1  180.0000771  10.4600000  2
    771    772    774    775     1  0.0000000  0.6508444  3
    771    773    776    777     1  0.0000000  0.6508444  3
    771    778    779    780     1  0.0000000  0.6508444  3
    772    771    773    776     1  0.0000000  0.6508444  3
    772    771    778    779     1  0.0000000  0.6508444  3
    772    774    775   1603     1  0.0000000  0.2928800  2
    772    774    775   1603     1  0.0000000  0.4184000  4
    772    774    775    781     1  180.0000771  0.0000000  2
    773    771    772    774     1  0.0000000  0.6508444  3
    773    771    778    779     1  0.0000000  0.6508444  3
    773    776    777    782     1  180.0000771  0.0000000  2
    773    776    777   1677     1  0.0000000  0.2928800  2
    773    776    777   1677     1  0.0000000  0.4184000  4
    774    772    771    778     1  0.0000000  0.6508444  3
    774    775   1603   1605     1  180.0000771  6.2760000  1
    774    775   1603   1605     1  0.0000000  0.0000000  2
    775   1603   1605   1607     1  0.0000000  2.2175200  1
    775   1603   1605   1607     1  0.0000000  0.0000000  2
    775   1603   1605   1607     1  180.0000771  0.6276000  3
    775   1603   1605   1607     1  180.0000771  2.0920000  4
    776    773    771    778     1  0.0000000  0.6508444  3
    776    777   1677   1679     1  180.0000771  6.2760000  1
    776    777   1677   1679     1  0.0000000  0.0000000  2
    777   1677   1679   1681     1  0.0000000  2.2175200  1
    777   1677   1679   1681     1  0.0000000  0.0000000  2
    777   1677   1679   1681     1  180.0000771  0.6276000  3
    777   1677   1679   1681     1  180.0000771  2.0920000  4
    781    775   1603   1605     1  180.0000771  10.4600000  2
    782    777   1677   1679     1  180.0000771  10.4600000  2
    797    798    800    801     1  0.0000000  0.6508444  3
    797    799    802    803     1  0.0000000  0.6508444  3
    797    804    805    806     1  0.0000000  0.6508444  3
    798    797    799    802     1  0.0000000  0.6508444  3
    798    797    804    805     1  0.0000000  0.6508444  3
    798    800    801   1751     1  0.0000000  0.2928800  2
    798    800    801   1751     1  0.0000000  0.4184000  4
    798    800    801    807     1  180.0000771  0.0000000  2
    799    797    798    800     1  0.0000000  0.6508444  3
    799    797    804    805     1  0.0000000  0.6508444  3
    799    802    803    808     1  180.0000771  0.0000000  2
    799    802    803   1825     1  0.0000000  0.2928800  2
    799    802    803   1825     1  0.0000000  0.4184000  4
    800    798    797    804     1  0.0000000  0.6508444  3
    800    801   1751   1753     1  180.0000771  6.2760000  1
    800    801   1751   1753     1  0.0000000  0.0000000  2
    801   1751   1753   1755     1  0.0000000  2.2175200  1
    801   1751   1753   1755     1  0.0000000  0.0000000  2
    801   1751   1753   1755     1  180.0000771  0.6276000  3
    801   1751   1753   1755     1  180.0000771  2.0920000  4
    802    799    797    804     1  0.0000000  0.6508444  3
    802    803   1825   1827     1  180.0000771  6.2760000  1
    802    803   1825   1827     1  0.0000000  0.0000000  2
    803   1825   1827   1829     1  0.0000000  2.2175200  1
    803   1825   1827   1829     1  0.0000000  0.0000000  2
    803   1825   1827   1829     1  180.0000771  0.6276000  3
    803   1825   1827   1829     1  180.0000771  2.0920000  4
    807    801   1751   1753     1  180.0000771  10.4600000  2
    808    803   1825   1827     1  180.0000771  10.4600000  2
    823    824    826    827     1  0.0000000  0.6508444  3
    823    825    828    829     1  0.0000000  0.6508444  3
    823    830    831    832     1  0.0000000  0.6508444  3
    824    823    825    828     1  0.0000000  0.6508444  3
    824    823    830    831     1  0.0000000  0.6508444  3
    824    826    827   1899     1  0.0000000  0.2928800  2
    824    826    827   1899     1  0.0000000  0.4184000  4
    824    826    827    833     1  180.0000771  0.0000000  2
    825    823    824    826     1  0.0000000  0.6508444  3
    825    823    830    831     1  0.0000000  0.6508444  3
    825    828    829    834     1  180.0000771  0.0000000  2
    825    828    829   1973     1  0.0000000  0.2928800  2
    825    828    829   1973     1  0.0000000  0.4184000  4
    826    824    823    830     1  0.0000000  0.6508444  3
    826    827   1899   1901     1  180.0000771  6.2760000  1
    826    827   1899   1901     1  0.0000000  0.0000000  2
    827   1899   1901   1903     1  0.0000000  2.2175200  1
    827   1899   1901   1903     1  0.0000000  0.0000000  2
    827   1899   1901   1903     1  180.0000771  0.6276000  3
    827   1899   1901   1903     1  180.0000771  2.0920000  4
    828    825    823    830     1  0.0000000  0.6508444  3
    828    829   1973   1975     1  180.0000771  6.2760000  1
    828    829   1973   1975     1  0.0000000  0.0000000  2
    829   1973   1975   1977     1  0.0000000  2.2175200  1
    829   1973   1975   1977     1  0.0000000  0.0000000  2
    829   1973   1975   1977     1  180.0000771  0.6276000  3
    829   1973   1975   1977     1  180.0000771  2.0920000  4
    833    827   1899   1901     1  180.0000771  10.4600000  2
    834    829   1973   1975     1  180.0000771  10.4600000  2
    849    850    852    853     1  0.0000000  0.6508444  3
    849    851    854    855     1  0.0000000  0.6508444  3
    849    856    857    858     1  0.0000000  0.6508444  3
    850    849    851    854     1  0.0000000  0.6508444  3
    850    849    856    857     1  0.0000000  0.6508444  3
    850    852    853   2047     1  0.0000000  0.2928800  2
    850    852    853   2047     1  0.0000000  0.4184000  4
    850    852    853    859     1  180.0000771  0.0000000  2
    851    849    850    852     1  0.0000000  0.6508444  3
    851    849    856    857     1  0.0000000  0.6508444  3
    851    854    855    860     1  180.0000771  0.0000000  2
    851    854    855   2121     1  0.0000000  0.2928800  2
    851    854    855   2121     1  0.0000000  0.4184000  4
    852    850    849    856     1  0.0000000  0.6508444  3
    852    853   2047   2049     1  180.0000771  6.2760000  1
    852    853   2047   2049     1  0.0000000  0.0000000  2
    853   2047   2049   2051     1  0.0000000  2.2175200  1
    853   2047   2049   2051     1  0.0000000  0.0000000  2
    853   2047   2049   2051     1  180.0000771  0.6276000  3
    853   2047   2049   2051     1  180.0000771  2.0920000  4
    854    851    849    856     1  0.0000000  0.6508444  3
    854    855   2121   2123     1  180.0000771  6.2760000  1
    854    855   2121   2123     1  0.0000000  0.0000000  2
    855   2121   2123   2125     1  0.0000000  2.2175200  1
    855   2121   2123   2125     1  0.0000000  0.0000000  2
    855   2121   2123   2125     1  180.0000771  0.6276000  3
    855   2121   2123   2125     1  180.0000771  2.0920000  4
    859    853   2047   2049     1  180.0000771  10.4600000  2
    860    855   2121   2123     1  180.0000771  10.4600000  2
    875    876    878    879     1  0.0000000  0.6508444  3
    875    877    880    881     1  0.0000000  0.6508444  3
    875    882    883    884     1  0.0000000  0.6508444  3
    876    875    877    880     1  0.0000000  0.6508444  3
    876    875    882    883     1  0.0000000  0.6508444  3
    876    878    879   2195     1  0.0000000  0.2928800  2
    876    878    879   2195     1  0.0000000  0.4184000  4
    876    878    879    885     1  180.0000771  0.0000000  2
    877    875    876    878     1  0.0000000  0.6508444  3
    877    875    882    883     1  0.0000000  0.6508444  3
    877    880    881    886     1  180.0000771  0.0000000  2
    877    880    881   2269     1  0.0000000  0.2928800  2
    877    880    881   2269     1  0.0000000  0.4184000  4
    878    876    875    882     1  0.0000000  0.6508444  3
    878    879   2195   2197     1  180.0000771  6.2760000  1
    878    879   2195   2197     1  0.0000000  0.0000000  2
    879   2195   2197   2199     1  0.0000000  2.2175200  1
    879   2195   2197   2199     1  0.0000000  0.0000000  2
    879   2195   2197   2199     1  180.0000771  0.6276000  3
    879   2195   2197   2199     1  180.0000771  2.0920000  4
    880    877    875    882     1  0.0000000  0.6508444  3
    880    881   2269   2271     1  180.0000771  6.2760000  1
    880    881   2269   2271     1  0.0000000  0.0000000  2
    881   2269   2271   2273     1  0.0000000  2.2175200  1
    881   2269   2271   2273     1  0.0000000  0.0000000  2
    881   2269   2271   2273     1  180.0000771  0.6276000  3
    881   2269   2271   2273     1  180.0000771  2.0920000  4
    885    879   2195   2197     1  180.0000771  10.4600000  2
    886    881   2269   2271     1  180.0000771  10.4600000  2
    901    902    904    905     1  0.0000000  0.6508444  3
    901    903    906    907     1  0.0000000  0.6508444  3
    901    908    909    910     1  0.0000000  0.6508444  3
    902    901    903    906     1  0.0000000  0.6508444  3
    902    901    908    909     1  0.0000000  0.6508444  3
    902    904    905   2343     1  0.0000000  0.2928800  2
    902    904    905   2343     1  0.0000000  0.4184000  4
    902    904    905    911     1  180.0000771  0.0000000  2
    903    901    902    904     1  0.0000000  0.6508444  3
    903    901    908    909     1  0.0000000  0.6508444  3
    903    906    907    912     1  180.0000771  0.0000000  2
    903    906    907   2417     1  0.0000000  0.2928800  2
    903    906    907   2417     1  0.0000000  0.4184000  4
    904    902    901    908     1  0.0000000  0.6508444  3
    904    905   2343   2345     1  180.0000771  6.2760000  1
    904    905   2343   2345     1  0.0000000  0.0000000  2
    905   2343   2345   2347     1  0.0000000  2.2175200  1
    905   2343   2345   2347     1  0.0000000  0.0000000  2
    905   2343   2345   2347     1  180.0000771  0.6276000  3
    905   2343   2345   2347     1  180.0000771  2.0920000  4
    906    903    901    908     1  0.0000000  0.6508444  3
    906    907   2417   2419     1  180.0000771  6.2760000  1
    906    907   2417   2419     1  0.0000000  0.0000000  2
    907   2417   2419   2421     1  0.0000000  2.2175200  1
    907   2417   2419   2421     1  0.0000000  0.0000000  2
    907   2417   2419   2421     1  180.0000771  0.6276000  3
    907   2417   2419   2421     1  180.0000771  2.0920000  4
    911    905   2343   2345     1  180.0000771  10.4600000  2
    912    907   2417   2419     1  180.0000771  10.4600000  2
    927    928    930    931     1  0.0000000  0.6508444  3
    927    929    932    933     1  0.0000000  0.6508444  3
    927    934    935    936     1  0.0000000  0.6508444  3
    928    927    929    932     1  0.0000000  0.6508444  3
    928    927    934    935     1  0.0000000  0.6508444  3
    928    930    931   2491     1  0.0000000  0.2928800  2
    928    930    931   2491     1  0.0000000  0.4184000  4
    928    930    931    937     1  180.0000771  0.0000000  2
    929    927    928    930     1  0.0000000  0.6508444  3
    929    927    934    935     1  0.0000000  0.6508444  3
    929    932    933    938     1  180.0000771  0.0000000  2
    929    932    933   2565     1  0.0000000  0.2928800  2
    929    932    933   2565     1  0.0000000  0.4184000  4
    930    928    927    934     1  0.0000000  0.6508444  3
    930    931   2491   2493     1  180.0000771  6.2760000  1
    930    931   2491   2493     1  0.0000000  0.0000000  2
    931   2491   2493   2495     1  0.0000000  2.2175200  1
    931   2491   2493   2495     1  0.0000000  0.0000000  2
    931   2491   2493   2495     1  180.0000771  0.6276000  3
    931   2491   2493   2495     1  180.0000771  2.0920000  4
    932    929    927    934     1  0.0000000  0.6508444  3
    932    933   2565   2567     1  180.0000771  6.2760000  1
    932    933   2565   2567     1  0.0000000  0.0000000  2
    933   2565   2567   2569     1  0.0000000  2.2175200  1
    933   2565   2567   2569     1  0.0000000  0.0000000  2
    933   2565   2567   2569     1  180.0000771  0.6276000  3
    933   2565   2567   2569     1  180.0000771  2.0920000  4
    937    931   2491   2493     1  180.0000771  10.4600000  2
    938    933   2565   2567     1  180.0000771  10.4600000  2
    953    954    956    957     1  0.0000000  0.6508444  3
    953    955    958    959     1  0.0000000  0.6508444  3
    953    960    961    962     1  0.0000000  0.6508444  3
    954    953    955    958     1  0.0000000  0.6508444  3
    954    953    960    961     1  0.0000000  0.6508444  3
    954    956    957   2639     1  0.0000000  0.2928800  2
    954    956    957   2639     1  0.0000000  0.4184000  4
    954    956    957    963     1  180.0000771  0.0000000  2
    955    953    954    956     1  0.0000000  0.6508444  3
    955    953    960    961     1  0.0000000  0.6508444  3
    955    958    959    964     1  180.0000771  0.0000000  2
    955    958    959   2713     1  0.0000000  0.2928800  2
    955    958    959   2713     1  0.0000000  0.4184000  4
    956    954    953    960     1  0.0000000  0.6508444  3
    956    957   2639   2641     1  180.0000771  6.2760000  1
    956    957   2639   2641     1  0.0000000  0.0000000  2
    957   2639   2641   2643     1  0.0000000  2.2175200  1
    957   2639   2641   2643     1  0.0000000  0.0000000  2
    957   2639   2641   2643     1  180.0000771  0.6276000  3
    957   2639   2641   2643     1  180.0000771  2.0920000  4
    958    955    953    960     1  0.0000000  0.6508444  3
    958    959   2713   2715     1  180.0000771  6.2760000  1
    958    959   2713   2715     1  0.0000000  0.0000000  2
    959   2713   2715   2717     1  0.0000000  2.2175200  1
    959   2713   2715   2717     1  0.0000000  0.0000000  2
    959   2713   2715   2717     1  180.0000771  0.6276000  3
    959   2713   2715   2717     1  180.0000771  2.0920000  4
    963    957   2639   2641     1  180.0000771  10.4600000  2
    964    959   2713   2715     1  180.0000771  10.4600000  2
    979    980    982    983     1  0.0000000  0.6508444  3
    979    981    984    985     1  0.0000000  0.6508444  3
    979    986    987    988     1  0.0000000  0.6508444  3
    980    979    981    984     1  0.0000000  0.6508444  3
    980    979    986    987     1  0.0000000  0.6508444  3
    980    982    983   2787     1  0.0000000  0.2928800  2
    980    982    983   2787     1  0.0000000  0.4184000  4
    980    982    983    989     1  180.0000771  0.0000000  2
    981    979    980    982     1  0.0000000  0.6508444  3
    981    979    986    987     1  0.0000000  0.6508444  3
    981    984    985    990     1  180.0000771  0.0000000  2
    981    984    985   2861     1  0.0000000  0.2928800  2
    981    984    985   2861     1  0.0000000  0.4184000  4
    982    980    979    986     1  0.0000000  0.6508444  3
    982    983   2787   2789     1  180.0000771  6.2760000  1
    982    983   2787   2789     1  0.0000000  0.0000000  2
    983   2787   2789   2791     1  0.0000000  2.2175200  1
    983   2787   2789   2791     1  0.0000000  0.0000000  2
    983   2787   2789   2791     1  180.0000771  0.6276000  3
    983   2787   2789   2791     1  180.0000771  2.0920000  4
    984    981    979    986     1  0.0000000  0.6508444  3
    984    985   2861   2863     1  180.0000771  6.2760000  1
    984    985   2861   2863     1  0.0000000  0.0000000  2
    985   2861   2863   2865     1  0.0000000  2.2175200  1
    985   2861   2863   2865     1  0.0000000  0.0000000  2
    985   2861   2863   2865     1  180.0000771  0.6276000  3
    985   2861   2863   2865     1  180.0000771  2.0920000  4
    989    983   2787   2789     1  180.0000771  10.4600000  2
    990    985   2861   2863     1  180.0000771  10.4600000  2
   1005   1006   1008   1009     1  0.0000000  0.6508444  3
   1005   1007   1010   1011     1  0.0000000  0.6508444  3
   1005   1012   1013   1014     1  0.0000000  0.6508444  3
   1006   1005   1007   1010     1  0.0000000  0.6508444  3
   1006   1005   1012   1013     1  0.0000000  0.6508444  3
   1006   1008   1009   2935     1  0.0000000  0.2928800  2
   1006   1008   1009   2935     1  0.0000000  0.4184000  4
   1006   1008   1009   1015     1  180.0000771  0.0000000  2
   1007   1005   1006   1008     1  0.0000000  0.6508444  3
   1007   1005   1012   1013     1  0.0000000  0.6508444  3
   1007   1010   1011   1016     1  180.0000771  0.0000000  2
   1007   1010   1011   3009     1  0.0000000  0.2928800  2
   1007   1010   1011   3009     1  0.0000000  0.4184000  4
   1008   1006   1005   1012     1  0.0000000  0.6508444  3
   1008   1009   2935   2937     1  180.0000771  6.2760000  1
   1008   1009   2935   2937     1  0.0000000  0.0000000  2
   1009   2935   2937   2939     1  0.0000000  2.2175200  1
   1009   2935   2937   2939     1  0.0000000  0.0000000  2
   1009   2935   2937   2939     1  180.0000771  0.6276000  3
   1009   2935   2937   2939     1  180.0000771  2.0920000  4
   1010   1007   1005   1012     1  0.0000000  0.6508444  3
   1010   1011   3009   3011     1  180.0000771  6.2760000  1
   1010   1011   3009   3011     1  0.0000000  0.0000000  2
   1011   3009   3011   3013     1  0.0000000  2.2175200  1
   1011   3009   3011   3013     1  0.0000000  0.0000000  2
   1011   3009   3011   3013     1  180.0000771  0.6276000  3
   1011   3009   3011   3013     1  180.0000771  2.0920000  4
   1015   1009   2935   2937     1  180.0000771  10.4600000  2
   1016   1011   3009   3011     1  180.0000771  10.4600000  2
   1031   1032   1034   1035     1  0.0000000  0.6508444  3
   1031   1033   1036   1037     1  0.0000000  0.6508444  3
   1031   1038   1039   1040     1  0.0000000  0.6508444  3
   1032   1031   1033   1036     1  0.0000000  0.6508444  3
   1032   1031   1038   1039     1  0.0000000  0.6508444  3
   1032   1034   1035   3083     1  0.0000000  0.2928800  2
   1032   1034   1035   3083     1  0.0000000  0.4184000  4
   1032   1034   1035   1041     1  180.0000771  0.0000000  2
   1033   1031   1032   1034     1  0.0000000  0.6508444  3
   1033   1031   1038   1039     1  0.0000000  0.6508444  3
   1033   1036   1037   1042     1  180.0000771  0.0000000  2
   1033   1036   1037   3157     1  0.0000000  0.2928800  2
   1033   1036   1037   3157     1  0.0000000  0.4184000  4
   1034   1032   1031   1038     1  0.0000000  0.6508444  3
   1034   1035   3083   3085     1  180.0000771  6.2760000  1
   1034   1035   3083   3085     1  0.0000000  0.0000000  2
   1035   3083   3085   3087     1  0.0000000  2.2175200  1
   1035   3083   3085   3087     1  0.0000000  0.0000000  2
   1035   3083   3085   3087     1  180.0000771  0.6276000  3
   1035   3083   3085   3087     1  180.0000771  2.0920000  4
   1036   1033   1031   1038     1  0.0000000  0.6508444  3
   1036   1037   3157   3159     1  180.0000771  6.2760000  1
   1036   1037   3157   3159     1  0.0000000  0.0000000  2
   1037   3157   3159   3161     1  0.0000000  2.2175200  1
   1037   3157   3159   3161     1  0.0000000  0.0000000  2
   1037   3157   3159   3161     1  180.0000771  0.6276000  3
   1037   3157   3159   3161     1  180.0000771  2.0920000  4
   1041   1035   3083   3085     1  180.0000771  10.4600000  2
   1042   1037   3157   3159     1  180.0000771  10.4600000  2
   1057   1058   1060   1061     1  0.0000000  0.6508444  3
   1057   1059   1062   1063     1  0.0000000  0.6508444  3
   1057   1064   1065   1066     1  0.0000000  0.6508444  3
   1058   1057   1059   1062     1  0.0000000  0.6508444  3
   1058   1057   1064   1065     1  0.0000000  0.6508444  3
   1058   1060   1061   3231     1  0.0000000  0.2928800  2
   1058   1060   1061   3231     1  0.0000000  0.4184000  4
   1058   1060   1061   1067     1  180.0000771  0.0000000  2
   1059   1057   1058   1060     1  0.0000000  0.6508444  3
   1059   1057   1064   1065     1  0.0000000  0.6508444  3
   1059   1062   1063   1068     1  180.0000771  0.0000000  2
   1059   1062   1063   3305     1  0.0000000  0.2928800  2
   1059   1062   1063   3305     1  0.0000000  0.4184000  4
   1060   1058   1057   1064     1  0.0000000  0.6508444  3
   1060   1061   3231   3233     1  180.0000771  6.2760000  1
   1060   1061   3231   3233     1  0.0000000  0.0000000  2
   1061   3231   3233   3235     1  0.0000000  2.2175200  1
   1061   3231   3233   3235     1  0.0000000  0.0000000  2
   1061   3231   3233   3235     1  180.0000771  0.6276000  3
   1061   3231   3233   3235     1  180.0000771  2.0920000  4
   1062   1059   1057   1064     1  0.0000000  0.6508444  3
   1062   1063   3305   3307     1  180.0000771  6.2760000  1
   1062   1063   3305   3307     1  0.0000000  0.0000000  2
   1063   3305   3307   3309     1  0.0000000  2.2175200  1
   1063   3305   3307   3309     1  0.0000000  0.0000000  2
   1063   3305   3307   3309     1  180.0000771  0.6276000  3
   1063   3305   3307   3309     1  180.0000771  2.0920000  4
   1067   1061   3231   3233     1  180.0000771  10.4600000  2
   1068   1063   3305   3307     1  180.0000771  10.4600000  2
   1083   1084   1086   1087     1  0.0000000  0.6508444  3
   1083   1085   1088   1089     1  0.0000000  0.6508444  3
   1083   1090   1091   1092     1  0.0000000  0.6508444  3
   1084   1083   1085   1088     1  0.0000000  0.6508444  3
   1084   1083   1090   1091     1  0.0000000  0.6508444  3
   1084   1086   1087   3379     1  0.0000000  0.2928800  2
   1084   1086   1087   3379     1  0.0000000  0.4184000  4
   1084   1086   1087   1093     1  180.0000771  0.0000000  2
   1085   1083   1084   1086     1  0.0000000  0.6508444  3
   1085   1083   1090   1091     1  0.0000000  0.6508444  3
   1085   1088   1089   1094     1  180.0000771  0.0000000  2
   1085   1088   1089   3453     1  0.0000000  0.2928800  2
   1085   1088   1089   3453     1  0.0000000  0.4184000  4
   1086   1084   1083   1090     1  0.0000000  0.6508444  3
   1086   1087   3379   3381     1  180.0000771  6.2760000  1
   1086   1087   3379   3381     1  0.0000000  0.0000000  2
   1087   3379   3381   3383     1  0.0000000  2.2175200  1
   1087   3379   3381   3383     1  0.0000000  0.0000000  2
   1087   3379   3381   3383     1  180.0000771  0.6276000  3
   1087   3379   3381   3383     1  180.0000771  2.0920000  4
   1088   1085   1083   1090     1  0.0000000  0.6508444  3
   1088   1089   3453   3455     1  180.0000771  6.2760000  1
   1088   1089   3453   3455     1  0.0000000  0.0000000  2
   1089   3453   3455   3457     1  0.0000000  2.2175200  1
   1089   3453   3455   3457     1  0.0000000  0.0000000  2
   1089   3453   3455   3457     1  180.0000771  0.6276000  3
   1089   3453   3455   3457     1  180.0000771  2.0920000  4
   1093   1087   3379   3381     1  180.0000771  10.4600000  2
   1094   1089   3453   3455     1  180.0000771  10.4600000  2
   1109   1110   1112   1113     1  0.0000000  0.6508444  3
   1109   1111   1114   1115     1  0.0000000  0.6508444  3
   1109   1116   1117   1118     1  0.0000000  0.6508444  3
   1110   1109   1111   1114     1  0.0000000  0.6508444  3
   1110   1109   1116   1117     1  0.0000000  0.6508444  3
   1110   1112   1113   3527     1  0.0000000  0.2928800  2
   1110   1112   1113   3527     1  0.0000000  0.4184000  4
   1110   1112   1113   1119     1  180.0000771  0.0000000  2
   1111   1109   1110   1112     1  0.0000000  0.6508444  3
   1111   1109   1116   1117     1  0.0000000  0.6508444  3
   1111   1114   1115   1120     1  180.0000771  0.0000000  2
   1111   1114   1115   3601     1  0.0000000  0.2928800  2
   1111   1114   1115   3601     1  0.0000000  0.4184000  4
   1112   1110   1109   1116     1  0.0000000  0.6508444  3
   1112   1113   3527   3529     1  180.0000771  6.2760000  1
   1112   1113   3527   3529     1  0.0000000  0.0000000  2
   1113   3527   3529   3531     1  0.0000000  2.2175200  1
   1113   3527   3529   3531     1  0.0000000  0.0000000  2
   1113   3527   3529   3531     1  180.0000771  0.6276000  3
   1113   3527   3529   3531     1  180.0000771  2.0920000  4
   1114   1111   1109   1116     1  0.0000000  0.6508444  3
   1114   1115   3601   3603     1  180.0000771  6.2760000  1
   1114   1115   3601   3603     1  0.0000000  0.0000000  2
   1115   3601   3603   3605     1  0.0000000  2.2175200  1
   1115   3601   3603   3605     1  0.0000000  0.0000000  2
   1115   3601   3603   3605     1  180.0000771  0.6276000  3
   1115   3601   3603   3605     1  180.0000771  2.0920000  4
   1119   1113   3527   3529     1  180.0000771  10.4600000  2
   1120   1115   3601   3603     1  180.0000771  10.4600000  2
   1135   1136   1138   1139     1  0.0000000  0.6508444  3
   1135   1137   1140   1141     1  0.0000000  0.6508444  3
   1135   1142   1143   1144     1  0.0000000  0.6508444  3
   1136   1135   1137   1140     1  0.0000000  0.6508444  3
   1136   1135   1142   1143     1  0.0000000  0.6508444  3
   1136   1138   1139   3675     1  0.0000000  0.2928800  2
   1136   1138   1139   3675     1  0.0000000  0.4184000  4
   1136   1138   1139   1145     1  180.0000771  0.0000000  2
   1137   1135   1136   1138     1  0.0000000  0.6508444  3
   1137   1135   1142   1143     1  0.0000000  0.6508444  3
   1137   1140   1141   1146     1  180.0000771  0.0000000  2
   1137   1140   1141   3749     1  0.0000000  0.2928800  2
   1137   1140   1141   3749     1  0.0000000  0.4184000  4
   1138   1136   1135   1142     1  0.0000000  0.6508444  3
   1138   1139   3675   3677     1  180.0000771  6.2760000  1
   1138   1139   3675   3677     1  0.0000000  0.0000000  2
   1139   3675   3677   3679     1  0.0000000  2.2175200  1
   1139   3675   3677   3679     1  0.0000000  0.0000000  2
   1139   3675   3677   3679     1  180.0000771  0.6276000  3
   1139   3675   3677   3679     1  180.0000771  2.0920000  4
   1140   1137   1135   1142     1  0.0000000  0.6508444  3
   1140   1141   3749   3751     1  180.0000771  6.2760000  1
   1140   1141   3749   3751     1  0.0000000  0.0000000  2
   1141   3749   3751   3753     1  0.0000000  2.2175200  1
   1141   3749   3751   3753     1  0.0000000  0.0000000  2
   1141   3749   3751   3753     1  180.0000771  0.6276000  3
   1141   3749   3751   3753     1  180.0000771  2.0920000  4
   1145   1139   3675   3677     1  180.0000771  10.4600000  2
   1146   1141   3749   3751     1  180.0000771  10.4600000  2
   1161   1162   1164   1165     1  0.0000000  0.6508444  3
   1161   1163   1166   1167     1  0.0000000  0.6508444  3
   1161   1168   1169   1170     1  0.0000000  0.6508444  3
   1162   1161   1163   1166     1  0.0000000  0.6508444  3
   1162   1161   1168   1169     1  0.0000000  0.6508444  3
   1162   1164   1165   3823     1  0.0000000  0.2928800  2
   1162   1164   1165   3823     1  0.0000000  0.4184000  4
   1162   1164   1165   1171     1  180.0000771  0.0000000  2
   1163   1161   1162   1164     1  0.0000000  0.6508444  3
   1163   1161   1168   1169     1  0.0000000  0.6508444  3
   1163   1166   1167   1172     1  180.0000771  0.0000000  2
   1163   1166   1167   3897     1  0.0000000  0.2928800  2
   1163   1166   1167   3897     1  0.0000000  0.4184000  4
   1164   1162   1161   1168     1  0.0000000  0.6508444  3
   1164   1165   3823   3825     1  180.0000771  6.2760000  1
   1164   1165   3823   3825     1  0.0000000  0.0000000  2
   1165   3823   3825   3827     1  0.0000000  2.2175200  1
   1165   3823   3825   3827     1  0.0000000  0.0000000  2
   1165   3823   3825   3827     1  180.0000771  0.6276000  3
   1165   3823   3825   3827     1  180.0000771  2.0920000  4
   1166   1163   1161   1168     1  0.0000000  0.6508444  3
   1166   1167   3897   3899     1  180.0000771  6.2760000  1
   1166   1167   3897   3899     1  0.0000000  0.0000000  2
   1167   3897   3899   3901     1  0.0000000  2.2175200  1
   1167   3897   3899   3901     1  0.0000000  0.0000000  2
   1167   3897   3899   3901     1  180.0000771  0.6276000  3
   1167   3897   3899   3901     1  180.0000771  2.0920000  4
   1171   1165   3823   3825     1  180.0000771  10.4600000  2
   1172   1167   3897   3899     1  180.0000771  10.4600000  2
   1187   1188   1190   1191     1  0.0000000  0.6508444  3
   1187   1189   1192   1193     1  0.0000000  0.6508444  3
   1187   1194   1195   1196     1  0.0000000  0.6508444  3
   1188   1187   1189   1192     1  0.0000000  0.6508444  3
   1188   1187   1194   1195     1  0.0000000  0.6508444  3
   1188   1190   1191   3971     1  0.0000000  0.2928800  2
   1188   1190   1191   3971     1  0.0000000  0.4184000  4
   1188   1190   1191   1197     1  180.0000771  0.0000000  2
   1189   1187   1188   1190     1  0.0000000  0.6508444  3
   1189   1187   1194   1195     1  0.0000000  0.6508444  3
   1189   1192   1193   1198     1  180.0000771  0.0000000  2
   1189   1192   1193   4045     1  0.0000000  0.2928800  2
   1189   1192   1193   4045     1  0.0000000  0.4184000  4
   1190   1188   1187   1194     1  0.0000000  0.6508444  3
   1190   1191   3971   3973     1  180.0000771  6.2760000  1
   1190   1191   3971   3973     1  0.0000000  0.0000000  2
   1191   3971   3973   3975     1  0.0000000  2.2175200  1
   1191   3971   3973   3975     1  0.0000000  0.0000000  2
   1191   3971   3973   3975     1  180.0000771  0.6276000  3
   1191   3971   3973   3975     1  180.0000771  2.0920000  4
   1192   1189   1187   1194     1  0.0000000  0.6508444  3
   1192   1193   4045   4047     1  180.0000771  6.2760000  1
   1192   1193   4045   4047     1  0.0000000  0.0000000  2
   1193   4045   4047   4049     1  0.0000000  2.2175200  1
   1193   4045   4047   4049     1  0.0000000  0.0000000  2
   1193   4045   4047   4049     1  180.0000771  0.6276000  3
   1193   4045   4047   4049     1  180.0000771  2.0920000  4
   1197   1191   3971   3973     1  180.0000771  10.4600000  2
   1198   1193   4045   4047     1  180.0000771  10.4600000  2
   1213   1214   1216   1217     1  0.0000000  0.6508444  3
   1213   1215   1218   1219     1  0.0000000  0.6508444  3
   1213   1220   1221   1222     1  0.0000000  0.6508444  3
   1214   1213   1215   1218     1  0.0000000  0.6508444  3
   1214   1213   1220   1221     1  0.0000000  0.6508444  3
   1214   1216   1217   4119     1  0.0000000  0.2928800  2
   1214   1216   1217   4119     1  0.0000000  0.4184000  4
   1214   1216   1217   1223     1  180.0000771  0.0000000  2
   1215   1213   1214   1216     1  0.0000000  0.6508444  3
   1215   1213   1220   1221     1  0.0000000  0.6508444  3
   1215   1218   1219   1224     1  180.0000771  0.0000000  2
   1215   1218   1219   4193     1  0.0000000  0.2928800  2
   1215   1218   1219   4193     1  0.0000000  0.4184000  4
   1216   1214   1213   1220     1  0.0000000  0.6508444  3
   1216   1217   4119   4121     1  180.0000771  6.2760000  1
   1216   1217   4119   4121     1  0.0000000  0.0000000  2
   1217   4119   4121   4123     1  0.0000000  2.2175200  1
   1217   4119   4121   4123     1  0.0000000  0.0000000  2
   1217   4119   4121   4123     1  180.0000771  0.6276000  3
   1217   4119   4121   4123     1  180.0000771  2.0920000  4
   1218   1215   1213   1220     1  0.0000000  0.6508444  3
   1218   1219   4193   4195     1  180.0000771  6.2760000  1
   1218   1219   4193   4195     1  0.0000000  0.0000000  2
   1219   4193   4195   4197     1  0.0000000  2.2175200  1
   1219   4193   4195   4197     1  0.0000000  0.0000000  2
   1219   4193   4195   4197     1  180.0000771  0.6276000  3
   1219   4193   4195   4197     1  180.0000771  2.0920000  4
   1223   1217   4119   4121     1  180.0000771  10.4600000  2
   1224   1219   4193   4195     1  180.0000771  10.4600000  2
   1239   1240   1242   1243     1  0.0000000  0.6508444  3
   1239   1241   1244   1245     1  0.0000000  0.6508444  3
   1239   1246   1247   1248     1  0.0000000  0.6508444  3
   1240   1239   1241   1244     1  0.0000000  0.6508444  3
   1240   1239   1246   1247     1  0.0000000  0.6508444  3
   1240   1242   1243   4267     1  0.0000000  0.2928800  2
   1240   1242   1243   4267     1  0.0000000  0.4184000  4
   1240   1242   1243   1249     1  180.0000771  0.0000000  2
   1241   1239   1240   1242     1  0.0000000  0.6508444  3
   1241   1239   1246   1247     1  0.0000000  0.6508444  3
   1241   1244   1245   1250     1  180.0000771  0.0000000  2
   1241   1244   1245   4341     1  0.0000000  0.2928800  2
   1241   1244   1245   4341     1  0.0000000  0.4184000  4
   1242   1240   1239   1246     1  0.0000000  0.6508444  3
   1242   1243   4267   4269     1  180.0000771  6.2760000  1
   1242   1243   4267   4269     1  0.0000000  0.0000000  2
   1243   4267   4269   4271     1  0.0000000  2.2175200  1
   1243   4267   4269   4271     1  0.0000000  0.0000000  2
   1243   4267   4269   4271     1  180.0000771  0.6276000  3
   1243   4267   4269   4271     1  180.0000771  2.0920000  4
   1244   1241   1239   1246     1  0.0000000  0.6508444  3
   1244   1245   4341   4343     1  180.0000771  6.2760000  1
   1244   1245   4341   4343     1  0.0000000  0.0000000  2
   1245   4341   4343   4345     1  0.0000000  2.2175200  1
   1245   4341   4343   4345     1  0.0000000  0.0000000  2
   1245   4341   4343   4345     1  180.0000771  0.6276000  3
   1245   4341   4343   4345     1  180.0000771  2.0920000  4
   1249   1243   4267   4269     1  180.0000771  10.4600000  2
   1250   1245   4341   4343     1  180.0000771  10.4600000  2
   1265   1266   1268   1269     1  0.0000000  0.6508444  3
   1265   1267   1270   1271     1  0.0000000  0.6508444  3
   1265   1272   1273   1274     1  0.0000000  0.6508444  3
   1266   1265   1267   1270     1  0.0000000  0.6508444  3
   1266   1265   1272   1273     1  0.0000000  0.6508444  3
   1266   1268   1269   4415     1  0.0000000  0.2928800  2
   1266   1268   1269   4415     1  0.0000000  0.4184000  4
   1266   1268   1269   1275     1  180.0000771  0.0000000  2
   1267   1265   1266   1268     1  0.0000000  0.6508444  3
   1267   1265   1272   1273     1  0.0000000  0.6508444  3
   1267   1270   1271   1276     1  180.0000771  0.0000000  2
   1267   1270   1271   4489     1  0.0000000  0.2928800  2
   1267   1270   1271   4489     1  0.0000000  0.4184000  4
   1268   1266   1265   1272     1  0.0000000  0.6508444  3
   1268   1269   4415   4417     1  180.0000771  6.2760000  1
   1268   1269   4415   4417     1  0.0000000  0.0000000  2
   1269   4415   4417   4419     1  0.0000000  2.2175200  1
   1269   4415   4417   4419     1  0.0000000  0.0000000  2
   1269   4415   4417   4419     1  180.0000771  0.6276000  3
   1269   4415   4417   4419     1  180.0000771  2.0920000  4
   1270   1267   1265   1272     1  0.0000000  0.6508444  3
   1270   1271   4489   4491     1  180.0000771  6.2760000  1
   1270   1271   4489   4491     1  0.0000000  0.0000000  2
   1271   4489   4491   4493     1  0.0000000  2.2175200  1
   1271   4489   4491   4493     1  0.0000000  0.0000000  2
   1271   4489   4491   4493     1  180.0000771  0.6276000  3
   1271   4489   4491   4493     1  180.0000771  2.0920000  4
   1275   1269   4415   4417     1  180.0000771  10.4600000  2
   1276   1271   4489   4491     1  180.0000771  10.4600000  2
   1291   1292   1294   1295     1  0.0000000  0.6508444  3
   1291   1293   1296   1297     1  0.0000000  0.6508444  3
   1291   1298   1299   1300     1  0.0000000  0.6508444  3
   1292   1291   1293   1296     1  0.0000000  0.6508444  3
   1292   1291   1298   1299     1  0.0000000  0.6508444  3
   1292   1294   1295   4563     1  0.0000000  0.2928800  2
   1292   1294   1295   4563     1  0.0000000  0.4184000  4
   1292   1294   1295   1301     1  180.0000771  0.0000000  2
   1293   1291   1292   1294     1  0.0000000  0.6508444  3
   1293   1291   1298   1299     1  0.0000000  0.6508444  3
   1293   1296   1297   1302     1  180.0000771  0.0000000  2
   1293   1296   1297   4637     1  0.0000000  0.2928800  2
   1293   1296   1297   4637     1  0.0000000  0.4184000  4
   1294   1292   1291   1298     1  0.0000000  0.6508444  3
   1294   1295   4563   4565     1  180.0000771  6.2760000  1
   1294   1295   4563   4565     1  0.0000000  0.0000000  2
   1295   4563   4565   4567     1  0.0000000  2.2175200  1
   1295   4563   4565   4567     1  0.0000000  0.0000000  2
   1295   4563   4565   4567     1  180.0000771  0.6276000  3
   1295   4563   4565   4567     1  180.0000771  2.0920000  4
   1296   1293   1291   1298     1  0.0000000  0.6508444  3
   1296   1297   4637   4639     1  180.0000771  6.2760000  1
   1296   1297   4637   4639     1  0.0000000  0.0000000  2
   1297   4637   4639   4641     1  0.0000000  2.2175200  1
   1297   4637   4639   4641     1  0.0000000  0.0000000  2
   1297   4637   4639   4641     1  180.0000771  0.6276000  3
   1297   4637   4639   4641     1  180.0000771  2.0920000  4
   1301   1295   4563   4565     1  180.0000771  10.4600000  2
   1302   1297   4637   4639     1  180.0000771  10.4600000  2
   1317   1318   1320   1321     1  0.0000000  0.6508444  3
   1317   1319   1322   1323     1  0.0000000  0.6508444  3
   1317   1324   1325   1326     1  0.0000000  0.6508444  3
   1318   1317   1319   1322     1  0.0000000  0.6508444  3
   1318   1317   1324   1325     1  0.0000000  0.6508444  3
   1318   1320   1321   4711     1  0.0000000  0.2928800  2
   1318   1320   1321   4711     1  0.0000000  0.4184000  4
   1318   1320   1321   1327     1  180.0000771  0.0000000  2
   1319   1317   1318   1320     1  0.0000000  0.6508444  3
   1319   1317   1324   1325     1  0.0000000  0.6508444  3
   1319   1322   1323   1328     1  180.0000771  0.0000000  2
   1319   1322   1323   4785     1  0.0000000  0.2928800  2
   1319   1322   1323   4785     1  0.0000000  0.4184000  4
   1320   1318   1317   1324     1  0.0000000  0.6508444  3
   1320   1321   4711   4713     1  180.0000771  6.2760000  1
   1320   1321   4711   4713     1  0.0000000  0.0000000  2
   1321   4711   4713   4715     1  0.0000000  2.2175200  1
   1321   4711   4713   4715     1  0.0000000  0.0000000  2
   1321   4711   4713   4715     1  180.0000771  0.6276000  3
   1321   4711   4713   4715     1  180.0000771  2.0920000  4
   1322   1319   1317   1324     1  0.0000000  0.6508444  3
   1322   1323   4785   4787     1  180.0000771  6.2760000  1
   1322   1323   4785   4787     1  0.0000000  0.0000000  2
   1323   4785   4787   4789     1  0.0000000  2.2175200  1
   1323   4785   4787   4789     1  0.0000000  0.0000000  2
   1323   4785   4787   4789     1  180.0000771  0.6276000  3
   1323   4785   4787   4789     1  180.0000771  2.0920000  4
   1327   1321   4711   4713     1  180.0000771  10.4600000  2
   1328   1323   4785   4787     1  180.0000771  10.4600000  2
   1343   1344   1346   1347     1  0.0000000  0.6508444  3
   1343   1345   1348   1349     1  0.0000000  0.6508444  3
   1343   1350   1351   1352     1  0.0000000  0.6508444  3
   1344   1343   1345   1348     1  0.0000000  0.6508444  3
   1344   1343   1350   1351     1  0.0000000  0.6508444  3
   1344   1346   1347   4859     1  0.0000000  0.2928800  2
   1344   1346   1347   4859     1  0.0000000  0.4184000  4
   1344   1346   1347   1353     1  180.0000771  0.0000000  2
   1345   1343   1344   1346     1  0.0000000  0.6508444  3
   1345   1343   1350   1351     1  0.0000000  0.6508444  3
   1345   1348   1349   1354     1  180.0000771  0.0000000  2
   1345   1348   1349   4933     1  0.0000000  0.2928800  2
   1345   1348   1349   4933     1  0.0000000  0.4184000  4
   1346   1344   1343   1350     1  0.0000000  0.6508444  3
   1346   1347   4859   4861     1  180.0000771  6.2760000  1
   1346   1347   4859   4861     1  0.0000000  0.0000000  2
   1347   4859   4861   4863     1  0.0000000  2.2175200  1
   1347   4859   4861   4863     1  0.0000000  0.0000000  2
   1347   4859   4861   4863     1  180.0000771  0.6276000  3
   1347   4859   4861   4863     1  180.0000771  2.0920000  4
   1348   1345   1343   1350     1  0.0000000  0.6508444  3
   1348   1349   4933   4935     1  180.0000771  6.2760000  1
   1348   1349   4933   4935     1  0.0000000  0.0000000  2
   1349   4933   4935   4937     1  0.0000000  2.2175200  1
   1349   4933   4935   4937     1  0.0000000  0.0000000  2
   1349   4933   4935   4937     1  180.0000771  0.6276000  3
   1349   4933   4935   4937     1  180.0000771  2.0920000  4
   1353   1347   4859   4861     1  180.0000771  10.4600000  2
   1354   1349   4933   4935     1  180.0000771  10.4600000  2
   1369   1370   1372   1373     1  0.0000000  0.6508444  3
   1369   1371   1374   1375     1  0.0000000  0.6508444  3
   1369   1376   1377   1378     1  0.0000000  0.6508444  3
   1370   1369   1371   1374     1  0.0000000  0.6508444  3
   1370   1369   1376   1377     1  0.0000000  0.6508444  3
   1370   1372   1373   5007     1  0.0000000  0.2928800  2
   1370   1372   1373   5007     1  0.0000000  0.4184000  4
   1370   1372   1373   1379     1  180.0000771  0.0000000  2
   1371   1369   1370   1372     1  0.0000000  0.6508444  3
   1371   1369   1376   1377     1  0.0000000  0.6508444  3
   1371   1374   1375   1380     1  180.0000771  0.0000000  2
   1371   1374   1375   5081     1  0.0000000  0.2928800  2
   1371   1374   1375   5081     1  0.0000000  0.4184000  4
   1372   1370   1369   1376     1  0.0000000  0.6508444  3
   1372   1373   5007   5009     1  180.0000771  6.2760000  1
   1372   1373   5007   5009     1  0.0000000  0.0000000  2
   1373   5007   5009   5011     1  0.0000000  2.2175200  1
   1373   5007   5009   5011     1  0.0000000  0.0000000  2
   1373   5007   5009   5011     1  180.0000771  0.6276000  3
   1373   5007   5009   5011     1  180.0000771  2.0920000  4
   1374   1371   1369   1376     1  0.0000000  0.6508444  3
   1374   1375   5081   5083     1  180.0000771  6.2760000  1
   1374   1375   5081   5083     1  0.0000000  0.0000000  2
   1375   5081   5083   5085     1  0.0000000  2.2175200  1
   1375   5081   5083   5085     1  0.0000000  0.0000000  2
   1375   5081   5083   5085     1  180.0000771  0.6276000  3
   1375   5081   5083   5085     1  180.0000771  2.0920000  4
   1379   1373   5007   5009     1  180.0000771  10.4600000  2
   1380   1375   5081   5083     1  180.0000771  10.4600000  2
   1395   1396   1398   1399     1  0.0000000  0.6508444  3
   1395   1397   1400   1401     1  0.0000000  0.6508444  3
   1395   1402   1403   1404     1  0.0000000  0.6508444  3
   1396   1395   1397   1400     1  0.0000000  0.6508444  3
   1396   1395   1402   1403     1  0.0000000  0.6508444  3
   1396   1398   1399   5155     1  0.0000000  0.2928800  2
   1396   1398   1399   5155     1  0.0000000  0.4184000  4
   1396   1398   1399   1405     1  180.0000771  0.0000000  2
   1397   1395   1396   1398     1  0.0000000  0.6508444  3
   1397   1395   1402   1403     1  0.0000000  0.6508444  3
   1397   1400   1401   1406     1  180.0000771  0.0000000  2
   1397   1400   1401   5229     1  0.0000000  0.2928800  2
   1397   1400   1401   5229     1  0.0000000  0.4184000  4
   1398   1396   1395   1402     1  0.0000000  0.6508444  3
   1398   1399   5155   5157     1  180.0000771  6.2760000  1
   1398   1399   5155   5157     1  0.0000000  0.0000000  2
   1399   5155   5157   5159     1  0.0000000  2.2175200  1
   1399   5155   5157   5159     1  0.0000000  0.0000000  2
   1399   5155   5157   5159     1  180.0000771  0.6276000  3
   1399   5155   5157   5159     1  180.0000771  2.0920000  4
   1400   1397   1395   1402     1  0.0000000  0.6508444  3
   1400   1401   5229   5231     1  180.0000771  6.2760000  1
   1400   1401   5229   5231     1  0.0000000  0.0000000  2
   1401   5229   5231   5233     1  0.0000000  2.2175200  1
   1401   5229   5231   5233     1  0.0000000  0.0000000  2
   1401   5229   5231   5233     1  180.0000771  0.6276000  3
   1401   5229   5231   5233     1  180.0000771  2.0920000  4
   1405   1399   5155   5157     1  180.0000771  10.4600000  2
   1406   1401   5229   5231     1  180.0000771  10.4600000  2
   1421   1422   1424   1425     1  0.0000000  0.6508444  3
   1421   1423   1426   1427     1  0.0000000  0.6508444  3
   1421   1428   1429   1430     1  0.0000000  0.6508444  3
   1422   1421   1423   1426     1  0.0000000  0.6508444  3
   1422   1421   1428   1429     1  0.0000000  0.6508444  3
   1422   1424   1425   5303     1  0.0000000  0.2928800  2
   1422   1424   1425   5303     1  0.0000000  0.4184000  4
   1422   1424   1425   1431     1  180.0000771  0.0000000  2
   1423   1421   1422   1424     1  0.0000000  0.6508444  3
   1423   1421   1428   1429     1  0.0000000  0.6508444  3
   1423   1426   1427   1432     1  180.0000771  0.0000000  2
   1423   1426   1427   5377     1  0.0000000  0.2928800  2
   1423   1426   1427   5377     1  0.0000000  0.4184000  4
   1424   1422   1421   1428     1  0.0000000  0.6508444  3
   1424   1425   5303   5305     1  180.0000771  6.2760000  1
   1424   1425   5303   5305     1  0.0000000  0.0000000  2
   1425   5303   5305   5307     1  0.0000000  2.2175200  1
   1425   5303   5305   5307     1  0.0000000  0.0000000  2
   1425   5303   5305   5307     1  180.0000771  0.6276000  3
   1425   5303   5305   5307     1  180.0000771  2.0920000  4
   1426   1423   1421   1428     1  0.0000000  0.6508444  3
   1426   1427   5377   5379     1  180.0000771  6.2760000  1
   1426   1427   5377   5379     1  0.0000000  0.0000000  2
   1427   5377   5379   5381     1  0.0000000  2.2175200  1
   1427   5377   5379   5381     1  0.0000000  0.0000000  2
   1427   5377   5379   5381     1  180.0000771  0.6276000  3
   1427   5377   5379   5381     1  180.0000771  2.0920000  4
   1431   1425   5303   5305     1  180.0000771  10.4600000  2
   1432   1427   5377   5379     1  180.0000771  10.4600000  2
   1447   1448   1450   1451     1  0.0000000  0.6508444  3
   1447   1449   1452   1453     1  0.0000000  0.6508444  3
   1447   1454   1455   1456     1  0.0000000  0.6508444  3
   1448   1447   1449   1452     1  0.0000000  0.6508444  3
   1448   1447   1454   1455     1  0.0000000  0.6508444  3
   1448   1450   1451   5451     1  0.0000000  0.2928800  2
   1448   1450   1451   5451     1  0.0000000  0.4184000  4
   1448   1450   1451   1457     1  180.0000771  0.0000000  2
   1449   1447   1448   1450     1  0.0000000  0.6508444  3
   1449   1447   1454   1455     1  0.0000000  0.6508444  3
   1449   1452   1453   1458     1  180.0000771  0.0000000  2
   1449   1452   1453   5525     1  0.0000000  0.2928800  2
   1449   1452   1453   5525     1  0.0000000  0.4184000  4
   1450   1448   1447   1454     1  0.0000000  0.6508444  3
   1450   1451   5451   5453     1  180.0000771  6.2760000  1
   1450   1451   5451   5453     1  0.0000000  0.0000000  2
   1451   5451   5453   5455     1  0.0000000  2.2175200  1
   1451   5451   5453   5455     1  0.0000000  0.0000000  2
   1451   5451   5453   5455     1  180.0000771  0.6276000  3
   1451   5451   5453   5455     1  180.0000771  2.0920000  4
   1452   1449   1447   1454     1  0.0000000  0.6508444  3
   1452   1453   5525   5527     1  180.0000771  6.2760000  1
   1452   1453   5525   5527     1  0.0000000  0.0000000  2
   1453   5525   5527   5529     1  0.0000000  2.2175200  1
   1453   5525   5527   5529     1  0.0000000  0.0000000  2
   1453   5525   5527   5529     1  180.0000771  0.6276000  3
   1453   5525   5527   5529     1  180.0000771  2.0920000  4
   1457   1451   5451   5453     1  180.0000771  10.4600000  2
   1458   1453   5525   5527     1  180.0000771  10.4600000  2
   1473   1474   1476   1477     1  0.0000000  0.6508444  3
   1473   1475   1478   1479     1  0.0000000  0.6508444  3
   1473   1480   1481   1482     1  0.0000000  0.6508444  3
   1474   1473   1475   1478     1  0.0000000  0.6508444  3
   1474   1473   1480   1481     1  0.0000000  0.6508444  3
   1474   1476   1477   5599     1  0.0000000  0.2928800  2
   1474   1476   1477   5599     1  0.0000000  0.4184000  4
   1474   1476   1477   1483     1  180.0000771  0.0000000  2
   1475   1473   1474   1476     1  0.0000000  0.6508444  3
   1475   1473   1480   1481     1  0.0000000  0.6508444  3
   1475   1478   1479   1484     1  180.0000771  0.0000000  2
   1475   1478   1479   5673     1  0.0000000  0.2928800  2
   1475   1478   1479   5673     1  0.0000000  0.4184000  4
   1476   1474   1473   1480     1  0.0000000  0.6508444  3
   1476   1477   5599   5601     1  180.0000771  6.2760000  1
   1476   1477   5599   5601     1  0.0000000  0.0000000  2
   1477   5599   5601   5603     1  0.0000000  2.2175200  1
   1477   5599   5601   5603     1  0.0000000  0.0000000  2
   1477   5599   5601   5603     1  180.0000771  0.6276000  3
   1477   5599   5601   5603     1  180.0000771  2.0920000  4
   1478   1475   1473   1480     1  0.0000000  0.6508444  3
   1478   1479   5673   5675     1  180.0000771  6.2760000  1
   1478   1479   5673   5675     1  0.0000000  0.0000000  2
   1479   5673   5675   5677     1  0.0000000  2.2175200  1
   1479   5673   5675   5677     1  0.0000000  0.0000000  2
   1479   5673   5675   5677     1  180.0000771  0.6276000  3
   1479   5673   5675   5677     1  180.0000771  2.0920000  4
   1483   1477   5599   5601     1  180.0000771  10.4600000  2
   1484   1479   5673   5675     1  180.0000771  10.4600000  2
   1499   1500   1502   1503     1  0.0000000  0.6508444  3
   1499   1501   1504   1505     1  0.0000000  0.6508444  3
   1499   1506   1507   1508     1  0.0000000  0.6508444  3
   1500   1499   1501   1504     1  0.0000000  0.6508444  3
   1500   1499   1506   1507     1  0.0000000  0.6508444  3
   1500   1502   1503   5747     1  0.0000000  0.2928800  2
   1500   1502   1503   5747     1  0.0000000  0.4184000  4
   1500   1502   1503   1509     1  180.0000771  0.0000000  2
   1501   1499   1500   1502     1  0.0000000  0.6508444  3
   1501   1499   1506   1507     1  0.0000000  0.6508444  3
   1501   1504   1505   1510     1  180.0000771  0.0000000  2
   1501   1504   1505   5821     1  0.0000000  0.2928800  2
   1501   1504   1505   5821     1  0.0000000  0.4184000  4
   1502   1500   1499   1506     1  0.0000000  0.6508444  3
   1502   1503   5747   5749     1  180.0000771  6.2760000  1
   1502   1503   5747   5749     1  0.0000000  0.0000000  2
   1503   5747   5749   5751     1  0.0000000  2.2175200  1
   1503   5747   5749   5751     1  0.0000000  0.0000000  2
   1503   5747   5749   5751     1  180.0000771  0.6276000  3
   1503   5747   5749   5751     1  180.0000771  2.0920000  4
   1504   1501   1499   1506     1  0.0000000  0.6508444  3
   1504   1505   5821   5823     1  180.0000771  6.2760000  1
   1504   1505   5821   5823     1  0.0000000  0.0000000  2
   1505   5821   5823   5825     1  0.0000000  2.2175200  1
   1505   5821   5823   5825     1  0.0000000  0.0000000  2
   1505   5821   5823   5825     1  180.0000771  0.6276000  3
   1505   5821   5823   5825     1  180.0000771  2.0920000  4
   1509   1503   5747   5749     1  180.0000771  10.4600000  2
   1510   1505   5821   5823     1  180.0000771  10.4600000  2
   1525   1526   1528   1529     1  0.0000000  0.6508444  3
   1525   1527   1530   1531     1  0.0000000  0.6508444  3
   1525   1532   1533   1534     1  0.0000000  0.6508444  3
   1526   1525   1527   1530     1  0.0000000  0.6508444  3
   1526   1525   1532   1533     1  0.0000000  0.6508444  3
   1526   1528   1529   5895     1  0.0000000  0.2928800  2
   1526   1528   1529   5895     1  0.0000000  0.4184000  4
   1526   1528   1529   1535     1  180.0000771  0.0000000  2
   1527   1525   1526   1528     1  0.0000000  0.6508444  3
   1527   1525   1532   1533     1  0.0000000  0.6508444  3
   1527   1530   1531   1536     1  180.0000771  0.0000000  2
   1527   1530   1531   5969     1  0.0000000  0.2928800  2
   1527   1530   1531   5969     1  0.0000000  0.4184000  4
   1528   1526   1525   1532     1  0.0000000  0.6508444  3
   1528   1529   5895   5897     1  180.0000771  6.2760000  1
   1528   1529   5895   5897     1  0.0000000  0.0000000  2
   1529   5895   5897   5899     1  0.0000000  2.2175200  1
   1529   5895   5897   5899     1  0.0000000  0.0000000  2
   1529   5895   5897   5899     1  180.0000771  0.6276000  3
   1529   5895   5897   5899     1  180.0000771  2.0920000  4
   1530   1527   1525   1532     1  0.0000000  0.6508444  3
   1530   1531   5969   5971     1  180.0000771  6.2760000  1
   1530   1531   5969   5971     1  0.0000000  0.0000000  2
   1531   5969   5971   5973     1  0.0000000  2.2175200  1
   1531   5969   5971   5973     1  0.0000000  0.0000000  2
   1531   5969   5971   5973     1  180.0000771  0.6276000  3
   1531   5969   5971   5973     1  180.0000771  2.0920000  4
   1535   1529   5895   5897     1  180.0000771  10.4600000  2
   1536   1531   5969   5971     1  180.0000771  10.4600000  2
   1551   1552   1554   1555     1  0.0000000  0.6508444  3
   1551   1553   1556   1557     1  0.0000000  0.6508444  3
   1551   1558   1559   1560     1  0.0000000  0.6508444  3
   1552   1551   1553   1556     1  0.0000000  0.6508444  3
   1552   1551   1558   1559     1  0.0000000  0.6508444  3
   1552   1554   1555   6043     1  0.0000000  0.2928800  2
   1552   1554   1555   6043     1  0.0000000  0.4184000  4
   1552   1554   1555   1561     1  180.0000771  0.0000000  2
   1553   1551   1552   1554     1  0.0000000  0.6508444  3
   1553   1551   1558   1559     1  0.0000000  0.6508444  3
   1553   1556   1557   1562     1  180.0000771  0.0000000  2
   1553   1556   1557   6117     1  0.0000000  0.2928800  2
   1553   1556   1557   6117     1  0.0000000  0.4184000  4
   1554   1552   1551   1558     1  0.0000000  0.6508444  3
   1554   1555   6043   6045     1  180.0000771  6.2760000  1
   1554   1555   6043   6045     1  0.0000000  0.0000000  2
   1555   6043   6045   6047     1  0.0000000  2.2175200  1
   1555   6043   6045   6047     1  0.0000000  0.0000000  2
   1555   6043   6045   6047     1  180.0000771  0.6276000  3
   1555   6043   6045   6047     1  180.0000771  2.0920000  4
   1556   1553   1551   1558     1  0.0000000  0.6508444  3
   1556   1557   6117   6119     1  180.0000771  6.2760000  1
   1556   1557   6117   6119     1  0.0000000  0.0000000  2
   1557   6117   6119   6121     1  0.0000000  2.2175200  1
   1557   6117   6119   6121     1  0.0000000  0.0000000  2
   1557   6117   6119   6121     1  180.0000771  0.6276000  3
   1557   6117   6119   6121     1  180.0000771  2.0920000  4
   1561   1555   6043   6045     1  180.0000771  10.4600000  2
   1562   1557   6117   6119     1  180.0000771  10.4600000  2
   1577   1578   1580   1581     1  0.0000000  0.6508444  3
   1577   1579   1582   1583     1  0.0000000  0.6508444  3
   1577   1584   1585   1586     1  0.0000000  0.6508444  3
   1578   1577   1579   1582     1  0.0000000  0.6508444  3
   1578   1577   1584   1585     1  0.0000000  0.6508444  3
   1578   1580   1581   6191     1  0.0000000  0.2928800  2
   1578   1580   1581   6191     1  0.0000000  0.4184000  4
   1578   1580   1581   1587     1  180.0000771  0.0000000  2
   1579   1577   1578   1580     1  0.0000000  0.6508444  3
   1579   1577   1584   1585     1  0.0000000  0.6508444  3
   1579   1582   1583   6265     1  0.0000000  0.2928800  2
   1579   1582   1583   6265     1  0.0000000  0.4184000  4
   1579   1582   1583   1588     1  180.0000771  0.0000000  2
   1580   1578   1577   1584     1  0.0000000  0.6508444  3
   1580   1581   6191   6193     1  180.0000771  6.2760000  1
   1580   1581   6191   6193     1  0.0000000  0.0000000  2
   1581   6191   6193   6195     1  0.0000000  2.2175200  1
   1581   6191   6193   6195     1  0.0000000  0.0000000  2
   1581   6191   6193   6195     1  180.0000771  0.6276000  3
   1581   6191   6193   6195     1  180.0000771  2.0920000  4
   1582   1579   1577   1584     1  0.0000000  0.6508444  3
   1582   1583   6265   6267     1  180.0000771  6.2760000  1
   1582   1583   6265   6267     1  0.0000000  0.0000000  2
   1583   6265   6267   6269     1  0.0000000  2.2175200  1
   1583   6265   6267   6269     1  0.0000000  0.0000000  2
   1583   6265   6267   6269     1  180.0000771  0.6276000  3
   1583   6265   6267   6269     1  180.0000771  2.0920000  4
   1587   1581   6191   6193     1  180.0000771  10.4600000  2
   1588   1583   6265   6267     1  180.0000771  10.4600000  2
   1603   1605   1607   1611     1  0.0000000  0.6508444  3
   1605   1607   1611   1612     1  0.0000000  0.6508444  3
   1605   1607   1611   1613     1  0.0000000  0.6508444  3
   1607   1611   1612   1623     1  0.0000000  0.6508444  3
   1607   1611   1613   1615     1  0.0000000  0.6508444  3
   1611   1612   1623   1626     1  0.0000000  0.6508444  3
   1611   1613   1615   1619     1  0.0000000  0.6508444  3
   1612   1611   1613   1615     1  0.0000000  0.6508444  3
   1612   1623   1626   1627     1  180.0000771  0.0000000  2
   1612   1623   1626   1675     1  180.0000771  0.0000000  2
   1613   1611   1612   1623     1  0.0000000  0.6508444  3
   1613   1615   1619   1620     1  180.0000771  0.0000000  2
   1613   1615   1619   1651     1  180.0000771  0.0000000  2
   1615   1619   1651   1632     1  180.0000771  6.0668000  2
   1615   1619   1651   1632     1  180.0000771  1.4644000  4
   1619   1651   1632   1631     1  0.0000000  1.2552000  3
   1619   1651   1632   1633     1  0.0000000  1.2552000  3
   1620   1619   1651   1632     1  180.0000771  6.0668000  2
   1620   1619   1651   1632     1  180.0000771  1.4644000  4
   1623   1626   1675   1656     1  180.0000771  6.0668000  2
   1623   1626   1675   1656     1  180.0000771  1.4644000  4
   1626   1675   1656   1655     1  0.0000000  1.2552000  3
   1626   1675   1656   1657     1  0.0000000  1.2552000  3
   1627   1626   1675   1656     1  180.0000771  6.0668000  2
   1627   1626   1675   1656     1  180.0000771  1.4644000  4
   1628   1629   1631   1632     1  180.0000771  0.8368000  1
   1628   1629   1631   1632     1  180.0000771  1.0460000  2
   1628   1629   1631   1632     1  0.0000000  0.7531200  3
   1628   1629   1631   1638     1  0.0000000  0.6508444  3
   1628   1646   1633   1632     1  180.0000771  0.4184000  2
   1628   1646   1633   1632     1  0.0000000  1.6024720  3
   1628   1646   1633   1637     1  0.0000000  1.6038667  3
   1629   1628   1639   1644     1  0.0000000  0.6508444  3
   1629   1628   1646   1633     1  180.0000771  0.4184000  2
   1629   1628   1646   1633     1  0.0000000  1.6024720  3
   1629   1631   1632   1633     1  180.0000771  0.8368000  1
   1629   1631   1632   1633     1  180.0000771  1.0460000  2
   1629   1631   1632   1633     1  0.0000000  0.7531200  3
   1629   1631   1632   1651     1  0.0000000  0.6508444  3
   1631   1629   1628   1639     1  180.0000771  0.8368000  1
   1631   1629   1628   1639     1  180.0000771  1.0460000  2
   1631   1629   1628   1639     1  0.0000000  0.7531200  3
   1631   1629   1628   1646     1  0.0000000  0.6508444  3
   1631   1632   1633   1637     1  0.0000000  0.6508444  3
   1631   1632   1633   1646     1  0.0000000  0.6508444  3
   1632   1631   1629   1649     1  0.0000000  0.6508444  3
   1633   1632   1631   1638     1  0.0000000  0.6508444  3
   1633   1646   1628   1639     1  180.0000771  0.4184000  2
   1633   1646   1628   1639     1  0.0000000  1.6024720  3
   1637   1633   1632   1651     1  0.0000000  0.6508444  3
   1638   1631   1629   1649     1  0.0000000  4.9162000  2
   1638   1631   1629   1649     1  0.0000000  0.6024960  3
   1638   1631   1632   1651     1  0.0000000  0.6508444  3
   1639   1628   1629   1649     1  0.0000000  0.6508444  3
   1644   1639   1628   1646     1  0.0000000  4.9162000  2
   1644   1639   1628   1646     1  0.0000000  0.6024960  3
   1646   1628   1629   1649     1  0.0000000  4.9162000  2
   1646   1628   1629   1649     1  0.0000000  0.6024960  3
   1646   1633   1632   1651     1  0.0000000  0.6508444  3
   1652   1653   1655   1656     1  180.0000771  0.8368000  1
   1652   1653   1655   1656     1  180.0000771  1.0460000  2
   1652   1653   1655   1656     1  0.0000000  0.7531200  3
   1652   1653   1655   1662     1  0.0000000  0.6508444  3
   1652   1670   1657   1656     1  180.0000771  0.4184000  2
   1652   1670   1657   1656     1  0.0000000  1.6024720  3
   1652   1670   1657   1661     1  0.0000000  1.6038667  3
   1653   1652   1663   1668     1  0.0000000  0.6508444  3
   1653   1652   1670   1657     1  180.0000771  0.4184000  2
   1653   1652   1670   1657     1  0.0000000  1.6024720  3
   1653   1655   1656   1657     1  180.0000771  0.8368000  1
   1653   1655   1656   1657     1  180.0000771  1.0460000  2
   1653   1655   1656   1657     1  0.0000000  0.7531200  3
   1653   1655   1656   1675     1  0.0000000  0.6508444  3
   1655   1653   1652   1663     1  180.0000771  0.8368000  1
   1655   1653   1652   1663     1  180.0000771  1.0460000  2
   1655   1653   1652   1663     1  0.0000000  0.7531200  3
   1655   1653   1652   1670     1  0.0000000  0.6508444  3
   1655   1656   1657   1661     1  0.0000000  0.6508444  3
   1655   1656   1657   1670     1  0.0000000  0.6508444  3
   1656   1655   1653   1673     1  0.0000000  0.6508444  3
   1657   1656   1655   1662     1  0.0000000  0.6508444  3
   1657   1670   1652   1663     1  180.0000771  0.4184000  2
   1657   1670   1652   1663     1  0.0000000  1.6024720  3
   1661   1657   1656   1675     1  0.0000000  0.6508444  3
   1662   1655   1653   1673     1  0.0000000  4.9162000  2
   1662   1655   1653   1673     1  0.0000000  0.6024960  3
   1662   1655   1656   1675     1  0.0000000  0.6508444  3
   1663   1652   1653   1673     1  0.0000000  0.6508444  3
   1668   1663   1652   1670     1  0.0000000  4.9162000  2
   1668   1663   1652   1670     1  0.0000000  0.6024960  3
   1670   1652   1653   1673     1  0.0000000  4.9162000  2
   1670   1652   1653   1673     1  0.0000000  0.6024960  3
   1670   1657   1656   1675     1  0.0000000  0.6508444  3
   1677   1679   1681   1685     1  0.0000000  0.6508444  3
   1679   1681   1685   1686     1  0.0000000  0.6508444  3
   1679   1681   1685   1687     1  0.0000000  0.6508444  3
   1681   1685   1686   1697     1  0.0000000  0.6508444  3
   1681   1685   1687   1689     1  0.0000000  0.6508444  3
   1685   1686   1697   1700     1  0.0000000  0.6508444  3
   1685   1687   1689   1693     1  0.0000000  0.6508444  3
   1686   1697   1700   1701     1  180.0000771  0.0000000  2
   1686   1697   1700   1749     1  180.0000771  0.0000000  2
   1686   1685   1687   1689     1  0.0000000  0.6508444  3
   1687   1689   1693   1694     1  180.0000771  0.0000000  2
   1687   1689   1693   1725     1  180.0000771  0.0000000  2
   1687   1685   1686   1697     1  0.0000000  0.6508444  3
   1689   1693   1725   1706     1  180.0000771  6.0668000  2
   1689   1693   1725   1706     1  180.0000771  1.4644000  4
   1693   1725   1706   1707     1  0.0000000  1.2552000  3
   1693   1725   1706   1705     1  0.0000000  1.2552000  3
   1694   1693   1725   1706     1  180.0000771  6.0668000  2
   1694   1693   1725   1706     1  180.0000771  1.4644000  4
   1697   1700   1749   1730     1  180.0000771  6.0668000  2
   1697   1700   1749   1730     1  180.0000771  1.4644000  4
   1700   1749   1730   1731     1  0.0000000  1.2552000  3
   1700   1749   1730   1729     1  0.0000000  1.2552000  3
   1701   1700   1749   1730     1  180.0000771  6.0668000  2
   1701   1700   1749   1730     1  180.0000771  1.4644000  4
   1702   1703   1705   1706     1  180.0000771  0.8368000  1
   1702   1703   1705   1706     1  180.0000771  1.0460000  2
   1702   1703   1705   1706     1  0.0000000  0.7531200  3
   1702   1703   1705   1712     1  0.0000000  0.6508444  3
   1702   1720   1707   1711     1  0.0000000  1.6038667  3
   1702   1720   1707   1706     1  180.0000771  0.4184000  2
   1702   1720   1707   1706     1  0.0000000  1.6024720  3
   1703   1705   1706   1707     1  180.0000771  0.8368000  1
   1703   1705   1706   1707     1  180.0000771  1.0460000  2
   1703   1705   1706   1707     1  0.0000000  0.7531200  3
   1703   1705   1706   1725     1  0.0000000  0.6508444  3
   1703   1702   1713   1718     1  0.0000000  0.6508444  3
   1703   1702   1720   1707     1  180.0000771  0.4184000  2
   1703   1702   1720   1707     1  0.0000000  1.6024720  3
   1705   1706   1707   1711     1  0.0000000  0.6508444  3
   1705   1706   1707   1720     1  0.0000000  0.6508444  3
   1705   1703   1702   1713     1  180.0000771  0.8368000  1
   1705   1703   1702   1713     1  180.0000771  1.0460000  2
   1705   1703   1702   1713     1  0.0000000  0.7531200  3
   1705   1703   1702   1720     1  0.0000000  0.6508444  3
   1706   1705   1703   1723     1  0.0000000  0.6508444  3
   1707   1720   1702   1713     1  180.0000771  0.4184000  2
   1707   1720   1702   1713     1  0.0000000  1.6024720  3
   1707   1706   1705   1712     1  0.0000000  0.6508444  3
   1711   1707   1706   1725     1  0.0000000  0.6508444  3
   1712   1705   1706   1725     1  0.0000000  0.6508444  3
   1712   1705   1703   1723     1  0.0000000  4.9162000  2
   1712   1705   1703   1723     1  0.0000000  0.6024960  3
   1713   1702   1703   1723     1  0.0000000  0.6508444  3
   1718   1713   1702   1720     1  0.0000000  4.9162000  2
   1718   1713   1702   1720     1  0.0000000  0.6024960  3
   1720   1707   1706   1725     1  0.0000000  0.6508444  3
   1720   1702   1703   1723     1  0.0000000  4.9162000  2
   1720   1702   1703   1723     1  0.0000000  0.6024960  3
   1726   1727   1729   1730     1  180.0000771  0.8368000  1
   1726   1727   1729   1730     1  180.0000771  1.0460000  2
   1726   1727   1729   1730     1  0.0000000  0.7531200  3
   1726   1727   1729   1736     1  0.0000000  0.6508444  3
   1726   1744   1731   1735     1  0.0000000  1.6038667  3
   1726   1744   1731   1730     1  180.0000771  0.4184000  2
   1726   1744   1731   1730     1  0.0000000  1.6024720  3
   1727   1729   1730   1731     1  180.0000771  0.8368000  1
   1727   1729   1730   1731     1  180.0000771  1.0460000  2
   1727   1729   1730   1731     1  0.0000000  0.7531200  3
   1727   1729   1730   1749     1  0.0000000  0.6508444  3
   1727   1726   1737   1742     1  0.0000000  0.6508444  3
   1727   1726   1744   1731     1  180.0000771  0.4184000  2
   1727   1726   1744   1731     1  0.0000000  1.6024720  3
   1729   1730   1731   1735     1  0.0000000  0.6508444  3
   1729   1730   1731   1744     1  0.0000000  0.6508444  3
   1729   1727   1726   1737     1  180.0000771  0.8368000  1
   1729   1727   1726   1737     1  180.0000771  1.0460000  2
   1729   1727   1726   1737     1  0.0000000  0.7531200  3
   1729   1727   1726   1744     1  0.0000000  0.6508444  3
   1730   1729   1727   1747     1  0.0000000  0.6508444  3
   1731   1744   1726   1737     1  180.0000771  0.4184000  2
   1731   1744   1726   1737     1  0.0000000  1.6024720  3
   1731   1730   1729   1736     1  0.0000000  0.6508444  3
   1735   1731   1730   1749     1  0.0000000  0.6508444  3
   1736   1729   1730   1749     1  0.0000000  0.6508444  3
   1736   1729   1727   1747     1  0.0000000  4.9162000  2
   1736   1729   1727   1747     1  0.0000000  0.6024960  3
   1737   1726   1727   1747     1  0.0000000  0.6508444  3
   1742   1737   1726   1744     1  0.0000000  4.9162000  2
   1742   1737   1726   1744     1  0.0000000  0.6024960  3
   1744   1731   1730   1749     1  0.0000000  0.6508444  3
   1744   1726   1727   1747     1  0.0000000  4.9162000  2
   1744   1726   1727   1747     1  0.0000000  0.6024960  3
   1751   1753   1755   1759     1  0.0000000  0.6508444  3
   1753   1755   1759   1760     1  0.0000000  0.6508444  3
   1753   1755   1759   1761     1  0.0000000  0.6508444  3
   1755   1759   1760   1771     1  0.0000000  0.6508444  3
   1755   1759   1761   1763     1  0.0000000  0.6508444  3
   1759   1760   1771   1774     1  0.0000000  0.6508444  3
   1759   1761   1763   1767     1  0.0000000  0.6508444  3
   1760   1759   1761   1763     1  0.0000000  0.6508444  3
   1760   1771   1774   1775     1  180.0000771  0.0000000  2
   1760   1771   1774   1823     1  180.0000771  0.0000000  2
   1761   1759   1760   1771     1  0.0000000  0.6508444  3
   1761   1763   1767   1768     1  180.0000771  0.0000000  2
   1761   1763   1767   1799     1  180.0000771  0.0000000  2
   1763   1767   1799   1780     1  180.0000771  6.0668000  2
   1763   1767   1799   1780     1  180.0000771  1.4644000  4
   1767   1799   1780   1779     1  0.0000000  1.2552000  3
   1767   1799   1780   1781     1  0.0000000  1.2552000  3
   1768   1767   1799   1780     1  180.0000771  6.0668000  2
   1768   1767   1799   1780     1  180.0000771  1.4644000  4
   1771   1774   1823   1804     1  180.0000771  6.0668000  2
   1771   1774   1823   1804     1  180.0000771  1.4644000  4
   1774   1823   1804   1803     1  0.0000000  1.2552000  3
   1774   1823   1804   1805     1  0.0000000  1.2552000  3
   1775   1774   1823   1804     1  180.0000771  6.0668000  2
   1775   1774   1823   1804     1  180.0000771  1.4644000  4
   1776   1777   1779   1780     1  180.0000771  0.8368000  1
   1776   1777   1779   1780     1  180.0000771  1.0460000  2
   1776   1777   1779   1780     1  0.0000000  0.7531200  3
   1776   1777   1779   1786     1  0.0000000  0.6508444  3
   1776   1794   1781   1780     1  180.0000771  0.4184000  2
   1776   1794   1781   1780     1  0.0000000  1.6024720  3
   1776   1794   1781   1785     1  0.0000000  1.6038667  3
   1777   1776   1787   1792     1  0.0000000  0.6508444  3
   1777   1776   1794   1781     1  180.0000771  0.4184000  2
   1777   1776   1794   1781     1  0.0000000  1.6024720  3
   1777   1779   1780   1781     1  180.0000771  0.8368000  1
   1777   1779   1780   1781     1  180.0000771  1.0460000  2
   1777   1779   1780   1781     1  0.0000000  0.7531200  3
   1777   1779   1780   1799     1  0.0000000  0.6508444  3
   1779   1777   1776   1787     1  180.0000771  0.8368000  1
   1779   1777   1776   1787     1  180.0000771  1.0460000  2
   1779   1777   1776   1787     1  0.0000000  0.7531200  3
   1779   1777   1776   1794     1  0.0000000  0.6508444  3
   1779   1780   1781   1785     1  0.0000000  0.6508444  3
   1779   1780   1781   1794     1  0.0000000  0.6508444  3
   1780   1779   1777   1797     1  0.0000000  0.6508444  3
   1781   1780   1779   1786     1  0.0000000  0.6508444  3
   1781   1794   1776   1787     1  180.0000771  0.4184000  2
   1781   1794   1776   1787     1  0.0000000  1.6024720  3
   1785   1781   1780   1799     1  0.0000000  0.6508444  3
   1786   1779   1777   1797     1  0.0000000  4.9162000  2
   1786   1779   1777   1797     1  0.0000000  0.6024960  3
   1786   1779   1780   1799     1  0.0000000  0.6508444  3
   1787   1776   1777   1797     1  0.0000000  0.6508444  3
   1792   1787   1776   1794     1  0.0000000  4.9162000  2
   1792   1787   1776   1794     1  0.0000000  0.6024960  3
   1794   1776   1777   1797     1  0.0000000  4.9162000  2
   1794   1776   1777   1797     1  0.0000000  0.6024960  3
   1794   1781   1780   1799     1  0.0000000  0.6508444  3
   1800   1801   1803   1804     1  180.0000771  0.8368000  1
   1800   1801   1803   1804     1  180.0000771  1.0460000  2
   1800   1801   1803   1804     1  0.0000000  0.7531200  3
   1800   1801   1803   1810     1  0.0000000  0.6508444  3
   1800   1818   1805   1804     1  180.0000771  0.4184000  2
   1800   1818   1805   1804     1  0.0000000  1.6024720  3
   1800   1818   1805   1809     1  0.0000000  1.6038667  3
   1801   1800   1811   1816     1  0.0000000  0.6508444  3
   1801   1800   1818   1805     1  180.0000771  0.4184000  2
   1801   1800   1818   1805     1  0.0000000  1.6024720  3
   1801   1803   1804   1805     1  180.0000771  0.8368000  1
   1801   1803   1804   1805     1  180.0000771  1.0460000  2
   1801   1803   1804   1805     1  0.0000000  0.7531200  3
   1801   1803   1804   1823     1  0.0000000  0.6508444  3
   1803   1801   1800   1811     1  180.0000771  0.8368000  1
   1803   1801   1800   1811     1  180.0000771  1.0460000  2
   1803   1801   1800   1811     1  0.0000000  0.7531200  3
   1803   1801   1800   1818     1  0.0000000  0.6508444  3
   1803   1804   1805   1809     1  0.0000000  0.6508444  3
   1803   1804   1805   1818     1  0.0000000  0.6508444  3
   1804   1803   1801   1821     1  0.0000000  0.6508444  3
   1805   1804   1803   1810     1  0.0000000  0.6508444  3
   1805   1818   1800   1811     1  180.0000771  0.4184000  2
   1805   1818   1800   1811     1  0.0000000  1.6024720  3
   1809   1805   1804   1823     1  0.0000000  0.6508444  3
   1810   1803   1801   1821     1  0.0000000  4.9162000  2
   1810   1803   1801   1821     1  0.0000000  0.6024960  3
   1810   1803   1804   1823     1  0.0000000  0.6508444  3
   1811   1800   1801   1821     1  0.0000000  0.6508444  3
   1816   1811   1800   1818     1  0.0000000  4.9162000  2
   1816   1811   1800   1818     1  0.0000000  0.6024960  3
   1818   1800   1801   1821     1  0.0000000  4.9162000  2
   1818   1800   1801   1821     1  0.0000000  0.6024960  3
   1818   1805   1804   1823     1  0.0000000  0.6508444  3
   1825   1827   1829   1833     1  0.0000000  0.6508444  3
   1827   1829   1833   1834     1  0.0000000  0.6508444  3
   1827   1829   1833   1835     1  0.0000000  0.6508444  3
   1829   1833   1834   1845     1  0.0000000  0.6508444  3
   1829   1833   1835   1837     1  0.0000000  0.6508444  3
   1833   1834   1845   1848     1  0.0000000  0.6508444  3
   1833   1835   1837   1841     1  0.0000000  0.6508444  3
   1834   1845   1848   1849     1  180.0000771  0.0000000  2
   1834   1845   1848   1897     1  180.0000771  0.0000000  2
   1834   1833   1835   1837     1  0.0000000  0.6508444  3
   1835   1837   1841   1842     1  180.0000771  0.0000000  2
   1835   1837   1841   1873     1  180.0000771  0.0000000  2
   1835   1833   1834   1845     1  0.0000000  0.6508444  3
   1837   1841   1873   1854     1  180.0000771  6.0668000  2
   1837   1841   1873   1854     1  180.0000771  1.4644000  4
   1841   1873   1854   1855     1  0.0000000  1.2552000  3
   1841   1873   1854   1853     1  0.0000000  1.2552000  3
   1842   1841   1873   1854     1  180.0000771  6.0668000  2
   1842   1841   1873   1854     1  180.0000771  1.4644000  4
   1845   1848   1897   1878     1  180.0000771  6.0668000  2
   1845   1848   1897   1878     1  180.0000771  1.4644000  4
   1848   1897   1878   1879     1  0.0000000  1.2552000  3
   1848   1897   1878   1877     1  0.0000000  1.2552000  3
   1849   1848   1897   1878     1  180.0000771  6.0668000  2
   1849   1848   1897   1878     1  180.0000771  1.4644000  4
   1850   1851   1853   1854     1  180.0000771  0.8368000  1
   1850   1851   1853   1854     1  180.0000771  1.0460000  2
   1850   1851   1853   1854     1  0.0000000  0.7531200  3
   1850   1851   1853   1860     1  0.0000000  0.6508444  3
   1850   1868   1855   1859     1  0.0000000  1.6038667  3
   1850   1868   1855   1854     1  180.0000771  0.4184000  2
   1850   1868   1855   1854     1  0.0000000  1.6024720  3
   1851   1853   1854   1855     1  180.0000771  0.8368000  1
   1851   1853   1854   1855     1  180.0000771  1.0460000  2
   1851   1853   1854   1855     1  0.0000000  0.7531200  3
   1851   1853   1854   1873     1  0.0000000  0.6508444  3
   1851   1850   1861   1866     1  0.0000000  0.6508444  3
   1851   1850   1868   1855     1  180.0000771  0.4184000  2
   1851   1850   1868   1855     1  0.0000000  1.6024720  3
   1853   1854   1855   1859     1  0.0000000  0.6508444  3
   1853   1854   1855   1868     1  0.0000000  0.6508444  3
   1853   1851   1850   1861     1  180.0000771  0.8368000  1
   1853   1851   1850   1861     1  180.0000771  1.0460000  2
   1853   1851   1850   1861     1  0.0000000  0.7531200  3
   1853   1851   1850   1868     1  0.0000000  0.6508444  3
   1854   1853   1851   1871     1  0.0000000  0.6508444  3
   1855   1868   1850   1861     1  180.0000771  0.4184000  2
   1855   1868   1850   1861     1  0.0000000  1.6024720  3
   1855   1854   1853   1860     1  0.0000000  0.6508444  3
   1859   1855   1854   1873     1  0.0000000  0.6508444  3
   1860   1853   1854   1873     1  0.0000000  0.6508444  3
   1860   1853   1851   1871     1  0.0000000  4.9162000  2
   1860   1853   1851   1871     1  0.0000000  0.6024960  3
   1861   1850   1851   1871     1  0.0000000  0.6508444  3
   1866   1861   1850   1868     1  0.0000000  4.9162000  2
   1866   1861   1850   1868     1  0.0000000  0.6024960  3
   1868   1855   1854   1873     1  0.0000000  0.6508444  3
   1868   1850   1851   1871     1  0.0000000  4.9162000  2
   1868   1850   1851   1871     1  0.0000000  0.6024960  3
   1874   1875   1877   1878     1  180.0000771  0.8368000  1
   1874   1875   1877   1878     1  180.0000771  1.0460000  2
   1874   1875   1877   1878     1  0.0000000  0.7531200  3
   1874   1875   1877   1884     1  0.0000000  0.6508444  3
   1874   1892   1879   1883     1  0.0000000  1.6038667  3
   1874   1892   1879   1878     1  180.0000771  0.4184000  2
   1874   1892   1879   1878     1  0.0000000  1.6024720  3
   1875   1877   1878   1879     1  180.0000771  0.8368000  1
   1875   1877   1878   1879     1  180.0000771  1.0460000  2
   1875   1877   1878   1879     1  0.0000000  0.7531200  3
   1875   1877   1878   1897     1  0.0000000  0.6508444  3
   1875   1874   1885   1890     1  0.0000000  0.6508444  3
   1875   1874   1892   1879     1  180.0000771  0.4184000  2
   1875   1874   1892   1879     1  0.0000000  1.6024720  3
   1877   1878   1879   1883     1  0.0000000  0.6508444  3
   1877   1878   1879   1892     1  0.0000000  0.6508444  3
   1877   1875   1874   1885     1  180.0000771  0.8368000  1
   1877   1875   1874   1885     1  180.0000771  1.0460000  2
   1877   1875   1874   1885     1  0.0000000  0.7531200  3
   1877   1875   1874   1892     1  0.0000000  0.6508444  3
   1878   1877   1875   1895     1  0.0000000  0.6508444  3
   1879   1892   1874   1885     1  180.0000771  0.4184000  2
   1879   1892   1874   1885     1  0.0000000  1.6024720  3
   1879   1878   1877   1884     1  0.0000000  0.6508444  3
   1883   1879   1878   1897     1  0.0000000  0.6508444  3
   1884   1877   1878   1897     1  0.0000000  0.6508444  3
   1884   1877   1875   1895     1  0.0000000  4.9162000  2
   1884   1877   1875   1895     1  0.0000000  0.6024960  3
   1885   1874   1875   1895     1  0.0000000  0.6508444  3
   1890   1885   1874   1892     1  0.0000000  4.9162000  2
   1890   1885   1874   1892     1  0.0000000  0.6024960  3
   1892   1879   1878   1897     1  0.0000000  0.6508444  3
   1892   1874   1875   1895     1  0.0000000  4.9162000  2
   1892   1874   1875   1895     1  0.0000000  0.6024960  3
   1899   1901   1903   1907     1  0.0000000  0.6508444  3
   1901   1903   1907   1908     1  0.0000000  0.6508444  3
   1901   1903   1907   1909     1  0.0000000  0.6508444  3
   1903   1907   1908   1919     1  0.0000000  0.6508444  3
   1903   1907   1909   1911     1  0.0000000  0.6508444  3
   1907   1908   1919   1922     1  0.0000000  0.6508444  3
   1907   1909   1911   1915     1  0.0000000  0.6508444  3
   1908   1907   1909   1911     1  0.0000000  0.6508444  3
   1908   1919   1922   1923     1  180.0000771  0.0000000  2
   1908   1919   1922   1971     1  180.0000771  0.0000000  2
   1909   1907   1908   1919     1  0.0000000  0.6508444  3
   1909   1911   1915   1916     1  180.0000771  0.0000000  2
   1909   1911   1915   1947     1  180.0000771  0.0000000  2
   1911   1915   1947   1928     1  180.0000771  6.0668000  2
   1911   1915   1947   1928     1  180.0000771  1.4644000  4
   1915   1947   1928   1927     1  0.0000000  1.2552000  3
   1915   1947   1928   1929     1  0.0000000  1.2552000  3
   1916   1915   1947   1928     1  180.0000771  6.0668000  2
   1916   1915   1947   1928     1  180.0000771  1.4644000  4
   1919   1922   1971   1952     1  180.0000771  6.0668000  2
   1919   1922   1971   1952     1  180.0000771  1.4644000  4
   1922   1971   1952   1951     1  0.0000000  1.2552000  3
   1922   1971   1952   1953     1  0.0000000  1.2552000  3
   1923   1922   1971   1952     1  180.0000771  6.0668000  2
   1923   1922   1971   1952     1  180.0000771  1.4644000  4
   1924   1925   1927   1928     1  180.0000771  0.8368000  1
   1924   1925   1927   1928     1  180.0000771  1.0460000  2
   1924   1925   1927   1928     1  0.0000000  0.7531200  3
   1924   1925   1927   1934     1  0.0000000  0.6508444  3
   1924   1942   1929   1928     1  180.0000771  0.4184000  2
   1924   1942   1929   1928     1  0.0000000  1.6024720  3
   1924   1942   1929   1933     1  0.0000000  1.6038667  3
   1925   1924   1935   1940     1  0.0000000  0.6508444  3
   1925   1924   1942   1929     1  180.0000771  0.4184000  2
   1925   1924   1942   1929     1  0.0000000  1.6024720  3
   1925   1927   1928   1929     1  180.0000771  0.8368000  1
   1925   1927   1928   1929     1  180.0000771  1.0460000  2
   1925   1927   1928   1929     1  0.0000000  0.7531200  3
   1925   1927   1928   1947     1  0.0000000  0.6508444  3
   1927   1925   1924   1935     1  180.0000771  0.8368000  1
   1927   1925   1924   1935     1  180.0000771  1.0460000  2
   1927   1925   1924   1935     1  0.0000000  0.7531200  3
   1927   1925   1924   1942     1  0.0000000  0.6508444  3
   1927   1928   1929   1933     1  0.0000000  0.6508444  3
   1927   1928   1929   1942     1  0.0000000  0.6508444  3
   1928   1927   1925   1945     1  0.0000000  0.6508444  3
   1929   1928   1927   1934     1  0.0000000  0.6508444  3
   1929   1942   1924   1935     1  180.0000771  0.4184000  2
   1929   1942   1924   1935     1  0.0000000  1.6024720  3
   1933   1929   1928   1947     1  0.0000000  0.6508444  3
   1934   1927   1925   1945     1  0.0000000  4.9162000  2
   1934   1927   1925   1945     1  0.0000000  0.6024960  3
   1934   1927   1928   1947     1  0.0000000  0.6508444  3
   1935   1924   1925   1945     1  0.0000000  0.6508444  3
   1940   1935   1924   1942     1  0.0000000  4.9162000  2
   1940   1935   1924   1942     1  0.0000000  0.6024960  3
   1942   1924   1925   1945     1  0.0000000  4.9162000  2
   1942   1924   1925   1945     1  0.0000000  0.6024960  3
   1942   1929   1928   1947     1  0.0000000  0.6508444  3
   1948   1949   1951   1952     1  180.0000771  0.8368000  1
   1948   1949   1951   1952     1  180.0000771  1.0460000  2
   1948   1949   1951   1952     1  0.0000000  0.7531200  3
   1948   1949   1951   1958     1  0.0000000  0.6508444  3
   1948   1966   1953   1952     1  180.0000771  0.4184000  2
   1948   1966   1953   1952     1  0.0000000  1.6024720  3
   1948   1966   1953   1957     1  0.0000000  1.6038667  3
   1949   1948   1959   1964     1  0.0000000  0.6508444  3
   1949   1948   1966   1953     1  180.0000771  0.4184000  2
   1949   1948   1966   1953     1  0.0000000  1.6024720  3
   1949   1951   1952   1953     1  180.0000771  0.8368000  1
   1949   1951   1952   1953     1  180.0000771  1.0460000  2
   1949   1951   1952   1953     1  0.0000000  0.7531200  3
   1949   1951   1952   1971     1  0.0000000  0.6508444  3
   1951   1949   1948   1959     1  180.0000771  0.8368000  1
   1951   1949   1948   1959     1  180.0000771  1.0460000  2
   1951   1949   1948   1959     1  0.0000000  0.7531200  3
   1951   1949   1948   1966     1  0.0000000  0.6508444  3
   1951   1952   1953   1957     1  0.0000000  0.6508444  3
   1951   1952   1953   1966     1  0.0000000  0.6508444  3
   1952   1951   1949   1969     1  0.0000000  0.6508444  3
   1953   1952   1951   1958     1  0.0000000  0.6508444  3
   1953   1966   1948   1959     1  180.0000771  0.4184000  2
   1953   1966   1948   1959     1  0.0000000  1.6024720  3
   1957   1953   1952   1971     1  0.0000000  0.6508444  3
   1958   1951   1949   1969     1  0.0000000  4.9162000  2
   1958   1951   1949   1969     1  0.0000000  0.6024960  3
   1958   1951   1952   1971     1  0.0000000  0.6508444  3
   1959   1948   1949   1969     1  0.0000000  0.6508444  3
   1964   1959   1948   1966     1  0.0000000  4.9162000  2
   1964   1959   1948   1966     1  0.0000000  0.6024960  3
   1966   1948   1949   1969     1  0.0000000  4.9162000  2
   1966   1948   1949   1969     1  0.0000000  0.6024960  3
   1966   1953   1952   1971     1  0.0000000  0.6508444  3
   1973   1975   1977   1981     1  0.0000000  0.6508444  3
   1975   1977   1981   1982     1  0.0000000  0.6508444  3
   1975   1977   1981   1983     1  0.0000000  0.6508444  3
   1977   1981   1982   1993     1  0.0000000  0.6508444  3
   1977   1981   1983   1985     1  0.0000000  0.6508444  3
   1981   1982   1993   1996     1  0.0000000  0.6508444  3
   1981   1983   1985   1989     1  0.0000000  0.6508444  3
   1982   1993   1996   1997     1  180.0000771  0.0000000  2
   1982   1993   1996   2045     1  180.0000771  0.0000000  2
   1982   1981   1983   1985     1  0.0000000  0.6508444  3
   1983   1985   1989   1990     1  180.0000771  0.0000000  2
   1983   1985   1989   2021     1  180.0000771  0.0000000  2
   1983   1981   1982   1993     1  0.0000000  0.6508444  3
   1985   1989   2021   2002     1  180.0000771  6.0668000  2
   1985   1989   2021   2002     1  180.0000771  1.4644000  4
   1989   2021   2002   2003     1  0.0000000  1.2552000  3
   1989   2021   2002   2001     1  0.0000000  1.2552000  3
   1990   1989   2021   2002     1  180.0000771  6.0668000  2
   1990   1989   2021   2002     1  180.0000771  1.4644000  4
   1993   1996   2045   2026     1  180.0000771  6.0668000  2
   1993   1996   2045   2026     1  180.0000771  1.4644000  4
   1996   2045   2026   2027     1  0.0000000  1.2552000  3
   1996   2045   2026   2025     1  0.0000000  1.2552000  3
   1997   1996   2045   2026     1  180.0000771  6.0668000  2
   1997   1996   2045   2026     1  180.0000771  1.4644000  4
   1998   1999   2001   2002     1  180.0000771  0.8368000  1
   1998   1999   2001   2002     1  180.0000771  1.0460000  2
   1998   1999   2001   2002     1  0.0000000  0.7531200  3
   1998   1999   2001   2008     1  0.0000000  0.6508444  3
   1998   2016   2003   2007     1  0.0000000  1.6038667  3
   1998   2016   2003   2002     1  180.0000771  0.4184000  2
   1998   2016   2003   2002     1  0.0000000  1.6024720  3
   1999   2001   2002   2003     1  180.0000771  0.8368000  1
   1999   2001   2002   2003     1  180.0000771  1.0460000  2
   1999   2001   2002   2003     1  0.0000000  0.7531200  3
   1999   2001   2002   2021     1  0.0000000  0.6508444  3
   1999   1998   2009   2014     1  0.0000000  0.6508444  3
   1999   1998   2016   2003     1  180.0000771  0.4184000  2
   1999   1998   2016   2003     1  0.0000000  1.6024720  3
   2001   2002   2003   2007     1  0.0000000  0.6508444  3
   2001   2002   2003   2016     1  0.0000000  0.6508444  3
   2001   1999   1998   2009     1  180.0000771  0.8368000  1
   2001   1999   1998   2009     1  180.0000771  1.0460000  2
   2001   1999   1998   2009     1  0.0000000  0.7531200  3
   2001   1999   1998   2016     1  0.0000000  0.6508444  3
   2002   2001   1999   2019     1  0.0000000  0.6508444  3
   2003   2016   1998   2009     1  180.0000771  0.4184000  2
   2003   2016   1998   2009     1  0.0000000  1.6024720  3
   2003   2002   2001   2008     1  0.0000000  0.6508444  3
   2007   2003   2002   2021     1  0.0000000  0.6508444  3
   2008   2001   2002   2021     1  0.0000000  0.6508444  3
   2008   2001   1999   2019     1  0.0000000  4.9162000  2
   2008   2001   1999   2019     1  0.0000000  0.6024960  3
   2009   1998   1999   2019     1  0.0000000  0.6508444  3
   2014   2009   1998   2016     1  0.0000000  4.9162000  2
   2014   2009   1998   2016     1  0.0000000  0.6024960  3
   2016   2003   2002   2021     1  0.0000000  0.6508444  3
   2016   1998   1999   2019     1  0.0000000  4.9162000  2
   2016   1998   1999   2019     1  0.0000000  0.6024960  3
   2022   2023   2025   2026     1  180.0000771  0.8368000  1
   2022   2023   2025   2026     1  180.0000771  1.0460000  2
   2022   2023   2025   2026     1  0.0000000  0.7531200  3
   2022   2023   2025   2032     1  0.0000000  0.6508444  3
   2022   2040   2027   2031     1  0.0000000  1.6038667  3
   2022   2040   2027   2026     1  180.0000771  0.4184000  2
   2022   2040   2027   2026     1  0.0000000  1.6024720  3
   2023   2025   2026   2027     1  180.0000771  0.8368000  1
   2023   2025   2026   2027     1  180.0000771  1.0460000  2
   2023   2025   2026   2027     1  0.0000000  0.7531200  3
   2023   2025   2026   2045     1  0.0000000  0.6508444  3
   2023   2022   2033   2038     1  0.0000000  0.6508444  3
   2023   2022   2040   2027     1  180.0000771  0.4184000  2
   2023   2022   2040   2027     1  0.0000000  1.6024720  3
   2025   2026   2027   2031     1  0.0000000  0.6508444  3
   2025   2026   2027   2040     1  0.0000000  0.6508444  3
   2025   2023   2022   2033     1  180.0000771  0.8368000  1
   2025   2023   2022   2033     1  180.0000771  1.0460000  2
   2025   2023   2022   2033     1  0.0000000  0.7531200  3
   2025   2023   2022   2040     1  0.0000000  0.6508444  3
   2026   2025   2023   2043     1  0.0000000  0.6508444  3
   2027   2040   2022   2033     1  180.0000771  0.4184000  2
   2027   2040   2022   2033     1  0.0000000  1.6024720  3
   2027   2026   2025   2032     1  0.0000000  0.6508444  3
   2031   2027   2026   2045     1  0.0000000  0.6508444  3
   2032   2025   2026   2045     1  0.0000000  0.6508444  3
   2032   2025   2023   2043     1  0.0000000  4.9162000  2
   2032   2025   2023   2043     1  0.0000000  0.6024960  3
   2033   2022   2023   2043     1  0.0000000  0.6508444  3
   2038   2033   2022   2040     1  0.0000000  4.9162000  2
   2038   2033   2022   2040     1  0.0000000  0.6024960  3
   2040   2027   2026   2045     1  0.0000000  0.6508444  3
   2040   2022   2023   2043     1  0.0000000  4.9162000  2
   2040   2022   2023   2043     1  0.0000000  0.6024960  3
   2047   2049   2051   2055     1  0.0000000  0.6508444  3
   2049   2051   2055   2056     1  0.0000000  0.6508444  3
   2049   2051   2055   2057     1  0.0000000  0.6508444  3
   2051   2055   2056   2067     1  0.0000000  0.6508444  3
   2051   2055   2057   2059     1  0.0000000  0.6508444  3
   2055   2056   2067   2070     1  0.0000000  0.6508444  3
   2055   2057   2059   2063     1  0.0000000  0.6508444  3
   2056   2055   2057   2059     1  0.0000000  0.6508444  3
   2056   2067   2070   2071     1  180.0000771  0.0000000  2
   2056   2067   2070   2119     1  180.0000771  0.0000000  2
   2057   2055   2056   2067     1  0.0000000  0.6508444  3
   2057   2059   2063   2064     1  180.0000771  0.0000000  2
   2057   2059   2063   2095     1  180.0000771  0.0000000  2
   2059   2063   2095   2076     1  180.0000771  6.0668000  2
   2059   2063   2095   2076     1  180.0000771  1.4644000  4
   2063   2095   2076   2075     1  0.0000000  1.2552000  3
   2063   2095   2076   2077     1  0.0000000  1.2552000  3
   2064   2063   2095   2076     1  180.0000771  6.0668000  2
   2064   2063   2095   2076     1  180.0000771  1.4644000  4
   2067   2070   2119   2100     1  180.0000771  6.0668000  2
   2067   2070   2119   2100     1  180.0000771  1.4644000  4
   2070   2119   2100   2099     1  0.0000000  1.2552000  3
   2070   2119   2100   2101     1  0.0000000  1.2552000  3
   2071   2070   2119   2100     1  180.0000771  6.0668000  2
   2071   2070   2119   2100     1  180.0000771  1.4644000  4
   2072   2073   2075   2076     1  180.0000771  0.8368000  1
   2072   2073   2075   2076     1  180.0000771  1.0460000  2
   2072   2073   2075   2076     1  0.0000000  0.7531200  3
   2072   2073   2075   2082     1  0.0000000  0.6508444  3
   2072   2090   2077   2076     1  180.0000771  0.4184000  2
   2072   2090   2077   2076     1  0.0000000  1.6024720  3
   2072   2090   2077   2081     1  0.0000000  1.6038667  3
   2073   2072   2083   2088     1  0.0000000  0.6508444  3
   2073   2072   2090   2077     1  180.0000771  0.4184000  2
   2073   2072   2090   2077     1  0.0000000  1.6024720  3
   2073   2075   2076   2077     1  180.0000771  0.8368000  1
   2073   2075   2076   2077     1  180.0000771  1.0460000  2
   2073   2075   2076   2077     1  0.0000000  0.7531200  3
   2073   2075   2076   2095     1  0.0000000  0.6508444  3
   2075   2073   2072   2083     1  180.0000771  0.8368000  1
   2075   2073   2072   2083     1  180.0000771  1.0460000  2
   2075   2073   2072   2083     1  0.0000000  0.7531200  3
   2075   2073   2072   2090     1  0.0000000  0.6508444  3
   2075   2076   2077   2081     1  0.0000000  0.6508444  3
   2075   2076   2077   2090     1  0.0000000  0.6508444  3
   2076   2075   2073   2093     1  0.0000000  0.6508444  3
   2077   2076   2075   2082     1  0.0000000  0.6508444  3
   2077   2090   2072   2083     1  180.0000771  0.4184000  2
   2077   2090   2072   2083     1  0.0000000  1.6024720  3
   2081   2077   2076   2095     1  0.0000000  0.6508444  3
   2082   2075   2073   2093     1  0.0000000  4.9162000  2
   2082   2075   2073   2093     1  0.0000000  0.6024960  3
   2082   2075   2076   2095     1  0.0000000  0.6508444  3
   2083   2072   2073   2093     1  0.0000000  0.6508444  3
   2088   2083   2072   2090     1  0.0000000  4.9162000  2
   2088   2083   2072   2090     1  0.0000000  0.6024960  3
   2090   2072   2073   2093     1  0.0000000  4.9162000  2
   2090   2072   2073   2093     1  0.0000000  0.6024960  3
   2090   2077   2076   2095     1  0.0000000  0.6508444  3
   2096   2097   2099   2100     1  180.0000771  0.8368000  1
   2096   2097   2099   2100     1  180.0000771  1.0460000  2
   2096   2097   2099   2100     1  0.0000000  0.7531200  3
   2096   2097   2099   2106     1  0.0000000  0.6508444  3
   2096   2114   2101   2100     1  180.0000771  0.4184000  2
   2096   2114   2101   2100     1  0.0000000  1.6024720  3
   2096   2114   2101   2105     1  0.0000000  1.6038667  3
   2097   2096   2107   2112     1  0.0000000  0.6508444  3
   2097   2096   2114   2101     1  180.0000771  0.4184000  2
   2097   2096   2114   2101     1  0.0000000  1.6024720  3
   2097   2099   2100   2101     1  180.0000771  0.8368000  1
   2097   2099   2100   2101     1  180.0000771  1.0460000  2
   2097   2099   2100   2101     1  0.0000000  0.7531200  3
   2097   2099   2100   2119     1  0.0000000  0.6508444  3
   2099   2097   2096   2107     1  180.0000771  0.8368000  1
   2099   2097   2096   2107     1  180.0000771  1.0460000  2
   2099   2097   2096   2107     1  0.0000000  0.7531200  3
   2099   2097   2096   2114     1  0.0000000  0.6508444  3
   2099   2100   2101   2105     1  0.0000000  0.6508444  3
   2099   2100   2101   2114     1  0.0000000  0.6508444  3
   2100   2099   2097   2117     1  0.0000000  0.6508444  3
   2101   2100   2099   2106     1  0.0000000  0.6508444  3
   2101   2114   2096   2107     1  180.0000771  0.4184000  2
   2101   2114   2096   2107     1  0.0000000  1.6024720  3
   2105   2101   2100   2119     1  0.0000000  0.6508444  3
   2106   2099   2097   2117     1  0.0000000  4.9162000  2
   2106   2099   2097   2117     1  0.0000000  0.6024960  3
   2106   2099   2100   2119     1  0.0000000  0.6508444  3
   2107   2096   2097   2117     1  0.0000000  0.6508444  3
   2112   2107   2096   2114     1  0.0000000  4.9162000  2
   2112   2107   2096   2114     1  0.0000000  0.6024960  3
   2114   2096   2097   2117     1  0.0000000  4.9162000  2
   2114   2096   2097   2117     1  0.0000000  0.6024960  3
   2114   2101   2100   2119     1  0.0000000  0.6508444  3
   2121   2123   2125   2129     1  0.0000000  0.6508444  3
   2123   2125   2129   2130     1  0.0000000  0.6508444  3
   2123   2125   2129   2131     1  0.0000000  0.6508444  3
   2125   2129   2130   2141     1  0.0000000  0.6508444  3
   2125   2129   2131   2133     1  0.0000000  0.6508444  3
   2129   2130   2141   2144     1  0.0000000  0.6508444  3
   2129   2131   2133   2137     1  0.0000000  0.6508444  3
   2130   2141   2144   2145     1  180.0000771  0.0000000  2
   2130   2141   2144   2193     1  180.0000771  0.0000000  2
   2130   2129   2131   2133     1  0.0000000  0.6508444  3
   2131   2133   2137   2138     1  180.0000771  0.0000000  2
   2131   2133   2137   2169     1  180.0000771  0.0000000  2
   2131   2129   2130   2141     1  0.0000000  0.6508444  3
   2133   2137   2169   2150     1  180.0000771  6.0668000  2
   2133   2137   2169   2150     1  180.0000771  1.4644000  4
   2137   2169   2150   2151     1  0.0000000  1.2552000  3
   2137   2169   2150   2149     1  0.0000000  1.2552000  3
   2138   2137   2169   2150     1  180.0000771  6.0668000  2
   2138   2137   2169   2150     1  180.0000771  1.4644000  4
   2141   2144   2193   2174     1  180.0000771  6.0668000  2
   2141   2144   2193   2174     1  180.0000771  1.4644000  4
   2144   2193   2174   2175     1  0.0000000  1.2552000  3
   2144   2193   2174   2173     1  0.0000000  1.2552000  3
   2145   2144   2193   2174     1  180.0000771  6.0668000  2
   2145   2144   2193   2174     1  180.0000771  1.4644000  4
   2146   2147   2149   2150     1  180.0000771  0.8368000  1
   2146   2147   2149   2150     1  180.0000771  1.0460000  2
   2146   2147   2149   2150     1  0.0000000  0.7531200  3
   2146   2147   2149   2156     1  0.0000000  0.6508444  3
   2146   2164   2151   2155     1  0.0000000  1.6038667  3
   2146   2164   2151   2150     1  180.0000771  0.4184000  2
   2146   2164   2151   2150     1  0.0000000  1.6024720  3
   2147   2149   2150   2151     1  180.0000771  0.8368000  1
   2147   2149   2150   2151     1  180.0000771  1.0460000  2
   2147   2149   2150   2151     1  0.0000000  0.7531200  3
   2147   2149   2150   2169     1  0.0000000  0.6508444  3
   2147   2146   2157   2162     1  0.0000000  0.6508444  3
   2147   2146   2164   2151     1  180.0000771  0.4184000  2
   2147   2146   2164   2151     1  0.0000000  1.6024720  3
   2149   2150   2151   2155     1  0.0000000  0.6508444  3
   2149   2150   2151   2164     1  0.0000000  0.6508444  3
   2149   2147   2146   2157     1  180.0000771  0.8368000  1
   2149   2147   2146   2157     1  180.0000771  1.0460000  2
   2149   2147   2146   2157     1  0.0000000  0.7531200  3
   2149   2147   2146   2164     1  0.0000000  0.6508444  3
   2150   2149   2147   2167     1  0.0000000  0.6508444  3
   2151   2164   2146   2157     1  180.0000771  0.4184000  2
   2151   2164   2146   2157     1  0.0000000  1.6024720  3
   2151   2150   2149   2156     1  0.0000000  0.6508444  3
   2155   2151   2150   2169     1  0.0000000  0.6508444  3
   2156   2149   2150   2169     1  0.0000000  0.6508444  3
   2156   2149   2147   2167     1  0.0000000  4.9162000  2
   2156   2149   2147   2167     1  0.0000000  0.6024960  3
   2157   2146   2147   2167     1  0.0000000  0.6508444  3
   2162   2157   2146   2164     1  0.0000000  4.9162000  2
   2162   2157   2146   2164     1  0.0000000  0.6024960  3
   2164   2151   2150   2169     1  0.0000000  0.6508444  3
   2164   2146   2147   2167     1  0.0000000  4.9162000  2
   2164   2146   2147   2167     1  0.0000000  0.6024960  3
   2170   2171   2173   2174     1  180.0000771  0.8368000  1
   2170   2171   2173   2174     1  180.0000771  1.0460000  2
   2170   2171   2173   2174     1  0.0000000  0.7531200  3
   2170   2171   2173   2180     1  0.0000000  0.6508444  3
   2170   2188   2175   2179     1  0.0000000  1.6038667  3
   2170   2188   2175   2174     1  180.0000771  0.4184000  2
   2170   2188   2175   2174     1  0.0000000  1.6024720  3
   2171   2173   2174   2175     1  180.0000771  0.8368000  1
   2171   2173   2174   2175     1  180.0000771  1.0460000  2
   2171   2173   2174   2175     1  0.0000000  0.7531200  3
   2171   2173   2174   2193     1  0.0000000  0.6508444  3
   2171   2170   2181   2186     1  0.0000000  0.6508444  3
   2171   2170   2188   2175     1  180.0000771  0.4184000  2
   2171   2170   2188   2175     1  0.0000000  1.6024720  3
   2173   2174   2175   2179     1  0.0000000  0.6508444  3
   2173   2174   2175   2188     1  0.0000000  0.6508444  3
   2173   2171   2170   2181     1  180.0000771  0.8368000  1
   2173   2171   2170   2181     1  180.0000771  1.0460000  2
   2173   2171   2170   2181     1  0.0000000  0.7531200  3
   2173   2171   2170   2188     1  0.0000000  0.6508444  3
   2174   2173   2171   2191     1  0.0000000  0.6508444  3
   2175   2188   2170   2181     1  180.0000771  0.4184000  2
   2175   2188   2170   2181     1  0.0000000  1.6024720  3
   2175   2174   2173   2180     1  0.0000000  0.6508444  3
   2179   2175   2174   2193     1  0.0000000  0.6508444  3
   2180   2173   2174   2193     1  0.0000000  0.6508444  3
   2180   2173   2171   2191     1  0.0000000  4.9162000  2
   2180   2173   2171   2191     1  0.0000000  0.6024960  3
   2181   2170   2171   2191     1  0.0000000  0.6508444  3
   2186   2181   2170   2188     1  0.0000000  4.9162000  2
   2186   2181   2170   2188     1  0.0000000  0.6024960  3
   2188   2175   2174   2193     1  0.0000000  0.6508444  3
   2188   2170   2171   2191     1  0.0000000  4.9162000  2
   2188   2170   2171   2191     1  0.0000000  0.6024960  3
   2195   2197   2199   2203     1  0.0000000  0.6508444  3
   2197   2199   2203   2204     1  0.0000000  0.6508444  3
   2197   2199   2203   2205     1  0.0000000  0.6508444  3
   2199   2203   2204   2215     1  0.0000000  0.6508444  3
   2199   2203   2205   2207     1  0.0000000  0.6508444  3
   2203   2204   2215   2218     1  0.0000000  0.6508444  3
   2203   2205   2207   2211     1  0.0000000  0.6508444  3
   2204   2203   2205   2207     1  0.0000000  0.6508444  3
   2204   2215   2218   2219     1  180.0000771  0.0000000  2
   2204   2215   2218   2267     1  180.0000771  0.0000000  2
   2205   2203   2204   2215     1  0.0000000  0.6508444  3
   2205   2207   2211   2212     1  180.0000771  0.0000000  2
   2205   2207   2211   2243     1  180.0000771  0.0000000  2
   2207   2211   2243   2224     1  180.0000771  6.0668000  2
   2207   2211   2243   2224     1  180.0000771  1.4644000  4
   2211   2243   2224   2223     1  0.0000000  1.2552000  3
   2211   2243   2224   2225     1  0.0000000  1.2552000  3
   2212   2211   2243   2224     1  180.0000771  6.0668000  2
   2212   2211   2243   2224     1  180.0000771  1.4644000  4
   2215   2218   2267   2248     1  180.0000771  6.0668000  2
   2215   2218   2267   2248     1  180.0000771  1.4644000  4
   2218   2267   2248   2247     1  0.0000000  1.2552000  3
   2218   2267   2248   2249     1  0.0000000  1.2552000  3
   2219   2218   2267   2248     1  180.0000771  6.0668000  2
   2219   2218   2267   2248     1  180.0000771  1.4644000  4
   2220   2221   2223   2224     1  180.0000771  0.8368000  1
   2220   2221   2223   2224     1  180.0000771  1.0460000  2
   2220   2221   2223   2224     1  0.0000000  0.7531200  3
   2220   2221   2223   2230     1  0.0000000  0.6508444  3
   2220   2238   2225   2224     1  180.0000771  0.4184000  2
   2220   2238   2225   2224     1  0.0000000  1.6024720  3
   2220   2238   2225   2229     1  0.0000000  1.6038667  3
   2221   2220   2231   2236     1  0.0000000  0.6508444  3
   2221   2220   2238   2225     1  180.0000771  0.4184000  2
   2221   2220   2238   2225     1  0.0000000  1.6024720  3
   2221   2223   2224   2225     1  180.0000771  0.8368000  1
   2221   2223   2224   2225     1  180.0000771  1.0460000  2
   2221   2223   2224   2225     1  0.0000000  0.7531200  3
   2221   2223   2224   2243     1  0.0000000  0.6508444  3
   2223   2221   2220   2231     1  180.0000771  0.8368000  1
   2223   2221   2220   2231     1  180.0000771  1.0460000  2
   2223   2221   2220   2231     1  0.0000000  0.7531200  3
   2223   2221   2220   2238     1  0.0000000  0.6508444  3
   2223   2224   2225   2229     1  0.0000000  0.6508444  3
   2223   2224   2225   2238     1  0.0000000  0.6508444  3
   2224   2223   2221   2241     1  0.0000000  0.6508444  3
   2225   2224   2223   2230     1  0.0000000  0.6508444  3
   2225   2238   2220   2231     1  180.0000771  0.4184000  2
   2225   2238   2220   2231     1  0.0000000  1.6024720  3
   2229   2225   2224   2243     1  0.0000000  0.6508444  3
   2230   2223   2221   2241     1  0.0000000  4.9162000  2
   2230   2223   2221   2241     1  0.0000000  0.6024960  3
   2230   2223   2224   2243     1  0.0000000  0.6508444  3
   2231   2220   2221   2241     1  0.0000000  0.6508444  3
   2236   2231   2220   2238     1  0.0000000  4.9162000  2
   2236   2231   2220   2238     1  0.0000000  0.6024960  3
   2238   2220   2221   2241     1  0.0000000  4.9162000  2
   2238   2220   2221   2241     1  0.0000000  0.6024960  3
   2238   2225   2224   2243     1  0.0000000  0.6508444  3
   2244   2245   2247   2248     1  180.0000771  0.8368000  1
   2244   2245   2247   2248     1  180.0000771  1.0460000  2
   2244   2245   2247   2248     1  0.0000000  0.7531200  3
   2244   2245   2247   2254     1  0.0000000  0.6508444  3
   2244   2262   2249   2248     1  180.0000771  0.4184000  2
   2244   2262   2249   2248     1  0.0000000  1.6024720  3
   2244   2262   2249   2253     1  0.0000000  1.6038667  3
   2245   2244   2255   2260     1  0.0000000  0.6508444  3
   2245   2244   2262   2249     1  180.0000771  0.4184000  2
   2245   2244   2262   2249     1  0.0000000  1.6024720  3
   2245   2247   2248   2249     1  180.0000771  0.8368000  1
   2245   2247   2248   2249     1  180.0000771  1.0460000  2
   2245   2247   2248   2249     1  0.0000000  0.7531200  3
   2245   2247   2248   2267     1  0.0000000  0.6508444  3
   2247   2245   2244   2255     1  180.0000771  0.8368000  1
   2247   2245   2244   2255     1  180.0000771  1.0460000  2
   2247   2245   2244   2255     1  0.0000000  0.7531200  3
   2247   2245   2244   2262     1  0.0000000  0.6508444  3
   2247   2248   2249   2253     1  0.0000000  0.6508444  3
   2247   2248   2249   2262     1  0.0000000  0.6508444  3
   2248   2247   2245   2265     1  0.0000000  0.6508444  3
   2249   2248   2247   2254     1  0.0000000  0.6508444  3
   2249   2262   2244   2255     1  180.0000771  0.4184000  2
   2249   2262   2244   2255     1  0.0000000  1.6024720  3
   2253   2249   2248   2267     1  0.0000000  0.6508444  3
   2254   2247   2245   2265     1  0.0000000  4.9162000  2
   2254   2247   2245   2265     1  0.0000000  0.6024960  3
   2254   2247   2248   2267     1  0.0000000  0.6508444  3
   2255   2244   2245   2265     1  0.0000000  0.6508444  3
   2260   2255   2244   2262     1  0.0000000  4.9162000  2
   2260   2255   2244   2262     1  0.0000000  0.6024960  3
   2262   2244   2245   2265     1  0.0000000  4.9162000  2
   2262   2244   2245   2265     1  0.0000000  0.6024960  3
   2262   2249   2248   2267     1  0.0000000  0.6508444  3
   2269   2271   2273   2277     1  0.0000000  0.6508444  3
   2271   2273   2277   2278     1  0.0000000  0.6508444  3
   2271   2273   2277   2279     1  0.0000000  0.6508444  3
   2273   2277   2278   2289     1  0.0000000  0.6508444  3
   2273   2277   2279   2281     1  0.0000000  0.6508444  3
   2277   2278   2289   2292     1  0.0000000  0.6508444  3
   2277   2279   2281   2285     1  0.0000000  0.6508444  3
   2278   2289   2292   2293     1  180.0000771  0.0000000  2
   2278   2289   2292   2341     1  180.0000771  0.0000000  2
   2278   2277   2279   2281     1  0.0000000  0.6508444  3
   2279   2281   2285   2286     1  180.0000771  0.0000000  2
   2279   2281   2285   2317     1  180.0000771  0.0000000  2
   2279   2277   2278   2289     1  0.0000000  0.6508444  3
   2281   2285   2317   2298     1  180.0000771  6.0668000  2
   2281   2285   2317   2298     1  180.0000771  1.4644000  4
   2285   2317   2298   2299     1  0.0000000  1.2552000  3
   2285   2317   2298   2297     1  0.0000000  1.2552000  3
   2286   2285   2317   2298     1  180.0000771  6.0668000  2
   2286   2285   2317   2298     1  180.0000771  1.4644000  4
   2289   2292   2341   2322     1  180.0000771  6.0668000  2
   2289   2292   2341   2322     1  180.0000771  1.4644000  4
   2292   2341   2322   2323     1  0.0000000  1.2552000  3
   2292   2341   2322   2321     1  0.0000000  1.2552000  3
   2293   2292   2341   2322     1  180.0000771  6.0668000  2
   2293   2292   2341   2322     1  180.0000771  1.4644000  4
   2294   2295   2297   2298     1  180.0000771  0.8368000  1
   2294   2295   2297   2298     1  180.0000771  1.0460000  2
   2294   2295   2297   2298     1  0.0000000  0.7531200  3
   2294   2295   2297   2304     1  0.0000000  0.6508444  3
   2294   2312   2299   2303     1  0.0000000  1.6038667  3
   2294   2312   2299   2298     1  180.0000771  0.4184000  2
   2294   2312   2299   2298     1  0.0000000  1.6024720  3
   2295   2297   2298   2299     1  180.0000771  0.8368000  1
   2295   2297   2298   2299     1  180.0000771  1.0460000  2
   2295   2297   2298   2299     1  0.0000000  0.7531200  3
   2295   2297   2298   2317     1  0.0000000  0.6508444  3
   2295   2294   2305   2310     1  0.0000000  0.6508444  3
   2295   2294   2312   2299     1  180.0000771  0.4184000  2
   2295   2294   2312   2299     1  0.0000000  1.6024720  3
   2297   2298   2299   2303     1  0.0000000  0.6508444  3
   2297   2298   2299   2312     1  0.0000000  0.6508444  3
   2297   2295   2294   2305     1  180.0000771  0.8368000  1
   2297   2295   2294   2305     1  180.0000771  1.0460000  2
   2297   2295   2294   2305     1  0.0000000  0.7531200  3
   2297   2295   2294   2312     1  0.0000000  0.6508444  3
   2298   2297   2295   2315     1  0.0000000  0.6508444  3
   2299   2312   2294   2305     1  180.0000771  0.4184000  2
   2299   2312   2294   2305     1  0.0000000  1.6024720  3
   2299   2298   2297   2304     1  0.0000000  0.6508444  3
   2303   2299   2298   2317     1  0.0000000  0.6508444  3
   2304   2297   2298   2317     1  0.0000000  0.6508444  3
   2304   2297   2295   2315     1  0.0000000  4.9162000  2
   2304   2297   2295   2315     1  0.0000000  0.6024960  3
   2305   2294   2295   2315     1  0.0000000  0.6508444  3
   2310   2305   2294   2312     1  0.0000000  4.9162000  2
   2310   2305   2294   2312     1  0.0000000  0.6024960  3
   2312   2299   2298   2317     1  0.0000000  0.6508444  3
   2312   2294   2295   2315     1  0.0000000  4.9162000  2
   2312   2294   2295   2315     1  0.0000000  0.6024960  3
   2318   2319   2321   2322     1  180.0000771  0.8368000  1
   2318   2319   2321   2322     1  180.0000771  1.0460000  2
   2318   2319   2321   2322     1  0.0000000  0.7531200  3
   2318   2319   2321   2328     1  0.0000000  0.6508444  3
   2318   2336   2323   2327     1  0.0000000  1.6038667  3
   2318   2336   2323   2322     1  180.0000771  0.4184000  2
   2318   2336   2323   2322     1  0.0000000  1.6024720  3
   2319   2321   2322   2323     1  180.0000771  0.8368000  1
   2319   2321   2322   2323     1  180.0000771  1.0460000  2
   2319   2321   2322   2323     1  0.0000000  0.7531200  3
   2319   2321   2322   2341     1  0.0000000  0.6508444  3
   2319   2318   2329   2334     1  0.0000000  0.6508444  3
   2319   2318   2336   2323     1  180.0000771  0.4184000  2
   2319   2318   2336   2323     1  0.0000000  1.6024720  3
   2321   2322   2323   2327     1  0.0000000  0.6508444  3
   2321   2322   2323   2336     1  0.0000000  0.6508444  3
   2321   2319   2318   2329     1  180.0000771  0.8368000  1
   2321   2319   2318   2329     1  180.0000771  1.0460000  2
   2321   2319   2318   2329     1  0.0000000  0.7531200  3
   2321   2319   2318   2336     1  0.0000000  0.6508444  3
   2322   2321   2319   2339     1  0.0000000  0.6508444  3
   2323   2336   2318   2329     1  180.0000771  0.4184000  2
   2323   2336   2318   2329     1  0.0000000  1.6024720  3
   2323   2322   2321   2328     1  0.0000000  0.6508444  3
   2327   2323   2322   2341     1  0.0000000  0.6508444  3
   2328   2321   2322   2341     1  0.0000000  0.6508444  3
   2328   2321   2319   2339     1  0.0000000  4.9162000  2
   2328   2321   2319   2339     1  0.0000000  0.6024960  3
   2329   2318   2319   2339     1  0.0000000  0.6508444  3
   2334   2329   2318   2336     1  0.0000000  4.9162000  2
   2334   2329   2318   2336     1  0.0000000  0.6024960  3
   2336   2323   2322   2341     1  0.0000000  0.6508444  3
   2336   2318   2319   2339     1  0.0000000  4.9162000  2
   2336   2318   2319   2339     1  0.0000000  0.6024960  3
   2343   2345   2347   2351     1  0.0000000  0.6508444  3
   2345   2347   2351   2352     1  0.0000000  0.6508444  3
   2345   2347   2351   2353     1  0.0000000  0.6508444  3
   2347   2351   2352   2363     1  0.0000000  0.6508444  3
   2347   2351   2353   2355     1  0.0000000  0.6508444  3
   2351   2352   2363   2366     1  0.0000000  0.6508444  3
   2351   2353   2355   2359     1  0.0000000  0.6508444  3
   2352   2351   2353   2355     1  0.0000000  0.6508444  3
   2352   2363   2366   2367     1  180.0000771  0.0000000  2
   2352   2363   2366   2415     1  180.0000771  0.0000000  2
   2353   2351   2352   2363     1  0.0000000  0.6508444  3
   2353   2355   2359   2360     1  180.0000771  0.0000000  2
   2353   2355   2359   2391     1  180.0000771  0.0000000  2
   2355   2359   2391   2372     1  180.0000771  6.0668000  2
   2355   2359   2391   2372     1  180.0000771  1.4644000  4
   2359   2391   2372   2371     1  0.0000000  1.2552000  3
   2359   2391   2372   2373     1  0.0000000  1.2552000  3
   2360   2359   2391   2372     1  180.0000771  6.0668000  2
   2360   2359   2391   2372     1  180.0000771  1.4644000  4
   2363   2366   2415   2396     1  180.0000771  6.0668000  2
   2363   2366   2415   2396     1  180.0000771  1.4644000  4
   2366   2415   2396   2395     1  0.0000000  1.2552000  3
   2366   2415   2396   2397     1  0.0000000  1.2552000  3
   2367   2366   2415   2396     1  180.0000771  6.0668000  2
   2367   2366   2415   2396     1  180.0000771  1.4644000  4
   2368   2369   2371   2372     1  180.0000771  0.8368000  1
   2368   2369   2371   2372     1  180.0000771  1.0460000  2
   2368   2369   2371   2372     1  0.0000000  0.7531200  3
   2368   2369   2371   2378     1  0.0000000  0.6508444  3
   2368   2386   2373   2372     1  180.0000771  0.4184000  2
   2368   2386   2373   2372     1  0.0000000  1.6024720  3
   2368   2386   2373   2377     1  0.0000000  1.6038667  3
   2369   2368   2379   2384     1  0.0000000  0.6508444  3
   2369   2368   2386   2373     1  180.0000771  0.4184000  2
   2369   2368   2386   2373     1  0.0000000  1.6024720  3
   2369   2371   2372   2373     1  180.0000771  0.8368000  1
   2369   2371   2372   2373     1  180.0000771  1.0460000  2
   2369   2371   2372   2373     1  0.0000000  0.7531200  3
   2369   2371   2372   2391     1  0.0000000  0.6508444  3
   2371   2369   2368   2379     1  180.0000771  0.8368000  1
   2371   2369   2368   2379     1  180.0000771  1.0460000  2
   2371   2369   2368   2379     1  0.0000000  0.7531200  3
   2371   2369   2368   2386     1  0.0000000  0.6508444  3
   2371   2372   2373   2377     1  0.0000000  0.6508444  3
   2371   2372   2373   2386     1  0.0000000  0.6508444  3
   2372   2371   2369   2389     1  0.0000000  0.6508444  3
   2373   2372   2371   2378     1  0.0000000  0.6508444  3
   2373   2386   2368   2379     1  180.0000771  0.4184000  2
   2373   2386   2368   2379     1  0.0000000  1.6024720  3
   2377   2373   2372   2391     1  0.0000000  0.6508444  3
   2378   2371   2369   2389     1  0.0000000  4.9162000  2
   2378   2371   2369   2389     1  0.0000000  0.6024960  3
   2378   2371   2372   2391     1  0.0000000  0.6508444  3
   2379   2368   2369   2389     1  0.0000000  0.6508444  3
   2384   2379   2368   2386     1  0.0000000  4.9162000  2
   2384   2379   2368   2386     1  0.0000000  0.6024960  3
   2386   2368   2369   2389     1  0.0000000  4.9162000  2
   2386   2368   2369   2389     1  0.0000000  0.6024960  3
   2386   2373   2372   2391     1  0.0000000  0.6508444  3
   2392   2393   2395   2396     1  180.0000771  0.8368000  1
   2392   2393   2395   2396     1  180.0000771  1.0460000  2
   2392   2393   2395   2396     1  0.0000000  0.7531200  3
   2392   2393   2395   2402     1  0.0000000  0.6508444  3
   2392   2410   2397   2396     1  180.0000771  0.4184000  2
   2392   2410   2397   2396     1  0.0000000  1.6024720  3
   2392   2410   2397   2401     1  0.0000000  1.6038667  3
   2393   2392   2403   2408     1  0.0000000  0.6508444  3
   2393   2392   2410   2397     1  180.0000771  0.4184000  2
   2393   2392   2410   2397     1  0.0000000  1.6024720  3
   2393   2395   2396   2397     1  180.0000771  0.8368000  1
   2393   2395   2396   2397     1  180.0000771  1.0460000  2
   2393   2395   2396   2397     1  0.0000000  0.7531200  3
   2393   2395   2396   2415     1  0.0000000  0.6508444  3
   2395   2393   2392   2403     1  180.0000771  0.8368000  1
   2395   2393   2392   2403     1  180.0000771  1.0460000  2
   2395   2393   2392   2403     1  0.0000000  0.7531200  3
   2395   2393   2392   2410     1  0.0000000  0.6508444  3
   2395   2396   2397   2401     1  0.0000000  0.6508444  3
   2395   2396   2397   2410     1  0.0000000  0.6508444  3
   2396   2395   2393   2413     1  0.0000000  0.6508444  3
   2397   2396   2395   2402     1  0.0000000  0.6508444  3
   2397   2410   2392   2403     1  180.0000771  0.4184000  2
   2397   2410   2392   2403     1  0.0000000  1.6024720  3
   2401   2397   2396   2415     1  0.0000000  0.6508444  3
   2402   2395   2393   2413     1  0.0000000  4.9162000  2
   2402   2395   2393   2413     1  0.0000000  0.6024960  3
   2402   2395   2396   2415     1  0.0000000  0.6508444  3
   2403   2392   2393   2413     1  0.0000000  0.6508444  3
   2408   2403   2392   2410     1  0.0000000  4.9162000  2
   2408   2403   2392   2410     1  0.0000000  0.6024960  3
   2410   2392   2393   2413     1  0.0000000  4.9162000  2
   2410   2392   2393   2413     1  0.0000000  0.6024960  3
   2410   2397   2396   2415     1  0.0000000  0.6508444  3
   2417   2419   2421   2425     1  0.0000000  0.6508444  3
   2419   2421   2425   2426     1  0.0000000  0.6508444  3
   2419   2421   2425   2427     1  0.0000000  0.6508444  3
   2421   2425   2426   2437     1  0.0000000  0.6508444  3
   2421   2425   2427   2429     1  0.0000000  0.6508444  3
   2425   2426   2437   2440     1  0.0000000  0.6508444  3
   2425   2427   2429   2433     1  0.0000000  0.6508444  3
   2426   2437   2440   2441     1  180.0000771  0.0000000  2
   2426   2437   2440   2489     1  180.0000771  0.0000000  2
   2426   2425   2427   2429     1  0.0000000  0.6508444  3
   2427   2429   2433   2434     1  180.0000771  0.0000000  2
   2427   2429   2433   2465     1  180.0000771  0.0000000  2
   2427   2425   2426   2437     1  0.0000000  0.6508444  3
   2429   2433   2465   2446     1  180.0000771  6.0668000  2
   2429   2433   2465   2446     1  180.0000771  1.4644000  4
   2433   2465   2446   2447     1  0.0000000  1.2552000  3
   2433   2465   2446   2445     1  0.0000000  1.2552000  3
   2434   2433   2465   2446     1  180.0000771  6.0668000  2
   2434   2433   2465   2446     1  180.0000771  1.4644000  4
   2437   2440   2489   2470     1  180.0000771  6.0668000  2
   2437   2440   2489   2470     1  180.0000771  1.4644000  4
   2440   2489   2470   2471     1  0.0000000  1.2552000  3
   2440   2489   2470   2469     1  0.0000000  1.2552000  3
   2441   2440   2489   2470     1  180.0000771  6.0668000  2
   2441   2440   2489   2470     1  180.0000771  1.4644000  4
   2442   2443   2445   2446     1  180.0000771  0.8368000  1
   2442   2443   2445   2446     1  180.0000771  1.0460000  2
   2442   2443   2445   2446     1  0.0000000  0.7531200  3
   2442   2443   2445   2452     1  0.0000000  0.6508444  3
   2442   2460   2447   2451     1  0.0000000  1.6038667  3
   2442   2460   2447   2446     1  180.0000771  0.4184000  2
   2442   2460   2447   2446     1  0.0000000  1.6024720  3
   2443   2445   2446   2447     1  180.0000771  0.8368000  1
   2443   2445   2446   2447     1  180.0000771  1.0460000  2
   2443   2445   2446   2447     1  0.0000000  0.7531200  3
   2443   2445   2446   2465     1  0.0000000  0.6508444  3
   2443   2442   2453   2458     1  0.0000000  0.6508444  3
   2443   2442   2460   2447     1  180.0000771  0.4184000  2
   2443   2442   2460   2447     1  0.0000000  1.6024720  3
   2445   2446   2447   2451     1  0.0000000  0.6508444  3
   2445   2446   2447   2460     1  0.0000000  0.6508444  3
   2445   2443   2442   2453     1  180.0000771  0.8368000  1
   2445   2443   2442   2453     1  180.0000771  1.0460000  2
   2445   2443   2442   2453     1  0.0000000  0.7531200  3
   2445   2443   2442   2460     1  0.0000000  0.6508444  3
   2446   2445   2443   2463     1  0.0000000  0.6508444  3
   2447   2460   2442   2453     1  180.0000771  0.4184000  2
   2447   2460   2442   2453     1  0.0000000  1.6024720  3
   2447   2446   2445   2452     1  0.0000000  0.6508444  3
   2451   2447   2446   2465     1  0.0000000  0.6508444  3
   2452   2445   2446   2465     1  0.0000000  0.6508444  3
   2452   2445   2443   2463     1  0.0000000  4.9162000  2
   2452   2445   2443   2463     1  0.0000000  0.6024960  3
   2453   2442   2443   2463     1  0.0000000  0.6508444  3
   2458   2453   2442   2460     1  0.0000000  4.9162000  2
   2458   2453   2442   2460     1  0.0000000  0.6024960  3
   2460   2447   2446   2465     1  0.0000000  0.6508444  3
   2460   2442   2443   2463     1  0.0000000  4.9162000  2
   2460   2442   2443   2463     1  0.0000000  0.6024960  3
   2466   2467   2469   2470     1  180.0000771  0.8368000  1
   2466   2467   2469   2470     1  180.0000771  1.0460000  2
   2466   2467   2469   2470     1  0.0000000  0.7531200  3
   2466   2467   2469   2476     1  0.0000000  0.6508444  3
   2466   2484   2471   2475     1  0.0000000  1.6038667  3
   2466   2484   2471   2470     1  180.0000771  0.4184000  2
   2466   2484   2471   2470     1  0.0000000  1.6024720  3
   2467   2469   2470   2471     1  180.0000771  0.8368000  1
   2467   2469   2470   2471     1  180.0000771  1.0460000  2
   2467   2469   2470   2471     1  0.0000000  0.7531200  3
   2467   2469   2470   2489     1  0.0000000  0.6508444  3
   2467   2466   2477   2482     1  0.0000000  0.6508444  3
   2467   2466   2484   2471     1  180.0000771  0.4184000  2
   2467   2466   2484   2471     1  0.0000000  1.6024720  3
   2469   2470   2471   2475     1  0.0000000  0.6508444  3
   2469   2470   2471   2484     1  0.0000000  0.6508444  3
   2469   2467   2466   2477     1  180.0000771  0.8368000  1
   2469   2467   2466   2477     1  180.0000771  1.0460000  2
   2469   2467   2466   2477     1  0.0000000  0.7531200  3
   2469   2467   2466   2484     1  0.0000000  0.6508444  3
   2470   2469   2467   2487     1  0.0000000  0.6508444  3
   2471   2484   2466   2477     1  180.0000771  0.4184000  2
   2471   2484   2466   2477     1  0.0000000  1.6024720  3
   2471   2470   2469   2476     1  0.0000000  0.6508444  3
   2475   2471   2470   2489     1  0.0000000  0.6508444  3
   2476   2469   2470   2489     1  0.0000000  0.6508444  3
   2476   2469   2467   2487     1  0.0000000  4.9162000  2
   2476   2469   2467   2487     1  0.0000000  0.6024960  3
   2477   2466   2467   2487     1  0.0000000  0.6508444  3
   2482   2477   2466   2484     1  0.0000000  4.9162000  2
   2482   2477   2466   2484     1  0.0000000  0.6024960  3
   2484   2471   2470   2489     1  0.0000000  0.6508444  3
   2484   2466   2467   2487     1  0.0000000  4.9162000  2
   2484   2466   2467   2487     1  0.0000000  0.6024960  3
   2491   2493   2495   2499     1  0.0000000  0.6508444  3
   2493   2495   2499   2500     1  0.0000000  0.6508444  3
   2493   2495   2499   2501     1  0.0000000  0.6508444  3
   2495   2499   2500   2511     1  0.0000000  0.6508444  3
   2495   2499   2501   2503     1  0.0000000  0.6508444  3
   2499   2500   2511   2514     1  0.0000000  0.6508444  3
   2499   2501   2503   2507     1  0.0000000  0.6508444  3
   2500   2499   2501   2503     1  0.0000000  0.6508444  3
   2500   2511   2514   2515     1  180.0000771  0.0000000  2
   2500   2511   2514   2563     1  180.0000771  0.0000000  2
   2501   2499   2500   2511     1  0.0000000  0.6508444  3
   2501   2503   2507   2508     1  180.0000771  0.0000000  2
   2501   2503   2507   2539     1  180.0000771  0.0000000  2
   2503   2507   2539   2520     1  180.0000771  6.0668000  2
   2503   2507   2539   2520     1  180.0000771  1.4644000  4
   2507   2539   2520   2519     1  0.0000000  1.2552000  3
   2507   2539   2520   2521     1  0.0000000  1.2552000  3
   2508   2507   2539   2520     1  180.0000771  6.0668000  2
   2508   2507   2539   2520     1  180.0000771  1.4644000  4
   2511   2514   2563   2544     1  180.0000771  6.0668000  2
   2511   2514   2563   2544     1  180.0000771  1.4644000  4
   2514   2563   2544   2543     1  0.0000000  1.2552000  3
   2514   2563   2544   2545     1  0.0000000  1.2552000  3
   2515   2514   2563   2544     1  180.0000771  6.0668000  2
   2515   2514   2563   2544     1  180.0000771  1.4644000  4
   2516   2517   2519   2520     1  180.0000771  0.8368000  1
   2516   2517   2519   2520     1  180.0000771  1.0460000  2
   2516   2517   2519   2520     1  0.0000000  0.7531200  3
   2516   2517   2519   2526     1  0.0000000  0.6508444  3
   2516   2534   2521   2520     1  180.0000771  0.4184000  2
   2516   2534   2521   2520     1  0.0000000  1.6024720  3
   2516   2534   2521   2525     1  0.0000000  1.6038667  3
   2517   2516   2527   2532     1  0.0000000  0.6508444  3
   2517   2516   2534   2521     1  180.0000771  0.4184000  2
   2517   2516   2534   2521     1  0.0000000  1.6024720  3
   2517   2519   2520   2521     1  180.0000771  0.8368000  1
   2517   2519   2520   2521     1  180.0000771  1.0460000  2
   2517   2519   2520   2521     1  0.0000000  0.7531200  3
   2517   2519   2520   2539     1  0.0000000  0.6508444  3
   2519   2517   2516   2527     1  180.0000771  0.8368000  1
   2519   2517   2516   2527     1  180.0000771  1.0460000  2
   2519   2517   2516   2527     1  0.0000000  0.7531200  3
   2519   2517   2516   2534     1  0.0000000  0.6508444  3
   2519   2520   2521   2525     1  0.0000000  0.6508444  3
   2519   2520   2521   2534     1  0.0000000  0.6508444  3
   2520   2519   2517   2537     1  0.0000000  0.6508444  3
   2521   2520   2519   2526     1  0.0000000  0.6508444  3
   2521   2534   2516   2527     1  180.0000771  0.4184000  2
   2521   2534   2516   2527     1  0.0000000  1.6024720  3
   2525   2521   2520   2539     1  0.0000000  0.6508444  3
   2526   2519   2517   2537     1  0.0000000  4.9162000  2
   2526   2519   2517   2537     1  0.0000000  0.6024960  3
   2526   2519   2520   2539     1  0.0000000  0.6508444  3
   2527   2516   2517   2537     1  0.0000000  0.6508444  3
   2532   2527   2516   2534     1  0.0000000  4.9162000  2
   2532   2527   2516   2534     1  0.0000000  0.6024960  3
   2534   2516   2517   2537     1  0.0000000  4.9162000  2
   2534   2516   2517   2537     1  0.0000000  0.6024960  3
   2534   2521   2520   2539     1  0.0000000  0.6508444  3
   2540   2541   2543   2544     1  180.0000771  0.8368000  1
   2540   2541   2543   2544     1  180.0000771  1.0460000  2
   2540   2541   2543   2544     1  0.0000000  0.7531200  3
   2540   2541   2543   2550     1  0.0000000  0.6508444  3
   2540   2558   2545   2544     1  180.0000771  0.4184000  2
   2540   2558   2545   2544     1  0.0000000  1.6024720  3
   2540   2558   2545   2549     1  0.0000000  1.6038667  3
   2541   2540   2551   2556     1  0.0000000  0.6508444  3
   2541   2540   2558   2545     1  180.0000771  0.4184000  2
   2541   2540   2558   2545     1  0.0000000  1.6024720  3
   2541   2543   2544   2545     1  180.0000771  0.8368000  1
   2541   2543   2544   2545     1  180.0000771  1.0460000  2
   2541   2543   2544   2545     1  0.0000000  0.7531200  3
   2541   2543   2544   2563     1  0.0000000  0.6508444  3
   2543   2541   2540   2551     1  180.0000771  0.8368000  1
   2543   2541   2540   2551     1  180.0000771  1.0460000  2
   2543   2541   2540   2551     1  0.0000000  0.7531200  3
   2543   2541   2540   2558     1  0.0000000  0.6508444  3
   2543   2544   2545   2549     1  0.0000000  0.6508444  3
   2543   2544   2545   2558     1  0.0000000  0.6508444  3
   2544   2543   2541   2561     1  0.0000000  0.6508444  3
   2545   2544   2543   2550     1  0.0000000  0.6508444  3
   2545   2558   2540   2551     1  180.0000771  0.4184000  2
   2545   2558   2540   2551     1  0.0000000  1.6024720  3
   2549   2545   2544   2563     1  0.0000000  0.6508444  3
   2550   2543   2541   2561     1  0.0000000  4.9162000  2
   2550   2543   2541   2561     1  0.0000000  0.6024960  3
   2550   2543   2544   2563     1  0.0000000  0.6508444  3
   2551   2540   2541   2561     1  0.0000000  0.6508444  3
   2556   2551   2540   2558     1  0.0000000  4.9162000  2
   2556   2551   2540   2558     1  0.0000000  0.6024960  3
   2558   2540   2541   2561     1  0.0000000  4.9162000  2
   2558   2540   2541   2561     1  0.0000000  0.6024960  3
   2558   2545   2544   2563     1  0.0000000  0.6508444  3
   2565   2567   2569   2573     1  0.0000000  0.6508444  3
   2567   2569   2573   2574     1  0.0000000  0.6508444  3
   2567   2569   2573   2575     1  0.0000000  0.6508444  3
   2569   2573   2574   2585     1  0.0000000  0.6508444  3
   2569   2573   2575   2577     1  0.0000000  0.6508444  3
   2573   2574   2585   2588     1  0.0000000  0.6508444  3
   2573   2575   2577   2581     1  0.0000000  0.6508444  3
   2574   2585   2588   2589     1  180.0000771  0.0000000  2
   2574   2585   2588   2637     1  180.0000771  0.0000000  2
   2574   2573   2575   2577     1  0.0000000  0.6508444  3
   2575   2577   2581   2582     1  180.0000771  0.0000000  2
   2575   2577   2581   2613     1  180.0000771  0.0000000  2
   2575   2573   2574   2585     1  0.0000000  0.6508444  3
   2577   2581   2613   2594     1  180.0000771  6.0668000  2
   2577   2581   2613   2594     1  180.0000771  1.4644000  4
   2581   2613   2594   2595     1  0.0000000  1.2552000  3
   2581   2613   2594   2593     1  0.0000000  1.2552000  3
   2582   2581   2613   2594     1  180.0000771  6.0668000  2
   2582   2581   2613   2594     1  180.0000771  1.4644000  4
   2585   2588   2637   2618     1  180.0000771  6.0668000  2
   2585   2588   2637   2618     1  180.0000771  1.4644000  4
   2588   2637   2618   2619     1  0.0000000  1.2552000  3
   2588   2637   2618   2617     1  0.0000000  1.2552000  3
   2589   2588   2637   2618     1  180.0000771  6.0668000  2
   2589   2588   2637   2618     1  180.0000771  1.4644000  4
   2590   2591   2593   2594     1  180.0000771  0.8368000  1
   2590   2591   2593   2594     1  180.0000771  1.0460000  2
   2590   2591   2593   2594     1  0.0000000  0.7531200  3
   2590   2591   2593   2600     1  0.0000000  0.6508444  3
   2590   2608   2595   2599     1  0.0000000  1.6038667  3
   2590   2608   2595   2594     1  180.0000771  0.4184000  2
   2590   2608   2595   2594     1  0.0000000  1.6024720  3
   2591   2593   2594   2595     1  180.0000771  0.8368000  1
   2591   2593   2594   2595     1  180.0000771  1.0460000  2
   2591   2593   2594   2595     1  0.0000000  0.7531200  3
   2591   2593   2594   2613     1  0.0000000  0.6508444  3
   2591   2590   2601   2606     1  0.0000000  0.6508444  3
   2591   2590   2608   2595     1  180.0000771  0.4184000  2
   2591   2590   2608   2595     1  0.0000000  1.6024720  3
   2593   2594   2595   2599     1  0.0000000  0.6508444  3
   2593   2594   2595   2608     1  0.0000000  0.6508444  3
   2593   2591   2590   2601     1  180.0000771  0.8368000  1
   2593   2591   2590   2601     1  180.0000771  1.0460000  2
   2593   2591   2590   2601     1  0.0000000  0.7531200  3
   2593   2591   2590   2608     1  0.0000000  0.6508444  3
   2594   2593   2591   2611     1  0.0000000  0.6508444  3
   2595   2608   2590   2601     1  180.0000771  0.4184000  2
   2595   2608   2590   2601     1  0.0000000  1.6024720  3
   2595   2594   2593   2600     1  0.0000000  0.6508444  3
   2599   2595   2594   2613     1  0.0000000  0.6508444  3
   2600   2593   2594   2613     1  0.0000000  0.6508444  3
   2600   2593   2591   2611     1  0.0000000  4.9162000  2
   2600   2593   2591   2611     1  0.0000000  0.6024960  3
   2601   2590   2591   2611     1  0.0000000  0.6508444  3
   2606   2601   2590   2608     1  0.0000000  4.9162000  2
   2606   2601   2590   2608     1  0.0000000  0.6024960  3
   2608   2595   2594   2613     1  0.0000000  0.6508444  3
   2608   2590   2591   2611     1  0.0000000  4.9162000  2
   2608   2590   2591   2611     1  0.0000000  0.6024960  3
   2614   2615   2617   2618     1  180.0000771  0.8368000  1
   2614   2615   2617   2618     1  180.0000771  1.0460000  2
   2614   2615   2617   2618     1  0.0000000  0.7531200  3
   2614   2615   2617   2624     1  0.0000000  0.6508444  3
   2614   2632   2619   2623     1  0.0000000  1.6038667  3
   2614   2632   2619   2618     1  180.0000771  0.4184000  2
   2614   2632   2619   2618     1  0.0000000  1.6024720  3
   2615   2617   2618   2619     1  180.0000771  0.8368000  1
   2615   2617   2618   2619     1  180.0000771  1.0460000  2
   2615   2617   2618   2619     1  0.0000000  0.7531200  3
   2615   2617   2618   2637     1  0.0000000  0.6508444  3
   2615   2614   2625   2630     1  0.0000000  0.6508444  3
   2615   2614   2632   2619     1  180.0000771  0.4184000  2
   2615   2614   2632   2619     1  0.0000000  1.6024720  3
   2617   2618   2619   2623     1  0.0000000  0.6508444  3
   2617   2618   2619   2632     1  0.0000000  0.6508444  3
   2617   2615   2614   2625     1  180.0000771  0.8368000  1
   2617   2615   2614   2625     1  180.0000771  1.0460000  2
   2617   2615   2614   2625     1  0.0000000  0.7531200  3
   2617   2615   2614   2632     1  0.0000000  0.6508444  3
   2618   2617   2615   2635     1  0.0000000  0.6508444  3
   2619   2632   2614   2625     1  180.0000771  0.4184000  2
   2619   2632   2614   2625     1  0.0000000  1.6024720  3
   2619   2618   2617   2624     1  0.0000000  0.6508444  3
   2623   2619   2618   2637     1  0.0000000  0.6508444  3
   2624   2617   2618   2637     1  0.0000000  0.6508444  3
   2624   2617   2615   2635     1  0.0000000  4.9162000  2
   2624   2617   2615   2635     1  0.0000000  0.6024960  3
   2625   2614   2615   2635     1  0.0000000  0.6508444  3
   2630   2625   2614   2632     1  0.0000000  4.9162000  2
   2630   2625   2614   2632     1  0.0000000  0.6024960  3
   2632   2619   2618   2637     1  0.0000000  0.6508444  3
   2632   2614   2615   2635     1  0.0000000  4.9162000  2
   2632   2614   2615   2635     1  0.0000000  0.6024960  3
   2639   2641   2643   2647     1  0.0000000  0.6508444  3
   2641   2643   2647   2648     1  0.0000000  0.6508444  3
   2641   2643   2647   2649     1  0.0000000  0.6508444  3
   2643   2647   2648   2659     1  0.0000000  0.6508444  3
   2643   2647   2649   2651     1  0.0000000  0.6508444  3
   2647   2648   2659   2662     1  0.0000000  0.6508444  3
   2647   2649   2651   2655     1  0.0000000  0.6508444  3
   2648   2647   2649   2651     1  0.0000000  0.6508444  3
   2648   2659   2662   2663     1  180.0000771  0.0000000  2
   2648   2659   2662   2711     1  180.0000771  0.0000000  2
   2649   2647   2648   2659     1  0.0000000  0.6508444  3
   2649   2651   2655   2656     1  180.0000771  0.0000000  2
   2649   2651   2655   2687     1  180.0000771  0.0000000  2
   2651   2655   2687   2668     1  180.0000771  6.0668000  2
   2651   2655   2687   2668     1  180.0000771  1.4644000  4
   2655   2687   2668   2667     1  0.0000000  1.2552000  3
   2655   2687   2668   2669     1  0.0000000  1.2552000  3
   2656   2655   2687   2668     1  180.0000771  6.0668000  2
   2656   2655   2687   2668     1  180.0000771  1.4644000  4
   2659   2662   2711   2692     1  180.0000771  6.0668000  2
   2659   2662   2711   2692     1  180.0000771  1.4644000  4
   2662   2711   2692   2691     1  0.0000000  1.2552000  3
   2662   2711   2692   2693     1  0.0000000  1.2552000  3
   2663   2662   2711   2692     1  180.0000771  6.0668000  2
   2663   2662   2711   2692     1  180.0000771  1.4644000  4
   2664   2665   2667   2668     1  180.0000771  0.8368000  1
   2664   2665   2667   2668     1  180.0000771  1.0460000  2
   2664   2665   2667   2668     1  0.0000000  0.7531200  3
   2664   2665   2667   2674     1  0.0000000  0.6508444  3
   2664   2682   2669   2668     1  180.0000771  0.4184000  2
   2664   2682   2669   2668     1  0.0000000  1.6024720  3
   2664   2682   2669   2673     1  0.0000000  1.6038667  3
   2665   2664   2675   2680     1  0.0000000  0.6508444  3
   2665   2664   2682   2669     1  180.0000771  0.4184000  2
   2665   2664   2682   2669     1  0.0000000  1.6024720  3
   2665   2667   2668   2669     1  180.0000771  0.8368000  1
   2665   2667   2668   2669     1  180.0000771  1.0460000  2
   2665   2667   2668   2669     1  0.0000000  0.7531200  3
   2665   2667   2668   2687     1  0.0000000  0.6508444  3
   2667   2665   2664   2675     1  180.0000771  0.8368000  1
   2667   2665   2664   2675     1  180.0000771  1.0460000  2
   2667   2665   2664   2675     1  0.0000000  0.7531200  3
   2667   2665   2664   2682     1  0.0000000  0.6508444  3
   2667   2668   2669   2673     1  0.0000000  0.6508444  3
   2667   2668   2669   2682     1  0.0000000  0.6508444  3
   2668   2667   2665   2685     1  0.0000000  0.6508444  3
   2669   2668   2667   2674     1  0.0000000  0.6508444  3
   2669   2682   2664   2675     1  180.0000771  0.4184000  2
   2669   2682   2664   2675     1  0.0000000  1.6024720  3
   2673   2669   2668   2687     1  0.0000000  0.6508444  3
   2674   2667   2665   2685     1  0.0000000  4.9162000  2
   2674   2667   2665   2685     1  0.0000000  0.6024960  3
   2674   2667   2668   2687     1  0.0000000  0.6508444  3
   2675   2664   2665   2685     1  0.0000000  0.6508444  3
   2680   2675   2664   2682     1  0.0000000  4.9162000  2
   2680   2675   2664   2682     1  0.0000000  0.6024960  3
   2682   2664   2665   2685     1  0.0000000  4.9162000  2
   2682   2664   2665   2685     1  0.0000000  0.6024960  3
   2682   2669   2668   2687     1  0.0000000  0.6508444  3
   2688   2689   2691   2692     1  180.0000771  0.8368000  1
   2688   2689   2691   2692     1  180.0000771  1.0460000  2
   2688   2689   2691   2692     1  0.0000000  0.7531200  3
   2688   2689   2691   2698     1  0.0000000  0.6508444  3
   2688   2706   2693   2692     1  180.0000771  0.4184000  2
   2688   2706   2693   2692     1  0.0000000  1.6024720  3
   2688   2706   2693   2697     1  0.0000000  1.6038667  3
   2689   2688   2699   2704     1  0.0000000  0.6508444  3
   2689   2688   2706   2693     1  180.0000771  0.4184000  2
   2689   2688   2706   2693     1  0.0000000  1.6024720  3
   2689   2691   2692   2693     1  180.0000771  0.8368000  1
   2689   2691   2692   2693     1  180.0000771  1.0460000  2
   2689   2691   2692   2693     1  0.0000000  0.7531200  3
   2689   2691   2692   2711     1  0.0000000  0.6508444  3
   2691   2689   2688   2699     1  180.0000771  0.8368000  1
   2691   2689   2688   2699     1  180.0000771  1.0460000  2
   2691   2689   2688   2699     1  0.0000000  0.7531200  3
   2691   2689   2688   2706     1  0.0000000  0.6508444  3
   2691   2692   2693   2697     1  0.0000000  0.6508444  3
   2691   2692   2693   2706     1  0.0000000  0.6508444  3
   2692   2691   2689   2709     1  0.0000000  0.6508444  3
   2693   2692   2691   2698     1  0.0000000  0.6508444  3
   2693   2706   2688   2699     1  180.0000771  0.4184000  2
   2693   2706   2688   2699     1  0.0000000  1.6024720  3
   2697   2693   2692   2711     1  0.0000000  0.6508444  3
   2698   2691   2689   2709     1  0.0000000  4.9162000  2
   2698   2691   2689   2709     1  0.0000000  0.6024960  3
   2698   2691   2692   2711     1  0.0000000  0.6508444  3
   2699   2688   2689   2709     1  0.0000000  0.6508444  3
   2704   2699   2688   2706     1  0.0000000  4.9162000  2
   2704   2699   2688   2706     1  0.0000000  0.6024960  3
   2706   2688   2689   2709     1  0.0000000  4.9162000  2
   2706   2688   2689   2709     1  0.0000000  0.6024960  3
   2706   2693   2692   2711     1  0.0000000  0.6508444  3
   2713   2715   2717   2721     1  0.0000000  0.6508444  3
   2715   2717   2721   2722     1  0.0000000  0.6508444  3
   2715   2717   2721   2723     1  0.0000000  0.6508444  3
   2717   2721   2722   2733     1  0.0000000  0.6508444  3
   2717   2721   2723   2725     1  0.0000000  0.6508444  3
   2721   2722   2733   2736     1  0.0000000  0.6508444  3
   2721   2723   2725   2729     1  0.0000000  0.6508444  3
   2722   2733   2736   2737     1  180.0000771  0.0000000  2
   2722   2733   2736   2785     1  180.0000771  0.0000000  2
   2722   2721   2723   2725     1  0.0000000  0.6508444  3
   2723   2725   2729   2730     1  180.0000771  0.0000000  2
   2723   2725   2729   2761     1  180.0000771  0.0000000  2
   2723   2721   2722   2733     1  0.0000000  0.6508444  3
   2725   2729   2761   2742     1  180.0000771  6.0668000  2
   2725   2729   2761   2742     1  180.0000771  1.4644000  4
   2729   2761   2742   2743     1  0.0000000  1.2552000  3
   2729   2761   2742   2741     1  0.0000000  1.2552000  3
   2730   2729   2761   2742     1  180.0000771  6.0668000  2
   2730   2729   2761   2742     1  180.0000771  1.4644000  4
   2733   2736   2785   2766     1  180.0000771  6.0668000  2
   2733   2736   2785   2766     1  180.0000771  1.4644000  4
   2736   2785   2766   2767     1  0.0000000  1.2552000  3
   2736   2785   2766   2765     1  0.0000000  1.2552000  3
   2737   2736   2785   2766     1  180.0000771  6.0668000  2
   2737   2736   2785   2766     1  180.0000771  1.4644000  4
   2738   2739   2741   2742     1  180.0000771  0.8368000  1
   2738   2739   2741   2742     1  180.0000771  1.0460000  2
   2738   2739   2741   2742     1  0.0000000  0.7531200  3
   2738   2739   2741   2748     1  0.0000000  0.6508444  3
   2738   2756   2743   2747     1  0.0000000  1.6038667  3
   2738   2756   2743   2742     1  180.0000771  0.4184000  2
   2738   2756   2743   2742     1  0.0000000  1.6024720  3
   2739   2741   2742   2743     1  180.0000771  0.8368000  1
   2739   2741   2742   2743     1  180.0000771  1.0460000  2
   2739   2741   2742   2743     1  0.0000000  0.7531200  3
   2739   2741   2742   2761     1  0.0000000  0.6508444  3
   2739   2738   2749   2754     1  0.0000000  0.6508444  3
   2739   2738   2756   2743     1  180.0000771  0.4184000  2
   2739   2738   2756   2743     1  0.0000000  1.6024720  3
   2741   2742   2743   2747     1  0.0000000  0.6508444  3
   2741   2742   2743   2756     1  0.0000000  0.6508444  3
   2741   2739   2738   2749     1  180.0000771  0.8368000  1
   2741   2739   2738   2749     1  180.0000771  1.0460000  2
   2741   2739   2738   2749     1  0.0000000  0.7531200  3
   2741   2739   2738   2756     1  0.0000000  0.6508444  3
   2742   2741   2739   2759     1  0.0000000  0.6508444  3
   2743   2756   2738   2749     1  180.0000771  0.4184000  2
   2743   2756   2738   2749     1  0.0000000  1.6024720  3
   2743   2742   2741   2748     1  0.0000000  0.6508444  3
   2747   2743   2742   2761     1  0.0000000  0.6508444  3
   2748   2741   2742   2761     1  0.0000000  0.6508444  3
   2748   2741   2739   2759     1  0.0000000  4.9162000  2
   2748   2741   2739   2759     1  0.0000000  0.6024960  3
   2749   2738   2739   2759     1  0.0000000  0.6508444  3
   2754   2749   2738   2756     1  0.0000000  4.9162000  2
   2754   2749   2738   2756     1  0.0000000  0.6024960  3
   2756   2743   2742   2761     1  0.0000000  0.6508444  3
   2756   2738   2739   2759     1  0.0000000  4.9162000  2
   2756   2738   2739   2759     1  0.0000000  0.6024960  3
   2762   2763   2765   2766     1  180.0000771  0.8368000  1
   2762   2763   2765   2766     1  180.0000771  1.0460000  2
   2762   2763   2765   2766     1  0.0000000  0.7531200  3
   2762   2763   2765   2772     1  0.0000000  0.6508444  3
   2762   2780   2767   2771     1  0.0000000  1.6038667  3
   2762   2780   2767   2766     1  180.0000771  0.4184000  2
   2762   2780   2767   2766     1  0.0000000  1.6024720  3
   2763   2765   2766   2767     1  180.0000771  0.8368000  1
   2763   2765   2766   2767     1  180.0000771  1.0460000  2
   2763   2765   2766   2767     1  0.0000000  0.7531200  3
   2763   2765   2766   2785     1  0.0000000  0.6508444  3
   2763   2762   2773   2778     1  0.0000000  0.6508444  3
   2763   2762   2780   2767     1  180.0000771  0.4184000  2
   2763   2762   2780   2767     1  0.0000000  1.6024720  3
   2765   2766   2767   2771     1  0.0000000  0.6508444  3
   2765   2766   2767   2780     1  0.0000000  0.6508444  3
   2765   2763   2762   2773     1  180.0000771  0.8368000  1
   2765   2763   2762   2773     1  180.0000771  1.0460000  2
   2765   2763   2762   2773     1  0.0000000  0.7531200  3
   2765   2763   2762   2780     1  0.0000000  0.6508444  3
   2766   2765   2763   2783     1  0.0000000  0.6508444  3
   2767   2780   2762   2773     1  180.0000771  0.4184000  2
   2767   2780   2762   2773     1  0.0000000  1.6024720  3
   2767   2766   2765   2772     1  0.0000000  0.6508444  3
   2771   2767   2766   2785     1  0.0000000  0.6508444  3
   2772   2765   2766   2785     1  0.0000000  0.6508444  3
   2772   2765   2763   2783     1  0.0000000  4.9162000  2
   2772   2765   2763   2783     1  0.0000000  0.6024960  3
   2773   2762   2763   2783     1  0.0000000  0.6508444  3
   2778   2773   2762   2780     1  0.0000000  4.9162000  2
   2778   2773   2762   2780     1  0.0000000  0.6024960  3
   2780   2767   2766   2785     1  0.0000000  0.6508444  3
   2780   2762   2763   2783     1  0.0000000  4.9162000  2
   2780   2762   2763   2783     1  0.0000000  0.6024960  3
   2787   2789   2791   2795     1  0.0000000  0.6508444  3
   2789   2791   2795   2796     1  0.0000000  0.6508444  3
   2789   2791   2795   2797     1  0.0000000  0.6508444  3
   2791   2795   2796   2807     1  0.0000000  0.6508444  3
   2791   2795   2797   2799     1  0.0000000  0.6508444  3
   2795   2796   2807   2810     1  0.0000000  0.6508444  3
   2795   2797   2799   2803     1  0.0000000  0.6508444  3
   2796   2795   2797   2799     1  0.0000000  0.6508444  3
   2796   2807   2810   2811     1  180.0000771  0.0000000  2
   2796   2807   2810   2859     1  180.0000771  0.0000000  2
   2797   2795   2796   2807     1  0.0000000  0.6508444  3
   2797   2799   2803   2804     1  180.0000771  0.0000000  2
   2797   2799   2803   2835     1  180.0000771  0.0000000  2
   2799   2803   2835   2816     1  180.0000771  6.0668000  2
   2799   2803   2835   2816     1  180.0000771  1.4644000  4
   2803   2835   2816   2815     1  0.0000000  1.2552000  3
   2803   2835   2816   2817     1  0.0000000  1.2552000  3
   2804   2803   2835   2816     1  180.0000771  6.0668000  2
   2804   2803   2835   2816     1  180.0000771  1.4644000  4
   2807   2810   2859   2840     1  180.0000771  6.0668000  2
   2807   2810   2859   2840     1  180.0000771  1.4644000  4
   2810   2859   2840   2839     1  0.0000000  1.2552000  3
   2810   2859   2840   2841     1  0.0000000  1.2552000  3
   2811   2810   2859   2840     1  180.0000771  6.0668000  2
   2811   2810   2859   2840     1  180.0000771  1.4644000  4
   2812   2813   2815   2816     1  180.0000771  0.8368000  1
   2812   2813   2815   2816     1  180.0000771  1.0460000  2
   2812   2813   2815   2816     1  0.0000000  0.7531200  3
   2812   2813   2815   2822     1  0.0000000  0.6508444  3
   2812   2830   2817   2816     1  180.0000771  0.4184000  2
   2812   2830   2817   2816     1  0.0000000  1.6024720  3
   2812   2830   2817   2821     1  0.0000000  1.6038667  3
   2813   2812   2823   2828     1  0.0000000  0.6508444  3
   2813   2812   2830   2817     1  180.0000771  0.4184000  2
   2813   2812   2830   2817     1  0.0000000  1.6024720  3
   2813   2815   2816   2817     1  180.0000771  0.8368000  1
   2813   2815   2816   2817     1  180.0000771  1.0460000  2
   2813   2815   2816   2817     1  0.0000000  0.7531200  3
   2813   2815   2816   2835     1  0.0000000  0.6508444  3
   2815   2813   2812   2823     1  180.0000771  0.8368000  1
   2815   2813   2812   2823     1  180.0000771  1.0460000  2
   2815   2813   2812   2823     1  0.0000000  0.7531200  3
   2815   2813   2812   2830     1  0.0000000  0.6508444  3
   2815   2816   2817   2821     1  0.0000000  0.6508444  3
   2815   2816   2817   2830     1  0.0000000  0.6508444  3
   2816   2815   2813   2833     1  0.0000000  0.6508444  3
   2817   2816   2815   2822     1  0.0000000  0.6508444  3
   2817   2830   2812   2823     1  180.0000771  0.4184000  2
   2817   2830   2812   2823     1  0.0000000  1.6024720  3
   2821   2817   2816   2835     1  0.0000000  0.6508444  3
   2822   2815   2813   2833     1  0.0000000  4.9162000  2
   2822   2815   2813   2833     1  0.0000000  0.6024960  3
   2822   2815   2816   2835     1  0.0000000  0.6508444  3
   2823   2812   2813   2833     1  0.0000000  0.6508444  3
   2828   2823   2812   2830     1  0.0000000  4.9162000  2
   2828   2823   2812   2830     1  0.0000000  0.6024960  3
   2830   2812   2813   2833     1  0.0000000  4.9162000  2
   2830   2812   2813   2833     1  0.0000000  0.6024960  3
   2830   2817   2816   2835     1  0.0000000  0.6508444  3
   2836   2837   2839   2840     1  180.0000771  0.8368000  1
   2836   2837   2839   2840     1  180.0000771  1.0460000  2
   2836   2837   2839   2840     1  0.0000000  0.7531200  3
   2836   2837   2839   2846     1  0.0000000  0.6508444  3
   2836   2854   2841   2840     1  180.0000771  0.4184000  2
   2836   2854   2841   2840     1  0.0000000  1.6024720  3
   2836   2854   2841   2845     1  0.0000000  1.6038667  3
   2837   2836   2847   2852     1  0.0000000  0.6508444  3
   2837   2836   2854   2841     1  180.0000771  0.4184000  2
   2837   2836   2854   2841     1  0.0000000  1.6024720  3
   2837   2839   2840   2841     1  180.0000771  0.8368000  1
   2837   2839   2840   2841     1  180.0000771  1.0460000  2
   2837   2839   2840   2841     1  0.0000000  0.7531200  3
   2837   2839   2840   2859     1  0.0000000  0.6508444  3
   2839   2837   2836   2847     1  180.0000771  0.8368000  1
   2839   2837   2836   2847     1  180.0000771  1.0460000  2
   2839   2837   2836   2847     1  0.0000000  0.7531200  3
   2839   2837   2836   2854     1  0.0000000  0.6508444  3
   2839   2840   2841   2845     1  0.0000000  0.6508444  3
   2839   2840   2841   2854     1  0.0000000  0.6508444  3
   2840   2839   2837   2857     1  0.0000000  0.6508444  3
   2841   2840   2839   2846     1  0.0000000  0.6508444  3
   2841   2854   2836   2847     1  180.0000771  0.4184000  2
   2841   2854   2836   2847     1  0.0000000  1.6024720  3
   2845   2841   2840   2859     1  0.0000000  0.6508444  3
   2846   2839   2837   2857     1  0.0000000  4.9162000  2
   2846   2839   2837   2857     1  0.0000000  0.6024960  3
   2846   2839   2840   2859     1  0.0000000  0.6508444  3
   2847   2836   2837   2857     1  0.0000000  0.6508444  3
   2852   2847   2836   2854     1  0.0000000  4.9162000  2
   2852   2847   2836   2854     1  0.0000000  0.6024960  3
   2854   2836   2837   2857     1  0.0000000  4.9162000  2
   2854   2836   2837   2857     1  0.0000000  0.6024960  3
   2854   2841   2840   2859     1  0.0000000  0.6508444  3
   2861   2863   2865   2869     1  0.0000000  0.6508444  3
   2863   2865   2869   2870     1  0.0000000  0.6508444  3
   2863   2865   2869   2871     1  0.0000000  0.6508444  3
   2865   2869   2870   2881     1  0.0000000  0.6508444  3
   2865   2869   2871   2873     1  0.0000000  0.6508444  3
   2869   2870   2881   2884     1  0.0000000  0.6508444  3
   2869   2871   2873   2877     1  0.0000000  0.6508444  3
   2870   2881   2884   2885     1  180.0000771  0.0000000  2
   2870   2881   2884   2933     1  180.0000771  0.0000000  2
   2870   2869   2871   2873     1  0.0000000  0.6508444  3
   2871   2873   2877   2878     1  180.0000771  0.0000000  2
   2871   2873   2877   2909     1  180.0000771  0.0000000  2
   2871   2869   2870   2881     1  0.0000000  0.6508444  3
   2873   2877   2909   2890     1  180.0000771  6.0668000  2
   2873   2877   2909   2890     1  180.0000771  1.4644000  4
   2877   2909   2890   2891     1  0.0000000  1.2552000  3
   2877   2909   2890   2889     1  0.0000000  1.2552000  3
   2878   2877   2909   2890     1  180.0000771  6.0668000  2
   2878   2877   2909   2890     1  180.0000771  1.4644000  4
   2881   2884   2933   2914     1  180.0000771  6.0668000  2
   2881   2884   2933   2914     1  180.0000771  1.4644000  4
   2884   2933   2914   2915     1  0.0000000  1.2552000  3
   2884   2933   2914   2913     1  0.0000000  1.2552000  3
   2885   2884   2933   2914     1  180.0000771  6.0668000  2
   2885   2884   2933   2914     1  180.0000771  1.4644000  4
   2886   2887   2889   2890     1  180.0000771  0.8368000  1
   2886   2887   2889   2890     1  180.0000771  1.0460000  2
   2886   2887   2889   2890     1  0.0000000  0.7531200  3
   2886   2887   2889   2896     1  0.0000000  0.6508444  3
   2886   2904   2891   2895     1  0.0000000  1.6038667  3
   2886   2904   2891   2890     1  180.0000771  0.4184000  2
   2886   2904   2891   2890     1  0.0000000  1.6024720  3
   2887   2889   2890   2891     1  180.0000771  0.8368000  1
   2887   2889   2890   2891     1  180.0000771  1.0460000  2
   2887   2889   2890   2891     1  0.0000000  0.7531200  3
   2887   2889   2890   2909     1  0.0000000  0.6508444  3
   2887   2886   2897   2902     1  0.0000000  0.6508444  3
   2887   2886   2904   2891     1  180.0000771  0.4184000  2
   2887   2886   2904   2891     1  0.0000000  1.6024720  3
   2889   2890   2891   2895     1  0.0000000  0.6508444  3
   2889   2890   2891   2904     1  0.0000000  0.6508444  3
   2889   2887   2886   2897     1  180.0000771  0.8368000  1
   2889   2887   2886   2897     1  180.0000771  1.0460000  2
   2889   2887   2886   2897     1  0.0000000  0.7531200  3
   2889   2887   2886   2904     1  0.0000000  0.6508444  3
   2890   2889   2887   2907     1  0.0000000  0.6508444  3
   2891   2904   2886   2897     1  180.0000771  0.4184000  2
   2891   2904   2886   2897     1  0.0000000  1.6024720  3
   2891   2890   2889   2896     1  0.0000000  0.6508444  3
   2895   2891   2890   2909     1  0.0000000  0.6508444  3
   2896   2889   2890   2909     1  0.0000000  0.6508444  3
   2896   2889   2887   2907     1  0.0000000  4.9162000  2
   2896   2889   2887   2907     1  0.0000000  0.6024960  3
   2897   2886   2887   2907     1  0.0000000  0.6508444  3
   2902   2897   2886   2904     1  0.0000000  4.9162000  2
   2902   2897   2886   2904     1  0.0000000  0.6024960  3
   2904   2891   2890   2909     1  0.0000000  0.6508444  3
   2904   2886   2887   2907     1  0.0000000  4.9162000  2
   2904   2886   2887   2907     1  0.0000000  0.6024960  3
   2910   2911   2913   2914     1  180.0000771  0.8368000  1
   2910   2911   2913   2914     1  180.0000771  1.0460000  2
   2910   2911   2913   2914     1  0.0000000  0.7531200  3
   2910   2911   2913   2920     1  0.0000000  0.6508444  3
   2910   2928   2915   2919     1  0.0000000  1.6038667  3
   2910   2928   2915   2914     1  180.0000771  0.4184000  2
   2910   2928   2915   2914     1  0.0000000  1.6024720  3
   2911   2913   2914   2915     1  180.0000771  0.8368000  1
   2911   2913   2914   2915     1  180.0000771  1.0460000  2
   2911   2913   2914   2915     1  0.0000000  0.7531200  3
   2911   2913   2914   2933     1  0.0000000  0.6508444  3
   2911   2910   2921   2926     1  0.0000000  0.6508444  3
   2911   2910   2928   2915     1  180.0000771  0.4184000  2
   2911   2910   2928   2915     1  0.0000000  1.6024720  3
   2913   2914   2915   2919     1  0.0000000  0.6508444  3
   2913   2914   2915   2928     1  0.0000000  0.6508444  3
   2913   2911   2910   2921     1  180.0000771  0.8368000  1
   2913   2911   2910   2921     1  180.0000771  1.0460000  2
   2913   2911   2910   2921     1  0.0000000  0.7531200  3
   2913   2911   2910   2928     1  0.0000000  0.6508444  3
   2914   2913   2911   2931     1  0.0000000  0.6508444  3
   2915   2928   2910   2921     1  180.0000771  0.4184000  2
   2915   2928   2910   2921     1  0.0000000  1.6024720  3
   2915   2914   2913   2920     1  0.0000000  0.6508444  3
   2919   2915   2914   2933     1  0.0000000  0.6508444  3
   2920   2913   2914   2933     1  0.0000000  0.6508444  3
   2920   2913   2911   2931     1  0.0000000  4.9162000  2
   2920   2913   2911   2931     1  0.0000000  0.6024960  3
   2921   2910   2911   2931     1  0.0000000  0.6508444  3
   2926   2921   2910   2928     1  0.0000000  4.9162000  2
   2926   2921   2910   2928     1  0.0000000  0.6024960  3
   2928   2915   2914   2933     1  0.0000000  0.6508444  3
   2928   2910   2911   2931     1  0.0000000  4.9162000  2
   2928   2910   2911   2931     1  0.0000000  0.6024960  3
   2935   2937   2939   2943     1  0.0000000  0.6508444  3
   2937   2939   2943   2944     1  0.0000000  0.6508444  3
   2937   2939   2943   2945     1  0.0000000  0.6508444  3
   2939   2943   2944   2955     1  0.0000000  0.6508444  3
   2939   2943   2945   2947     1  0.0000000  0.6508444  3
   2943   2944   2955   2958     1  0.0000000  0.6508444  3
   2943   2945   2947   2951     1  0.0000000  0.6508444  3
   2944   2943   2945   2947     1  0.0000000  0.6508444  3
   2944   2955   2958   2959     1  180.0000771  0.0000000  2
   2944   2955   2958   3007     1  180.0000771  0.0000000  2
   2945   2943   2944   2955     1  0.0000000  0.6508444  3
   2945   2947   2951   2952     1  180.0000771  0.0000000  2
   2945   2947   2951   2983     1  180.0000771  0.0000000  2
   2947   2951   2983   2964     1  180.0000771  6.0668000  2
   2947   2951   2983   2964     1  180.0000771  1.4644000  4
   2951   2983   2964   2963     1  0.0000000  1.2552000  3
   2951   2983   2964   2965     1  0.0000000  1.2552000  3
   2952   2951   2983   2964     1  180.0000771  6.0668000  2
   2952   2951   2983   2964     1  180.0000771  1.4644000  4
   2955   2958   3007   2988     1  180.0000771  6.0668000  2
   2955   2958   3007   2988     1  180.0000771  1.4644000  4
   2958   3007   2988   2987     1  0.0000000  1.2552000  3
   2958   3007   2988   2989     1  0.0000000  1.2552000  3
   2959   2958   3007   2988     1  180.0000771  6.0668000  2
   2959   2958   3007   2988     1  180.0000771  1.4644000  4
   2960   2961   2963   2964     1  180.0000771  0.8368000  1
   2960   2961   2963   2964     1  180.0000771  1.0460000  2
   2960   2961   2963   2964     1  0.0000000  0.7531200  3
   2960   2961   2963   2970     1  0.0000000  0.6508444  3
   2960   2978   2965   2964     1  180.0000771  0.4184000  2
   2960   2978   2965   2964     1  0.0000000  1.6024720  3
   2960   2978   2965   2969     1  0.0000000  1.6038667  3
   2961   2960   2971   2976     1  0.0000000  0.6508444  3
   2961   2960   2978   2965     1  180.0000771  0.4184000  2
   2961   2960   2978   2965     1  0.0000000  1.6024720  3
   2961   2963   2964   2965     1  180.0000771  0.8368000  1
   2961   2963   2964   2965     1  180.0000771  1.0460000  2
   2961   2963   2964   2965     1  0.0000000  0.7531200  3
   2961   2963   2964   2983     1  0.0000000  0.6508444  3
   2963   2961   2960   2971     1  180.0000771  0.8368000  1
   2963   2961   2960   2971     1  180.0000771  1.0460000  2
   2963   2961   2960   2971     1  0.0000000  0.7531200  3
   2963   2961   2960   2978     1  0.0000000  0.6508444  3
   2963   2964   2965   2969     1  0.0000000  0.6508444  3
   2963   2964   2965   2978     1  0.0000000  0.6508444  3
   2964   2963   2961   2981     1  0.0000000  0.6508444  3
   2965   2964   2963   2970     1  0.0000000  0.6508444  3
   2965   2978   2960   2971     1  180.0000771  0.4184000  2
   2965   2978   2960   2971     1  0.0000000  1.6024720  3
   2969   2965   2964   2983     1  0.0000000  0.6508444  3
   2970   2963   2961   2981     1  0.0000000  4.9162000  2
   2970   2963   2961   2981     1  0.0000000  0.6024960  3
   2970   2963   2964   2983     1  0.0000000  0.6508444  3
   2971   2960   2961   2981     1  0.0000000  0.6508444  3
   2976   2971   2960   2978     1  0.0000000  4.9162000  2
   2976   2971   2960   2978     1  0.0000000  0.6024960  3
   2978   2960   2961   2981     1  0.0000000  4.9162000  2
   2978   2960   2961   2981     1  0.0000000  0.6024960  3
   2978   2965   2964   2983     1  0.0000000  0.6508444  3
   2984   2985   2987   2988     1  180.0000771  0.8368000  1
   2984   2985   2987   2988     1  180.0000771  1.0460000  2
   2984   2985   2987   2988     1  0.0000000  0.7531200  3
   2984   2985   2987   2994     1  0.0000000  0.6508444  3
   2984   3002   2989   2988     1  180.0000771  0.4184000  2
   2984   3002   2989   2988     1  0.0000000  1.6024720  3
   2984   3002   2989   2993     1  0.0000000  1.6038667  3
   2985   2984   2995   3000     1  0.0000000  0.6508444  3
   2985   2984   3002   2989     1  180.0000771  0.4184000  2
   2985   2984   3002   2989     1  0.0000000  1.6024720  3
   2985   2987   2988   2989     1  180.0000771  0.8368000  1
   2985   2987   2988   2989     1  180.0000771  1.0460000  2
   2985   2987   2988   2989     1  0.0000000  0.7531200  3
   2985   2987   2988   3007     1  0.0000000  0.6508444  3
   2987   2985   2984   2995     1  180.0000771  0.8368000  1
   2987   2985   2984   2995     1  180.0000771  1.0460000  2
   2987   2985   2984   2995     1  0.0000000  0.7531200  3
   2987   2985   2984   3002     1  0.0000000  0.6508444  3
   2987   2988   2989   2993     1  0.0000000  0.6508444  3
   2987   2988   2989   3002     1  0.0000000  0.6508444  3
   2988   2987   2985   3005     1  0.0000000  0.6508444  3
   2989   2988   2987   2994     1  0.0000000  0.6508444  3
   2989   3002   2984   2995     1  180.0000771  0.4184000  2
   2989   3002   2984   2995     1  0.0000000  1.6024720  3
   2993   2989   2988   3007     1  0.0000000  0.6508444  3
   2994   2987   2985   3005     1  0.0000000  4.9162000  2
   2994   2987   2985   3005     1  0.0000000  0.6024960  3
   2994   2987   2988   3007     1  0.0000000  0.6508444  3
   2995   2984   2985   3005     1  0.0000000  0.6508444  3
   3000   2995   2984   3002     1  0.0000000  4.9162000  2
   3000   2995   2984   3002     1  0.0000000  0.6024960  3
   3002   2984   2985   3005     1  0.0000000  4.9162000  2
   3002   2984   2985   3005     1  0.0000000  0.6024960  3
   3002   2989   2988   3007     1  0.0000000  0.6508444  3
   3009   3011   3013   3017     1  0.0000000  0.6508444  3
   3011   3013   3017   3018     1  0.0000000  0.6508444  3
   3011   3013   3017   3019     1  0.0000000  0.6508444  3
   3013   3017   3018   3029     1  0.0000000  0.6508444  3
   3013   3017   3019   3021     1  0.0000000  0.6508444  3
   3017   3018   3029   3032     1  0.0000000  0.6508444  3
   3017   3019   3021   3025     1  0.0000000  0.6508444  3
   3018   3029   3032   3033     1  180.0000771  0.0000000  2
   3018   3029   3032   3081     1  180.0000771  0.0000000  2
   3018   3017   3019   3021     1  0.0000000  0.6508444  3
   3019   3021   3025   3026     1  180.0000771  0.0000000  2
   3019   3021   3025   3057     1  180.0000771  0.0000000  2
   3019   3017   3018   3029     1  0.0000000  0.6508444  3
   3021   3025   3057   3038     1  180.0000771  6.0668000  2
   3021   3025   3057   3038     1  180.0000771  1.4644000  4
   3025   3057   3038   3039     1  0.0000000  1.2552000  3
   3025   3057   3038   3037     1  0.0000000  1.2552000  3
   3026   3025   3057   3038     1  180.0000771  6.0668000  2
   3026   3025   3057   3038     1  180.0000771  1.4644000  4
   3029   3032   3081   3062     1  180.0000771  6.0668000  2
   3029   3032   3081   3062     1  180.0000771  1.4644000  4
   3032   3081   3062   3063     1  0.0000000  1.2552000  3
   3032   3081   3062   3061     1  0.0000000  1.2552000  3
   3033   3032   3081   3062     1  180.0000771  6.0668000  2
   3033   3032   3081   3062     1  180.0000771  1.4644000  4
   3034   3035   3037   3038     1  180.0000771  0.8368000  1
   3034   3035   3037   3038     1  180.0000771  1.0460000  2
   3034   3035   3037   3038     1  0.0000000  0.7531200  3
   3034   3035   3037   3044     1  0.0000000  0.6508444  3
   3034   3052   3039   3043     1  0.0000000  1.6038667  3
   3034   3052   3039   3038     1  180.0000771  0.4184000  2
   3034   3052   3039   3038     1  0.0000000  1.6024720  3
   3035   3037   3038   3039     1  180.0000771  0.8368000  1
   3035   3037   3038   3039     1  180.0000771  1.0460000  2
   3035   3037   3038   3039     1  0.0000000  0.7531200  3
   3035   3037   3038   3057     1  0.0000000  0.6508444  3
   3035   3034   3045   3050     1  0.0000000  0.6508444  3
   3035   3034   3052   3039     1  180.0000771  0.4184000  2
   3035   3034   3052   3039     1  0.0000000  1.6024720  3
   3037   3038   3039   3043     1  0.0000000  0.6508444  3
   3037   3038   3039   3052     1  0.0000000  0.6508444  3
   3037   3035   3034   3045     1  180.0000771  0.8368000  1
   3037   3035   3034   3045     1  180.0000771  1.0460000  2
   3037   3035   3034   3045     1  0.0000000  0.7531200  3
   3037   3035   3034   3052     1  0.0000000  0.6508444  3
   3038   3037   3035   3055     1  0.0000000  0.6508444  3
   3039   3052   3034   3045     1  180.0000771  0.4184000  2
   3039   3052   3034   3045     1  0.0000000  1.6024720  3
   3039   3038   3037   3044     1  0.0000000  0.6508444  3
   3043   3039   3038   3057     1  0.0000000  0.6508444  3
   3044   3037   3038   3057     1  0.0000000  0.6508444  3
   3044   3037   3035   3055     1  0.0000000  4.9162000  2
   3044   3037   3035   3055     1  0.0000000  0.6024960  3
   3045   3034   3035   3055     1  0.0000000  0.6508444  3
   3050   3045   3034   3052     1  0.0000000  4.9162000  2
   3050   3045   3034   3052     1  0.0000000  0.6024960  3
   3052   3039   3038   3057     1  0.0000000  0.6508444  3
   3052   3034   3035   3055     1  0.0000000  4.9162000  2
   3052   3034   3035   3055     1  0.0000000  0.6024960  3
   3058   3059   3061   3062     1  180.0000771  0.8368000  1
   3058   3059   3061   3062     1  180.0000771  1.0460000  2
   3058   3059   3061   3062     1  0.0000000  0.7531200  3
   3058   3059   3061   3068     1  0.0000000  0.6508444  3
   3058   3076   3063   3067     1  0.0000000  1.6038667  3
   3058   3076   3063   3062     1  180.0000771  0.4184000  2
   3058   3076   3063   3062     1  0.0000000  1.6024720  3
   3059   3061   3062   3063     1  180.0000771  0.8368000  1
   3059   3061   3062   3063     1  180.0000771  1.0460000  2
   3059   3061   3062   3063     1  0.0000000  0.7531200  3
   3059   3061   3062   3081     1  0.0000000  0.6508444  3
   3059   3058   3069   3074     1  0.0000000  0.6508444  3
   3059   3058   3076   3063     1  180.0000771  0.4184000  2
   3059   3058   3076   3063     1  0.0000000  1.6024720  3
   3061   3062   3063   3067     1  0.0000000  0.6508444  3
   3061   3062   3063   3076     1  0.0000000  0.6508444  3
   3061   3059   3058   3069     1  180.0000771  0.8368000  1
   3061   3059   3058   3069     1  180.0000771  1.0460000  2
   3061   3059   3058   3069     1  0.0000000  0.7531200  3
   3061   3059   3058   3076     1  0.0000000  0.6508444  3
   3062   3061   3059   3079     1  0.0000000  0.6508444  3
   3063   3076   3058   3069     1  180.0000771  0.4184000  2
   3063   3076   3058   3069     1  0.0000000  1.6024720  3
   3063   3062   3061   3068     1  0.0000000  0.6508444  3
   3067   3063   3062   3081     1  0.0000000  0.6508444  3
   3068   3061   3062   3081     1  0.0000000  0.6508444  3
   3068   3061   3059   3079     1  0.0000000  4.9162000  2
   3068   3061   3059   3079     1  0.0000000  0.6024960  3
   3069   3058   3059   3079     1  0.0000000  0.6508444  3
   3074   3069   3058   3076     1  0.0000000  4.9162000  2
   3074   3069   3058   3076     1  0.0000000  0.6024960  3
   3076   3063   3062   3081     1  0.0000000  0.6508444  3
   3076   3058   3059   3079     1  0.0000000  4.9162000  2
   3076   3058   3059   3079     1  0.0000000  0.6024960  3
   3083   3085   3087   3091     1  0.0000000  0.6508444  3
   3085   3087   3091   3092     1  0.0000000  0.6508444  3
   3085   3087   3091   3093     1  0.0000000  0.6508444  3
   3087   3091   3092   3103     1  0.0000000  0.6508444  3
   3087   3091   3093   3095     1  0.0000000  0.6508444  3
   3091   3092   3103   3106     1  0.0000000  0.6508444  3
   3091   3093   3095   3099     1  0.0000000  0.6508444  3
   3092   3091   3093   3095     1  0.0000000  0.6508444  3
   3092   3103   3106   3107     1  180.0000771  0.0000000  2
   3092   3103   3106   3155     1  180.0000771  0.0000000  2
   3093   3091   3092   3103     1  0.0000000  0.6508444  3
   3093   3095   3099   3100     1  180.0000771  0.0000000  2
   3093   3095   3099   3131     1  180.0000771  0.0000000  2
   3095   3099   3131   3112     1  180.0000771  6.0668000  2
   3095   3099   3131   3112     1  180.0000771  1.4644000  4
   3099   3131   3112   3111     1  0.0000000  1.2552000  3
   3099   3131   3112   3113     1  0.0000000  1.2552000  3
   3100   3099   3131   3112     1  180.0000771  6.0668000  2
   3100   3099   3131   3112     1  180.0000771  1.4644000  4
   3103   3106   3155   3136     1  180.0000771  6.0668000  2
   3103   3106   3155   3136     1  180.0000771  1.4644000  4
   3106   3155   3136   3135     1  0.0000000  1.2552000  3
   3106   3155   3136   3137     1  0.0000000  1.2552000  3
   3107   3106   3155   3136     1  180.0000771  6.0668000  2
   3107   3106   3155   3136     1  180.0000771  1.4644000  4
   3108   3109   3111   3112     1  180.0000771  0.8368000  1
   3108   3109   3111   3112     1  180.0000771  1.0460000  2
   3108   3109   3111   3112     1  0.0000000  0.7531200  3
   3108   3109   3111   3118     1  0.0000000  0.6508444  3
   3108   3126   3113   3112     1  180.0000771  0.4184000  2
   3108   3126   3113   3112     1  0.0000000  1.6024720  3
   3108   3126   3113   3117     1  0.0000000  1.6038667  3
   3109   3108   3119   3124     1  0.0000000  0.6508444  3
   3109   3108   3126   3113     1  180.0000771  0.4184000  2
   3109   3108   3126   3113     1  0.0000000  1.6024720  3
   3109   3111   3112   3113     1  180.0000771  0.8368000  1
   3109   3111   3112   3113     1  180.0000771  1.0460000  2
   3109   3111   3112   3113     1  0.0000000  0.7531200  3
   3109   3111   3112   3131     1  0.0000000  0.6508444  3
   3111   3109   3108   3119     1  180.0000771  0.8368000  1
   3111   3109   3108   3119     1  180.0000771  1.0460000  2
   3111   3109   3108   3119     1  0.0000000  0.7531200  3
   3111   3109   3108   3126     1  0.0000000  0.6508444  3
   3111   3112   3113   3117     1  0.0000000  0.6508444  3
   3111   3112   3113   3126     1  0.0000000  0.6508444  3
   3112   3111   3109   3129     1  0.0000000  0.6508444  3
   3113   3112   3111   3118     1  0.0000000  0.6508444  3
   3113   3126   3108   3119     1  180.0000771  0.4184000  2
   3113   3126   3108   3119     1  0.0000000  1.6024720  3
   3117   3113   3112   3131     1  0.0000000  0.6508444  3
   3118   3111   3109   3129     1  0.0000000  4.9162000  2
   3118   3111   3109   3129     1  0.0000000  0.6024960  3
   3118   3111   3112   3131     1  0.0000000  0.6508444  3
   3119   3108   3109   3129     1  0.0000000  0.6508444  3
   3124   3119   3108   3126     1  0.0000000  4.9162000  2
   3124   3119   3108   3126     1  0.0000000  0.6024960  3
   3126   3108   3109   3129     1  0.0000000  4.9162000  2
   3126   3108   3109   3129     1  0.0000000  0.6024960  3
   3126   3113   3112   3131     1  0.0000000  0.6508444  3
   3132   3133   3135   3136     1  180.0000771  0.8368000  1
   3132   3133   3135   3136     1  180.0000771  1.0460000  2
   3132   3133   3135   3136     1  0.0000000  0.7531200  3
   3132   3133   3135   3142     1  0.0000000  0.6508444  3
   3132   3150   3137   3136     1  180.0000771  0.4184000  2
   3132   3150   3137   3136     1  0.0000000  1.6024720  3
   3132   3150   3137   3141     1  0.0000000  1.6038667  3
   3133   3132   3143   3148     1  0.0000000  0.6508444  3
   3133   3132   3150   3137     1  180.0000771  0.4184000  2
   3133   3132   3150   3137     1  0.0000000  1.6024720  3
   3133   3135   3136   3137     1  180.0000771  0.8368000  1
   3133   3135   3136   3137     1  180.0000771  1.0460000  2
   3133   3135   3136   3137     1  0.0000000  0.7531200  3
   3133   3135   3136   3155     1  0.0000000  0.6508444  3
   3135   3133   3132   3143     1  180.0000771  0.8368000  1
   3135   3133   3132   3143     1  180.0000771  1.0460000  2
   3135   3133   3132   3143     1  0.0000000  0.7531200  3
   3135   3133   3132   3150     1  0.0000000  0.6508444  3
   3135   3136   3137   3141     1  0.0000000  0.6508444  3
   3135   3136   3137   3150     1  0.0000000  0.6508444  3
   3136   3135   3133   3153     1  0.0000000  0.6508444  3
   3137   3136   3135   3142     1  0.0000000  0.6508444  3
   3137   3150   3132   3143     1  180.0000771  0.4184000  2
   3137   3150   3132   3143     1  0.0000000  1.6024720  3
   3141   3137   3136   3155     1  0.0000000  0.6508444  3
   3142   3135   3133   3153     1  0.0000000  4.9162000  2
   3142   3135   3133   3153     1  0.0000000  0.6024960  3
   3142   3135   3136   3155     1  0.0000000  0.6508444  3
   3143   3132   3133   3153     1  0.0000000  0.6508444  3
   3148   3143   3132   3150     1  0.0000000  4.9162000  2
   3148   3143   3132   3150     1  0.0000000  0.6024960  3
   3150   3132   3133   3153     1  0.0000000  4.9162000  2
   3150   3132   3133   3153     1  0.0000000  0.6024960  3
   3150   3137   3136   3155     1  0.0000000  0.6508444  3
   3157   3159   3161   3165     1  0.0000000  0.6508444  3
   3159   3161   3165   3166     1  0.0000000  0.6508444  3
   3159   3161   3165   3167     1  0.0000000  0.6508444  3
   3161   3165   3166   3177     1  0.0000000  0.6508444  3
   3161   3165   3167   3169     1  0.0000000  0.6508444  3
   3165   3166   3177   3180     1  0.0000000  0.6508444  3
   3165   3167   3169   3173     1  0.0000000  0.6508444  3
   3166   3177   3180   3181     1  180.0000771  0.0000000  2
   3166   3177   3180   3229     1  180.0000771  0.0000000  2
   3166   3165   3167   3169     1  0.0000000  0.6508444  3
   3167   3169   3173   3174     1  180.0000771  0.0000000  2
   3167   3169   3173   3205     1  180.0000771  0.0000000  2
   3167   3165   3166   3177     1  0.0000000  0.6508444  3
   3169   3173   3205   3186     1  180.0000771  6.0668000  2
   3169   3173   3205   3186     1  180.0000771  1.4644000  4
   3173   3205   3186   3187     1  0.0000000  1.2552000  3
   3173   3205   3186   3185     1  0.0000000  1.2552000  3
   3174   3173   3205   3186     1  180.0000771  6.0668000  2
   3174   3173   3205   3186     1  180.0000771  1.4644000  4
   3177   3180   3229   3210     1  180.0000771  6.0668000  2
   3177   3180   3229   3210     1  180.0000771  1.4644000  4
   3180   3229   3210   3211     1  0.0000000  1.2552000  3
   3180   3229   3210   3209     1  0.0000000  1.2552000  3
   3181   3180   3229   3210     1  180.0000771  6.0668000  2
   3181   3180   3229   3210     1  180.0000771  1.4644000  4
   3182   3183   3185   3186     1  180.0000771  0.8368000  1
   3182   3183   3185   3186     1  180.0000771  1.0460000  2
   3182   3183   3185   3186     1  0.0000000  0.7531200  3
   3182   3183   3185   3192     1  0.0000000  0.6508444  3
   3182   3200   3187   3191     1  0.0000000  1.6038667  3
   3182   3200   3187   3186     1  180.0000771  0.4184000  2
   3182   3200   3187   3186     1  0.0000000  1.6024720  3
   3183   3185   3186   3187     1  180.0000771  0.8368000  1
   3183   3185   3186   3187     1  180.0000771  1.0460000  2
   3183   3185   3186   3187     1  0.0000000  0.7531200  3
   3183   3185   3186   3205     1  0.0000000  0.6508444  3
   3183   3182   3193   3198     1  0.0000000  0.6508444  3
   3183   3182   3200   3187     1  180.0000771  0.4184000  2
   3183   3182   3200   3187     1  0.0000000  1.6024720  3
   3185   3186   3187   3191     1  0.0000000  0.6508444  3
   3185   3186   3187   3200     1  0.0000000  0.6508444  3
   3185   3183   3182   3193     1  180.0000771  0.8368000  1
   3185   3183   3182   3193     1  180.0000771  1.0460000  2
   3185   3183   3182   3193     1  0.0000000  0.7531200  3
   3185   3183   3182   3200     1  0.0000000  0.6508444  3
   3186   3185   3183   3203     1  0.0000000  0.6508444  3
   3187   3200   3182   3193     1  180.0000771  0.4184000  2
   3187   3200   3182   3193     1  0.0000000  1.6024720  3
   3187   3186   3185   3192     1  0.0000000  0.6508444  3
   3191   3187   3186   3205     1  0.0000000  0.6508444  3
   3192   3185   3186   3205     1  0.0000000  0.6508444  3
   3192   3185   3183   3203     1  0.0000000  4.9162000  2
   3192   3185   3183   3203     1  0.0000000  0.6024960  3
   3193   3182   3183   3203     1  0.0000000  0.6508444  3
   3198   3193   3182   3200     1  0.0000000  4.9162000  2
   3198   3193   3182   3200     1  0.0000000  0.6024960  3
   3200   3187   3186   3205     1  0.0000000  0.6508444  3
   3200   3182   3183   3203     1  0.0000000  4.9162000  2
   3200   3182   3183   3203     1  0.0000000  0.6024960  3
   3206   3207   3209   3210     1  180.0000771  0.8368000  1
   3206   3207   3209   3210     1  180.0000771  1.0460000  2
   3206   3207   3209   3210     1  0.0000000  0.7531200  3
   3206   3207   3209   3216     1  0.0000000  0.6508444  3
   3206   3224   3211   3215     1  0.0000000  1.6038667  3
   3206   3224   3211   3210     1  180.0000771  0.4184000  2
   3206   3224   3211   3210     1  0.0000000  1.6024720  3
   3207   3209   3210   3211     1  180.0000771  0.8368000  1
   3207   3209   3210   3211     1  180.0000771  1.0460000  2
   3207   3209   3210   3211     1  0.0000000  0.7531200  3
   3207   3209   3210   3229     1  0.0000000  0.6508444  3
   3207   3206   3217   3222     1  0.0000000  0.6508444  3
   3207   3206   3224   3211     1  180.0000771  0.4184000  2
   3207   3206   3224   3211     1  0.0000000  1.6024720  3
   3209   3210   3211   3215     1  0.0000000  0.6508444  3
   3209   3210   3211   3224     1  0.0000000  0.6508444  3
   3209   3207   3206   3217     1  180.0000771  0.8368000  1
   3209   3207   3206   3217     1  180.0000771  1.0460000  2
   3209   3207   3206   3217     1  0.0000000  0.7531200  3
   3209   3207   3206   3224     1  0.0000000  0.6508444  3
   3210   3209   3207   3227     1  0.0000000  0.6508444  3
   3211   3224   3206   3217     1  180.0000771  0.4184000  2
   3211   3224   3206   3217     1  0.0000000  1.6024720  3
   3211   3210   3209   3216     1  0.0000000  0.6508444  3
   3215   3211   3210   3229     1  0.0000000  0.6508444  3
   3216   3209   3210   3229     1  0.0000000  0.6508444  3
   3216   3209   3207   3227     1  0.0000000  4.9162000  2
   3216   3209   3207   3227     1  0.0000000  0.6024960  3
   3217   3206   3207   3227     1  0.0000000  0.6508444  3
   3222   3217   3206   3224     1  0.0000000  4.9162000  2
   3222   3217   3206   3224     1  0.0000000  0.6024960  3
   3224   3211   3210   3229     1  0.0000000  0.6508444  3
   3224   3206   3207   3227     1  0.0000000  4.9162000  2
   3224   3206   3207   3227     1  0.0000000  0.6024960  3
   3231   3233   3235   3239     1  0.0000000  0.6508444  3
   3233   3235   3239   3240     1  0.0000000  0.6508444  3
   3233   3235   3239   3241     1  0.0000000  0.6508444  3
   3235   3239   3240   3251     1  0.0000000  0.6508444  3
   3235   3239   3241   3243     1  0.0000000  0.6508444  3
   3239   3240   3251   3254     1  0.0000000  0.6508444  3
   3239   3241   3243   3247     1  0.0000000  0.6508444  3
   3240   3239   3241   3243     1  0.0000000  0.6508444  3
   3240   3251   3254   3255     1  180.0000771  0.0000000  2
   3240   3251   3254   3303     1  180.0000771  0.0000000  2
   3241   3239   3240   3251     1  0.0000000  0.6508444  3
   3241   3243   3247   3248     1  180.0000771  0.0000000  2
   3241   3243   3247   3279     1  180.0000771  0.0000000  2
   3243   3247   3279   3260     1  180.0000771  6.0668000  2
   3243   3247   3279   3260     1  180.0000771  1.4644000  4
   3247   3279   3260   3259     1  0.0000000  1.2552000  3
   3247   3279   3260   3261     1  0.0000000  1.2552000  3
   3248   3247   3279   3260     1  180.0000771  6.0668000  2
   3248   3247   3279   3260     1  180.0000771  1.4644000  4
   3251   3254   3303   3284     1  180.0000771  6.0668000  2
   3251   3254   3303   3284     1  180.0000771  1.4644000  4
   3254   3303   3284   3283     1  0.0000000  1.2552000  3
   3254   3303   3284   3285     1  0.0000000  1.2552000  3
   3255   3254   3303   3284     1  180.0000771  6.0668000  2
   3255   3254   3303   3284     1  180.0000771  1.4644000  4
   3256   3257   3259   3260     1  180.0000771  0.8368000  1
   3256   3257   3259   3260     1  180.0000771  1.0460000  2
   3256   3257   3259   3260     1  0.0000000  0.7531200  3
   3256   3257   3259   3266     1  0.0000000  0.6508444  3
   3256   3274   3261   3260     1  180.0000771  0.4184000  2
   3256   3274   3261   3260     1  0.0000000  1.6024720  3
   3256   3274   3261   3265     1  0.0000000  1.6038667  3
   3257   3256   3267   3272     1  0.0000000  0.6508444  3
   3257   3256   3274   3261     1  180.0000771  0.4184000  2
   3257   3256   3274   3261     1  0.0000000  1.6024720  3
   3257   3259   3260   3261     1  180.0000771  0.8368000  1
   3257   3259   3260   3261     1  180.0000771  1.0460000  2
   3257   3259   3260   3261     1  0.0000000  0.7531200  3
   3257   3259   3260   3279     1  0.0000000  0.6508444  3
   3259   3257   3256   3267     1  180.0000771  0.8368000  1
   3259   3257   3256   3267     1  180.0000771  1.0460000  2
   3259   3257   3256   3267     1  0.0000000  0.7531200  3
   3259   3257   3256   3274     1  0.0000000  0.6508444  3
   3259   3260   3261   3265     1  0.0000000  0.6508444  3
   3259   3260   3261   3274     1  0.0000000  0.6508444  3
   3260   3259   3257   3277     1  0.0000000  0.6508444  3
   3261   3260   3259   3266     1  0.0000000  0.6508444  3
   3261   3274   3256   3267     1  180.0000771  0.4184000  2
   3261   3274   3256   3267     1  0.0000000  1.6024720  3
   3265   3261   3260   3279     1  0.0000000  0.6508444  3
   3266   3259   3257   3277     1  0.0000000  4.9162000  2
   3266   3259   3257   3277     1  0.0000000  0.6024960  3
   3266   3259   3260   3279     1  0.0000000  0.6508444  3
   3267   3256   3257   3277     1  0.0000000  0.6508444  3
   3272   3267   3256   3274     1  0.0000000  4.9162000  2
   3272   3267   3256   3274     1  0.0000000  0.6024960  3
   3274   3256   3257   3277     1  0.0000000  4.9162000  2
   3274   3256   3257   3277     1  0.0000000  0.6024960  3
   3274   3261   3260   3279     1  0.0000000  0.6508444  3
   3280   3281   3283   3284     1  180.0000771  0.8368000  1
   3280   3281   3283   3284     1  180.0000771  1.0460000  2
   3280   3281   3283   3284     1  0.0000000  0.7531200  3
   3280   3281   3283   3290     1  0.0000000  0.6508444  3
   3280   3298   3285   3284     1  180.0000771  0.4184000  2
   3280   3298   3285   3284     1  0.0000000  1.6024720  3
   3280   3298   3285   3289     1  0.0000000  1.6038667  3
   3281   3280   3291   3296     1  0.0000000  0.6508444  3
   3281   3280   3298   3285     1  180.0000771  0.4184000  2
   3281   3280   3298   3285     1  0.0000000  1.6024720  3
   3281   3283   3284   3285     1  180.0000771  0.8368000  1
   3281   3283   3284   3285     1  180.0000771  1.0460000  2
   3281   3283   3284   3285     1  0.0000000  0.7531200  3
   3281   3283   3284   3303     1  0.0000000  0.6508444  3
   3283   3281   3280   3291     1  180.0000771  0.8368000  1
   3283   3281   3280   3291     1  180.0000771  1.0460000  2
   3283   3281   3280   3291     1  0.0000000  0.7531200  3
   3283   3281   3280   3298     1  0.0000000  0.6508444  3
   3283   3284   3285   3289     1  0.0000000  0.6508444  3
   3283   3284   3285   3298     1  0.0000000  0.6508444  3
   3284   3283   3281   3301     1  0.0000000  0.6508444  3
   3285   3284   3283   3290     1  0.0000000  0.6508444  3
   3285   3298   3280   3291     1  180.0000771  0.4184000  2
   3285   3298   3280   3291     1  0.0000000  1.6024720  3
   3289   3285   3284   3303     1  0.0000000  0.6508444  3
   3290   3283   3281   3301     1  0.0000000  4.9162000  2
   3290   3283   3281   3301     1  0.0000000  0.6024960  3
   3290   3283   3284   3303     1  0.0000000  0.6508444  3
   3291   3280   3281   3301     1  0.0000000  0.6508444  3
   3296   3291   3280   3298     1  0.0000000  4.9162000  2
   3296   3291   3280   3298     1  0.0000000  0.6024960  3
   3298   3280   3281   3301     1  0.0000000  4.9162000  2
   3298   3280   3281   3301     1  0.0000000  0.6024960  3
   3298   3285   3284   3303     1  0.0000000  0.6508444  3
   3305   3307   3309   3313     1  0.0000000  0.6508444  3
   3307   3309   3313   3314     1  0.0000000  0.6508444  3
   3307   3309   3313   3315     1  0.0000000  0.6508444  3
   3309   3313   3314   3325     1  0.0000000  0.6508444  3
   3309   3313   3315   3317     1  0.0000000  0.6508444  3
   3313   3314   3325   3328     1  0.0000000  0.6508444  3
   3313   3315   3317   3321     1  0.0000000  0.6508444  3
   3314   3325   3328   3329     1  180.0000771  0.0000000  2
   3314   3325   3328   3377     1  180.0000771  0.0000000  2
   3314   3313   3315   3317     1  0.0000000  0.6508444  3
   3315   3317   3321   3322     1  180.0000771  0.0000000  2
   3315   3317   3321   3353     1  180.0000771  0.0000000  2
   3315   3313   3314   3325     1  0.0000000  0.6508444  3
   3317   3321   3353   3334     1  180.0000771  6.0668000  2
   3317   3321   3353   3334     1  180.0000771  1.4644000  4
   3321   3353   3334   3335     1  0.0000000  1.2552000  3
   3321   3353   3334   3333     1  0.0000000  1.2552000  3
   3322   3321   3353   3334     1  180.0000771  6.0668000  2
   3322   3321   3353   3334     1  180.0000771  1.4644000  4
   3325   3328   3377   3358     1  180.0000771  6.0668000  2
   3325   3328   3377   3358     1  180.0000771  1.4644000  4
   3328   3377   3358   3359     1  0.0000000  1.2552000  3
   3328   3377   3358   3357     1  0.0000000  1.2552000  3
   3329   3328   3377   3358     1  180.0000771  6.0668000  2
   3329   3328   3377   3358     1  180.0000771  1.4644000  4
   3330   3331   3333   3334     1  180.0000771  0.8368000  1
   3330   3331   3333   3334     1  180.0000771  1.0460000  2
   3330   3331   3333   3334     1  0.0000000  0.7531200  3
   3330   3331   3333   3340     1  0.0000000  0.6508444  3
   3330   3348   3335   3339     1  0.0000000  1.6038667  3
   3330   3348   3335   3334     1  180.0000771  0.4184000  2
   3330   3348   3335   3334     1  0.0000000  1.6024720  3
   3331   3333   3334   3335     1  180.0000771  0.8368000  1
   3331   3333   3334   3335     1  180.0000771  1.0460000  2
   3331   3333   3334   3335     1  0.0000000  0.7531200  3
   3331   3333   3334   3353     1  0.0000000  0.6508444  3
   3331   3330   3341   3346     1  0.0000000  0.6508444  3
   3331   3330   3348   3335     1  180.0000771  0.4184000  2
   3331   3330   3348   3335     1  0.0000000  1.6024720  3
   3333   3334   3335   3339     1  0.0000000  0.6508444  3
   3333   3334   3335   3348     1  0.0000000  0.6508444  3
   3333   3331   3330   3341     1  180.0000771  0.8368000  1
   3333   3331   3330   3341     1  180.0000771  1.0460000  2
   3333   3331   3330   3341     1  0.0000000  0.7531200  3
   3333   3331   3330   3348     1  0.0000000  0.6508444  3
   3334   3333   3331   3351     1  0.0000000  0.6508444  3
   3335   3348   3330   3341     1  180.0000771  0.4184000  2
   3335   3348   3330   3341     1  0.0000000  1.6024720  3
   3335   3334   3333   3340     1  0.0000000  0.6508444  3
   3339   3335   3334   3353     1  0.0000000  0.6508444  3
   3340   3333   3334   3353     1  0.0000000  0.6508444  3
   3340   3333   3331   3351     1  0.0000000  4.9162000  2
   3340   3333   3331   3351     1  0.0000000  0.6024960  3
   3341   3330   3331   3351     1  0.0000000  0.6508444  3
   3346   3341   3330   3348     1  0.0000000  4.9162000  2
   3346   3341   3330   3348     1  0.0000000  0.6024960  3
   3348   3335   3334   3353     1  0.0000000  0.6508444  3
   3348   3330   3331   3351     1  0.0000000  4.9162000  2
   3348   3330   3331   3351     1  0.0000000  0.6024960  3
   3354   3355   3357   3358     1  180.0000771  0.8368000  1
   3354   3355   3357   3358     1  180.0000771  1.0460000  2
   3354   3355   3357   3358     1  0.0000000  0.7531200  3
   3354   3355   3357   3364     1  0.0000000  0.6508444  3
   3354   3372   3359   3363     1  0.0000000  1.6038667  3
   3354   3372   3359   3358     1  180.0000771  0.4184000  2
   3354   3372   3359   3358     1  0.0000000  1.6024720  3
   3355   3357   3358   3359     1  180.0000771  0.8368000  1
   3355   3357   3358   3359     1  180.0000771  1.0460000  2
   3355   3357   3358   3359     1  0.0000000  0.7531200  3
   3355   3357   3358   3377     1  0.0000000  0.6508444  3
   3355   3354   3365   3370     1  0.0000000  0.6508444  3
   3355   3354   3372   3359     1  180.0000771  0.4184000  2
   3355   3354   3372   3359     1  0.0000000  1.6024720  3
   3357   3358   3359   3363     1  0.0000000  0.6508444  3
   3357   3358   3359   3372     1  0.0000000  0.6508444  3
   3357   3355   3354   3365     1  180.0000771  0.8368000  1
   3357   3355   3354   3365     1  180.0000771  1.0460000  2
   3357   3355   3354   3365     1  0.0000000  0.7531200  3
   3357   3355   3354   3372     1  0.0000000  0.6508444  3
   3358   3357   3355   3375     1  0.0000000  0.6508444  3
   3359   3372   3354   3365     1  180.0000771  0.4184000  2
   3359   3372   3354   3365     1  0.0000000  1.6024720  3
   3359   3358   3357   3364     1  0.0000000  0.6508444  3
   3363   3359   3358   3377     1  0.0000000  0.6508444  3
   3364   3357   3358   3377     1  0.0000000  0.6508444  3
   3364   3357   3355   3375     1  0.0000000  4.9162000  2
   3364   3357   3355   3375     1  0.0000000  0.6024960  3
   3365   3354   3355   3375     1  0.0000000  0.6508444  3
   3370   3365   3354   3372     1  0.0000000  4.9162000  2
   3370   3365   3354   3372     1  0.0000000  0.6024960  3
   3372   3359   3358   3377     1  0.0000000  0.6508444  3
   3372   3354   3355   3375     1  0.0000000  4.9162000  2
   3372   3354   3355   3375     1  0.0000000  0.6024960  3
   3379   3381   3383   3387     1  0.0000000  0.6508444  3
   3381   3383   3387   3388     1  0.0000000  0.6508444  3
   3381   3383   3387   3389     1  0.0000000  0.6508444  3
   3383   3387   3388   3399     1  0.0000000  0.6508444  3
   3383   3387   3389   3391     1  0.0000000  0.6508444  3
   3387   3388   3399   3402     1  0.0000000  0.6508444  3
   3387   3389   3391   3395     1  0.0000000  0.6508444  3
   3388   3387   3389   3391     1  0.0000000  0.6508444  3
   3388   3399   3402   3403     1  180.0000771  0.0000000  2
   3388   3399   3402   3451     1  180.0000771  0.0000000  2
   3389   3387   3388   3399     1  0.0000000  0.6508444  3
   3389   3391   3395   3396     1  180.0000771  0.0000000  2
   3389   3391   3395   3427     1  180.0000771  0.0000000  2
   3391   3395   3427   3408     1  180.0000771  6.0668000  2
   3391   3395   3427   3408     1  180.0000771  1.4644000  4
   3395   3427   3408   3407     1  0.0000000  1.2552000  3
   3395   3427   3408   3409     1  0.0000000  1.2552000  3
   3396   3395   3427   3408     1  180.0000771  6.0668000  2
   3396   3395   3427   3408     1  180.0000771  1.4644000  4
   3399   3402   3451   3432     1  180.0000771  6.0668000  2
   3399   3402   3451   3432     1  180.0000771  1.4644000  4
   3402   3451   3432   3431     1  0.0000000  1.2552000  3
   3402   3451   3432   3433     1  0.0000000  1.2552000  3
   3403   3402   3451   3432     1  180.0000771  6.0668000  2
   3403   3402   3451   3432     1  180.0000771  1.4644000  4
   3404   3405   3407   3408     1  180.0000771  0.8368000  1
   3404   3405   3407   3408     1  180.0000771  1.0460000  2
   3404   3405   3407   3408     1  0.0000000  0.7531200  3
   3404   3405   3407   3414     1  0.0000000  0.6508444  3
   3404   3422   3409   3408     1  180.0000771  0.4184000  2
   3404   3422   3409   3408     1  0.0000000  1.6024720  3
   3404   3422   3409   3413     1  0.0000000  1.6038667  3
   3405   3404   3415   3420     1  0.0000000  0.6508444  3
   3405   3404   3422   3409     1  180.0000771  0.4184000  2
   3405   3404   3422   3409     1  0.0000000  1.6024720  3
   3405   3407   3408   3409     1  180.0000771  0.8368000  1
   3405   3407   3408   3409     1  180.0000771  1.0460000  2
   3405   3407   3408   3409     1  0.0000000  0.7531200  3
   3405   3407   3408   3427     1  0.0000000  0.6508444  3
   3407   3405   3404   3415     1  180.0000771  0.8368000  1
   3407   3405   3404   3415     1  180.0000771  1.0460000  2
   3407   3405   3404   3415     1  0.0000000  0.7531200  3
   3407   3405   3404   3422     1  0.0000000  0.6508444  3
   3407   3408   3409   3413     1  0.0000000  0.6508444  3
   3407   3408   3409   3422     1  0.0000000  0.6508444  3
   3408   3407   3405   3425     1  0.0000000  0.6508444  3
   3409   3408   3407   3414     1  0.0000000  0.6508444  3
   3409   3422   3404   3415     1  180.0000771  0.4184000  2
   3409   3422   3404   3415     1  0.0000000  1.6024720  3
   3413   3409   3408   3427     1  0.0000000  0.6508444  3
   3414   3407   3405   3425     1  0.0000000  4.9162000  2
   3414   3407   3405   3425     1  0.0000000  0.6024960  3
   3414   3407   3408   3427     1  0.0000000  0.6508444  3
   3415   3404   3405   3425     1  0.0000000  0.6508444  3
   3420   3415   3404   3422     1  0.0000000  4.9162000  2
   3420   3415   3404   3422     1  0.0000000  0.6024960  3
   3422   3404   3405   3425     1  0.0000000  4.9162000  2
   3422   3404   3405   3425     1  0.0000000  0.6024960  3
   3422   3409   3408   3427     1  0.0000000  0.6508444  3
   3428   3429   3431   3432     1  180.0000771  0.8368000  1
   3428   3429   3431   3432     1  180.0000771  1.0460000  2
   3428   3429   3431   3432     1  0.0000000  0.7531200  3
   3428   3429   3431   3438     1  0.0000000  0.6508444  3
   3428   3446   3433   3432     1  180.0000771  0.4184000  2
   3428   3446   3433   3432     1  0.0000000  1.6024720  3
   3428   3446   3433   3437     1  0.0000000  1.6038667  3
   3429   3428   3439   3444     1  0.0000000  0.6508444  3
   3429   3428   3446   3433     1  180.0000771  0.4184000  2
   3429   3428   3446   3433     1  0.0000000  1.6024720  3
   3429   3431   3432   3433     1  180.0000771  0.8368000  1
   3429   3431   3432   3433     1  180.0000771  1.0460000  2
   3429   3431   3432   3433     1  0.0000000  0.7531200  3
   3429   3431   3432   3451     1  0.0000000  0.6508444  3
   3431   3429   3428   3439     1  180.0000771  0.8368000  1
   3431   3429   3428   3439     1  180.0000771  1.0460000  2
   3431   3429   3428   3439     1  0.0000000  0.7531200  3
   3431   3429   3428   3446     1  0.0000000  0.6508444  3
   3431   3432   3433   3437     1  0.0000000  0.6508444  3
   3431   3432   3433   3446     1  0.0000000  0.6508444  3
   3432   3431   3429   3449     1  0.0000000  0.6508444  3
   3433   3432   3431   3438     1  0.0000000  0.6508444  3
   3433   3446   3428   3439     1  180.0000771  0.4184000  2
   3433   3446   3428   3439     1  0.0000000  1.6024720  3
   3437   3433   3432   3451     1  0.0000000  0.6508444  3
   3438   3431   3429   3449     1  0.0000000  4.9162000  2
   3438   3431   3429   3449     1  0.0000000  0.6024960  3
   3438   3431   3432   3451     1  0.0000000  0.6508444  3
   3439   3428   3429   3449     1  0.0000000  0.6508444  3
   3444   3439   3428   3446     1  0.0000000  4.9162000  2
   3444   3439   3428   3446     1  0.0000000  0.6024960  3
   3446   3428   3429   3449     1  0.0000000  4.9162000  2
   3446   3428   3429   3449     1  0.0000000  0.6024960  3
   3446   3433   3432   3451     1  0.0000000  0.6508444  3
   3453   3455   3457   3461     1  0.0000000  0.6508444  3
   3455   3457   3461   3462     1  0.0000000  0.6508444  3
   3455   3457   3461   3463     1  0.0000000  0.6508444  3
   3457   3461   3462   3473     1  0.0000000  0.6508444  3
   3457   3461   3463   3465     1  0.0000000  0.6508444  3
   3461   3462   3473   3476     1  0.0000000  0.6508444  3
   3461   3463   3465   3469     1  0.0000000  0.6508444  3
   3462   3473   3476   3477     1  180.0000771  0.0000000  2
   3462   3473   3476   3525     1  180.0000771  0.0000000  2
   3462   3461   3463   3465     1  0.0000000  0.6508444  3
   3463   3465   3469   3470     1  180.0000771  0.0000000  2
   3463   3465   3469   3501     1  180.0000771  0.0000000  2
   3463   3461   3462   3473     1  0.0000000  0.6508444  3
   3465   3469   3501   3482     1  180.0000771  6.0668000  2
   3465   3469   3501   3482     1  180.0000771  1.4644000  4
   3469   3501   3482   3483     1  0.0000000  1.2552000  3
   3469   3501   3482   3481     1  0.0000000  1.2552000  3
   3470   3469   3501   3482     1  180.0000771  6.0668000  2
   3470   3469   3501   3482     1  180.0000771  1.4644000  4
   3473   3476   3525   3506     1  180.0000771  6.0668000  2
   3473   3476   3525   3506     1  180.0000771  1.4644000  4
   3476   3525   3506   3507     1  0.0000000  1.2552000  3
   3476   3525   3506   3505     1  0.0000000  1.2552000  3
   3477   3476   3525   3506     1  180.0000771  6.0668000  2
   3477   3476   3525   3506     1  180.0000771  1.4644000  4
   3478   3479   3481   3482     1  180.0000771  0.8368000  1
   3478   3479   3481   3482     1  180.0000771  1.0460000  2
   3478   3479   3481   3482     1  0.0000000  0.7531200  3
   3478   3479   3481   3488     1  0.0000000  0.6508444  3
   3478   3496   3483   3487     1  0.0000000  1.6038667  3
   3478   3496   3483   3482     1  180.0000771  0.4184000  2
   3478   3496   3483   3482     1  0.0000000  1.6024720  3
   3479   3481   3482   3483     1  180.0000771  0.8368000  1
   3479   3481   3482   3483     1  180.0000771  1.0460000  2
   3479   3481   3482   3483     1  0.0000000  0.7531200  3
   3479   3481   3482   3501     1  0.0000000  0.6508444  3
   3479   3478   3489   3494     1  0.0000000  0.6508444  3
   3479   3478   3496   3483     1  180.0000771  0.4184000  2
   3479   3478   3496   3483     1  0.0000000  1.6024720  3
   3481   3482   3483   3487     1  0.0000000  0.6508444  3
   3481   3482   3483   3496     1  0.0000000  0.6508444  3
   3481   3479   3478   3489     1  180.0000771  0.8368000  1
   3481   3479   3478   3489     1  180.0000771  1.0460000  2
   3481   3479   3478   3489     1  0.0000000  0.7531200  3
   3481   3479   3478   3496     1  0.0000000  0.6508444  3
   3482   3481   3479   3499     1  0.0000000  0.6508444  3
   3483   3496   3478   3489     1  180.0000771  0.4184000  2
   3483   3496   3478   3489     1  0.0000000  1.6024720  3
   3483   3482   3481   3488     1  0.0000000  0.6508444  3
   3487   3483   3482   3501     1  0.0000000  0.6508444  3
   3488   3481   3482   3501     1  0.0000000  0.6508444  3
   3488   3481   3479   3499     1  0.0000000  4.9162000  2
   3488   3481   3479   3499     1  0.0000000  0.6024960  3
   3489   3478   3479   3499     1  0.0000000  0.6508444  3
   3494   3489   3478   3496     1  0.0000000  4.9162000  2
   3494   3489   3478   3496     1  0.0000000  0.6024960  3
   3496   3483   3482   3501     1  0.0000000  0.6508444  3
   3496   3478   3479   3499     1  0.0000000  4.9162000  2
   3496   3478   3479   3499     1  0.0000000  0.6024960  3
   3502   3503   3505   3506     1  180.0000771  0.8368000  1
   3502   3503   3505   3506     1  180.0000771  1.0460000  2
   3502   3503   3505   3506     1  0.0000000  0.7531200  3
   3502   3503   3505   3512     1  0.0000000  0.6508444  3
   3502   3520   3507   3511     1  0.0000000  1.6038667  3
   3502   3520   3507   3506     1  180.0000771  0.4184000  2
   3502   3520   3507   3506     1  0.0000000  1.6024720  3
   3503   3505   3506   3507     1  180.0000771  0.8368000  1
   3503   3505   3506   3507     1  180.0000771  1.0460000  2
   3503   3505   3506   3507     1  0.0000000  0.7531200  3
   3503   3505   3506   3525     1  0.0000000  0.6508444  3
   3503   3502   3513   3518     1  0.0000000  0.6508444  3
   3503   3502   3520   3507     1  180.0000771  0.4184000  2
   3503   3502   3520   3507     1  0.0000000  1.6024720  3
   3505   3506   3507   3511     1  0.0000000  0.6508444  3
   3505   3506   3507   3520     1  0.0000000  0.6508444  3
   3505   3503   3502   3513     1  180.0000771  0.8368000  1
   3505   3503   3502   3513     1  180.0000771  1.0460000  2
   3505   3503   3502   3513     1  0.0000000  0.7531200  3
   3505   3503   3502   3520     1  0.0000000  0.6508444  3
   3506   3505   3503   3523     1  0.0000000  0.6508444  3
   3507   3520   3502   3513     1  180.0000771  0.4184000  2
   3507   3520   3502   3513     1  0.0000000  1.6024720  3
   3507   3506   3505   3512     1  0.0000000  0.6508444  3
   3511   3507   3506   3525     1  0.0000000  0.6508444  3
   3512   3505   3506   3525     1  0.0000000  0.6508444  3
   3512   3505   3503   3523     1  0.0000000  4.9162000  2
   3512   3505   3503   3523     1  0.0000000  0.6024960  3
   3513   3502   3503   3523     1  0.0000000  0.6508444  3
   3518   3513   3502   3520     1  0.0000000  4.9162000  2
   3518   3513   3502   3520     1  0.0000000  0.6024960  3
   3520   3507   3506   3525     1  0.0000000  0.6508444  3
   3520   3502   3503   3523     1  0.0000000  4.9162000  2
   3520   3502   3503   3523     1  0.0000000  0.6024960  3
   3527   3529   3531   3535     1  0.0000000  0.6508444  3
   3529   3531   3535   3536     1  0.0000000  0.6508444  3
   3529   3531   3535   3537     1  0.0000000  0.6508444  3
   3531   3535   3536   3547     1  0.0000000  0.6508444  3
   3531   3535   3537   3539     1  0.0000000  0.6508444  3
   3535   3536   3547   3550     1  0.0000000  0.6508444  3
   3535   3537   3539   3543     1  0.0000000  0.6508444  3
   3536   3535   3537   3539     1  0.0000000  0.6508444  3
   3536   3547   3550   3551     1  180.0000771  0.0000000  2
   3536   3547   3550   3599     1  180.0000771  0.0000000  2
   3537   3535   3536   3547     1  0.0000000  0.6508444  3
   3537   3539   3543   3544     1  180.0000771  0.0000000  2
   3537   3539   3543   3575     1  180.0000771  0.0000000  2
   3539   3543   3575   3556     1  180.0000771  6.0668000  2
   3539   3543   3575   3556     1  180.0000771  1.4644000  4
   3543   3575   3556   3555     1  0.0000000  1.2552000  3
   3543   3575   3556   3557     1  0.0000000  1.2552000  3
   3544   3543   3575   3556     1  180.0000771  6.0668000  2
   3544   3543   3575   3556     1  180.0000771  1.4644000  4
   3547   3550   3599   3580     1  180.0000771  6.0668000  2
   3547   3550   3599   3580     1  180.0000771  1.4644000  4
   3550   3599   3580   3579     1  0.0000000  1.2552000  3
   3550   3599   3580   3581     1  0.0000000  1.2552000  3
   3551   3550   3599   3580     1  180.0000771  6.0668000  2
   3551   3550   3599   3580     1  180.0000771  1.4644000  4
   3552   3553   3555   3556     1  180.0000771  0.8368000  1
   3552   3553   3555   3556     1  180.0000771  1.0460000  2
   3552   3553   3555   3556     1  0.0000000  0.7531200  3
   3552   3553   3555   3562     1  0.0000000  0.6508444  3
   3552   3570   3557   3556     1  180.0000771  0.4184000  2
   3552   3570   3557   3556     1  0.0000000  1.6024720  3
   3552   3570   3557   3561     1  0.0000000  1.6038667  3
   3553   3552   3563   3568     1  0.0000000  0.6508444  3
   3553   3552   3570   3557     1  180.0000771  0.4184000  2
   3553   3552   3570   3557     1  0.0000000  1.6024720  3
   3553   3555   3556   3557     1  180.0000771  0.8368000  1
   3553   3555   3556   3557     1  180.0000771  1.0460000  2
   3553   3555   3556   3557     1  0.0000000  0.7531200  3
   3553   3555   3556   3575     1  0.0000000  0.6508444  3
   3555   3553   3552   3563     1  180.0000771  0.8368000  1
   3555   3553   3552   3563     1  180.0000771  1.0460000  2
   3555   3553   3552   3563     1  0.0000000  0.7531200  3
   3555   3553   3552   3570     1  0.0000000  0.6508444  3
   3555   3556   3557   3561     1  0.0000000  0.6508444  3
   3555   3556   3557   3570     1  0.0000000  0.6508444  3
   3556   3555   3553   3573     1  0.0000000  0.6508444  3
   3557   3556   3555   3562     1  0.0000000  0.6508444  3
   3557   3570   3552   3563     1  180.0000771  0.4184000  2
   3557   3570   3552   3563     1  0.0000000  1.6024720  3
   3561   3557   3556   3575     1  0.0000000  0.6508444  3
   3562   3555   3553   3573     1  0.0000000  4.9162000  2
   3562   3555   3553   3573     1  0.0000000  0.6024960  3
   3562   3555   3556   3575     1  0.0000000  0.6508444  3
   3563   3552   3553   3573     1  0.0000000  0.6508444  3
   3568   3563   3552   3570     1  0.0000000  4.9162000  2
   3568   3563   3552   3570     1  0.0000000  0.6024960  3
   3570   3552   3553   3573     1  0.0000000  4.9162000  2
   3570   3552   3553   3573     1  0.0000000  0.6024960  3
   3570   3557   3556   3575     1  0.0000000  0.6508444  3
   3576   3577   3579   3580     1  180.0000771  0.8368000  1
   3576   3577   3579   3580     1  180.0000771  1.0460000  2
   3576   3577   3579   3580     1  0.0000000  0.7531200  3
   3576   3577   3579   3586     1  0.0000000  0.6508444  3
   3576   3594   3581   3580     1  180.0000771  0.4184000  2
   3576   3594   3581   3580     1  0.0000000  1.6024720  3
   3576   3594   3581   3585     1  0.0000000  1.6038667  3
   3577   3576   3587   3592     1  0.0000000  0.6508444  3
   3577   3576   3594   3581     1  180.0000771  0.4184000  2
   3577   3576   3594   3581     1  0.0000000  1.6024720  3
   3577   3579   3580   3581     1  180.0000771  0.8368000  1
   3577   3579   3580   3581     1  180.0000771  1.0460000  2
   3577   3579   3580   3581     1  0.0000000  0.7531200  3
   3577   3579   3580   3599     1  0.0000000  0.6508444  3
   3579   3577   3576   3587     1  180.0000771  0.8368000  1
   3579   3577   3576   3587     1  180.0000771  1.0460000  2
   3579   3577   3576   3587     1  0.0000000  0.7531200  3
   3579   3577   3576   3594     1  0.0000000  0.6508444  3
   3579   3580   3581   3585     1  0.0000000  0.6508444  3
   3579   3580   3581   3594     1  0.0000000  0.6508444  3
   3580   3579   3577   3597     1  0.0000000  0.6508444  3
   3581   3580   3579   3586     1  0.0000000  0.6508444  3
   3581   3594   3576   3587     1  180.0000771  0.4184000  2
   3581   3594   3576   3587     1  0.0000000  1.6024720  3
   3585   3581   3580   3599     1  0.0000000  0.6508444  3
   3586   3579   3577   3597     1  0.0000000  4.9162000  2
   3586   3579   3577   3597     1  0.0000000  0.6024960  3
   3586   3579   3580   3599     1  0.0000000  0.6508444  3
   3587   3576   3577   3597     1  0.0000000  0.6508444  3
   3592   3587   3576   3594     1  0.0000000  4.9162000  2
   3592   3587   3576   3594     1  0.0000000  0.6024960  3
   3594   3576   3577   3597     1  0.0000000  4.9162000  2
   3594   3576   3577   3597     1  0.0000000  0.6024960  3
   3594   3581   3580   3599     1  0.0000000  0.6508444  3
   3601   3603   3605   3609     1  0.0000000  0.6508444  3
   3603   3605   3609   3610     1  0.0000000  0.6508444  3
   3603   3605   3609   3611     1  0.0000000  0.6508444  3
   3605   3609   3610   3621     1  0.0000000  0.6508444  3
   3605   3609   3611   3613     1  0.0000000  0.6508444  3
   3609   3610   3621   3624     1  0.0000000  0.6508444  3
   3609   3611   3613   3617     1  0.0000000  0.6508444  3
   3610   3621   3624   3625     1  180.0000771  0.0000000  2
   3610   3621   3624   3673     1  180.0000771  0.0000000  2
   3610   3609   3611   3613     1  0.0000000  0.6508444  3
   3611   3613   3617   3618     1  180.0000771  0.0000000  2
   3611   3613   3617   3649     1  180.0000771  0.0000000  2
   3611   3609   3610   3621     1  0.0000000  0.6508444  3
   3613   3617   3649   3630     1  180.0000771  6.0668000  2
   3613   3617   3649   3630     1  180.0000771  1.4644000  4
   3617   3649   3630   3631     1  0.0000000  1.2552000  3
   3617   3649   3630   3629     1  0.0000000  1.2552000  3
   3618   3617   3649   3630     1  180.0000771  6.0668000  2
   3618   3617   3649   3630     1  180.0000771  1.4644000  4
   3621   3624   3673   3654     1  180.0000771  6.0668000  2
   3621   3624   3673   3654     1  180.0000771  1.4644000  4
   3624   3673   3654   3655     1  0.0000000  1.2552000  3
   3624   3673   3654   3653     1  0.0000000  1.2552000  3
   3625   3624   3673   3654     1  180.0000771  6.0668000  2
   3625   3624   3673   3654     1  180.0000771  1.4644000  4
   3626   3627   3629   3630     1  180.0000771  0.8368000  1
   3626   3627   3629   3630     1  180.0000771  1.0460000  2
   3626   3627   3629   3630     1  0.0000000  0.7531200  3
   3626   3627   3629   3636     1  0.0000000  0.6508444  3
   3626   3644   3631   3635     1  0.0000000  1.6038667  3
   3626   3644   3631   3630     1  180.0000771  0.4184000  2
   3626   3644   3631   3630     1  0.0000000  1.6024720  3
   3627   3629   3630   3631     1  180.0000771  0.8368000  1
   3627   3629   3630   3631     1  180.0000771  1.0460000  2
   3627   3629   3630   3631     1  0.0000000  0.7531200  3
   3627   3629   3630   3649     1  0.0000000  0.6508444  3
   3627   3626   3637   3642     1  0.0000000  0.6508444  3
   3627   3626   3644   3631     1  180.0000771  0.4184000  2
   3627   3626   3644   3631     1  0.0000000  1.6024720  3
   3629   3630   3631   3635     1  0.0000000  0.6508444  3
   3629   3630   3631   3644     1  0.0000000  0.6508444  3
   3629   3627   3626   3637     1  180.0000771  0.8368000  1
   3629   3627   3626   3637     1  180.0000771  1.0460000  2
   3629   3627   3626   3637     1  0.0000000  0.7531200  3
   3629   3627   3626   3644     1  0.0000000  0.6508444  3
   3630   3629   3627   3647     1  0.0000000  0.6508444  3
   3631   3644   3626   3637     1  180.0000771  0.4184000  2
   3631   3644   3626   3637     1  0.0000000  1.6024720  3
   3631   3630   3629   3636     1  0.0000000  0.6508444  3
   3635   3631   3630   3649     1  0.0000000  0.6508444  3
   3636   3629   3630   3649     1  0.0000000  0.6508444  3
   3636   3629   3627   3647     1  0.0000000  4.9162000  2
   3636   3629   3627   3647     1  0.0000000  0.6024960  3
   3637   3626   3627   3647     1  0.0000000  0.6508444  3
   3642   3637   3626   3644     1  0.0000000  4.9162000  2
   3642   3637   3626   3644     1  0.0000000  0.6024960  3
   3644   3631   3630   3649     1  0.0000000  0.6508444  3
   3644   3626   3627   3647     1  0.0000000  4.9162000  2
   3644   3626   3627   3647     1  0.0000000  0.6024960  3
   3650   3651   3653   3654     1  180.0000771  0.8368000  1
   3650   3651   3653   3654     1  180.0000771  1.0460000  2
   3650   3651   3653   3654     1  0.0000000  0.7531200  3
   3650   3651   3653   3660     1  0.0000000  0.6508444  3
   3650   3668   3655   3659     1  0.0000000  1.6038667  3
   3650   3668   3655   3654     1  180.0000771  0.4184000  2
   3650   3668   3655   3654     1  0.0000000  1.6024720  3
   3651   3653   3654   3655     1  180.0000771  0.8368000  1
   3651   3653   3654   3655     1  180.0000771  1.0460000  2
   3651   3653   3654   3655     1  0.0000000  0.7531200  3
   3651   3653   3654   3673     1  0.0000000  0.6508444  3
   3651   3650   3661   3666     1  0.0000000  0.6508444  3
   3651   3650   3668   3655     1  180.0000771  0.4184000  2
   3651   3650   3668   3655     1  0.0000000  1.6024720  3
   3653   3654   3655   3659     1  0.0000000  0.6508444  3
   3653   3654   3655   3668     1  0.0000000  0.6508444  3
   3653   3651   3650   3661     1  180.0000771  0.8368000  1
   3653   3651   3650   3661     1  180.0000771  1.0460000  2
   3653   3651   3650   3661     1  0.0000000  0.7531200  3
   3653   3651   3650   3668     1  0.0000000  0.6508444  3
   3654   3653   3651   3671     1  0.0000000  0.6508444  3
   3655   3668   3650   3661     1  180.0000771  0.4184000  2
   3655   3668   3650   3661     1  0.0000000  1.6024720  3
   3655   3654   3653   3660     1  0.0000000  0.6508444  3
   3659   3655   3654   3673     1  0.0000000  0.6508444  3
   3660   3653   3654   3673     1  0.0000000  0.6508444  3
   3660   3653   3651   3671     1  0.0000000  4.9162000  2
   3660   3653   3651   3671     1  0.0000000  0.6024960  3
   3661   3650   3651   3671     1  0.0000000  0.6508444  3
   3666   3661   3650   3668     1  0.0000000  4.9162000  2
   3666   3661   3650   3668     1  0.0000000  0.6024960  3
   3668   3655   3654   3673     1  0.0000000  0.6508444  3
   3668   3650   3651   3671     1  0.0000000  4.9162000  2
   3668   3650   3651   3671     1  0.0000000  0.6024960  3
   3675   3677   3679   3683     1  0.0000000  0.6508444  3
   3677   3679   3683   3684     1  0.0000000  0.6508444  3
   3677   3679   3683   3685     1  0.0000000  0.6508444  3
   3679   3683   3684   3695     1  0.0000000  0.6508444  3
   3679   3683   3685   3687     1  0.0000000  0.6508444  3
   3683   3684   3695   3698     1  0.0000000  0.6508444  3
   3683   3685   3687   3691     1  0.0000000  0.6508444  3
   3684   3683   3685   3687     1  0.0000000  0.6508444  3
   3684   3695   3698   3699     1  180.0000771  0.0000000  2
   3684   3695   3698   3747     1  180.0000771  0.0000000  2
   3685   3683   3684   3695     1  0.0000000  0.6508444  3
   3685   3687   3691   3692     1  180.0000771  0.0000000  2
   3685   3687   3691   3723     1  180.0000771  0.0000000  2
   3687   3691   3723   3704     1  180.0000771  6.0668000  2
   3687   3691   3723   3704     1  180.0000771  1.4644000  4
   3691   3723   3704   3703     1  0.0000000  1.2552000  3
   3691   3723   3704   3705     1  0.0000000  1.2552000  3
   3692   3691   3723   3704     1  180.0000771  6.0668000  2
   3692   3691   3723   3704     1  180.0000771  1.4644000  4
   3695   3698   3747   3728     1  180.0000771  6.0668000  2
   3695   3698   3747   3728     1  180.0000771  1.4644000  4
   3698   3747   3728   3727     1  0.0000000  1.2552000  3
   3698   3747   3728   3729     1  0.0000000  1.2552000  3
   3699   3698   3747   3728     1  180.0000771  6.0668000  2
   3699   3698   3747   3728     1  180.0000771  1.4644000  4
   3700   3701   3703   3704     1  180.0000771  0.8368000  1
   3700   3701   3703   3704     1  180.0000771  1.0460000  2
   3700   3701   3703   3704     1  0.0000000  0.7531200  3
   3700   3701   3703   3710     1  0.0000000  0.6508444  3
   3700   3718   3705   3704     1  180.0000771  0.4184000  2
   3700   3718   3705   3704     1  0.0000000  1.6024720  3
   3700   3718   3705   3709     1  0.0000000  1.6038667  3
   3701   3700   3711   3716     1  0.0000000  0.6508444  3
   3701   3700   3718   3705     1  180.0000771  0.4184000  2
   3701   3700   3718   3705     1  0.0000000  1.6024720  3
   3701   3703   3704   3705     1  180.0000771  0.8368000  1
   3701   3703   3704   3705     1  180.0000771  1.0460000  2
   3701   3703   3704   3705     1  0.0000000  0.7531200  3
   3701   3703   3704   3723     1  0.0000000  0.6508444  3
   3703   3701   3700   3711     1  180.0000771  0.8368000  1
   3703   3701   3700   3711     1  180.0000771  1.0460000  2
   3703   3701   3700   3711     1  0.0000000  0.7531200  3
   3703   3701   3700   3718     1  0.0000000  0.6508444  3
   3703   3704   3705   3709     1  0.0000000  0.6508444  3
   3703   3704   3705   3718     1  0.0000000  0.6508444  3
   3704   3703   3701   3721     1  0.0000000  0.6508444  3
   3705   3704   3703   3710     1  0.0000000  0.6508444  3
   3705   3718   3700   3711     1  180.0000771  0.4184000  2
   3705   3718   3700   3711     1  0.0000000  1.6024720  3
   3709   3705   3704   3723     1  0.0000000  0.6508444  3
   3710   3703   3701   3721     1  0.0000000  4.9162000  2
   3710   3703   3701   3721     1  0.0000000  0.6024960  3
   3710   3703   3704   3723     1  0.0000000  0.6508444  3
   3711   3700   3701   3721     1  0.0000000  0.6508444  3
   3716   3711   3700   3718     1  0.0000000  4.9162000  2
   3716   3711   3700   3718     1  0.0000000  0.6024960  3
   3718   3700   3701   3721     1  0.0000000  4.9162000  2
   3718   3700   3701   3721     1  0.0000000  0.6024960  3
   3718   3705   3704   3723     1  0.0000000  0.6508444  3
   3724   3725   3727   3728     1  180.0000771  0.8368000  1
   3724   3725   3727   3728     1  180.0000771  1.0460000  2
   3724   3725   3727   3728     1  0.0000000  0.7531200  3
   3724   3725   3727   3734     1  0.0000000  0.6508444  3
   3724   3742   3729   3728     1  180.0000771  0.4184000  2
   3724   3742   3729   3728     1  0.0000000  1.6024720  3
   3724   3742   3729   3733     1  0.0000000  1.6038667  3
   3725   3724   3735   3740     1  0.0000000  0.6508444  3
   3725   3724   3742   3729     1  180.0000771  0.4184000  2
   3725   3724   3742   3729     1  0.0000000  1.6024720  3
   3725   3727   3728   3729     1  180.0000771  0.8368000  1
   3725   3727   3728   3729     1  180.0000771  1.0460000  2
   3725   3727   3728   3729     1  0.0000000  0.7531200  3
   3725   3727   3728   3747     1  0.0000000  0.6508444  3
   3727   3725   3724   3735     1  180.0000771  0.8368000  1
   3727   3725   3724   3735     1  180.0000771  1.0460000  2
   3727   3725   3724   3735     1  0.0000000  0.7531200  3
   3727   3725   3724   3742     1  0.0000000  0.6508444  3
   3727   3728   3729   3733     1  0.0000000  0.6508444  3
   3727   3728   3729   3742     1  0.0000000  0.6508444  3
   3728   3727   3725   3745     1  0.0000000  0.6508444  3
   3729   3728   3727   3734     1  0.0000000  0.6508444  3
   3729   3742   3724   3735     1  180.0000771  0.4184000  2
   3729   3742   3724   3735     1  0.0000000  1.6024720  3
   3733   3729   3728   3747     1  0.0000000  0.6508444  3
   3734   3727   3725   3745     1  0.0000000  4.9162000  2
   3734   3727   3725   3745     1  0.0000000  0.6024960  3
   3734   3727   3728   3747     1  0.0000000  0.6508444  3
   3735   3724   3725   3745     1  0.0000000  0.6508444  3
   3740   3735   3724   3742     1  0.0000000  4.9162000  2
   3740   3735   3724   3742     1  0.0000000  0.6024960  3
   3742   3724   3725   3745     1  0.0000000  4.9162000  2
   3742   3724   3725   3745     1  0.0000000  0.6024960  3
   3742   3729   3728   3747     1  0.0000000  0.6508444  3
   3749   3751   3753   3757     1  0.0000000  0.6508444  3
   3751   3753   3757   3758     1  0.0000000  0.6508444  3
   3751   3753   3757   3759     1  0.0000000  0.6508444  3
   3753   3757   3758   3769     1  0.0000000  0.6508444  3
   3753   3757   3759   3761     1  0.0000000  0.6508444  3
   3757   3758   3769   3772     1  0.0000000  0.6508444  3
   3757   3759   3761   3765     1  0.0000000  0.6508444  3
   3758   3769   3772   3773     1  180.0000771  0.0000000  2
   3758   3769   3772   3821     1  180.0000771  0.0000000  2
   3758   3757   3759   3761     1  0.0000000  0.6508444  3
   3759   3761   3765   3766     1  180.0000771  0.0000000  2
   3759   3761   3765   3797     1  180.0000771  0.0000000  2
   3759   3757   3758   3769     1  0.0000000  0.6508444  3
   3761   3765   3797   3778     1  180.0000771  6.0668000  2
   3761   3765   3797   3778     1  180.0000771  1.4644000  4
   3765   3797   3778   3779     1  0.0000000  1.2552000  3
   3765   3797   3778   3777     1  0.0000000  1.2552000  3
   3766   3765   3797   3778     1  180.0000771  6.0668000  2
   3766   3765   3797   3778     1  180.0000771  1.4644000  4
   3769   3772   3821   3802     1  180.0000771  6.0668000  2
   3769   3772   3821   3802     1  180.0000771  1.4644000  4
   3772   3821   3802   3803     1  0.0000000  1.2552000  3
   3772   3821   3802   3801     1  0.0000000  1.2552000  3
   3773   3772   3821   3802     1  180.0000771  6.0668000  2
   3773   3772   3821   3802     1  180.0000771  1.4644000  4
   3774   3775   3777   3778     1  180.0000771  0.8368000  1
   3774   3775   3777   3778     1  180.0000771  1.0460000  2
   3774   3775   3777   3778     1  0.0000000  0.7531200  3
   3774   3775   3777   3784     1  0.0000000  0.6508444  3
   3774   3792   3779   3783     1  0.0000000  1.6038667  3
   3774   3792   3779   3778     1  180.0000771  0.4184000  2
   3774   3792   3779   3778     1  0.0000000  1.6024720  3
   3775   3777   3778   3779     1  180.0000771  0.8368000  1
   3775   3777   3778   3779     1  180.0000771  1.0460000  2
   3775   3777   3778   3779     1  0.0000000  0.7531200  3
   3775   3777   3778   3797     1  0.0000000  0.6508444  3
   3775   3774   3785   3790     1  0.0000000  0.6508444  3
   3775   3774   3792   3779     1  180.0000771  0.4184000  2
   3775   3774   3792   3779     1  0.0000000  1.6024720  3
   3777   3778   3779   3783     1  0.0000000  0.6508444  3
   3777   3778   3779   3792     1  0.0000000  0.6508444  3
   3777   3775   3774   3785     1  180.0000771  0.8368000  1
   3777   3775   3774   3785     1  180.0000771  1.0460000  2
   3777   3775   3774   3785     1  0.0000000  0.7531200  3
   3777   3775   3774   3792     1  0.0000000  0.6508444  3
   3778   3777   3775   3795     1  0.0000000  0.6508444  3
   3779   3792   3774   3785     1  180.0000771  0.4184000  2
   3779   3792   3774   3785     1  0.0000000  1.6024720  3
   3779   3778   3777   3784     1  0.0000000  0.6508444  3
   3783   3779   3778   3797     1  0.0000000  0.6508444  3
   3784   3777   3778   3797     1  0.0000000  0.6508444  3
   3784   3777   3775   3795     1  0.0000000  4.9162000  2
   3784   3777   3775   3795     1  0.0000000  0.6024960  3
   3785   3774   3775   3795     1  0.0000000  0.6508444  3
   3790   3785   3774   3792     1  0.0000000  4.9162000  2
   3790   3785   3774   3792     1  0.0000000  0.6024960  3
   3792   3779   3778   3797     1  0.0000000  0.6508444  3
   3792   3774   3775   3795     1  0.0000000  4.9162000  2
   3792   3774   3775   3795     1  0.0000000  0.6024960  3
   3798   3799   3801   3802     1  180.0000771  0.8368000  1
   3798   3799   3801   3802     1  180.0000771  1.0460000  2
   3798   3799   3801   3802     1  0.0000000  0.7531200  3
   3798   3799   3801   3808     1  0.0000000  0.6508444  3
   3798   3816   3803   3807     1  0.0000000  1.6038667  3
   3798   3816   3803   3802     1  180.0000771  0.4184000  2
   3798   3816   3803   3802     1  0.0000000  1.6024720  3
   3799   3801   3802   3803     1  180.0000771  0.8368000  1
   3799   3801   3802   3803     1  180.0000771  1.0460000  2
   3799   3801   3802   3803     1  0.0000000  0.7531200  3
   3799   3801   3802   3821     1  0.0000000  0.6508444  3
   3799   3798   3809   3814     1  0.0000000  0.6508444  3
   3799   3798   3816   3803     1  180.0000771  0.4184000  2
   3799   3798   3816   3803     1  0.0000000  1.6024720  3
   3801   3802   3803   3807     1  0.0000000  0.6508444  3
   3801   3802   3803   3816     1  0.0000000  0.6508444  3
   3801   3799   3798   3809     1  180.0000771  0.8368000  1
   3801   3799   3798   3809     1  180.0000771  1.0460000  2
   3801   3799   3798   3809     1  0.0000000  0.7531200  3
   3801   3799   3798   3816     1  0.0000000  0.6508444  3
   3802   3801   3799   3819     1  0.0000000  0.6508444  3
   3803   3816   3798   3809     1  180.0000771  0.4184000  2
   3803   3816   3798   3809     1  0.0000000  1.6024720  3
   3803   3802   3801   3808     1  0.0000000  0.6508444  3
   3807   3803   3802   3821     1  0.0000000  0.6508444  3
   3808   3801   3802   3821     1  0.0000000  0.6508444  3
   3808   3801   3799   3819     1  0.0000000  4.9162000  2
   3808   3801   3799   3819     1  0.0000000  0.6024960  3
   3809   3798   3799   3819     1  0.0000000  0.6508444  3
   3814   3809   3798   3816     1  0.0000000  4.9162000  2
   3814   3809   3798   3816     1  0.0000000  0.6024960  3
   3816   3803   3802   3821     1  0.0000000  0.6508444  3
   3816   3798   3799   3819     1  0.0000000  4.9162000  2
   3816   3798   3799   3819     1  0.0000000  0.6024960  3
   3823   3825   3827   3831     1  0.0000000  0.6508444  3
   3825   3827   3831   3832     1  0.0000000  0.6508444  3
   3825   3827   3831   3833     1  0.0000000  0.6508444  3
   3827   3831   3832   3843     1  0.0000000  0.6508444  3
   3827   3831   3833   3835     1  0.0000000  0.6508444  3
   3831   3832   3843   3846     1  0.0000000  0.6508444  3
   3831   3833   3835   3839     1  0.0000000  0.6508444  3
   3832   3831   3833   3835     1  0.0000000  0.6508444  3
   3832   3843   3846   3847     1  180.0000771  0.0000000  2
   3832   3843   3846   3895     1  180.0000771  0.0000000  2
   3833   3831   3832   3843     1  0.0000000  0.6508444  3
   3833   3835   3839   3840     1  180.0000771  0.0000000  2
   3833   3835   3839   3871     1  180.0000771  0.0000000  2
   3835   3839   3871   3852     1  180.0000771  6.0668000  2
   3835   3839   3871   3852     1  180.0000771  1.4644000  4
   3839   3871   3852   3851     1  0.0000000  1.2552000  3
   3839   3871   3852   3853     1  0.0000000  1.2552000  3
   3840   3839   3871   3852     1  180.0000771  6.0668000  2
   3840   3839   3871   3852     1  180.0000771  1.4644000  4
   3843   3846   3895   3876     1  180.0000771  6.0668000  2
   3843   3846   3895   3876     1  180.0000771  1.4644000  4
   3846   3895   3876   3875     1  0.0000000  1.2552000  3
   3846   3895   3876   3877     1  0.0000000  1.2552000  3
   3847   3846   3895   3876     1  180.0000771  6.0668000  2
   3847   3846   3895   3876     1  180.0000771  1.4644000  4
   3848   3849   3851   3852     1  180.0000771  0.8368000  1
   3848   3849   3851   3852     1  180.0000771  1.0460000  2
   3848   3849   3851   3852     1  0.0000000  0.7531200  3
   3848   3849   3851   3858     1  0.0000000  0.6508444  3
   3848   3866   3853   3852     1  180.0000771  0.4184000  2
   3848   3866   3853   3852     1  0.0000000  1.6024720  3
   3848   3866   3853   3857     1  0.0000000  1.6038667  3
   3849   3848   3859   3864     1  0.0000000  0.6508444  3
   3849   3848   3866   3853     1  180.0000771  0.4184000  2
   3849   3848   3866   3853     1  0.0000000  1.6024720  3
   3849   3851   3852   3853     1  180.0000771  0.8368000  1
   3849   3851   3852   3853     1  180.0000771  1.0460000  2
   3849   3851   3852   3853     1  0.0000000  0.7531200  3
   3849   3851   3852   3871     1  0.0000000  0.6508444  3
   3851   3849   3848   3859     1  180.0000771  0.8368000  1
   3851   3849   3848   3859     1  180.0000771  1.0460000  2
   3851   3849   3848   3859     1  0.0000000  0.7531200  3
   3851   3849   3848   3866     1  0.0000000  0.6508444  3
   3851   3852   3853   3857     1  0.0000000  0.6508444  3
   3851   3852   3853   3866     1  0.0000000  0.6508444  3
   3852   3851   3849   3869     1  0.0000000  0.6508444  3
   3853   3852   3851   3858     1  0.0000000  0.6508444  3
   3853   3866   3848   3859     1  180.0000771  0.4184000  2
   3853   3866   3848   3859     1  0.0000000  1.6024720  3
   3857   3853   3852   3871     1  0.0000000  0.6508444  3
   3858   3851   3849   3869     1  0.0000000  4.9162000  2
   3858   3851   3849   3869     1  0.0000000  0.6024960  3
   3858   3851   3852   3871     1  0.0000000  0.6508444  3
   3859   3848   3849   3869     1  0.0000000  0.6508444  3
   3864   3859   3848   3866     1  0.0000000  4.9162000  2
   3864   3859   3848   3866     1  0.0000000  0.6024960  3
   3866   3848   3849   3869     1  0.0000000  4.9162000  2
   3866   3848   3849   3869     1  0.0000000  0.6024960  3
   3866   3853   3852   3871     1  0.0000000  0.6508444  3
   3872   3873   3875   3876     1  180.0000771  0.8368000  1
   3872   3873   3875   3876     1  180.0000771  1.0460000  2
   3872   3873   3875   3876     1  0.0000000  0.7531200  3
   3872   3873   3875   3882     1  0.0000000  0.6508444  3
   3872   3890   3877   3876     1  180.0000771  0.4184000  2
   3872   3890   3877   3876     1  0.0000000  1.6024720  3
   3872   3890   3877   3881     1  0.0000000  1.6038667  3
   3873   3872   3883   3888     1  0.0000000  0.6508444  3
   3873   3872   3890   3877     1  180.0000771  0.4184000  2
   3873   3872   3890   3877     1  0.0000000  1.6024720  3
   3873   3875   3876   3877     1  180.0000771  0.8368000  1
   3873   3875   3876   3877     1  180.0000771  1.0460000  2
   3873   3875   3876   3877     1  0.0000000  0.7531200  3
   3873   3875   3876   3895     1  0.0000000  0.6508444  3
   3875   3873   3872   3883     1  180.0000771  0.8368000  1
   3875   3873   3872   3883     1  180.0000771  1.0460000  2
   3875   3873   3872   3883     1  0.0000000  0.7531200  3
   3875   3873   3872   3890     1  0.0000000  0.6508444  3
   3875   3876   3877   3881     1  0.0000000  0.6508444  3
   3875   3876   3877   3890     1  0.0000000  0.6508444  3
   3876   3875   3873   3893     1  0.0000000  0.6508444  3
   3877   3876   3875   3882     1  0.0000000  0.6508444  3
   3877   3890   3872   3883     1  180.0000771  0.4184000  2
   3877   3890   3872   3883     1  0.0000000  1.6024720  3
   3881   3877   3876   3895     1  0.0000000  0.6508444  3
   3882   3875   3873   3893     1  0.0000000  4.9162000  2
   3882   3875   3873   3893     1  0.0000000  0.6024960  3
   3882   3875   3876   3895     1  0.0000000  0.6508444  3
   3883   3872   3873   3893     1  0.0000000  0.6508444  3
   3888   3883   3872   3890     1  0.0000000  4.9162000  2
   3888   3883   3872   3890     1  0.0000000  0.6024960  3
   3890   3872   3873   3893     1  0.0000000  4.9162000  2
   3890   3872   3873   3893     1  0.0000000  0.6024960  3
   3890   3877   3876   3895     1  0.0000000  0.6508444  3
   3897   3899   3901   3905     1  0.0000000  0.6508444  3
   3899   3901   3905   3906     1  0.0000000  0.6508444  3
   3899   3901   3905   3907     1  0.0000000  0.6508444  3
   3901   3905   3906   3917     1  0.0000000  0.6508444  3
   3901   3905   3907   3909     1  0.0000000  0.6508444  3
   3905   3906   3917   3920     1  0.0000000  0.6508444  3
   3905   3907   3909   3913     1  0.0000000  0.6508444  3
   3906   3917   3920   3921     1  180.0000771  0.0000000  2
   3906   3917   3920   3969     1  180.0000771  0.0000000  2
   3906   3905   3907   3909     1  0.0000000  0.6508444  3
   3907   3909   3913   3914     1  180.0000771  0.0000000  2
   3907   3909   3913   3945     1  180.0000771  0.0000000  2
   3907   3905   3906   3917     1  0.0000000  0.6508444  3
   3909   3913   3945   3926     1  180.0000771  6.0668000  2
   3909   3913   3945   3926     1  180.0000771  1.4644000  4
   3913   3945   3926   3927     1  0.0000000  1.2552000  3
   3913   3945   3926   3925     1  0.0000000  1.2552000  3
   3914   3913   3945   3926     1  180.0000771  6.0668000  2
   3914   3913   3945   3926     1  180.0000771  1.4644000  4
   3917   3920   3969   3950     1  180.0000771  6.0668000  2
   3917   3920   3969   3950     1  180.0000771  1.4644000  4
   3920   3969   3950   3951     1  0.0000000  1.2552000  3
   3920   3969   3950   3949     1  0.0000000  1.2552000  3
   3921   3920   3969   3950     1  180.0000771  6.0668000  2
   3921   3920   3969   3950     1  180.0000771  1.4644000  4
   3922   3923   3925   3926     1  180.0000771  0.8368000  1
   3922   3923   3925   3926     1  180.0000771  1.0460000  2
   3922   3923   3925   3926     1  0.0000000  0.7531200  3
   3922   3923   3925   3932     1  0.0000000  0.6508444  3
   3922   3940   3927   3931     1  0.0000000  1.6038667  3
   3922   3940   3927   3926     1  180.0000771  0.4184000  2
   3922   3940   3927   3926     1  0.0000000  1.6024720  3
   3923   3925   3926   3927     1  180.0000771  0.8368000  1
   3923   3925   3926   3927     1  180.0000771  1.0460000  2
   3923   3925   3926   3927     1  0.0000000  0.7531200  3
   3923   3925   3926   3945     1  0.0000000  0.6508444  3
   3923   3922   3933   3938     1  0.0000000  0.6508444  3
   3923   3922   3940   3927     1  180.0000771  0.4184000  2
   3923   3922   3940   3927     1  0.0000000  1.6024720  3
   3925   3926   3927   3931     1  0.0000000  0.6508444  3
   3925   3926   3927   3940     1  0.0000000  0.6508444  3
   3925   3923   3922   3933     1  180.0000771  0.8368000  1
   3925   3923   3922   3933     1  180.0000771  1.0460000  2
   3925   3923   3922   3933     1  0.0000000  0.7531200  3
   3925   3923   3922   3940     1  0.0000000  0.6508444  3
   3926   3925   3923   3943     1  0.0000000  0.6508444  3
   3927   3940   3922   3933     1  180.0000771  0.4184000  2
   3927   3940   3922   3933     1  0.0000000  1.6024720  3
   3927   3926   3925   3932     1  0.0000000  0.6508444  3
   3931   3927   3926   3945     1  0.0000000  0.6508444  3
   3932   3925   3926   3945     1  0.0000000  0.6508444  3
   3932   3925   3923   3943     1  0.0000000  4.9162000  2
   3932   3925   3923   3943     1  0.0000000  0.6024960  3
   3933   3922   3923   3943     1  0.0000000  0.6508444  3
   3938   3933   3922   3940     1  0.0000000  4.9162000  2
   3938   3933   3922   3940     1  0.0000000  0.6024960  3
   3940   3927   3926   3945     1  0.0000000  0.6508444  3
   3940   3922   3923   3943     1  0.0000000  4.9162000  2
   3940   3922   3923   3943     1  0.0000000  0.6024960  3
   3946   3947   3949   3950     1  180.0000771  0.8368000  1
   3946   3947   3949   3950     1  180.0000771  1.0460000  2
   3946   3947   3949   3950     1  0.0000000  0.7531200  3
   3946   3947   3949   3956     1  0.0000000  0.6508444  3
   3946   3964   3951   3955     1  0.0000000  1.6038667  3
   3946   3964   3951   3950     1  180.0000771  0.4184000  2
   3946   3964   3951   3950     1  0.0000000  1.6024720  3
   3947   3949   3950   3951     1  180.0000771  0.8368000  1
   3947   3949   3950   3951     1  180.0000771  1.0460000  2
   3947   3949   3950   3951     1  0.0000000  0.7531200  3
   3947   3949   3950   3969     1  0.0000000  0.6508444  3
   3947   3946   3957   3962     1  0.0000000  0.6508444  3
   3947   3946   3964   3951     1  180.0000771  0.4184000  2
   3947   3946   3964   3951     1  0.0000000  1.6024720  3
   3949   3950   3951   3955     1  0.0000000  0.6508444  3
   3949   3950   3951   3964     1  0.0000000  0.6508444  3
   3949   3947   3946   3957     1  180.0000771  0.8368000  1
   3949   3947   3946   3957     1  180.0000771  1.0460000  2
   3949   3947   3946   3957     1  0.0000000  0.7531200  3
   3949   3947   3946   3964     1  0.0000000  0.6508444  3
   3950   3949   3947   3967     1  0.0000000  0.6508444  3
   3951   3964   3946   3957     1  180.0000771  0.4184000  2
   3951   3964   3946   3957     1  0.0000000  1.6024720  3
   3951   3950   3949   3956     1  0.0000000  0.6508444  3
   3955   3951   3950   3969     1  0.0000000  0.6508444  3
   3956   3949   3950   3969     1  0.0000000  0.6508444  3
   3956   3949   3947   3967     1  0.0000000  4.9162000  2
   3956   3949   3947   3967     1  0.0000000  0.6024960  3
   3957   3946   3947   3967     1  0.0000000  0.6508444  3
   3962   3957   3946   3964     1  0.0000000  4.9162000  2
   3962   3957   3946   3964     1  0.0000000  0.6024960  3
   3964   3951   3950   3969     1  0.0000000  0.6508444  3
   3964   3946   3947   3967     1  0.0000000  4.9162000  2
   3964   3946   3947   3967     1  0.0000000  0.6024960  3
   3971   3973   3975   3979     1  0.0000000  0.6508444  3
   3973   3975   3979   3980     1  0.0000000  0.6508444  3
   3973   3975   3979   3981     1  0.0000000  0.6508444  3
   3975   3979   3980   3991     1  0.0000000  0.6508444  3
   3975   3979   3981   3983     1  0.0000000  0.6508444  3
   3979   3980   3991   3994     1  0.0000000  0.6508444  3
   3979   3981   3983   3987     1  0.0000000  0.6508444  3
   3980   3979   3981   3983     1  0.0000000  0.6508444  3
   3980   3991   3994   3995     1  180.0000771  0.0000000  2
   3980   3991   3994   4043     1  180.0000771  0.0000000  2
   3981   3979   3980   3991     1  0.0000000  0.6508444  3
   3981   3983   3987   3988     1  180.0000771  0.0000000  2
   3981   3983   3987   4019     1  180.0000771  0.0000000  2
   3983   3987   4019   4000     1  180.0000771  6.0668000  2
   3983   3987   4019   4000     1  180.0000771  1.4644000  4
   3987   4019   4000   3999     1  0.0000000  1.2552000  3
   3987   4019   4000   4001     1  0.0000000  1.2552000  3
   3988   3987   4019   4000     1  180.0000771  6.0668000  2
   3988   3987   4019   4000     1  180.0000771  1.4644000  4
   3991   3994   4043   4024     1  180.0000771  6.0668000  2
   3991   3994   4043   4024     1  180.0000771  1.4644000  4
   3994   4043   4024   4023     1  0.0000000  1.2552000  3
   3994   4043   4024   4025     1  0.0000000  1.2552000  3
   3995   3994   4043   4024     1  180.0000771  6.0668000  2
   3995   3994   4043   4024     1  180.0000771  1.4644000  4
   3996   3997   3999   4000     1  180.0000771  0.8368000  1
   3996   3997   3999   4000     1  180.0000771  1.0460000  2
   3996   3997   3999   4000     1  0.0000000  0.7531200  3
   3996   3997   3999   4006     1  0.0000000  0.6508444  3
   3996   4014   4001   4000     1  180.0000771  0.4184000  2
   3996   4014   4001   4000     1  0.0000000  1.6024720  3
   3996   4014   4001   4005     1  0.0000000  1.6038667  3
   3997   3996   4007   4012     1  0.0000000  0.6508444  3
   3997   3996   4014   4001     1  180.0000771  0.4184000  2
   3997   3996   4014   4001     1  0.0000000  1.6024720  3
   3997   3999   4000   4001     1  180.0000771  0.8368000  1
   3997   3999   4000   4001     1  180.0000771  1.0460000  2
   3997   3999   4000   4001     1  0.0000000  0.7531200  3
   3997   3999   4000   4019     1  0.0000000  0.6508444  3
   3999   3997   3996   4007     1  180.0000771  0.8368000  1
   3999   3997   3996   4007     1  180.0000771  1.0460000  2
   3999   3997   3996   4007     1  0.0000000  0.7531200  3
   3999   3997   3996   4014     1  0.0000000  0.6508444  3
   3999   4000   4001   4005     1  0.0000000  0.6508444  3
   3999   4000   4001   4014     1  0.0000000  0.6508444  3
   4000   3999   3997   4017     1  0.0000000  0.6508444  3
   4001   4000   3999   4006     1  0.0000000  0.6508444  3
   4001   4014   3996   4007     1  180.0000771  0.4184000  2
   4001   4014   3996   4007     1  0.0000000  1.6024720  3
   4005   4001   4000   4019     1  0.0000000  0.6508444  3
   4006   3999   3997   4017     1  0.0000000  4.9162000  2
   4006   3999   3997   4017     1  0.0000000  0.6024960  3
   4006   3999   4000   4019     1  0.0000000  0.6508444  3
   4007   3996   3997   4017     1  0.0000000  0.6508444  3
   4012   4007   3996   4014     1  0.0000000  4.9162000  2
   4012   4007   3996   4014     1  0.0000000  0.6024960  3
   4014   3996   3997   4017     1  0.0000000  4.9162000  2
   4014   3996   3997   4017     1  0.0000000  0.6024960  3
   4014   4001   4000   4019     1  0.0000000  0.6508444  3
   4020   4021   4023   4024     1  180.0000771  0.8368000  1
   4020   4021   4023   4024     1  180.0000771  1.0460000  2
   4020   4021   4023   4024     1  0.0000000  0.7531200  3
   4020   4021   4023   4030     1  0.0000000  0.6508444  3
   4020   4038   4025   4024     1  180.0000771  0.4184000  2
   4020   4038   4025   4024     1  0.0000000  1.6024720  3
   4020   4038   4025   4029     1  0.0000000  1.6038667  3
   4021   4020   4031   4036     1  0.0000000  0.6508444  3
   4021   4020   4038   4025     1  180.0000771  0.4184000  2
   4021   4020   4038   4025     1  0.0000000  1.6024720  3
   4021   4023   4024   4025     1  180.0000771  0.8368000  1
   4021   4023   4024   4025     1  180.0000771  1.0460000  2
   4021   4023   4024   4025     1  0.0000000  0.7531200  3
   4021   4023   4024   4043     1  0.0000000  0.6508444  3
   4023   4021   4020   4031     1  180.0000771  0.8368000  1
   4023   4021   4020   4031     1  180.0000771  1.0460000  2
   4023   4021   4020   4031     1  0.0000000  0.7531200  3
   4023   4021   4020   4038     1  0.0000000  0.6508444  3
   4023   4024   4025   4029     1  0.0000000  0.6508444  3
   4023   4024   4025   4038     1  0.0000000  0.6508444  3
   4024   4023   4021   4041     1  0.0000000  0.6508444  3
   4025   4024   4023   4030     1  0.0000000  0.6508444  3
   4025   4038   4020   4031     1  180.0000771  0.4184000  2
   4025   4038   4020   4031     1  0.0000000  1.6024720  3
   4029   4025   4024   4043     1  0.0000000  0.6508444  3
   4030   4023   4021   4041     1  0.0000000  4.9162000  2
   4030   4023   4021   4041     1  0.0000000  0.6024960  3
   4030   4023   4024   4043     1  0.0000000  0.6508444  3
   4031   4020   4021   4041     1  0.0000000  0.6508444  3
   4036   4031   4020   4038     1  0.0000000  4.9162000  2
   4036   4031   4020   4038     1  0.0000000  0.6024960  3
   4038   4020   4021   4041     1  0.0000000  4.9162000  2
   4038   4020   4021   4041     1  0.0000000  0.6024960  3
   4038   4025   4024   4043     1  0.0000000  0.6508444  3
   4045   4047   4049   4053     1  0.0000000  0.6508444  3
   4047   4049   4053   4054     1  0.0000000  0.6508444  3
   4047   4049   4053   4055     1  0.0000000  0.6508444  3
   4049   4053   4054   4065     1  0.0000000  0.6508444  3
   4049   4053   4055   4057     1  0.0000000  0.6508444  3
   4053   4054   4065   4068     1  0.0000000  0.6508444  3
   4053   4055   4057   4061     1  0.0000000  0.6508444  3
   4054   4065   4068   4069     1  180.0000771  0.0000000  2
   4054   4065   4068   4117     1  180.0000771  0.0000000  2
   4054   4053   4055   4057     1  0.0000000  0.6508444  3
   4055   4057   4061   4062     1  180.0000771  0.0000000  2
   4055   4057   4061   4093     1  180.0000771  0.0000000  2
   4055   4053   4054   4065     1  0.0000000  0.6508444  3
   4057   4061   4093   4074     1  180.0000771  6.0668000  2
   4057   4061   4093   4074     1  180.0000771  1.4644000  4
   4061   4093   4074   4075     1  0.0000000  1.2552000  3
   4061   4093   4074   4073     1  0.0000000  1.2552000  3
   4062   4061   4093   4074     1  180.0000771  6.0668000  2
   4062   4061   4093   4074     1  180.0000771  1.4644000  4
   4065   4068   4117   4098     1  180.0000771  6.0668000  2
   4065   4068   4117   4098     1  180.0000771  1.4644000  4
   4068   4117   4098   4099     1  0.0000000  1.2552000  3
   4068   4117   4098   4097     1  0.0000000  1.2552000  3
   4069   4068   4117   4098     1  180.0000771  6.0668000  2
   4069   4068   4117   4098     1  180.0000771  1.4644000  4
   4070   4071   4073   4074     1  180.0000771  0.8368000  1
   4070   4071   4073   4074     1  180.0000771  1.0460000  2
   4070   4071   4073   4074     1  0.0000000  0.7531200  3
   4070   4071   4073   4080     1  0.0000000  0.6508444  3
   4070   4088   4075   4079     1  0.0000000  1.6038667  3
   4070   4088   4075   4074     1  180.0000771  0.4184000  2
   4070   4088   4075   4074     1  0.0000000  1.6024720  3
   4071   4073   4074   4075     1  180.0000771  0.8368000  1
   4071   4073   4074   4075     1  180.0000771  1.0460000  2
   4071   4073   4074   4075     1  0.0000000  0.7531200  3
   4071   4073   4074   4093     1  0.0000000  0.6508444  3
   4071   4070   4081   4086     1  0.0000000  0.6508444  3
   4071   4070   4088   4075     1  180.0000771  0.4184000  2
   4071   4070   4088   4075     1  0.0000000  1.6024720  3
   4073   4074   4075   4079     1  0.0000000  0.6508444  3
   4073   4074   4075   4088     1  0.0000000  0.6508444  3
   4073   4071   4070   4081     1  180.0000771  0.8368000  1
   4073   4071   4070   4081     1  180.0000771  1.0460000  2
   4073   4071   4070   4081     1  0.0000000  0.7531200  3
   4073   4071   4070   4088     1  0.0000000  0.6508444  3
   4074   4073   4071   4091     1  0.0000000  0.6508444  3
   4075   4088   4070   4081     1  180.0000771  0.4184000  2
   4075   4088   4070   4081     1  0.0000000  1.6024720  3
   4075   4074   4073   4080     1  0.0000000  0.6508444  3
   4079   4075   4074   4093     1  0.0000000  0.6508444  3
   4080   4073   4074   4093     1  0.0000000  0.6508444  3
   4080   4073   4071   4091     1  0.0000000  4.9162000  2
   4080   4073   4071   4091     1  0.0000000  0.6024960  3
   4081   4070   4071   4091     1  0.0000000  0.6508444  3
   4086   4081   4070   4088     1  0.0000000  4.9162000  2
   4086   4081   4070   4088     1  0.0000000  0.6024960  3
   4088   4075   4074   4093     1  0.0000000  0.6508444  3
   4088   4070   4071   4091     1  0.0000000  4.9162000  2
   4088   4070   4071   4091     1  0.0000000  0.6024960  3
   4094   4095   4097   4098     1  180.0000771  0.8368000  1
   4094   4095   4097   4098     1  180.0000771  1.0460000  2
   4094   4095   4097   4098     1  0.0000000  0.7531200  3
   4094   4095   4097   4104     1  0.0000000  0.6508444  3
   4094   4112   4099   4103     1  0.0000000  1.6038667  3
   4094   4112   4099   4098     1  180.0000771  0.4184000  2
   4094   4112   4099   4098     1  0.0000000  1.6024720  3
   4095   4097   4098   4099     1  180.0000771  0.8368000  1
   4095   4097   4098   4099     1  180.0000771  1.0460000  2
   4095   4097   4098   4099     1  0.0000000  0.7531200  3
   4095   4097   4098   4117     1  0.0000000  0.6508444  3
   4095   4094   4105   4110     1  0.0000000  0.6508444  3
   4095   4094   4112   4099     1  180.0000771  0.4184000  2
   4095   4094   4112   4099     1  0.0000000  1.6024720  3
   4097   4098   4099   4103     1  0.0000000  0.6508444  3
   4097   4098   4099   4112     1  0.0000000  0.6508444  3
   4097   4095   4094   4105     1  180.0000771  0.8368000  1
   4097   4095   4094   4105     1  180.0000771  1.0460000  2
   4097   4095   4094   4105     1  0.0000000  0.7531200  3
   4097   4095   4094   4112     1  0.0000000  0.6508444  3
   4098   4097   4095   4115     1  0.0000000  0.6508444  3
   4099   4112   4094   4105     1  180.0000771  0.4184000  2
   4099   4112   4094   4105     1  0.0000000  1.6024720  3
   4099   4098   4097   4104     1  0.0000000  0.6508444  3
   4103   4099   4098   4117     1  0.0000000  0.6508444  3
   4104   4097   4098   4117     1  0.0000000  0.6508444  3
   4104   4097   4095   4115     1  0.0000000  4.9162000  2
   4104   4097   4095   4115     1  0.0000000  0.6024960  3
   4105   4094   4095   4115     1  0.0000000  0.6508444  3
   4110   4105   4094   4112     1  0.0000000  4.9162000  2
   4110   4105   4094   4112     1  0.0000000  0.6024960  3
   4112   4099   4098   4117     1  0.0000000  0.6508444  3
   4112   4094   4095   4115     1  0.0000000  4.9162000  2
   4112   4094   4095   4115     1  0.0000000  0.6024960  3
   4119   4121   4123   4127     1  0.0000000  0.6508444  3
   4121   4123   4127   4128     1  0.0000000  0.6508444  3
   4121   4123   4127   4129     1  0.0000000  0.6508444  3
   4123   4127   4128   4139     1  0.0000000  0.6508444  3
   4123   4127   4129   4131     1  0.0000000  0.6508444  3
   4127   4128   4139   4142     1  0.0000000  0.6508444  3
   4127   4129   4131   4135     1  0.0000000  0.6508444  3
   4128   4127   4129   4131     1  0.0000000  0.6508444  3
   4128   4139   4142   4143     1  180.0000771  0.0000000  2
   4128   4139   4142   4191     1  180.0000771  0.0000000  2
   4129   4127   4128   4139     1  0.0000000  0.6508444  3
   4129   4131   4135   4136     1  180.0000771  0.0000000  2
   4129   4131   4135   4167     1  180.0000771  0.0000000  2
   4131   4135   4167   4148     1  180.0000771  6.0668000  2
   4131   4135   4167   4148     1  180.0000771  1.4644000  4
   4135   4167   4148   4147     1  0.0000000  1.2552000  3
   4135   4167   4148   4149     1  0.0000000  1.2552000  3
   4136   4135   4167   4148     1  180.0000771  6.0668000  2
   4136   4135   4167   4148     1  180.0000771  1.4644000  4
   4139   4142   4191   4172     1  180.0000771  6.0668000  2
   4139   4142   4191   4172     1  180.0000771  1.4644000  4
   4142   4191   4172   4171     1  0.0000000  1.2552000  3
   4142   4191   4172   4173     1  0.0000000  1.2552000  3
   4143   4142   4191   4172     1  180.0000771  6.0668000  2
   4143   4142   4191   4172     1  180.0000771  1.4644000  4
   4144   4145   4147   4148     1  180.0000771  0.8368000  1
   4144   4145   4147   4148     1  180.0000771  1.0460000  2
   4144   4145   4147   4148     1  0.0000000  0.7531200  3
   4144   4145   4147   4154     1  0.0000000  0.6508444  3
   4144   4162   4149   4148     1  180.0000771  0.4184000  2
   4144   4162   4149   4148     1  0.0000000  1.6024720  3
   4144   4162   4149   4153     1  0.0000000  1.6038667  3
   4145   4144   4155   4160     1  0.0000000  0.6508444  3
   4145   4144   4162   4149     1  180.0000771  0.4184000  2
   4145   4144   4162   4149     1  0.0000000  1.6024720  3
   4145   4147   4148   4149     1  180.0000771  0.8368000  1
   4145   4147   4148   4149     1  180.0000771  1.0460000  2
   4145   4147   4148   4149     1  0.0000000  0.7531200  3
   4145   4147   4148   4167     1  0.0000000  0.6508444  3
   4147   4145   4144   4155     1  180.0000771  0.8368000  1
   4147   4145   4144   4155     1  180.0000771  1.0460000  2
   4147   4145   4144   4155     1  0.0000000  0.7531200  3
   4147   4145   4144   4162     1  0.0000000  0.6508444  3
   4147   4148   4149   4153     1  0.0000000  0.6508444  3
   4147   4148   4149   4162     1  0.0000000  0.6508444  3
   4148   4147   4145   4165     1  0.0000000  0.6508444  3
   4149   4148   4147   4154     1  0.0000000  0.6508444  3
   4149   4162   4144   4155     1  180.0000771  0.4184000  2
   4149   4162   4144   4155     1  0.0000000  1.6024720  3
   4153   4149   4148   4167     1  0.0000000  0.6508444  3
   4154   4147   4145   4165     1  0.0000000  4.9162000  2
   4154   4147   4145   4165     1  0.0000000  0.6024960  3
   4154   4147   4148   4167     1  0.0000000  0.6508444  3
   4155   4144   4145   4165     1  0.0000000  0.6508444  3
   4160   4155   4144   4162     1  0.0000000  4.9162000  2
   4160   4155   4144   4162     1  0.0000000  0.6024960  3
   4162   4144   4145   4165     1  0.0000000  4.9162000  2
   4162   4144   4145   4165     1  0.0000000  0.6024960  3
   4162   4149   4148   4167     1  0.0000000  0.6508444  3
   4168   4169   4171   4172     1  180.0000771  0.8368000  1
   4168   4169   4171   4172     1  180.0000771  1.0460000  2
   4168   4169   4171   4172     1  0.0000000  0.7531200  3
   4168   4169   4171   4178     1  0.0000000  0.6508444  3
   4168   4186   4173   4172     1  180.0000771  0.4184000  2
   4168   4186   4173   4172     1  0.0000000  1.6024720  3
   4168   4186   4173   4177     1  0.0000000  1.6038667  3
   4169   4168   4179   4184     1  0.0000000  0.6508444  3
   4169   4168   4186   4173     1  180.0000771  0.4184000  2
   4169   4168   4186   4173     1  0.0000000  1.6024720  3
   4169   4171   4172   4173     1  180.0000771  0.8368000  1
   4169   4171   4172   4173     1  180.0000771  1.0460000  2
   4169   4171   4172   4173     1  0.0000000  0.7531200  3
   4169   4171   4172   4191     1  0.0000000  0.6508444  3
   4171   4169   4168   4179     1  180.0000771  0.8368000  1
   4171   4169   4168   4179     1  180.0000771  1.0460000  2
   4171   4169   4168   4179     1  0.0000000  0.7531200  3
   4171   4169   4168   4186     1  0.0000000  0.6508444  3
   4171   4172   4173   4177     1  0.0000000  0.6508444  3
   4171   4172   4173   4186     1  0.0000000  0.6508444  3
   4172   4171   4169   4189     1  0.0000000  0.6508444  3
   4173   4172   4171   4178     1  0.0000000  0.6508444  3
   4173   4186   4168   4179     1  180.0000771  0.4184000  2
   4173   4186   4168   4179     1  0.0000000  1.6024720  3
   4177   4173   4172   4191     1  0.0000000  0.6508444  3
   4178   4171   4169   4189     1  0.0000000  4.9162000  2
   4178   4171   4169   4189     1  0.0000000  0.6024960  3
   4178   4171   4172   4191     1  0.0000000  0.6508444  3
   4179   4168   4169   4189     1  0.0000000  0.6508444  3
   4184   4179   4168   4186     1  0.0000000  4.9162000  2
   4184   4179   4168   4186     1  0.0000000  0.6024960  3
   4186   4168   4169   4189     1  0.0000000  4.9162000  2
   4186   4168   4169   4189     1  0.0000000  0.6024960  3
   4186   4173   4172   4191     1  0.0000000  0.6508444  3
   4193   4195   4197   4201     1  0.0000000  0.6508444  3
   4195   4197   4201   4202     1  0.0000000  0.6508444  3
   4195   4197   4201   4203     1  0.0000000  0.6508444  3
   4197   4201   4202   4213     1  0.0000000  0.6508444  3
   4197   4201   4203   4205     1  0.0000000  0.6508444  3
   4201   4202   4213   4216     1  0.0000000  0.6508444  3
   4201   4203   4205   4209     1  0.0000000  0.6508444  3
   4202   4213   4216   4217     1  180.0000771  0.0000000  2
   4202   4213   4216   4265     1  180.0000771  0.0000000  2
   4202   4201   4203   4205     1  0.0000000  0.6508444  3
   4203   4205   4209   4210     1  180.0000771  0.0000000  2
   4203   4205   4209   4241     1  180.0000771  0.0000000  2
   4203   4201   4202   4213     1  0.0000000  0.6508444  3
   4205   4209   4241   4222     1  180.0000771  6.0668000  2
   4205   4209   4241   4222     1  180.0000771  1.4644000  4
   4209   4241   4222   4223     1  0.0000000  1.2552000  3
   4209   4241   4222   4221     1  0.0000000  1.2552000  3
   4210   4209   4241   4222     1  180.0000771  6.0668000  2
   4210   4209   4241   4222     1  180.0000771  1.4644000  4
   4213   4216   4265   4246     1  180.0000771  6.0668000  2
   4213   4216   4265   4246     1  180.0000771  1.4644000  4
   4216   4265   4246   4247     1  0.0000000  1.2552000  3
   4216   4265   4246   4245     1  0.0000000  1.2552000  3
   4217   4216   4265   4246     1  180.0000771  6.0668000  2
   4217   4216   4265   4246     1  180.0000771  1.4644000  4
   4218   4219   4221   4222     1  180.0000771  0.8368000  1
   4218   4219   4221   4222     1  180.0000771  1.0460000  2
   4218   4219   4221   4222     1  0.0000000  0.7531200  3
   4218   4219   4221   4228     1  0.0000000  0.6508444  3
   4218   4236   4223   4227     1  0.0000000  1.6038667  3
   4218   4236   4223   4222     1  180.0000771  0.4184000  2
   4218   4236   4223   4222     1  0.0000000  1.6024720  3
   4219   4221   4222   4223     1  180.0000771  0.8368000  1
   4219   4221   4222   4223     1  180.0000771  1.0460000  2
   4219   4221   4222   4223     1  0.0000000  0.7531200  3
   4219   4221   4222   4241     1  0.0000000  0.6508444  3
   4219   4218   4229   4234     1  0.0000000  0.6508444  3
   4219   4218   4236   4223     1  180.0000771  0.4184000  2
   4219   4218   4236   4223     1  0.0000000  1.6024720  3
   4221   4222   4223   4227     1  0.0000000  0.6508444  3
   4221   4222   4223   4236     1  0.0000000  0.6508444  3
   4221   4219   4218   4229     1  180.0000771  0.8368000  1
   4221   4219   4218   4229     1  180.0000771  1.0460000  2
   4221   4219   4218   4229     1  0.0000000  0.7531200  3
   4221   4219   4218   4236     1  0.0000000  0.6508444  3
   4222   4221   4219   4239     1  0.0000000  0.6508444  3
   4223   4236   4218   4229     1  180.0000771  0.4184000  2
   4223   4236   4218   4229     1  0.0000000  1.6024720  3
   4223   4222   4221   4228     1  0.0000000  0.6508444  3
   4227   4223   4222   4241     1  0.0000000  0.6508444  3
   4228   4221   4222   4241     1  0.0000000  0.6508444  3
   4228   4221   4219   4239     1  0.0000000  4.9162000  2
   4228   4221   4219   4239     1  0.0000000  0.6024960  3
   4229   4218   4219   4239     1  0.0000000  0.6508444  3
   4234   4229   4218   4236     1  0.0000000  4.9162000  2
   4234   4229   4218   4236     1  0.0000000  0.6024960  3
   4236   4223   4222   4241     1  0.0000000  0.6508444  3
   4236   4218   4219   4239     1  0.0000000  4.9162000  2
   4236   4218   4219   4239     1  0.0000000  0.6024960  3
   4242   4243   4245   4246     1  180.0000771  0.8368000  1
   4242   4243   4245   4246     1  180.0000771  1.0460000  2
   4242   4243   4245   4246     1  0.0000000  0.7531200  3
   4242   4243   4245   4252     1  0.0000000  0.6508444  3
   4242   4260   4247   4251     1  0.0000000  1.6038667  3
   4242   4260   4247   4246     1  180.0000771  0.4184000  2
   4242   4260   4247   4246     1  0.0000000  1.6024720  3
   4243   4245   4246   4247     1  180.0000771  0.8368000  1
   4243   4245   4246   4247     1  180.0000771  1.0460000  2
   4243   4245   4246   4247     1  0.0000000  0.7531200  3
   4243   4245   4246   4265     1  0.0000000  0.6508444  3
   4243   4242   4253   4258     1  0.0000000  0.6508444  3
   4243   4242   4260   4247     1  180.0000771  0.4184000  2
   4243   4242   4260   4247     1  0.0000000  1.6024720  3
   4245   4246   4247   4251     1  0.0000000  0.6508444  3
   4245   4246   4247   4260     1  0.0000000  0.6508444  3
   4245   4243   4242   4253     1  180.0000771  0.8368000  1
   4245   4243   4242   4253     1  180.0000771  1.0460000  2
   4245   4243   4242   4253     1  0.0000000  0.7531200  3
   4245   4243   4242   4260     1  0.0000000  0.6508444  3
   4246   4245   4243   4263     1  0.0000000  0.6508444  3
   4247   4260   4242   4253     1  180.0000771  0.4184000  2
   4247   4260   4242   4253     1  0.0000000  1.6024720  3
   4247   4246   4245   4252     1  0.0000000  0.6508444  3
   4251   4247   4246   4265     1  0.0000000  0.6508444  3
   4252   4245   4246   4265     1  0.0000000  0.6508444  3
   4252   4245   4243   4263     1  0.0000000  4.9162000  2
   4252   4245   4243   4263     1  0.0000000  0.6024960  3
   4253   4242   4243   4263     1  0.0000000  0.6508444  3
   4258   4253   4242   4260     1  0.0000000  4.9162000  2
   4258   4253   4242   4260     1  0.0000000  0.6024960  3
   4260   4247   4246   4265     1  0.0000000  0.6508444  3
   4260   4242   4243   4263     1  0.0000000  4.9162000  2
   4260   4242   4243   4263     1  0.0000000  0.6024960  3
   4267   4269   4271   4275     1  0.0000000  0.6508444  3
   4269   4271   4275   4276     1  0.0000000  0.6508444  3
   4269   4271   4275   4277     1  0.0000000  0.6508444  3
   4271   4275   4276   4287     1  0.0000000  0.6508444  3
   4271   4275   4277   4279     1  0.0000000  0.6508444  3
   4275   4276   4287   4290     1  0.0000000  0.6508444  3
   4275   4277   4279   4283     1  0.0000000  0.6508444  3
   4276   4275   4277   4279     1  0.0000000  0.6508444  3
   4276   4287   4290   4291     1  180.0000771  0.0000000  2
   4276   4287   4290   4339     1  180.0000771  0.0000000  2
   4277   4275   4276   4287     1  0.0000000  0.6508444  3
   4277   4279   4283   4284     1  180.0000771  0.0000000  2
   4277   4279   4283   4315     1  180.0000771  0.0000000  2
   4279   4283   4315   4296     1  180.0000771  6.0668000  2
   4279   4283   4315   4296     1  180.0000771  1.4644000  4
   4283   4315   4296   4295     1  0.0000000  1.2552000  3
   4283   4315   4296   4297     1  0.0000000  1.2552000  3
   4284   4283   4315   4296     1  180.0000771  6.0668000  2
   4284   4283   4315   4296     1  180.0000771  1.4644000  4
   4287   4290   4339   4320     1  180.0000771  6.0668000  2
   4287   4290   4339   4320     1  180.0000771  1.4644000  4
   4290   4339   4320   4319     1  0.0000000  1.2552000  3
   4290   4339   4320   4321     1  0.0000000  1.2552000  3
   4291   4290   4339   4320     1  180.0000771  6.0668000  2
   4291   4290   4339   4320     1  180.0000771  1.4644000  4
   4292   4293   4295   4296     1  180.0000771  0.8368000  1
   4292   4293   4295   4296     1  180.0000771  1.0460000  2
   4292   4293   4295   4296     1  0.0000000  0.7531200  3
   4292   4293   4295   4302     1  0.0000000  0.6508444  3
   4292   4310   4297   4296     1  180.0000771  0.4184000  2
   4292   4310   4297   4296     1  0.0000000  1.6024720  3
   4292   4310   4297   4301     1  0.0000000  1.6038667  3
   4293   4292   4303   4308     1  0.0000000  0.6508444  3
   4293   4292   4310   4297     1  180.0000771  0.4184000  2
   4293   4292   4310   4297     1  0.0000000  1.6024720  3
   4293   4295   4296   4297     1  180.0000771  0.8368000  1
   4293   4295   4296   4297     1  180.0000771  1.0460000  2
   4293   4295   4296   4297     1  0.0000000  0.7531200  3
   4293   4295   4296   4315     1  0.0000000  0.6508444  3
   4295   4293   4292   4303     1  180.0000771  0.8368000  1
   4295   4293   4292   4303     1  180.0000771  1.0460000  2
   4295   4293   4292   4303     1  0.0000000  0.7531200  3
   4295   4293   4292   4310     1  0.0000000  0.6508444  3
   4295   4296   4297   4301     1  0.0000000  0.6508444  3
   4295   4296   4297   4310     1  0.0000000  0.6508444  3
   4296   4295   4293   4313     1  0.0000000  0.6508444  3
   4297   4296   4295   4302     1  0.0000000  0.6508444  3
   4297   4310   4292   4303     1  180.0000771  0.4184000  2
   4297   4310   4292   4303     1  0.0000000  1.6024720  3
   4301   4297   4296   4315     1  0.0000000  0.6508444  3
   4302   4295   4293   4313     1  0.0000000  4.9162000  2
   4302   4295   4293   4313     1  0.0000000  0.6024960  3
   4302   4295   4296   4315     1  0.0000000  0.6508444  3
   4303   4292   4293   4313     1  0.0000000  0.6508444  3
   4308   4303   4292   4310     1  0.0000000  4.9162000  2
   4308   4303   4292   4310     1  0.0000000  0.6024960  3
   4310   4292   4293   4313     1  0.0000000  4.9162000  2
   4310   4292   4293   4313     1  0.0000000  0.6024960  3
   4310   4297   4296   4315     1  0.0000000  0.6508444  3
   4316   4317   4319   4320     1  180.0000771  0.8368000  1
   4316   4317   4319   4320     1  180.0000771  1.0460000  2
   4316   4317   4319   4320     1  0.0000000  0.7531200  3
   4316   4317   4319   4326     1  0.0000000  0.6508444  3
   4316   4334   4321   4320     1  180.0000771  0.4184000  2
   4316   4334   4321   4320     1  0.0000000  1.6024720  3
   4316   4334   4321   4325     1  0.0000000  1.6038667  3
   4317   4316   4327   4332     1  0.0000000  0.6508444  3
   4317   4316   4334   4321     1  180.0000771  0.4184000  2
   4317   4316   4334   4321     1  0.0000000  1.6024720  3
   4317   4319   4320   4321     1  180.0000771  0.8368000  1
   4317   4319   4320   4321     1  180.0000771  1.0460000  2
   4317   4319   4320   4321     1  0.0000000  0.7531200  3
   4317   4319   4320   4339     1  0.0000000  0.6508444  3
   4319   4317   4316   4327     1  180.0000771  0.8368000  1
   4319   4317   4316   4327     1  180.0000771  1.0460000  2
   4319   4317   4316   4327     1  0.0000000  0.7531200  3
   4319   4317   4316   4334     1  0.0000000  0.6508444  3
   4319   4320   4321   4325     1  0.0000000  0.6508444  3
   4319   4320   4321   4334     1  0.0000000  0.6508444  3
   4320   4319   4317   4337     1  0.0000000  0.6508444  3
   4321   4320   4319   4326     1  0.0000000  0.6508444  3
   4321   4334   4316   4327     1  180.0000771  0.4184000  2
   4321   4334   4316   4327     1  0.0000000  1.6024720  3
   4325   4321   4320   4339     1  0.0000000  0.6508444  3
   4326   4319   4317   4337     1  0.0000000  4.9162000  2
   4326   4319   4317   4337     1  0.0000000  0.6024960  3
   4326   4319   4320   4339     1  0.0000000  0.6508444  3
   4327   4316   4317   4337     1  0.0000000  0.6508444  3
   4332   4327   4316   4334     1  0.0000000  4.9162000  2
   4332   4327   4316   4334     1  0.0000000  0.6024960  3
   4334   4316   4317   4337     1  0.0000000  4.9162000  2
   4334   4316   4317   4337     1  0.0000000  0.6024960  3
   4334   4321   4320   4339     1  0.0000000  0.6508444  3
   4341   4343   4345   4349     1  0.0000000  0.6508444  3
   4343   4345   4349   4350     1  0.0000000  0.6508444  3
   4343   4345   4349   4351     1  0.0000000  0.6508444  3
   4345   4349   4350   4361     1  0.0000000  0.6508444  3
   4345   4349   4351   4353     1  0.0000000  0.6508444  3
   4349   4350   4361   4364     1  0.0000000  0.6508444  3
   4349   4351   4353   4357     1  0.0000000  0.6508444  3
   4350   4361   4364   4365     1  180.0000771  0.0000000  2
   4350   4361   4364   4413     1  180.0000771  0.0000000  2
   4350   4349   4351   4353     1  0.0000000  0.6508444  3
   4351   4353   4357   4358     1  180.0000771  0.0000000  2
   4351   4353   4357   4389     1  180.0000771  0.0000000  2
   4351   4349   4350   4361     1  0.0000000  0.6508444  3
   4353   4357   4389   4370     1  180.0000771  6.0668000  2
   4353   4357   4389   4370     1  180.0000771  1.4644000  4
   4357   4389   4370   4371     1  0.0000000  1.2552000  3
   4357   4389   4370   4369     1  0.0000000  1.2552000  3
   4358   4357   4389   4370     1  180.0000771  6.0668000  2
   4358   4357   4389   4370     1  180.0000771  1.4644000  4
   4361   4364   4413   4394     1  180.0000771  6.0668000  2
   4361   4364   4413   4394     1  180.0000771  1.4644000  4
   4364   4413   4394   4395     1  0.0000000  1.2552000  3
   4364   4413   4394   4393     1  0.0000000  1.2552000  3
   4365   4364   4413   4394     1  180.0000771  6.0668000  2
   4365   4364   4413   4394     1  180.0000771  1.4644000  4
   4366   4367   4369   4370     1  180.0000771  0.8368000  1
   4366   4367   4369   4370     1  180.0000771  1.0460000  2
   4366   4367   4369   4370     1  0.0000000  0.7531200  3
   4366   4367   4369   4376     1  0.0000000  0.6508444  3
   4366   4384   4371   4375     1  0.0000000  1.6038667  3
   4366   4384   4371   4370     1  180.0000771  0.4184000  2
   4366   4384   4371   4370     1  0.0000000  1.6024720  3
   4367   4369   4370   4371     1  180.0000771  0.8368000  1
   4367   4369   4370   4371     1  180.0000771  1.0460000  2
   4367   4369   4370   4371     1  0.0000000  0.7531200  3
   4367   4369   4370   4389     1  0.0000000  0.6508444  3
   4367   4366   4377   4382     1  0.0000000  0.6508444  3
   4367   4366   4384   4371     1  180.0000771  0.4184000  2
   4367   4366   4384   4371     1  0.0000000  1.6024720  3
   4369   4370   4371   4375     1  0.0000000  0.6508444  3
   4369   4370   4371   4384     1  0.0000000  0.6508444  3
   4369   4367   4366   4377     1  180.0000771  0.8368000  1
   4369   4367   4366   4377     1  180.0000771  1.0460000  2
   4369   4367   4366   4377     1  0.0000000  0.7531200  3
   4369   4367   4366   4384     1  0.0000000  0.6508444  3
   4370   4369   4367   4387     1  0.0000000  0.6508444  3
   4371   4384   4366   4377     1  180.0000771  0.4184000  2
   4371   4384   4366   4377     1  0.0000000  1.6024720  3
   4371   4370   4369   4376     1  0.0000000  0.6508444  3
   4375   4371   4370   4389     1  0.0000000  0.6508444  3
   4376   4369   4370   4389     1  0.0000000  0.6508444  3
   4376   4369   4367   4387     1  0.0000000  4.9162000  2
   4376   4369   4367   4387     1  0.0000000  0.6024960  3
   4377   4366   4367   4387     1  0.0000000  0.6508444  3
   4382   4377   4366   4384     1  0.0000000  4.9162000  2
   4382   4377   4366   4384     1  0.0000000  0.6024960  3
   4384   4371   4370   4389     1  0.0000000  0.6508444  3
   4384   4366   4367   4387     1  0.0000000  4.9162000  2
   4384   4366   4367   4387     1  0.0000000  0.6024960  3
   4390   4391   4393   4394     1  180.0000771  0.8368000  1
   4390   4391   4393   4394     1  180.0000771  1.0460000  2
   4390   4391   4393   4394     1  0.0000000  0.7531200  3
   4390   4391   4393   4400     1  0.0000000  0.6508444  3
   4390   4408   4395   4399     1  0.0000000  1.6038667  3
   4390   4408   4395   4394     1  180.0000771  0.4184000  2
   4390   4408   4395   4394     1  0.0000000  1.6024720  3
   4391   4393   4394   4395     1  180.0000771  0.8368000  1
   4391   4393   4394   4395     1  180.0000771  1.0460000  2
   4391   4393   4394   4395     1  0.0000000  0.7531200  3
   4391   4393   4394   4413     1  0.0000000  0.6508444  3
   4391   4390   4401   4406     1  0.0000000  0.6508444  3
   4391   4390   4408   4395     1  180.0000771  0.4184000  2
   4391   4390   4408   4395     1  0.0000000  1.6024720  3
   4393   4394   4395   4399     1  0.0000000  0.6508444  3
   4393   4394   4395   4408     1  0.0000000  0.6508444  3
   4393   4391   4390   4401     1  180.0000771  0.8368000  1
   4393   4391   4390   4401     1  180.0000771  1.0460000  2
   4393   4391   4390   4401     1  0.0000000  0.7531200  3
   4393   4391   4390   4408     1  0.0000000  0.6508444  3
   4394   4393   4391   4411     1  0.0000000  0.6508444  3
   4395   4408   4390   4401     1  180.0000771  0.4184000  2
   4395   4408   4390   4401     1  0.0000000  1.6024720  3
   4395   4394   4393   4400     1  0.0000000  0.6508444  3
   4399   4395   4394   4413     1  0.0000000  0.6508444  3
   4400   4393   4394   4413     1  0.0000000  0.6508444  3
   4400   4393   4391   4411     1  0.0000000  4.9162000  2
   4400   4393   4391   4411     1  0.0000000  0.6024960  3
   4401   4390   4391   4411     1  0.0000000  0.6508444  3
   4406   4401   4390   4408     1  0.0000000  4.9162000  2
   4406   4401   4390   4408     1  0.0000000  0.6024960  3
   4408   4395   4394   4413     1  0.0000000  0.6508444  3
   4408   4390   4391   4411     1  0.0000000  4.9162000  2
   4408   4390   4391   4411     1  0.0000000  0.6024960  3
   4415   4417   4419   4423     1  0.0000000  0.6508444  3
   4417   4419   4423   4424     1  0.0000000  0.6508444  3
   4417   4419   4423   4425     1  0.0000000  0.6508444  3
   4419   4423   4424   4435     1  0.0000000  0.6508444  3
   4419   4423   4425   4427     1  0.0000000  0.6508444  3
   4423   4424   4435   4438     1  0.0000000  0.6508444  3
   4423   4425   4427   4431     1  0.0000000  0.6508444  3
   4424   4423   4425   4427     1  0.0000000  0.6508444  3
   4424   4435   4438   4439     1  180.0000771  0.0000000  2
   4424   4435   4438   4487     1  180.0000771  0.0000000  2
   4425   4423   4424   4435     1  0.0000000  0.6508444  3
   4425   4427   4431   4432     1  180.0000771  0.0000000  2
   4425   4427   4431   4463     1  180.0000771  0.0000000  2
   4427   4431   4463   4444     1  180.0000771  6.0668000  2
   4427   4431   4463   4444     1  180.0000771  1.4644000  4
   4431   4463   4444   4443     1  0.0000000  1.2552000  3
   4431   4463   4444   4445     1  0.0000000  1.2552000  3
   4432   4431   4463   4444     1  180.0000771  6.0668000  2
   4432   4431   4463   4444     1  180.0000771  1.4644000  4
   4435   4438   4487   4468     1  180.0000771  6.0668000  2
   4435   4438   4487   4468     1  180.0000771  1.4644000  4
   4438   4487   4468   4467     1  0.0000000  1.2552000  3
   4438   4487   4468   4469     1  0.0000000  1.2552000  3
   4439   4438   4487   4468     1  180.0000771  6.0668000  2
   4439   4438   4487   4468     1  180.0000771  1.4644000  4
   4440   4441   4443   4444     1  180.0000771  0.8368000  1
   4440   4441   4443   4444     1  180.0000771  1.0460000  2
   4440   4441   4443   4444     1  0.0000000  0.7531200  3
   4440   4441   4443   4450     1  0.0000000  0.6508444  3
   4440   4458   4445   4444     1  180.0000771  0.4184000  2
   4440   4458   4445   4444     1  0.0000000  1.6024720  3
   4440   4458   4445   4449     1  0.0000000  1.6038667  3
   4441   4440   4451   4456     1  0.0000000  0.6508444  3
   4441   4440   4458   4445     1  180.0000771  0.4184000  2
   4441   4440   4458   4445     1  0.0000000  1.6024720  3
   4441   4443   4444   4445     1  180.0000771  0.8368000  1
   4441   4443   4444   4445     1  180.0000771  1.0460000  2
   4441   4443   4444   4445     1  0.0000000  0.7531200  3
   4441   4443   4444   4463     1  0.0000000  0.6508444  3
   4443   4441   4440   4451     1  180.0000771  0.8368000  1
   4443   4441   4440   4451     1  180.0000771  1.0460000  2
   4443   4441   4440   4451     1  0.0000000  0.7531200  3
   4443   4441   4440   4458     1  0.0000000  0.6508444  3
   4443   4444   4445   4449     1  0.0000000  0.6508444  3
   4443   4444   4445   4458     1  0.0000000  0.6508444  3
   4444   4443   4441   4461     1  0.0000000  0.6508444  3
   4445   4444   4443   4450     1  0.0000000  0.6508444  3
   4445   4458   4440   4451     1  180.0000771  0.4184000  2
   4445   4458   4440   4451     1  0.0000000  1.6024720  3
   4449   4445   4444   4463     1  0.0000000  0.6508444  3
   4450   4443   4441   4461     1  0.0000000  4.9162000  2
   4450   4443   4441   4461     1  0.0000000  0.6024960  3
   4450   4443   4444   4463     1  0.0000000  0.6508444  3
   4451   4440   4441   4461     1  0.0000000  0.6508444  3
   4456   4451   4440   4458     1  0.0000000  4.9162000  2
   4456   4451   4440   4458     1  0.0000000  0.6024960  3
   4458   4440   4441   4461     1  0.0000000  4.9162000  2
   4458   4440   4441   4461     1  0.0000000  0.6024960  3
   4458   4445   4444   4463     1  0.0000000  0.6508444  3
   4464   4465   4467   4468     1  180.0000771  0.8368000  1
   4464   4465   4467   4468     1  180.0000771  1.0460000  2
   4464   4465   4467   4468     1  0.0000000  0.7531200  3
   4464   4465   4467   4474     1  0.0000000  0.6508444  3
   4464   4482   4469   4468     1  180.0000771  0.4184000  2
   4464   4482   4469   4468     1  0.0000000  1.6024720  3
   4464   4482   4469   4473     1  0.0000000  1.6038667  3
   4465   4464   4475   4480     1  0.0000000  0.6508444  3
   4465   4464   4482   4469     1  180.0000771  0.4184000  2
   4465   4464   4482   4469     1  0.0000000  1.6024720  3
   4465   4467   4468   4469     1  180.0000771  0.8368000  1
   4465   4467   4468   4469     1  180.0000771  1.0460000  2
   4465   4467   4468   4469     1  0.0000000  0.7531200  3
   4465   4467   4468   4487     1  0.0000000  0.6508444  3
   4467   4465   4464   4475     1  180.0000771  0.8368000  1
   4467   4465   4464   4475     1  180.0000771  1.0460000  2
   4467   4465   4464   4475     1  0.0000000  0.7531200  3
   4467   4465   4464   4482     1  0.0000000  0.6508444  3
   4467   4468   4469   4473     1  0.0000000  0.6508444  3
   4467   4468   4469   4482     1  0.0000000  0.6508444  3
   4468   4467   4465   4485     1  0.0000000  0.6508444  3
   4469   4468   4467   4474     1  0.0000000  0.6508444  3
   4469   4482   4464   4475     1  180.0000771  0.4184000  2
   4469   4482   4464   4475     1  0.0000000  1.6024720  3
   4473   4469   4468   4487     1  0.0000000  0.6508444  3
   4474   4467   4465   4485     1  0.0000000  4.9162000  2
   4474   4467   4465   4485     1  0.0000000  0.6024960  3
   4474   4467   4468   4487     1  0.0000000  0.6508444  3
   4475   4464   4465   4485     1  0.0000000  0.6508444  3
   4480   4475   4464   4482     1  0.0000000  4.9162000  2
   4480   4475   4464   4482     1  0.0000000  0.6024960  3
   4482   4464   4465   4485     1  0.0000000  4.9162000  2
   4482   4464   4465   4485     1  0.0000000  0.6024960  3
   4482   4469   4468   4487     1  0.0000000  0.6508444  3
   4489   4491   4493   4497     1  0.0000000  0.6508444  3
   4491   4493   4497   4498     1  0.0000000  0.6508444  3
   4491   4493   4497   4499     1  0.0000000  0.6508444  3
   4493   4497   4498   4509     1  0.0000000  0.6508444  3
   4493   4497   4499   4501     1  0.0000000  0.6508444  3
   4497   4498   4509   4512     1  0.0000000  0.6508444  3
   4497   4499   4501   4505     1  0.0000000  0.6508444  3
   4498   4509   4512   4513     1  180.0000771  0.0000000  2
   4498   4509   4512   4561     1  180.0000771  0.0000000  2
   4498   4497   4499   4501     1  0.0000000  0.6508444  3
   4499   4501   4505   4506     1  180.0000771  0.0000000  2
   4499   4501   4505   4537     1  180.0000771  0.0000000  2
   4499   4497   4498   4509     1  0.0000000  0.6508444  3
   4501   4505   4537   4518     1  180.0000771  6.0668000  2
   4501   4505   4537   4518     1  180.0000771  1.4644000  4
   4505   4537   4518   4519     1  0.0000000  1.2552000  3
   4505   4537   4518   4517     1  0.0000000  1.2552000  3
   4506   4505   4537   4518     1  180.0000771  6.0668000  2
   4506   4505   4537   4518     1  180.0000771  1.4644000  4
   4509   4512   4561   4542     1  180.0000771  6.0668000  2
   4509   4512   4561   4542     1  180.0000771  1.4644000  4
   4512   4561   4542   4543     1  0.0000000  1.2552000  3
   4512   4561   4542   4541     1  0.0000000  1.2552000  3
   4513   4512   4561   4542     1  180.0000771  6.0668000  2
   4513   4512   4561   4542     1  180.0000771  1.4644000  4
   4514   4515   4517   4518     1  180.0000771  0.8368000  1
   4514   4515   4517   4518     1  180.0000771  1.0460000  2
   4514   4515   4517   4518     1  0.0000000  0.7531200  3
   4514   4515   4517   4524     1  0.0000000  0.6508444  3
   4514   4532   4519   4523     1  0.0000000  1.6038667  3
   4514   4532   4519   4518     1  180.0000771  0.4184000  2
   4514   4532   4519   4518     1  0.0000000  1.6024720  3
   4515   4517   4518   4519     1  180.0000771  0.8368000  1
   4515   4517   4518   4519     1  180.0000771  1.0460000  2
   4515   4517   4518   4519     1  0.0000000  0.7531200  3
   4515   4517   4518   4537     1  0.0000000  0.6508444  3
   4515   4514   4525   4530     1  0.0000000  0.6508444  3
   4515   4514   4532   4519     1  180.0000771  0.4184000  2
   4515   4514   4532   4519     1  0.0000000  1.6024720  3
   4517   4518   4519   4523     1  0.0000000  0.6508444  3
   4517   4518   4519   4532     1  0.0000000  0.6508444  3
   4517   4515   4514   4525     1  180.0000771  0.8368000  1
   4517   4515   4514   4525     1  180.0000771  1.0460000  2
   4517   4515   4514   4525     1  0.0000000  0.7531200  3
   4517   4515   4514   4532     1  0.0000000  0.6508444  3
   4518   4517   4515   4535     1  0.0000000  0.6508444  3
   4519   4532   4514   4525     1  180.0000771  0.4184000  2
   4519   4532   4514   4525     1  0.0000000  1.6024720  3
   4519   4518   4517   4524     1  0.0000000  0.6508444  3
   4523   4519   4518   4537     1  0.0000000  0.6508444  3
   4524   4517   4518   4537     1  0.0000000  0.6508444  3
   4524   4517   4515   4535     1  0.0000000  4.9162000  2
   4524   4517   4515   4535     1  0.0000000  0.6024960  3
   4525   4514   4515   4535     1  0.0000000  0.6508444  3
   4530   4525   4514   4532     1  0.0000000  4.9162000  2
   4530   4525   4514   4532     1  0.0000000  0.6024960  3
   4532   4519   4518   4537     1  0.0000000  0.6508444  3
   4532   4514   4515   4535     1  0.0000000  4.9162000  2
   4532   4514   4515   4535     1  0.0000000  0.6024960  3
   4538   4539   4541   4542     1  180.0000771  0.8368000  1
   4538   4539   4541   4542     1  180.0000771  1.0460000  2
   4538   4539   4541   4542     1  0.0000000  0.7531200  3
   4538   4539   4541   4548     1  0.0000000  0.6508444  3
   4538   4556   4543   4547     1  0.0000000  1.6038667  3
   4538   4556   4543   4542     1  180.0000771  0.4184000  2
   4538   4556   4543   4542     1  0.0000000  1.6024720  3
   4539   4541   4542   4543     1  180.0000771  0.8368000  1
   4539   4541   4542   4543     1  180.0000771  1.0460000  2
   4539   4541   4542   4543     1  0.0000000  0.7531200  3
   4539   4541   4542   4561     1  0.0000000  0.6508444  3
   4539   4538   4549   4554     1  0.0000000  0.6508444  3
   4539   4538   4556   4543     1  180.0000771  0.4184000  2
   4539   4538   4556   4543     1  0.0000000  1.6024720  3
   4541   4542   4543   4547     1  0.0000000  0.6508444  3
   4541   4542   4543   4556     1  0.0000000  0.6508444  3
   4541   4539   4538   4549     1  180.0000771  0.8368000  1
   4541   4539   4538   4549     1  180.0000771  1.0460000  2
   4541   4539   4538   4549     1  0.0000000  0.7531200  3
   4541   4539   4538   4556     1  0.0000000  0.6508444  3
   4542   4541   4539   4559     1  0.0000000  0.6508444  3
   4543   4556   4538   4549     1  180.0000771  0.4184000  2
   4543   4556   4538   4549     1  0.0000000  1.6024720  3
   4543   4542   4541   4548     1  0.0000000  0.6508444  3
   4547   4543   4542   4561     1  0.0000000  0.6508444  3
   4548   4541   4542   4561     1  0.0000000  0.6508444  3
   4548   4541   4539   4559     1  0.0000000  4.9162000  2
   4548   4541   4539   4559     1  0.0000000  0.6024960  3
   4549   4538   4539   4559     1  0.0000000  0.6508444  3
   4554   4549   4538   4556     1  0.0000000  4.9162000  2
   4554   4549   4538   4556     1  0.0000000  0.6024960  3
   4556   4543   4542   4561     1  0.0000000  0.6508444  3
   4556   4538   4539   4559     1  0.0000000  4.9162000  2
   4556   4538   4539   4559     1  0.0000000  0.6024960  3
   4563   4565   4567   4571     1  0.0000000  0.6508444  3
   4565   4567   4571   4572     1  0.0000000  0.6508444  3
   4565   4567   4571   4573     1  0.0000000  0.6508444  3
   4567   4571   4572   4583     1  0.0000000  0.6508444  3
   4567   4571   4573   4575     1  0.0000000  0.6508444  3
   4571   4572   4583   4586     1  0.0000000  0.6508444  3
   4571   4573   4575   4579     1  0.0000000  0.6508444  3
   4572   4571   4573   4575     1  0.0000000  0.6508444  3
   4572   4583   4586   4587     1  180.0000771  0.0000000  2
   4572   4583   4586   4635     1  180.0000771  0.0000000  2
   4573   4571   4572   4583     1  0.0000000  0.6508444  3
   4573   4575   4579   4580     1  180.0000771  0.0000000  2
   4573   4575   4579   4611     1  180.0000771  0.0000000  2
   4575   4579   4611   4592     1  180.0000771  6.0668000  2
   4575   4579   4611   4592     1  180.0000771  1.4644000  4
   4579   4611   4592   4591     1  0.0000000  1.2552000  3
   4579   4611   4592   4593     1  0.0000000  1.2552000  3
   4580   4579   4611   4592     1  180.0000771  6.0668000  2
   4580   4579   4611   4592     1  180.0000771  1.4644000  4
   4583   4586   4635   4616     1  180.0000771  6.0668000  2
   4583   4586   4635   4616     1  180.0000771  1.4644000  4
   4586   4635   4616   4615     1  0.0000000  1.2552000  3
   4586   4635   4616   4617     1  0.0000000  1.2552000  3
   4587   4586   4635   4616     1  180.0000771  6.0668000  2
   4587   4586   4635   4616     1  180.0000771  1.4644000  4
   4588   4589   4591   4592     1  180.0000771  0.8368000  1
   4588   4589   4591   4592     1  180.0000771  1.0460000  2
   4588   4589   4591   4592     1  0.0000000  0.7531200  3
   4588   4589   4591   4598     1  0.0000000  0.6508444  3
   4588   4606   4593   4592     1  180.0000771  0.4184000  2
   4588   4606   4593   4592     1  0.0000000  1.6024720  3
   4588   4606   4593   4597     1  0.0000000  1.6038667  3
   4589   4588   4599   4604     1  0.0000000  0.6508444  3
   4589   4588   4606   4593     1  180.0000771  0.4184000  2
   4589   4588   4606   4593     1  0.0000000  1.6024720  3
   4589   4591   4592   4593     1  180.0000771  0.8368000  1
   4589   4591   4592   4593     1  180.0000771  1.0460000  2
   4589   4591   4592   4593     1  0.0000000  0.7531200  3
   4589   4591   4592   4611     1  0.0000000  0.6508444  3
   4591   4589   4588   4599     1  180.0000771  0.8368000  1
   4591   4589   4588   4599     1  180.0000771  1.0460000  2
   4591   4589   4588   4599     1  0.0000000  0.7531200  3
   4591   4589   4588   4606     1  0.0000000  0.6508444  3
   4591   4592   4593   4597     1  0.0000000  0.6508444  3
   4591   4592   4593   4606     1  0.0000000  0.6508444  3
   4592   4591   4589   4609     1  0.0000000  0.6508444  3
   4593   4592   4591   4598     1  0.0000000  0.6508444  3
   4593   4606   4588   4599     1  180.0000771  0.4184000  2
   4593   4606   4588   4599     1  0.0000000  1.6024720  3
   4597   4593   4592   4611     1  0.0000000  0.6508444  3
   4598   4591   4589   4609     1  0.0000000  4.9162000  2
   4598   4591   4589   4609     1  0.0000000  0.6024960  3
   4598   4591   4592   4611     1  0.0000000  0.6508444  3
   4599   4588   4589   4609     1  0.0000000  0.6508444  3
   4604   4599   4588   4606     1  0.0000000  4.9162000  2
   4604   4599   4588   4606     1  0.0000000  0.6024960  3
   4606   4588   4589   4609     1  0.0000000  4.9162000  2
   4606   4588   4589   4609     1  0.0000000  0.6024960  3
   4606   4593   4592   4611     1  0.0000000  0.6508444  3
   4612   4613   4615   4616     1  180.0000771  0.8368000  1
   4612   4613   4615   4616     1  180.0000771  1.0460000  2
   4612   4613   4615   4616     1  0.0000000  0.7531200  3
   4612   4613   4615   4622     1  0.0000000  0.6508444  3
   4612   4630   4617   4616     1  180.0000771  0.4184000  2
   4612   4630   4617   4616     1  0.0000000  1.6024720  3
   4612   4630   4617   4621     1  0.0000000  1.6038667  3
   4613   4612   4623   4628     1  0.0000000  0.6508444  3
   4613   4612   4630   4617     1  180.0000771  0.4184000  2
   4613   4612   4630   4617     1  0.0000000  1.6024720  3
   4613   4615   4616   4617     1  180.0000771  0.8368000  1
   4613   4615   4616   4617     1  180.0000771  1.0460000  2
   4613   4615   4616   4617     1  0.0000000  0.7531200  3
   4613   4615   4616   4635     1  0.0000000  0.6508444  3
   4615   4613   4612   4623     1  180.0000771  0.8368000  1
   4615   4613   4612   4623     1  180.0000771  1.0460000  2
   4615   4613   4612   4623     1  0.0000000  0.7531200  3
   4615   4613   4612   4630     1  0.0000000  0.6508444  3
   4615   4616   4617   4621     1  0.0000000  0.6508444  3
   4615   4616   4617   4630     1  0.0000000  0.6508444  3
   4616   4615   4613   4633     1  0.0000000  0.6508444  3
   4617   4616   4615   4622     1  0.0000000  0.6508444  3
   4617   4630   4612   4623     1  180.0000771  0.4184000  2
   4617   4630   4612   4623     1  0.0000000  1.6024720  3
   4621   4617   4616   4635     1  0.0000000  0.6508444  3
   4622   4615   4613   4633     1  0.0000000  4.9162000  2
   4622   4615   4613   4633     1  0.0000000  0.6024960  3
   4622   4615   4616   4635     1  0.0000000  0.6508444  3
   4623   4612   4613   4633     1  0.0000000  0.6508444  3
   4628   4623   4612   4630     1  0.0000000  4.9162000  2
   4628   4623   4612   4630     1  0.0000000  0.6024960  3
   4630   4612   4613   4633     1  0.0000000  4.9162000  2
   4630   4612   4613   4633     1  0.0000000  0.6024960  3
   4630   4617   4616   4635     1  0.0000000  0.6508444  3
   4637   4639   4641   4645     1  0.0000000  0.6508444  3
   4639   4641   4645   4646     1  0.0000000  0.6508444  3
   4639   4641   4645   4647     1  0.0000000  0.6508444  3
   4641   4645   4646   4657     1  0.0000000  0.6508444  3
   4641   4645   4647   4649     1  0.0000000  0.6508444  3
   4645   4646   4657   4660     1  0.0000000  0.6508444  3
   4645   4647   4649   4653     1  0.0000000  0.6508444  3
   4646   4657   4660   4661     1  180.0000771  0.0000000  2
   4646   4657   4660   4709     1  180.0000771  0.0000000  2
   4646   4645   4647   4649     1  0.0000000  0.6508444  3
   4647   4649   4653   4654     1  180.0000771  0.0000000  2
   4647   4649   4653   4685     1  180.0000771  0.0000000  2
   4647   4645   4646   4657     1  0.0000000  0.6508444  3
   4649   4653   4685   4666     1  180.0000771  6.0668000  2
   4649   4653   4685   4666     1  180.0000771  1.4644000  4
   4653   4685   4666   4667     1  0.0000000  1.2552000  3
   4653   4685   4666   4665     1  0.0000000  1.2552000  3
   4654   4653   4685   4666     1  180.0000771  6.0668000  2
   4654   4653   4685   4666     1  180.0000771  1.4644000  4
   4657   4660   4709   4690     1  180.0000771  6.0668000  2
   4657   4660   4709   4690     1  180.0000771  1.4644000  4
   4660   4709   4690   4691     1  0.0000000  1.2552000  3
   4660   4709   4690   4689     1  0.0000000  1.2552000  3
   4661   4660   4709   4690     1  180.0000771  6.0668000  2
   4661   4660   4709   4690     1  180.0000771  1.4644000  4
   4662   4663   4665   4666     1  180.0000771  0.8368000  1
   4662   4663   4665   4666     1  180.0000771  1.0460000  2
   4662   4663   4665   4666     1  0.0000000  0.7531200  3
   4662   4663   4665   4672     1  0.0000000  0.6508444  3
   4662   4680   4667   4671     1  0.0000000  1.6038667  3
   4662   4680   4667   4666     1  180.0000771  0.4184000  2
   4662   4680   4667   4666     1  0.0000000  1.6024720  3
   4663   4665   4666   4667     1  180.0000771  0.8368000  1
   4663   4665   4666   4667     1  180.0000771  1.0460000  2
   4663   4665   4666   4667     1  0.0000000  0.7531200  3
   4663   4665   4666   4685     1  0.0000000  0.6508444  3
   4663   4662   4673   4678     1  0.0000000  0.6508444  3
   4663   4662   4680   4667     1  180.0000771  0.4184000  2
   4663   4662   4680   4667     1  0.0000000  1.6024720  3
   4665   4666   4667   4671     1  0.0000000  0.6508444  3
   4665   4666   4667   4680     1  0.0000000  0.6508444  3
   4665   4663   4662   4673     1  180.0000771  0.8368000  1
   4665   4663   4662   4673     1  180.0000771  1.0460000  2
   4665   4663   4662   4673     1  0.0000000  0.7531200  3
   4665   4663   4662   4680     1  0.0000000  0.6508444  3
   4666   4665   4663   4683     1  0.0000000  0.6508444  3
   4667   4680   4662   4673     1  180.0000771  0.4184000  2
   4667   4680   4662   4673     1  0.0000000  1.6024720  3
   4667   4666   4665   4672     1  0.0000000  0.6508444  3
   4671   4667   4666   4685     1  0.0000000  0.6508444  3
   4672   4665   4666   4685     1  0.0000000  0.6508444  3
   4672   4665   4663   4683     1  0.0000000  4.9162000  2
   4672   4665   4663   4683     1  0.0000000  0.6024960  3
   4673   4662   4663   4683     1  0.0000000  0.6508444  3
   4678   4673   4662   4680     1  0.0000000  4.9162000  2
   4678   4673   4662   4680     1  0.0000000  0.6024960  3
   4680   4667   4666   4685     1  0.0000000  0.6508444  3
   4680   4662   4663   4683     1  0.0000000  4.9162000  2
   4680   4662   4663   4683     1  0.0000000  0.6024960  3
   4686   4687   4689   4690     1  180.0000771  0.8368000  1
   4686   4687   4689   4690     1  180.0000771  1.0460000  2
   4686   4687   4689   4690     1  0.0000000  0.7531200  3
   4686   4687   4689   4696     1  0.0000000  0.6508444  3
   4686   4704   4691   4695     1  0.0000000  1.6038667  3
   4686   4704   4691   4690     1  180.0000771  0.4184000  2
   4686   4704   4691   4690     1  0.0000000  1.6024720  3
   4687   4689   4690   4691     1  180.0000771  0.8368000  1
   4687   4689   4690   4691     1  180.0000771  1.0460000  2
   4687   4689   4690   4691     1  0.0000000  0.7531200  3
   4687   4689   4690   4709     1  0.0000000  0.6508444  3
   4687   4686   4697   4702     1  0.0000000  0.6508444  3
   4687   4686   4704   4691     1  180.0000771  0.4184000  2
   4687   4686   4704   4691     1  0.0000000  1.6024720  3
   4689   4690   4691   4695     1  0.0000000  0.6508444  3
   4689   4690   4691   4704     1  0.0000000  0.6508444  3
   4689   4687   4686   4697     1  180.0000771  0.8368000  1
   4689   4687   4686   4697     1  180.0000771  1.0460000  2
   4689   4687   4686   4697     1  0.0000000  0.7531200  3
   4689   4687   4686   4704     1  0.0000000  0.6508444  3
   4690   4689   4687   4707     1  0.0000000  0.6508444  3
   4691   4704   4686   4697     1  180.0000771  0.4184000  2
   4691   4704   4686   4697     1  0.0000000  1.6024720  3
   4691   4690   4689   4696     1  0.0000000  0.6508444  3
   4695   4691   4690   4709     1  0.0000000  0.6508444  3
   4696   4689   4690   4709     1  0.0000000  0.6508444  3
   4696   4689   4687   4707     1  0.0000000  4.9162000  2
   4696   4689   4687   4707     1  0.0000000  0.6024960  3
   4697   4686   4687   4707     1  0.0000000  0.6508444  3
   4702   4697   4686   4704     1  0.0000000  4.9162000  2
   4702   4697   4686   4704     1  0.0000000  0.6024960  3
   4704   4691   4690   4709     1  0.0000000  0.6508444  3
   4704   4686   4687   4707     1  0.0000000  4.9162000  2
   4704   4686   4687   4707     1  0.0000000  0.6024960  3
   4711   4713   4715   4719     1  0.0000000  0.6508444  3
   4713   4715   4719   4720     1  0.0000000  0.6508444  3
   4713   4715   4719   4721     1  0.0000000  0.6508444  3
   4715   4719   4720   4731     1  0.0000000  0.6508444  3
   4715   4719   4721   4723     1  0.0000000  0.6508444  3
   4719   4720   4731   4734     1  0.0000000  0.6508444  3
   4719   4721   4723   4727     1  0.0000000  0.6508444  3
   4720   4719   4721   4723     1  0.0000000  0.6508444  3
   4720   4731   4734   4735     1  180.0000771  0.0000000  2
   4720   4731   4734   4783     1  180.0000771  0.0000000  2
   4721   4719   4720   4731     1  0.0000000  0.6508444  3
   4721   4723   4727   4728     1  180.0000771  0.0000000  2
   4721   4723   4727   4759     1  180.0000771  0.0000000  2
   4723   4727   4759   4740     1  180.0000771  6.0668000  2
   4723   4727   4759   4740     1  180.0000771  1.4644000  4
   4727   4759   4740   4739     1  0.0000000  1.2552000  3
   4727   4759   4740   4741     1  0.0000000  1.2552000  3
   4728   4727   4759   4740     1  180.0000771  6.0668000  2
   4728   4727   4759   4740     1  180.0000771  1.4644000  4
   4731   4734   4783   4764     1  180.0000771  6.0668000  2
   4731   4734   4783   4764     1  180.0000771  1.4644000  4
   4734   4783   4764   4763     1  0.0000000  1.2552000  3
   4734   4783   4764   4765     1  0.0000000  1.2552000  3
   4735   4734   4783   4764     1  180.0000771  6.0668000  2
   4735   4734   4783   4764     1  180.0000771  1.4644000  4
   4736   4737   4739   4740     1  180.0000771  0.8368000  1
   4736   4737   4739   4740     1  180.0000771  1.0460000  2
   4736   4737   4739   4740     1  0.0000000  0.7531200  3
   4736   4737   4739   4746     1  0.0000000  0.6508444  3
   4736   4754   4741   4740     1  180.0000771  0.4184000  2
   4736   4754   4741   4740     1  0.0000000  1.6024720  3
   4736   4754   4741   4745     1  0.0000000  1.6038667  3
   4737   4736   4747   4752     1  0.0000000  0.6508444  3
   4737   4736   4754   4741     1  180.0000771  0.4184000  2
   4737   4736   4754   4741     1  0.0000000  1.6024720  3
   4737   4739   4740   4741     1  180.0000771  0.8368000  1
   4737   4739   4740   4741     1  180.0000771  1.0460000  2
   4737   4739   4740   4741     1  0.0000000  0.7531200  3
   4737   4739   4740   4759     1  0.0000000  0.6508444  3
   4739   4737   4736   4747     1  180.0000771  0.8368000  1
   4739   4737   4736   4747     1  180.0000771  1.0460000  2
   4739   4737   4736   4747     1  0.0000000  0.7531200  3
   4739   4737   4736   4754     1  0.0000000  0.6508444  3
   4739   4740   4741   4745     1  0.0000000  0.6508444  3
   4739   4740   4741   4754     1  0.0000000  0.6508444  3
   4740   4739   4737   4757     1  0.0000000  0.6508444  3
   4741   4740   4739   4746     1  0.0000000  0.6508444  3
   4741   4754   4736   4747     1  180.0000771  0.4184000  2
   4741   4754   4736   4747     1  0.0000000  1.6024720  3
   4745   4741   4740   4759     1  0.0000000  0.6508444  3
   4746   4739   4737   4757     1  0.0000000  4.9162000  2
   4746   4739   4737   4757     1  0.0000000  0.6024960  3
   4746   4739   4740   4759     1  0.0000000  0.6508444  3
   4747   4736   4737   4757     1  0.0000000  0.6508444  3
   4752   4747   4736   4754     1  0.0000000  4.9162000  2
   4752   4747   4736   4754     1  0.0000000  0.6024960  3
   4754   4736   4737   4757     1  0.0000000  4.9162000  2
   4754   4736   4737   4757     1  0.0000000  0.6024960  3
   4754   4741   4740   4759     1  0.0000000  0.6508444  3
   4760   4761   4763   4764     1  180.0000771  0.8368000  1
   4760   4761   4763   4764     1  180.0000771  1.0460000  2
   4760   4761   4763   4764     1  0.0000000  0.7531200  3
   4760   4761   4763   4770     1  0.0000000  0.6508444  3
   4760   4778   4765   4764     1  180.0000771  0.4184000  2
   4760   4778   4765   4764     1  0.0000000  1.6024720  3
   4760   4778   4765   4769     1  0.0000000  1.6038667  3
   4761   4760   4771   4776     1  0.0000000  0.6508444  3
   4761   4760   4778   4765     1  180.0000771  0.4184000  2
   4761   4760   4778   4765     1  0.0000000  1.6024720  3
   4761   4763   4764   4765     1  180.0000771  0.8368000  1
   4761   4763   4764   4765     1  180.0000771  1.0460000  2
   4761   4763   4764   4765     1  0.0000000  0.7531200  3
   4761   4763   4764   4783     1  0.0000000  0.6508444  3
   4763   4761   4760   4771     1  180.0000771  0.8368000  1
   4763   4761   4760   4771     1  180.0000771  1.0460000  2
   4763   4761   4760   4771     1  0.0000000  0.7531200  3
   4763   4761   4760   4778     1  0.0000000  0.6508444  3
   4763   4764   4765   4769     1  0.0000000  0.6508444  3
   4763   4764   4765   4778     1  0.0000000  0.6508444  3
   4764   4763   4761   4781     1  0.0000000  0.6508444  3
   4765   4764   4763   4770     1  0.0000000  0.6508444  3
   4765   4778   4760   4771     1  180.0000771  0.4184000  2
   4765   4778   4760   4771     1  0.0000000  1.6024720  3
   4769   4765   4764   4783     1  0.0000000  0.6508444  3
   4770   4763   4761   4781     1  0.0000000  4.9162000  2
   4770   4763   4761   4781     1  0.0000000  0.6024960  3
   4770   4763   4764   4783     1  0.0000000  0.6508444  3
   4771   4760   4761   4781     1  0.0000000  0.6508444  3
   4776   4771   4760   4778     1  0.0000000  4.9162000  2
   4776   4771   4760   4778     1  0.0000000  0.6024960  3
   4778   4760   4761   4781     1  0.0000000  4.9162000  2
   4778   4760   4761   4781     1  0.0000000  0.6024960  3
   4778   4765   4764   4783     1  0.0000000  0.6508444  3
   4785   4787   4789   4793     1  0.0000000  0.6508444  3
   4787   4789   4793   4794     1  0.0000000  0.6508444  3
   4787   4789   4793   4795     1  0.0000000  0.6508444  3
   4789   4793   4794   4805     1  0.0000000  0.6508444  3
   4789   4793   4795   4797     1  0.0000000  0.6508444  3
   4793   4794   4805   4808     1  0.0000000  0.6508444  3
   4793   4795   4797   4801     1  0.0000000  0.6508444  3
   4794   4805   4808   4809     1  180.0000771  0.0000000  2
   4794   4805   4808   4857     1  180.0000771  0.0000000  2
   4794   4793   4795   4797     1  0.0000000  0.6508444  3
   4795   4797   4801   4802     1  180.0000771  0.0000000  2
   4795   4797   4801   4833     1  180.0000771  0.0000000  2
   4795   4793   4794   4805     1  0.0000000  0.6508444  3
   4797   4801   4833   4814     1  180.0000771  6.0668000  2
   4797   4801   4833   4814     1  180.0000771  1.4644000  4
   4801   4833   4814   4815     1  0.0000000  1.2552000  3
   4801   4833   4814   4813     1  0.0000000  1.2552000  3
   4802   4801   4833   4814     1  180.0000771  6.0668000  2
   4802   4801   4833   4814     1  180.0000771  1.4644000  4
   4805   4808   4857   4838     1  180.0000771  6.0668000  2
   4805   4808   4857   4838     1  180.0000771  1.4644000  4
   4808   4857   4838   4839     1  0.0000000  1.2552000  3
   4808   4857   4838   4837     1  0.0000000  1.2552000  3
   4809   4808   4857   4838     1  180.0000771  6.0668000  2
   4809   4808   4857   4838     1  180.0000771  1.4644000  4
   4810   4811   4813   4814     1  180.0000771  0.8368000  1
   4810   4811   4813   4814     1  180.0000771  1.0460000  2
   4810   4811   4813   4814     1  0.0000000  0.7531200  3
   4810   4811   4813   4820     1  0.0000000  0.6508444  3
   4810   4828   4815   4819     1  0.0000000  1.6038667  3
   4810   4828   4815   4814     1  180.0000771  0.4184000  2
   4810   4828   4815   4814     1  0.0000000  1.6024720  3
   4811   4813   4814   4815     1  180.0000771  0.8368000  1
   4811   4813   4814   4815     1  180.0000771  1.0460000  2
   4811   4813   4814   4815     1  0.0000000  0.7531200  3
   4811   4813   4814   4833     1  0.0000000  0.6508444  3
   4811   4810   4821   4826     1  0.0000000  0.6508444  3
   4811   4810   4828   4815     1  180.0000771  0.4184000  2
   4811   4810   4828   4815     1  0.0000000  1.6024720  3
   4813   4814   4815   4819     1  0.0000000  0.6508444  3
   4813   4814   4815   4828     1  0.0000000  0.6508444  3
   4813   4811   4810   4821     1  180.0000771  0.8368000  1
   4813   4811   4810   4821     1  180.0000771  1.0460000  2
   4813   4811   4810   4821     1  0.0000000  0.7531200  3
   4813   4811   4810   4828     1  0.0000000  0.6508444  3
   4814   4813   4811   4831     1  0.0000000  0.6508444  3
   4815   4828   4810   4821     1  180.0000771  0.4184000  2
   4815   4828   4810   4821     1  0.0000000  1.6024720  3
   4815   4814   4813   4820     1  0.0000000  0.6508444  3
   4819   4815   4814   4833     1  0.0000000  0.6508444  3
   4820   4813   4814   4833     1  0.0000000  0.6508444  3
   4820   4813   4811   4831     1  0.0000000  4.9162000  2
   4820   4813   4811   4831     1  0.0000000  0.6024960  3
   4821   4810   4811   4831     1  0.0000000  0.6508444  3
   4826   4821   4810   4828     1  0.0000000  4.9162000  2
   4826   4821   4810   4828     1  0.0000000  0.6024960  3
   4828   4815   4814   4833     1  0.0000000  0.6508444  3
   4828   4810   4811   4831     1  0.0000000  4.9162000  2
   4828   4810   4811   4831     1  0.0000000  0.6024960  3
   4834   4835   4837   4838     1  180.0000771  0.8368000  1
   4834   4835   4837   4838     1  180.0000771  1.0460000  2
   4834   4835   4837   4838     1  0.0000000  0.7531200  3
   4834   4835   4837   4844     1  0.0000000  0.6508444  3
   4834   4852   4839   4843     1  0.0000000  1.6038667  3
   4834   4852   4839   4838     1  180.0000771  0.4184000  2
   4834   4852   4839   4838     1  0.0000000  1.6024720  3
   4835   4837   4838   4839     1  180.0000771  0.8368000  1
   4835   4837   4838   4839     1  180.0000771  1.0460000  2
   4835   4837   4838   4839     1  0.0000000  0.7531200  3
   4835   4837   4838   4857     1  0.0000000  0.6508444  3
   4835   4834   4845   4850     1  0.0000000  0.6508444  3
   4835   4834   4852   4839     1  180.0000771  0.4184000  2
   4835   4834   4852   4839     1  0.0000000  1.6024720  3
   4837   4838   4839   4843     1  0.0000000  0.6508444  3
   4837   4838   4839   4852     1  0.0000000  0.6508444  3
   4837   4835   4834   4845     1  180.0000771  0.8368000  1
   4837   4835   4834   4845     1  180.0000771  1.0460000  2
   4837   4835   4834   4845     1  0.0000000  0.7531200  3
   4837   4835   4834   4852     1  0.0000000  0.6508444  3
   4838   4837   4835   4855     1  0.0000000  0.6508444  3
   4839   4852   4834   4845     1  180.0000771  0.4184000  2
   4839   4852   4834   4845     1  0.0000000  1.6024720  3
   4839   4838   4837   4844     1  0.0000000  0.6508444  3
   4843   4839   4838   4857     1  0.0000000  0.6508444  3
   4844   4837   4838   4857     1  0.0000000  0.6508444  3
   4844   4837   4835   4855     1  0.0000000  4.9162000  2
   4844   4837   4835   4855     1  0.0000000  0.6024960  3
   4845   4834   4835   4855     1  0.0000000  0.6508444  3
   4850   4845   4834   4852     1  0.0000000  4.9162000  2
   4850   4845   4834   4852     1  0.0000000  0.6024960  3
   4852   4839   4838   4857     1  0.0000000  0.6508444  3
   4852   4834   4835   4855     1  0.0000000  4.9162000  2
   4852   4834   4835   4855     1  0.0000000  0.6024960  3
   4859   4861   4863   4867     1  0.0000000  0.6508444  3
   4861   4863   4867   4868     1  0.0000000  0.6508444  3
   4861   4863   4867   4869     1  0.0000000  0.6508444  3
   4863   4867   4868   4879     1  0.0000000  0.6508444  3
   4863   4867   4869   4871     1  0.0000000  0.6508444  3
   4867   4868   4879   4882     1  0.0000000  0.6508444  3
   4867   4869   4871   4875     1  0.0000000  0.6508444  3
   4868   4867   4869   4871     1  0.0000000  0.6508444  3
   4868   4879   4882   4883     1  180.0000771  0.0000000  2
   4868   4879   4882   4931     1  180.0000771  0.0000000  2
   4869   4867   4868   4879     1  0.0000000  0.6508444  3
   4869   4871   4875   4876     1  180.0000771  0.0000000  2
   4869   4871   4875   4907     1  180.0000771  0.0000000  2
   4871   4875   4907   4888     1  180.0000771  6.0668000  2
   4871   4875   4907   4888     1  180.0000771  1.4644000  4
   4875   4907   4888   4887     1  0.0000000  1.2552000  3
   4875   4907   4888   4889     1  0.0000000  1.2552000  3
   4876   4875   4907   4888     1  180.0000771  6.0668000  2
   4876   4875   4907   4888     1  180.0000771  1.4644000  4
   4879   4882   4931   4912     1  180.0000771  6.0668000  2
   4879   4882   4931   4912     1  180.0000771  1.4644000  4
   4882   4931   4912   4911     1  0.0000000  1.2552000  3
   4882   4931   4912   4913     1  0.0000000  1.2552000  3
   4883   4882   4931   4912     1  180.0000771  6.0668000  2
   4883   4882   4931   4912     1  180.0000771  1.4644000  4
   4884   4885   4887   4888     1  180.0000771  0.8368000  1
   4884   4885   4887   4888     1  180.0000771  1.0460000  2
   4884   4885   4887   4888     1  0.0000000  0.7531200  3
   4884   4885   4887   4894     1  0.0000000  0.6508444  3
   4884   4902   4889   4888     1  180.0000771  0.4184000  2
   4884   4902   4889   4888     1  0.0000000  1.6024720  3
   4884   4902   4889   4893     1  0.0000000  1.6038667  3
   4885   4884   4895   4900     1  0.0000000  0.6508444  3
   4885   4884   4902   4889     1  180.0000771  0.4184000  2
   4885   4884   4902   4889     1  0.0000000  1.6024720  3
   4885   4887   4888   4889     1  180.0000771  0.8368000  1
   4885   4887   4888   4889     1  180.0000771  1.0460000  2
   4885   4887   4888   4889     1  0.0000000  0.7531200  3
   4885   4887   4888   4907     1  0.0000000  0.6508444  3
   4887   4885   4884   4895     1  180.0000771  0.8368000  1
   4887   4885   4884   4895     1  180.0000771  1.0460000  2
   4887   4885   4884   4895     1  0.0000000  0.7531200  3
   4887   4885   4884   4902     1  0.0000000  0.6508444  3
   4887   4888   4889   4893     1  0.0000000  0.6508444  3
   4887   4888   4889   4902     1  0.0000000  0.6508444  3
   4888   4887   4885   4905     1  0.0000000  0.6508444  3
   4889   4888   4887   4894     1  0.0000000  0.6508444  3
   4889   4902   4884   4895     1  180.0000771  0.4184000  2
   4889   4902   4884   4895     1  0.0000000  1.6024720  3
   4893   4889   4888   4907     1  0.0000000  0.6508444  3
   4894   4887   4885   4905     1  0.0000000  4.9162000  2
   4894   4887   4885   4905     1  0.0000000  0.6024960  3
   4894   4887   4888   4907     1  0.0000000  0.6508444  3
   4895   4884   4885   4905     1  0.0000000  0.6508444  3
   4900   4895   4884   4902     1  0.0000000  4.9162000  2
   4900   4895   4884   4902     1  0.0000000  0.6024960  3
   4902   4884   4885   4905     1  0.0000000  4.9162000  2
   4902   4884   4885   4905     1  0.0000000  0.6024960  3
   4902   4889   4888   4907     1  0.0000000  0.6508444  3
   4908   4909   4911   4912     1  180.0000771  0.8368000  1
   4908   4909   4911   4912     1  180.0000771  1.0460000  2
   4908   4909   4911   4912     1  0.0000000  0.7531200  3
   4908   4909   4911   4918     1  0.0000000  0.6508444  3
   4908   4926   4913   4912     1  180.0000771  0.4184000  2
   4908   4926   4913   4912     1  0.0000000  1.6024720  3
   4908   4926   4913   4917     1  0.0000000  1.6038667  3
   4909   4908   4919   4924     1  0.0000000  0.6508444  3
   4909   4908   4926   4913     1  180.0000771  0.4184000  2
   4909   4908   4926   4913     1  0.0000000  1.6024720  3
   4909   4911   4912   4913     1  180.0000771  0.8368000  1
   4909   4911   4912   4913     1  180.0000771  1.0460000  2
   4909   4911   4912   4913     1  0.0000000  0.7531200  3
   4909   4911   4912   4931     1  0.0000000  0.6508444  3
   4911   4909   4908   4919     1  180.0000771  0.8368000  1
   4911   4909   4908   4919     1  180.0000771  1.0460000  2
   4911   4909   4908   4919     1  0.0000000  0.7531200  3
   4911   4909   4908   4926     1  0.0000000  0.6508444  3
   4911   4912   4913   4917     1  0.0000000  0.6508444  3
   4911   4912   4913   4926     1  0.0000000  0.6508444  3
   4912   4911   4909   4929     1  0.0000000  0.6508444  3
   4913   4912   4911   4918     1  0.0000000  0.6508444  3
   4913   4926   4908   4919     1  180.0000771  0.4184000  2
   4913   4926   4908   4919     1  0.0000000  1.6024720  3
   4917   4913   4912   4931     1  0.0000000  0.6508444  3
   4918   4911   4909   4929     1  0.0000000  4.9162000  2
   4918   4911   4909   4929     1  0.0000000  0.6024960  3
   4918   4911   4912   4931     1  0.0000000  0.6508444  3
   4919   4908   4909   4929     1  0.0000000  0.6508444  3
   4924   4919   4908   4926     1  0.0000000  4.9162000  2
   4924   4919   4908   4926     1  0.0000000  0.6024960  3
   4926   4908   4909   4929     1  0.0000000  4.9162000  2
   4926   4908   4909   4929     1  0.0000000  0.6024960  3
   4926   4913   4912   4931     1  0.0000000  0.6508444  3
   4933   4935   4937   4941     1  0.0000000  0.6508444  3
   4935   4937   4941   4942     1  0.0000000  0.6508444  3
   4935   4937   4941   4943     1  0.0000000  0.6508444  3
   4937   4941   4942   4953     1  0.0000000  0.6508444  3
   4937   4941   4943   4945     1  0.0000000  0.6508444  3
   4941   4942   4953   4956     1  0.0000000  0.6508444  3
   4941   4943   4945   4949     1  0.0000000  0.6508444  3
   4942   4953   4956   4957     1  180.0000771  0.0000000  2
   4942   4953   4956   5005     1  180.0000771  0.0000000  2
   4942   4941   4943   4945     1  0.0000000  0.6508444  3
   4943   4945   4949   4950     1  180.0000771  0.0000000  2
   4943   4945   4949   4981     1  180.0000771  0.0000000  2
   4943   4941   4942   4953     1  0.0000000  0.6508444  3
   4945   4949   4981   4962     1  180.0000771  6.0668000  2
   4945   4949   4981   4962     1  180.0000771  1.4644000  4
   4949   4981   4962   4963     1  0.0000000  1.2552000  3
   4949   4981   4962   4961     1  0.0000000  1.2552000  3
   4950   4949   4981   4962     1  180.0000771  6.0668000  2
   4950   4949   4981   4962     1  180.0000771  1.4644000  4
   4953   4956   5005   4986     1  180.0000771  6.0668000  2
   4953   4956   5005   4986     1  180.0000771  1.4644000  4
   4956   5005   4986   4987     1  0.0000000  1.2552000  3
   4956   5005   4986   4985     1  0.0000000  1.2552000  3
   4957   4956   5005   4986     1  180.0000771  6.0668000  2
   4957   4956   5005   4986     1  180.0000771  1.4644000  4
   4958   4959   4961   4962     1  180.0000771  0.8368000  1
   4958   4959   4961   4962     1  180.0000771  1.0460000  2
   4958   4959   4961   4962     1  0.0000000  0.7531200  3
   4958   4959   4961   4968     1  0.0000000  0.6508444  3
   4958   4976   4963   4967     1  0.0000000  1.6038667  3
   4958   4976   4963   4962     1  180.0000771  0.4184000  2
   4958   4976   4963   4962     1  0.0000000  1.6024720  3
   4959   4961   4962   4963     1  180.0000771  0.8368000  1
   4959   4961   4962   4963     1  180.0000771  1.0460000  2
   4959   4961   4962   4963     1  0.0000000  0.7531200  3
   4959   4961   4962   4981     1  0.0000000  0.6508444  3
   4959   4958   4969   4974     1  0.0000000  0.6508444  3
   4959   4958   4976   4963     1  180.0000771  0.4184000  2
   4959   4958   4976   4963     1  0.0000000  1.6024720  3
   4961   4962   4963   4967     1  0.0000000  0.6508444  3
   4961   4962   4963   4976     1  0.0000000  0.6508444  3
   4961   4959   4958   4969     1  180.0000771  0.8368000  1
   4961   4959   4958   4969     1  180.0000771  1.0460000  2
   4961   4959   4958   4969     1  0.0000000  0.7531200  3
   4961   4959   4958   4976     1  0.0000000  0.6508444  3
   4962   4961   4959   4979     1  0.0000000  0.6508444  3
   4963   4976   4958   4969     1  180.0000771  0.4184000  2
   4963   4976   4958   4969     1  0.0000000  1.6024720  3
   4963   4962   4961   4968     1  0.0000000  0.6508444  3
   4967   4963   4962   4981     1  0.0000000  0.6508444  3
   4968   4961   4962   4981     1  0.0000000  0.6508444  3
   4968   4961   4959   4979     1  0.0000000  4.9162000  2
   4968   4961   4959   4979     1  0.0000000  0.6024960  3
   4969   4958   4959   4979     1  0.0000000  0.6508444  3
   4974   4969   4958   4976     1  0.0000000  4.9162000  2
   4974   4969   4958   4976     1  0.0000000  0.6024960  3
   4976   4963   4962   4981     1  0.0000000  0.6508444  3
   4976   4958   4959   4979     1  0.0000000  4.9162000  2
   4976   4958   4959   4979     1  0.0000000  0.6024960  3
   4982   4983   4985   4986     1  180.0000771  0.8368000  1
   4982   4983   4985   4986     1  180.0000771  1.0460000  2
   4982   4983   4985   4986     1  0.0000000  0.7531200  3
   4982   4983   4985   4992     1  0.0000000  0.6508444  3
   4982   5000   4987   4991     1  0.0000000  1.6038667  3
   4982   5000   4987   4986     1  180.0000771  0.4184000  2
   4982   5000   4987   4986     1  0.0000000  1.6024720  3
   4983   4985   4986   4987     1  180.0000771  0.8368000  1
   4983   4985   4986   4987     1  180.0000771  1.0460000  2
   4983   4985   4986   4987     1  0.0000000  0.7531200  3
   4983   4985   4986   5005     1  0.0000000  0.6508444  3
   4983   4982   4993   4998     1  0.0000000  0.6508444  3
   4983   4982   5000   4987     1  180.0000771  0.4184000  2
   4983   4982   5000   4987     1  0.0000000  1.6024720  3
   4985   4986   4987   4991     1  0.0000000  0.6508444  3
   4985   4986   4987   5000     1  0.0000000  0.6508444  3
   4985   4983   4982   4993     1  180.0000771  0.8368000  1
   4985   4983   4982   4993     1  180.0000771  1.0460000  2
   4985   4983   4982   4993     1  0.0000000  0.7531200  3
   4985   4983   4982   5000     1  0.0000000  0.6508444  3
   4986   4985   4983   5003     1  0.0000000  0.6508444  3
   4987   5000   4982   4993     1  180.0000771  0.4184000  2
   4987   5000   4982   4993     1  0.0000000  1.6024720  3
   4987   4986   4985   4992     1  0.0000000  0.6508444  3
   4991   4987   4986   5005     1  0.0000000  0.6508444  3
   4992   4985   4986   5005     1  0.0000000  0.6508444  3
   4992   4985   4983   5003     1  0.0000000  4.9162000  2
   4992   4985   4983   5003     1  0.0000000  0.6024960  3
   4993   4982   4983   5003     1  0.0000000  0.6508444  3
   4998   4993   4982   5000     1  0.0000000  4.9162000  2
   4998   4993   4982   5000     1  0.0000000  0.6024960  3
   5000   4987   4986   5005     1  0.0000000  0.6508444  3
   5000   4982   4983   5003     1  0.0000000  4.9162000  2
   5000   4982   4983   5003     1  0.0000000  0.6024960  3
   5007   5009   5011   5015     1  0.0000000  0.6508444  3
   5009   5011   5015   5016     1  0.0000000  0.6508444  3
   5009   5011   5015   5017     1  0.0000000  0.6508444  3
   5011   5015   5016   5027     1  0.0000000  0.6508444  3
   5011   5015   5017   5019     1  0.0000000  0.6508444  3
   5015   5016   5027   5030     1  0.0000000  0.6508444  3
   5015   5017   5019   5023     1  0.0000000  0.6508444  3
   5016   5015   5017   5019     1  0.0000000  0.6508444  3
   5016   5027   5030   5031     1  180.0000771  0.0000000  2
   5016   5027   5030   5079     1  180.0000771  0.0000000  2
   5017   5015   5016   5027     1  0.0000000  0.6508444  3
   5017   5019   5023   5024     1  180.0000771  0.0000000  2
   5017   5019   5023   5055     1  180.0000771  0.0000000  2
   5019   5023   5055   5036     1  180.0000771  6.0668000  2
   5019   5023   5055   5036     1  180.0000771  1.4644000  4
   5023   5055   5036   5035     1  0.0000000  1.2552000  3
   5023   5055   5036   5037     1  0.0000000  1.2552000  3
   5024   5023   5055   5036     1  180.0000771  6.0668000  2
   5024   5023   5055   5036     1  180.0000771  1.4644000  4
   5027   5030   5079   5060     1  180.0000771  6.0668000  2
   5027   5030   5079   5060     1  180.0000771  1.4644000  4
   5030   5079   5060   5059     1  0.0000000  1.2552000  3
   5030   5079   5060   5061     1  0.0000000  1.2552000  3
   5031   5030   5079   5060     1  180.0000771  6.0668000  2
   5031   5030   5079   5060     1  180.0000771  1.4644000  4
   5032   5033   5035   5036     1  180.0000771  0.8368000  1
   5032   5033   5035   5036     1  180.0000771  1.0460000  2
   5032   5033   5035   5036     1  0.0000000  0.7531200  3
   5032   5033   5035   5042     1  0.0000000  0.6508444  3
   5032   5050   5037   5036     1  180.0000771  0.4184000  2
   5032   5050   5037   5036     1  0.0000000  1.6024720  3
   5032   5050   5037   5041     1  0.0000000  1.6038667  3
   5033   5032   5043   5048     1  0.0000000  0.6508444  3
   5033   5032   5050   5037     1  180.0000771  0.4184000  2
   5033   5032   5050   5037     1  0.0000000  1.6024720  3
   5033   5035   5036   5037     1  180.0000771  0.8368000  1
   5033   5035   5036   5037     1  180.0000771  1.0460000  2
   5033   5035   5036   5037     1  0.0000000  0.7531200  3
   5033   5035   5036   5055     1  0.0000000  0.6508444  3
   5035   5033   5032   5043     1  180.0000771  0.8368000  1
   5035   5033   5032   5043     1  180.0000771  1.0460000  2
   5035   5033   5032   5043     1  0.0000000  0.7531200  3
   5035   5033   5032   5050     1  0.0000000  0.6508444  3
   5035   5036   5037   5041     1  0.0000000  0.6508444  3
   5035   5036   5037   5050     1  0.0000000  0.6508444  3
   5036   5035   5033   5053     1  0.0000000  0.6508444  3
   5037   5036   5035   5042     1  0.0000000  0.6508444  3
   5037   5050   5032   5043     1  180.0000771  0.4184000  2
   5037   5050   5032   5043     1  0.0000000  1.6024720  3
   5041   5037   5036   5055     1  0.0000000  0.6508444  3
   5042   5035   5033   5053     1  0.0000000  4.9162000  2
   5042   5035   5033   5053     1  0.0000000  0.6024960  3
   5042   5035   5036   5055     1  0.0000000  0.6508444  3
   5043   5032   5033   5053     1  0.0000000  0.6508444  3
   5048   5043   5032   5050     1  0.0000000  4.9162000  2
   5048   5043   5032   5050     1  0.0000000  0.6024960  3
   5050   5032   5033   5053     1  0.0000000  4.9162000  2
   5050   5032   5033   5053     1  0.0000000  0.6024960  3
   5050   5037   5036   5055     1  0.0000000  0.6508444  3
   5056   5057   5059   5060     1  180.0000771  0.8368000  1
   5056   5057   5059   5060     1  180.0000771  1.0460000  2
   5056   5057   5059   5060     1  0.0000000  0.7531200  3
   5056   5057   5059   5066     1  0.0000000  0.6508444  3
   5056   5074   5061   5060     1  180.0000771  0.4184000  2
   5056   5074   5061   5060     1  0.0000000  1.6024720  3
   5056   5074   5061   5065     1  0.0000000  1.6038667  3
   5057   5056   5067   5072     1  0.0000000  0.6508444  3
   5057   5056   5074   5061     1  180.0000771  0.4184000  2
   5057   5056   5074   5061     1  0.0000000  1.6024720  3
   5057   5059   5060   5061     1  180.0000771  0.8368000  1
   5057   5059   5060   5061     1  180.0000771  1.0460000  2
   5057   5059   5060   5061     1  0.0000000  0.7531200  3
   5057   5059   5060   5079     1  0.0000000  0.6508444  3
   5059   5057   5056   5067     1  180.0000771  0.8368000  1
   5059   5057   5056   5067     1  180.0000771  1.0460000  2
   5059   5057   5056   5067     1  0.0000000  0.7531200  3
   5059   5057   5056   5074     1  0.0000000  0.6508444  3
   5059   5060   5061   5065     1  0.0000000  0.6508444  3
   5059   5060   5061   5074     1  0.0000000  0.6508444  3
   5060   5059   5057   5077     1  0.0000000  0.6508444  3
   5061   5060   5059   5066     1  0.0000000  0.6508444  3
   5061   5074   5056   5067     1  180.0000771  0.4184000  2
   5061   5074   5056   5067     1  0.0000000  1.6024720  3
   5065   5061   5060   5079     1  0.0000000  0.6508444  3
   5066   5059   5057   5077     1  0.0000000  4.9162000  2
   5066   5059   5057   5077     1  0.0000000  0.6024960  3
   5066   5059   5060   5079     1  0.0000000  0.6508444  3
   5067   5056   5057   5077     1  0.0000000  0.6508444  3
   5072   5067   5056   5074     1  0.0000000  4.9162000  2
   5072   5067   5056   5074     1  0.0000000  0.6024960  3
   5074   5056   5057   5077     1  0.0000000  4.9162000  2
   5074   5056   5057   5077     1  0.0000000  0.6024960  3
   5074   5061   5060   5079     1  0.0000000  0.6508444  3
   5081   5083   5085   5089     1  0.0000000  0.6508444  3
   5083   5085   5089   5090     1  0.0000000  0.6508444  3
   5083   5085   5089   5091     1  0.0000000  0.6508444  3
   5085   5089   5090   5101     1  0.0000000  0.6508444  3
   5085   5089   5091   5093     1  0.0000000  0.6508444  3
   5089   5090   5101   5104     1  0.0000000  0.6508444  3
   5089   5091   5093   5097     1  0.0000000  0.6508444  3
   5090   5101   5104   5105     1  180.0000771  0.0000000  2
   5090   5101   5104   5153     1  180.0000771  0.0000000  2
   5090   5089   5091   5093     1  0.0000000  0.6508444  3
   5091   5093   5097   5098     1  180.0000771  0.0000000  2
   5091   5093   5097   5129     1  180.0000771  0.0000000  2
   5091   5089   5090   5101     1  0.0000000  0.6508444  3
   5093   5097   5129   5110     1  180.0000771  6.0668000  2
   5093   5097   5129   5110     1  180.0000771  1.4644000  4
   5097   5129   5110   5111     1  0.0000000  1.2552000  3
   5097   5129   5110   5109     1  0.0000000  1.2552000  3
   5098   5097   5129   5110     1  180.0000771  6.0668000  2
   5098   5097   5129   5110     1  180.0000771  1.4644000  4
   5101   5104   5153   5134     1  180.0000771  6.0668000  2
   5101   5104   5153   5134     1  180.0000771  1.4644000  4
   5104   5153   5134   5135     1  0.0000000  1.2552000  3
   5104   5153   5134   5133     1  0.0000000  1.2552000  3
   5105   5104   5153   5134     1  180.0000771  6.0668000  2
   5105   5104   5153   5134     1  180.0000771  1.4644000  4
   5106   5107   5109   5110     1  180.0000771  0.8368000  1
   5106   5107   5109   5110     1  180.0000771  1.0460000  2
   5106   5107   5109   5110     1  0.0000000  0.7531200  3
   5106   5107   5109   5116     1  0.0000000  0.6508444  3
   5106   5124   5111   5115     1  0.0000000  1.6038667  3
   5106   5124   5111   5110     1  180.0000771  0.4184000  2
   5106   5124   5111   5110     1  0.0000000  1.6024720  3
   5107   5109   5110   5111     1  180.0000771  0.8368000  1
   5107   5109   5110   5111     1  180.0000771  1.0460000  2
   5107   5109   5110   5111     1  0.0000000  0.7531200  3
   5107   5109   5110   5129     1  0.0000000  0.6508444  3
   5107   5106   5117   5122     1  0.0000000  0.6508444  3
   5107   5106   5124   5111     1  180.0000771  0.4184000  2
   5107   5106   5124   5111     1  0.0000000  1.6024720  3
   5109   5110   5111   5115     1  0.0000000  0.6508444  3
   5109   5110   5111   5124     1  0.0000000  0.6508444  3
   5109   5107   5106   5117     1  180.0000771  0.8368000  1
   5109   5107   5106   5117     1  180.0000771  1.0460000  2
   5109   5107   5106   5117     1  0.0000000  0.7531200  3
   5109   5107   5106   5124     1  0.0000000  0.6508444  3
   5110   5109   5107   5127     1  0.0000000  0.6508444  3
   5111   5124   5106   5117     1  180.0000771  0.4184000  2
   5111   5124   5106   5117     1  0.0000000  1.6024720  3
   5111   5110   5109   5116     1  0.0000000  0.6508444  3
   5115   5111   5110   5129     1  0.0000000  0.6508444  3
   5116   5109   5110   5129     1  0.0000000  0.6508444  3
   5116   5109   5107   5127     1  0.0000000  4.9162000  2
   5116   5109   5107   5127     1  0.0000000  0.6024960  3
   5117   5106   5107   5127     1  0.0000000  0.6508444  3
   5122   5117   5106   5124     1  0.0000000  4.9162000  2
   5122   5117   5106   5124     1  0.0000000  0.6024960  3
   5124   5111   5110   5129     1  0.0000000  0.6508444  3
   5124   5106   5107   5127     1  0.0000000  4.9162000  2
   5124   5106   5107   5127     1  0.0000000  0.6024960  3
   5130   5131   5133   5134     1  180.0000771  0.8368000  1
   5130   5131   5133   5134     1  180.0000771  1.0460000  2
   5130   5131   5133   5134     1  0.0000000  0.7531200  3
   5130   5131   5133   5140     1  0.0000000  0.6508444  3
   5130   5148   5135   5139     1  0.0000000  1.6038667  3
   5130   5148   5135   5134     1  180.0000771  0.4184000  2
   5130   5148   5135   5134     1  0.0000000  1.6024720  3
   5131   5133   5134   5135     1  180.0000771  0.8368000  1
   5131   5133   5134   5135     1  180.0000771  1.0460000  2
   5131   5133   5134   5135     1  0.0000000  0.7531200  3
   5131   5133   5134   5153     1  0.0000000  0.6508444  3
   5131   5130   5141   5146     1  0.0000000  0.6508444  3
   5131   5130   5148   5135     1  180.0000771  0.4184000  2
   5131   5130   5148   5135     1  0.0000000  1.6024720  3
   5133   5134   5135   5139     1  0.0000000  0.6508444  3
   5133   5134   5135   5148     1  0.0000000  0.6508444  3
   5133   5131   5130   5141     1  180.0000771  0.8368000  1
   5133   5131   5130   5141     1  180.0000771  1.0460000  2
   5133   5131   5130   5141     1  0.0000000  0.7531200  3
   5133   5131   5130   5148     1  0.0000000  0.6508444  3
   5134   5133   5131   5151     1  0.0000000  0.6508444  3
   5135   5148   5130   5141     1  180.0000771  0.4184000  2
   5135   5148   5130   5141     1  0.0000000  1.6024720  3
   5135   5134   5133   5140     1  0.0000000  0.6508444  3
   5139   5135   5134   5153     1  0.0000000  0.6508444  3
   5140   5133   5134   5153     1  0.0000000  0.6508444  3
   5140   5133   5131   5151     1  0.0000000  4.9162000  2
   5140   5133   5131   5151     1  0.0000000  0.6024960  3
   5141   5130   5131   5151     1  0.0000000  0.6508444  3
   5146   5141   5130   5148     1  0.0000000  4.9162000  2
   5146   5141   5130   5148     1  0.0000000  0.6024960  3
   5148   5135   5134   5153     1  0.0000000  0.6508444  3
   5148   5130   5131   5151     1  0.0000000  4.9162000  2
   5148   5130   5131   5151     1  0.0000000  0.6024960  3
   5155   5157   5159   5163     1  0.0000000  0.6508444  3
   5157   5159   5163   5164     1  0.0000000  0.6508444  3
   5157   5159   5163   5165     1  0.0000000  0.6508444  3
   5159   5163   5164   5175     1  0.0000000  0.6508444  3
   5159   5163   5165   5167     1  0.0000000  0.6508444  3
   5163   5164   5175   5178     1  0.0000000  0.6508444  3
   5163   5165   5167   5171     1  0.0000000  0.6508444  3
   5164   5163   5165   5167     1  0.0000000  0.6508444  3
   5164   5175   5178   5179     1  180.0000771  0.0000000  2
   5164   5175   5178   5227     1  180.0000771  0.0000000  2
   5165   5163   5164   5175     1  0.0000000  0.6508444  3
   5165   5167   5171   5172     1  180.0000771  0.0000000  2
   5165   5167   5171   5203     1  180.0000771  0.0000000  2
   5167   5171   5203   5184     1  180.0000771  6.0668000  2
   5167   5171   5203   5184     1  180.0000771  1.4644000  4
   5171   5203   5184   5183     1  0.0000000  1.2552000  3
   5171   5203   5184   5185     1  0.0000000  1.2552000  3
   5172   5171   5203   5184     1  180.0000771  6.0668000  2
   5172   5171   5203   5184     1  180.0000771  1.4644000  4
   5175   5178   5227   5208     1  180.0000771  6.0668000  2
   5175   5178   5227   5208     1  180.0000771  1.4644000  4
   5178   5227   5208   5207     1  0.0000000  1.2552000  3
   5178   5227   5208   5209     1  0.0000000  1.2552000  3
   5179   5178   5227   5208     1  180.0000771  6.0668000  2
   5179   5178   5227   5208     1  180.0000771  1.4644000  4
   5180   5181   5183   5184     1  180.0000771  0.8368000  1
   5180   5181   5183   5184     1  180.0000771  1.0460000  2
   5180   5181   5183   5184     1  0.0000000  0.7531200  3
   5180   5181   5183   5190     1  0.0000000  0.6508444  3
   5180   5198   5185   5184     1  180.0000771  0.4184000  2
   5180   5198   5185   5184     1  0.0000000  1.6024720  3
   5180   5198   5185   5189     1  0.0000000  1.6038667  3
   5181   5180   5191   5196     1  0.0000000  0.6508444  3
   5181   5180   5198   5185     1  180.0000771  0.4184000  2
   5181   5180   5198   5185     1  0.0000000  1.6024720  3
   5181   5183   5184   5185     1  180.0000771  0.8368000  1
   5181   5183   5184   5185     1  180.0000771  1.0460000  2
   5181   5183   5184   5185     1  0.0000000  0.7531200  3
   5181   5183   5184   5203     1  0.0000000  0.6508444  3
   5183   5181   5180   5191     1  180.0000771  0.8368000  1
   5183   5181   5180   5191     1  180.0000771  1.0460000  2
   5183   5181   5180   5191     1  0.0000000  0.7531200  3
   5183   5181   5180   5198     1  0.0000000  0.6508444  3
   5183   5184   5185   5189     1  0.0000000  0.6508444  3
   5183   5184   5185   5198     1  0.0000000  0.6508444  3
   5184   5183   5181   5201     1  0.0000000  0.6508444  3
   5185   5184   5183   5190     1  0.0000000  0.6508444  3
   5185   5198   5180   5191     1  180.0000771  0.4184000  2
   5185   5198   5180   5191     1  0.0000000  1.6024720  3
   5189   5185   5184   5203     1  0.0000000  0.6508444  3
   5190   5183   5181   5201     1  0.0000000  4.9162000  2
   5190   5183   5181   5201     1  0.0000000  0.6024960  3
   5190   5183   5184   5203     1  0.0000000  0.6508444  3
   5191   5180   5181   5201     1  0.0000000  0.6508444  3
   5196   5191   5180   5198     1  0.0000000  4.9162000  2
   5196   5191   5180   5198     1  0.0000000  0.6024960  3
   5198   5180   5181   5201     1  0.0000000  4.9162000  2
   5198   5180   5181   5201     1  0.0000000  0.6024960  3
   5198   5185   5184   5203     1  0.0000000  0.6508444  3
   5204   5205   5207   5208     1  180.0000771  0.8368000  1
   5204   5205   5207   5208     1  180.0000771  1.0460000  2
   5204   5205   5207   5208     1  0.0000000  0.7531200  3
   5204   5205   5207   5214     1  0.0000000  0.6508444  3
   5204   5222   5209   5208     1  180.0000771  0.4184000  2
   5204   5222   5209   5208     1  0.0000000  1.6024720  3
   5204   5222   5209   5213     1  0.0000000  1.6038667  3
   5205   5204   5215   5220     1  0.0000000  0.6508444  3
   5205   5204   5222   5209     1  180.0000771  0.4184000  2
   5205   5204   5222   5209     1  0.0000000  1.6024720  3
   5205   5207   5208   5209     1  180.0000771  0.8368000  1
   5205   5207   5208   5209     1  180.0000771  1.0460000  2
   5205   5207   5208   5209     1  0.0000000  0.7531200  3
   5205   5207   5208   5227     1  0.0000000  0.6508444  3
   5207   5205   5204   5215     1  180.0000771  0.8368000  1
   5207   5205   5204   5215     1  180.0000771  1.0460000  2
   5207   5205   5204   5215     1  0.0000000  0.7531200  3
   5207   5205   5204   5222     1  0.0000000  0.6508444  3
   5207   5208   5209   5213     1  0.0000000  0.6508444  3
   5207   5208   5209   5222     1  0.0000000  0.6508444  3
   5208   5207   5205   5225     1  0.0000000  0.6508444  3
   5209   5208   5207   5214     1  0.0000000  0.6508444  3
   5209   5222   5204   5215     1  180.0000771  0.4184000  2
   5209   5222   5204   5215     1  0.0000000  1.6024720  3
   5213   5209   5208   5227     1  0.0000000  0.6508444  3
   5214   5207   5205   5225     1  0.0000000  4.9162000  2
   5214   5207   5205   5225     1  0.0000000  0.6024960  3
   5214   5207   5208   5227     1  0.0000000  0.6508444  3
   5215   5204   5205   5225     1  0.0000000  0.6508444  3
   5220   5215   5204   5222     1  0.0000000  4.9162000  2
   5220   5215   5204   5222     1  0.0000000  0.6024960  3
   5222   5204   5205   5225     1  0.0000000  4.9162000  2
   5222   5204   5205   5225     1  0.0000000  0.6024960  3
   5222   5209   5208   5227     1  0.0000000  0.6508444  3
   5229   5231   5233   5237     1  0.0000000  0.6508444  3
   5231   5233   5237   5238     1  0.0000000  0.6508444  3
   5231   5233   5237   5239     1  0.0000000  0.6508444  3
   5233   5237   5238   5249     1  0.0000000  0.6508444  3
   5233   5237   5239   5241     1  0.0000000  0.6508444  3
   5237   5238   5249   5252     1  0.0000000  0.6508444  3
   5237   5239   5241   5245     1  0.0000000  0.6508444  3
   5238   5249   5252   5253     1  180.0000771  0.0000000  2
   5238   5249   5252   5301     1  180.0000771  0.0000000  2
   5238   5237   5239   5241     1  0.0000000  0.6508444  3
   5239   5241   5245   5246     1  180.0000771  0.0000000  2
   5239   5241   5245   5277     1  180.0000771  0.0000000  2
   5239   5237   5238   5249     1  0.0000000  0.6508444  3
   5241   5245   5277   5258     1  180.0000771  6.0668000  2
   5241   5245   5277   5258     1  180.0000771  1.4644000  4
   5245   5277   5258   5259     1  0.0000000  1.2552000  3
   5245   5277   5258   5257     1  0.0000000  1.2552000  3
   5246   5245   5277   5258     1  180.0000771  6.0668000  2
   5246   5245   5277   5258     1  180.0000771  1.4644000  4
   5249   5252   5301   5282     1  180.0000771  6.0668000  2
   5249   5252   5301   5282     1  180.0000771  1.4644000  4
   5252   5301   5282   5283     1  0.0000000  1.2552000  3
   5252   5301   5282   5281     1  0.0000000  1.2552000  3
   5253   5252   5301   5282     1  180.0000771  6.0668000  2
   5253   5252   5301   5282     1  180.0000771  1.4644000  4
   5254   5255   5257   5258     1  180.0000771  0.8368000  1
   5254   5255   5257   5258     1  180.0000771  1.0460000  2
   5254   5255   5257   5258     1  0.0000000  0.7531200  3
   5254   5255   5257   5264     1  0.0000000  0.6508444  3
   5254   5272   5259   5263     1  0.0000000  1.6038667  3
   5254   5272   5259   5258     1  180.0000771  0.4184000  2
   5254   5272   5259   5258     1  0.0000000  1.6024720  3
   5255   5257   5258   5259     1  180.0000771  0.8368000  1
   5255   5257   5258   5259     1  180.0000771  1.0460000  2
   5255   5257   5258   5259     1  0.0000000  0.7531200  3
   5255   5257   5258   5277     1  0.0000000  0.6508444  3
   5255   5254   5265   5270     1  0.0000000  0.6508444  3
   5255   5254   5272   5259     1  180.0000771  0.4184000  2
   5255   5254   5272   5259     1  0.0000000  1.6024720  3
   5257   5258   5259   5263     1  0.0000000  0.6508444  3
   5257   5258   5259   5272     1  0.0000000  0.6508444  3
   5257   5255   5254   5265     1  180.0000771  0.8368000  1
   5257   5255   5254   5265     1  180.0000771  1.0460000  2
   5257   5255   5254   5265     1  0.0000000  0.7531200  3
   5257   5255   5254   5272     1  0.0000000  0.6508444  3
   5258   5257   5255   5275     1  0.0000000  0.6508444  3
   5259   5272   5254   5265     1  180.0000771  0.4184000  2
   5259   5272   5254   5265     1  0.0000000  1.6024720  3
   5259   5258   5257   5264     1  0.0000000  0.6508444  3
   5263   5259   5258   5277     1  0.0000000  0.6508444  3
   5264   5257   5258   5277     1  0.0000000  0.6508444  3
   5264   5257   5255   5275     1  0.0000000  4.9162000  2
   5264   5257   5255   5275     1  0.0000000  0.6024960  3
   5265   5254   5255   5275     1  0.0000000  0.6508444  3
   5270   5265   5254   5272     1  0.0000000  4.9162000  2
   5270   5265   5254   5272     1  0.0000000  0.6024960  3
   5272   5259   5258   5277     1  0.0000000  0.6508444  3
   5272   5254   5255   5275     1  0.0000000  4.9162000  2
   5272   5254   5255   5275     1  0.0000000  0.6024960  3
   5278   5279   5281   5282     1  180.0000771  0.8368000  1
   5278   5279   5281   5282     1  180.0000771  1.0460000  2
   5278   5279   5281   5282     1  0.0000000  0.7531200  3
   5278   5279   5281   5288     1  0.0000000  0.6508444  3
   5278   5296   5283   5287     1  0.0000000  1.6038667  3
   5278   5296   5283   5282     1  180.0000771  0.4184000  2
   5278   5296   5283   5282     1  0.0000000  1.6024720  3
   5279   5281   5282   5283     1  180.0000771  0.8368000  1
   5279   5281   5282   5283     1  180.0000771  1.0460000  2
   5279   5281   5282   5283     1  0.0000000  0.7531200  3
   5279   5281   5282   5301     1  0.0000000  0.6508444  3
   5279   5278   5289   5294     1  0.0000000  0.6508444  3
   5279   5278   5296   5283     1  180.0000771  0.4184000  2
   5279   5278   5296   5283     1  0.0000000  1.6024720  3
   5281   5282   5283   5287     1  0.0000000  0.6508444  3
   5281   5282   5283   5296     1  0.0000000  0.6508444  3
   5281   5279   5278   5289     1  180.0000771  0.8368000  1
   5281   5279   5278   5289     1  180.0000771  1.0460000  2
   5281   5279   5278   5289     1  0.0000000  0.7531200  3
   5281   5279   5278   5296     1  0.0000000  0.6508444  3
   5282   5281   5279   5299     1  0.0000000  0.6508444  3
   5283   5296   5278   5289     1  180.0000771  0.4184000  2
   5283   5296   5278   5289     1  0.0000000  1.6024720  3
   5283   5282   5281   5288     1  0.0000000  0.6508444  3
   5287   5283   5282   5301     1  0.0000000  0.6508444  3
   5288   5281   5282   5301     1  0.0000000  0.6508444  3
   5288   5281   5279   5299     1  0.0000000  4.9162000  2
   5288   5281   5279   5299     1  0.0000000  0.6024960  3
   5289   5278   5279   5299     1  0.0000000  0.6508444  3
   5294   5289   5278   5296     1  0.0000000  4.9162000  2
   5294   5289   5278   5296     1  0.0000000  0.6024960  3
   5296   5283   5282   5301     1  0.0000000  0.6508444  3
   5296   5278   5279   5299     1  0.0000000  4.9162000  2
   5296   5278   5279   5299     1  0.0000000  0.6024960  3
   5303   5305   5307   5311     1  0.0000000  0.6508444  3
   5305   5307   5311   5312     1  0.0000000  0.6508444  3
   5305   5307   5311   5313     1  0.0000000  0.6508444  3
   5307   5311   5312   5323     1  0.0000000  0.6508444  3
   5307   5311   5313   5315     1  0.0000000  0.6508444  3
   5311   5312   5323   5326     1  0.0000000  0.6508444  3
   5311   5313   5315   5319     1  0.0000000  0.6508444  3
   5312   5311   5313   5315     1  0.0000000  0.6508444  3
   5312   5323   5326   5327     1  180.0000771  0.0000000  2
   5312   5323   5326   5375     1  180.0000771  0.0000000  2
   5313   5311   5312   5323     1  0.0000000  0.6508444  3
   5313   5315   5319   5320     1  180.0000771  0.0000000  2
   5313   5315   5319   5351     1  180.0000771  0.0000000  2
   5315   5319   5351   5332     1  180.0000771  6.0668000  2
   5315   5319   5351   5332     1  180.0000771  1.4644000  4
   5319   5351   5332   5331     1  0.0000000  1.2552000  3
   5319   5351   5332   5333     1  0.0000000  1.2552000  3
   5320   5319   5351   5332     1  180.0000771  6.0668000  2
   5320   5319   5351   5332     1  180.0000771  1.4644000  4
   5323   5326   5375   5356     1  180.0000771  6.0668000  2
   5323   5326   5375   5356     1  180.0000771  1.4644000  4
   5326   5375   5356   5355     1  0.0000000  1.2552000  3
   5326   5375   5356   5357     1  0.0000000  1.2552000  3
   5327   5326   5375   5356     1  180.0000771  6.0668000  2
   5327   5326   5375   5356     1  180.0000771  1.4644000  4
   5328   5329   5331   5332     1  180.0000771  0.8368000  1
   5328   5329   5331   5332     1  180.0000771  1.0460000  2
   5328   5329   5331   5332     1  0.0000000  0.7531200  3
   5328   5329   5331   5338     1  0.0000000  0.6508444  3
   5328   5346   5333   5332     1  180.0000771  0.4184000  2
   5328   5346   5333   5332     1  0.0000000  1.6024720  3
   5328   5346   5333   5337     1  0.0000000  1.6038667  3
   5329   5328   5339   5344     1  0.0000000  0.6508444  3
   5329   5328   5346   5333     1  180.0000771  0.4184000  2
   5329   5328   5346   5333     1  0.0000000  1.6024720  3
   5329   5331   5332   5333     1  180.0000771  0.8368000  1
   5329   5331   5332   5333     1  180.0000771  1.0460000  2
   5329   5331   5332   5333     1  0.0000000  0.7531200  3
   5329   5331   5332   5351     1  0.0000000  0.6508444  3
   5331   5329   5328   5339     1  180.0000771  0.8368000  1
   5331   5329   5328   5339     1  180.0000771  1.0460000  2
   5331   5329   5328   5339     1  0.0000000  0.7531200  3
   5331   5329   5328   5346     1  0.0000000  0.6508444  3
   5331   5332   5333   5337     1  0.0000000  0.6508444  3
   5331   5332   5333   5346     1  0.0000000  0.6508444  3
   5332   5331   5329   5349     1  0.0000000  0.6508444  3
   5333   5332   5331   5338     1  0.0000000  0.6508444  3
   5333   5346   5328   5339     1  180.0000771  0.4184000  2
   5333   5346   5328   5339     1  0.0000000  1.6024720  3
   5337   5333   5332   5351     1  0.0000000  0.6508444  3
   5338   5331   5329   5349     1  0.0000000  4.9162000  2
   5338   5331   5329   5349     1  0.0000000  0.6024960  3
   5338   5331   5332   5351     1  0.0000000  0.6508444  3
   5339   5328   5329   5349     1  0.0000000  0.6508444  3
   5344   5339   5328   5346     1  0.0000000  4.9162000  2
   5344   5339   5328   5346     1  0.0000000  0.6024960  3
   5346   5328   5329   5349     1  0.0000000  4.9162000  2
   5346   5328   5329   5349     1  0.0000000  0.6024960  3
   5346   5333   5332   5351     1  0.0000000  0.6508444  3
   5352   5353   5355   5356     1  180.0000771  0.8368000  1
   5352   5353   5355   5356     1  180.0000771  1.0460000  2
   5352   5353   5355   5356     1  0.0000000  0.7531200  3
   5352   5353   5355   5362     1  0.0000000  0.6508444  3
   5352   5370   5357   5356     1  180.0000771  0.4184000  2
   5352   5370   5357   5356     1  0.0000000  1.6024720  3
   5352   5370   5357   5361     1  0.0000000  1.6038667  3
   5353   5352   5363   5368     1  0.0000000  0.6508444  3
   5353   5352   5370   5357     1  180.0000771  0.4184000  2
   5353   5352   5370   5357     1  0.0000000  1.6024720  3
   5353   5355   5356   5357     1  180.0000771  0.8368000  1
   5353   5355   5356   5357     1  180.0000771  1.0460000  2
   5353   5355   5356   5357     1  0.0000000  0.7531200  3
   5353   5355   5356   5375     1  0.0000000  0.6508444  3
   5355   5353   5352   5363     1  180.0000771  0.8368000  1
   5355   5353   5352   5363     1  180.0000771  1.0460000  2
   5355   5353   5352   5363     1  0.0000000  0.7531200  3
   5355   5353   5352   5370     1  0.0000000  0.6508444  3
   5355   5356   5357   5361     1  0.0000000  0.6508444  3
   5355   5356   5357   5370     1  0.0000000  0.6508444  3
   5356   5355   5353   5373     1  0.0000000  0.6508444  3
   5357   5356   5355   5362     1  0.0000000  0.6508444  3
   5357   5370   5352   5363     1  180.0000771  0.4184000  2
   5357   5370   5352   5363     1  0.0000000  1.6024720  3
   5361   5357   5356   5375     1  0.0000000  0.6508444  3
   5362   5355   5353   5373     1  0.0000000  4.9162000  2
   5362   5355   5353   5373     1  0.0000000  0.6024960  3
   5362   5355   5356   5375     1  0.0000000  0.6508444  3
   5363   5352   5353   5373     1  0.0000000  0.6508444  3
   5368   5363   5352   5370     1  0.0000000  4.9162000  2
   5368   5363   5352   5370     1  0.0000000  0.6024960  3
   5370   5352   5353   5373     1  0.0000000  4.9162000  2
   5370   5352   5353   5373     1  0.0000000  0.6024960  3
   5370   5357   5356   5375     1  0.0000000  0.6508444  3
   5377   5379   5381   5385     1  0.0000000  0.6508444  3
   5379   5381   5385   5386     1  0.0000000  0.6508444  3
   5379   5381   5385   5387     1  0.0000000  0.6508444  3
   5381   5385   5386   5397     1  0.0000000  0.6508444  3
   5381   5385   5387   5389     1  0.0000000  0.6508444  3
   5385   5386   5397   5400     1  0.0000000  0.6508444  3
   5385   5387   5389   5393     1  0.0000000  0.6508444  3
   5386   5397   5400   5401     1  180.0000771  0.0000000  2
   5386   5397   5400   5449     1  180.0000771  0.0000000  2
   5386   5385   5387   5389     1  0.0000000  0.6508444  3
   5387   5389   5393   5394     1  180.0000771  0.0000000  2
   5387   5389   5393   5425     1  180.0000771  0.0000000  2
   5387   5385   5386   5397     1  0.0000000  0.6508444  3
   5389   5393   5425   5406     1  180.0000771  6.0668000  2
   5389   5393   5425   5406     1  180.0000771  1.4644000  4
   5393   5425   5406   5407     1  0.0000000  1.2552000  3
   5393   5425   5406   5405     1  0.0000000  1.2552000  3
   5394   5393   5425   5406     1  180.0000771  6.0668000  2
   5394   5393   5425   5406     1  180.0000771  1.4644000  4
   5397   5400   5449   5430     1  180.0000771  6.0668000  2
   5397   5400   5449   5430     1  180.0000771  1.4644000  4
   5400   5449   5430   5431     1  0.0000000  1.2552000  3
   5400   5449   5430   5429     1  0.0000000  1.2552000  3
   5401   5400   5449   5430     1  180.0000771  6.0668000  2
   5401   5400   5449   5430     1  180.0000771  1.4644000  4
   5402   5403   5405   5406     1  180.0000771  0.8368000  1
   5402   5403   5405   5406     1  180.0000771  1.0460000  2
   5402   5403   5405   5406     1  0.0000000  0.7531200  3
   5402   5403   5405   5412     1  0.0000000  0.6508444  3
   5402   5420   5407   5411     1  0.0000000  1.6038667  3
   5402   5420   5407   5406     1  180.0000771  0.4184000  2
   5402   5420   5407   5406     1  0.0000000  1.6024720  3
   5403   5405   5406   5407     1  180.0000771  0.8368000  1
   5403   5405   5406   5407     1  180.0000771  1.0460000  2
   5403   5405   5406   5407     1  0.0000000  0.7531200  3
   5403   5405   5406   5425     1  0.0000000  0.6508444  3
   5403   5402   5413   5418     1  0.0000000  0.6508444  3
   5403   5402   5420   5407     1  180.0000771  0.4184000  2
   5403   5402   5420   5407     1  0.0000000  1.6024720  3
   5405   5406   5407   5411     1  0.0000000  0.6508444  3
   5405   5406   5407   5420     1  0.0000000  0.6508444  3
   5405   5403   5402   5413     1  180.0000771  0.8368000  1
   5405   5403   5402   5413     1  180.0000771  1.0460000  2
   5405   5403   5402   5413     1  0.0000000  0.7531200  3
   5405   5403   5402   5420     1  0.0000000  0.6508444  3
   5406   5405   5403   5423     1  0.0000000  0.6508444  3
   5407   5420   5402   5413     1  180.0000771  0.4184000  2
   5407   5420   5402   5413     1  0.0000000  1.6024720  3
   5407   5406   5405   5412     1  0.0000000  0.6508444  3
   5411   5407   5406   5425     1  0.0000000  0.6508444  3
   5412   5405   5406   5425     1  0.0000000  0.6508444  3
   5412   5405   5403   5423     1  0.0000000  4.9162000  2
   5412   5405   5403   5423     1  0.0000000  0.6024960  3
   5413   5402   5403   5423     1  0.0000000  0.6508444  3
   5418   5413   5402   5420     1  0.0000000  4.9162000  2
   5418   5413   5402   5420     1  0.0000000  0.6024960  3
   5420   5407   5406   5425     1  0.0000000  0.6508444  3
   5420   5402   5403   5423     1  0.0000000  4.9162000  2
   5420   5402   5403   5423     1  0.0000000  0.6024960  3
   5426   5427   5429   5430     1  180.0000771  0.8368000  1
   5426   5427   5429   5430     1  180.0000771  1.0460000  2
   5426   5427   5429   5430     1  0.0000000  0.7531200  3
   5426   5427   5429   5436     1  0.0000000  0.6508444  3
   5426   5444   5431   5435     1  0.0000000  1.6038667  3
   5426   5444   5431   5430     1  180.0000771  0.4184000  2
   5426   5444   5431   5430     1  0.0000000  1.6024720  3
   5427   5429   5430   5431     1  180.0000771  0.8368000  1
   5427   5429   5430   5431     1  180.0000771  1.0460000  2
   5427   5429   5430   5431     1  0.0000000  0.7531200  3
   5427   5429   5430   5449     1  0.0000000  0.6508444  3
   5427   5426   5437   5442     1  0.0000000  0.6508444  3
   5427   5426   5444   5431     1  180.0000771  0.4184000  2
   5427   5426   5444   5431     1  0.0000000  1.6024720  3
   5429   5430   5431   5435     1  0.0000000  0.6508444  3
   5429   5430   5431   5444     1  0.0000000  0.6508444  3
   5429   5427   5426   5437     1  180.0000771  0.8368000  1
   5429   5427   5426   5437     1  180.0000771  1.0460000  2
   5429   5427   5426   5437     1  0.0000000  0.7531200  3
   5429   5427   5426   5444     1  0.0000000  0.6508444  3
   5430   5429   5427   5447     1  0.0000000  0.6508444  3
   5431   5444   5426   5437     1  180.0000771  0.4184000  2
   5431   5444   5426   5437     1  0.0000000  1.6024720  3
   5431   5430   5429   5436     1  0.0000000  0.6508444  3
   5435   5431   5430   5449     1  0.0000000  0.6508444  3
   5436   5429   5430   5449     1  0.0000000  0.6508444  3
   5436   5429   5427   5447     1  0.0000000  4.9162000  2
   5436   5429   5427   5447     1  0.0000000  0.6024960  3
   5437   5426   5427   5447     1  0.0000000  0.6508444  3
   5442   5437   5426   5444     1  0.0000000  4.9162000  2
   5442   5437   5426   5444     1  0.0000000  0.6024960  3
   5444   5431   5430   5449     1  0.0000000  0.6508444  3
   5444   5426   5427   5447     1  0.0000000  4.9162000  2
   5444   5426   5427   5447     1  0.0000000  0.6024960  3
   5451   5453   5455   5459     1  0.0000000  0.6508444  3
   5453   5455   5459   5460     1  0.0000000  0.6508444  3
   5453   5455   5459   5461     1  0.0000000  0.6508444  3
   5455   5459   5460   5471     1  0.0000000  0.6508444  3
   5455   5459   5461   5463     1  0.0000000  0.6508444  3
   5459   5460   5471   5474     1  0.0000000  0.6508444  3
   5459   5461   5463   5467     1  0.0000000  0.6508444  3
   5460   5459   5461   5463     1  0.0000000  0.6508444  3
   5460   5471   5474   5475     1  180.0000771  0.0000000  2
   5460   5471   5474   5523     1  180.0000771  0.0000000  2
   5461   5459   5460   5471     1  0.0000000  0.6508444  3
   5461   5463   5467   5468     1  180.0000771  0.0000000  2
   5461   5463   5467   5499     1  180.0000771  0.0000000  2
   5463   5467   5499   5480     1  180.0000771  6.0668000  2
   5463   5467   5499   5480     1  180.0000771  1.4644000  4
   5467   5499   5480   5479     1  0.0000000  1.2552000  3
   5467   5499   5480   5481     1  0.0000000  1.2552000  3
   5468   5467   5499   5480     1  180.0000771  6.0668000  2
   5468   5467   5499   5480     1  180.0000771  1.4644000  4
   5471   5474   5523   5504     1  180.0000771  6.0668000  2
   5471   5474   5523   5504     1  180.0000771  1.4644000  4
   5474   5523   5504   5503     1  0.0000000  1.2552000  3
   5474   5523   5504   5505     1  0.0000000  1.2552000  3
   5475   5474   5523   5504     1  180.0000771  6.0668000  2
   5475   5474   5523   5504     1  180.0000771  1.4644000  4
   5476   5477   5479   5480     1  180.0000771  0.8368000  1
   5476   5477   5479   5480     1  180.0000771  1.0460000  2
   5476   5477   5479   5480     1  0.0000000  0.7531200  3
   5476   5477   5479   5486     1  0.0000000  0.6508444  3
   5476   5494   5481   5480     1  180.0000771  0.4184000  2
   5476   5494   5481   5480     1  0.0000000  1.6024720  3
   5476   5494   5481   5485     1  0.0000000  1.6038667  3
   5477   5476   5487   5492     1  0.0000000  0.6508444  3
   5477   5476   5494   5481     1  180.0000771  0.4184000  2
   5477   5476   5494   5481     1  0.0000000  1.6024720  3
   5477   5479   5480   5481     1  180.0000771  0.8368000  1
   5477   5479   5480   5481     1  180.0000771  1.0460000  2
   5477   5479   5480   5481     1  0.0000000  0.7531200  3
   5477   5479   5480   5499     1  0.0000000  0.6508444  3
   5479   5477   5476   5487     1  180.0000771  0.8368000  1
   5479   5477   5476   5487     1  180.0000771  1.0460000  2
   5479   5477   5476   5487     1  0.0000000  0.7531200  3
   5479   5477   5476   5494     1  0.0000000  0.6508444  3
   5479   5480   5481   5485     1  0.0000000  0.6508444  3
   5479   5480   5481   5494     1  0.0000000  0.6508444  3
   5480   5479   5477   5497     1  0.0000000  0.6508444  3
   5481   5480   5479   5486     1  0.0000000  0.6508444  3
   5481   5494   5476   5487     1  180.0000771  0.4184000  2
   5481   5494   5476   5487     1  0.0000000  1.6024720  3
   5485   5481   5480   5499     1  0.0000000  0.6508444  3
   5486   5479   5477   5497     1  0.0000000  4.9162000  2
   5486   5479   5477   5497     1  0.0000000  0.6024960  3
   5486   5479   5480   5499     1  0.0000000  0.6508444  3
   5487   5476   5477   5497     1  0.0000000  0.6508444  3
   5492   5487   5476   5494     1  0.0000000  4.9162000  2
   5492   5487   5476   5494     1  0.0000000  0.6024960  3
   5494   5476   5477   5497     1  0.0000000  4.9162000  2
   5494   5476   5477   5497     1  0.0000000  0.6024960  3
   5494   5481   5480   5499     1  0.0000000  0.6508444  3
   5500   5501   5503   5504     1  180.0000771  0.8368000  1
   5500   5501   5503   5504     1  180.0000771  1.0460000  2
   5500   5501   5503   5504     1  0.0000000  0.7531200  3
   5500   5501   5503   5510     1  0.0000000  0.6508444  3
   5500   5518   5505   5504     1  180.0000771  0.4184000  2
   5500   5518   5505   5504     1  0.0000000  1.6024720  3
   5500   5518   5505   5509     1  0.0000000  1.6038667  3
   5501   5500   5511   5516     1  0.0000000  0.6508444  3
   5501   5500   5518   5505     1  180.0000771  0.4184000  2
   5501   5500   5518   5505     1  0.0000000  1.6024720  3
   5501   5503   5504   5505     1  180.0000771  0.8368000  1
   5501   5503   5504   5505     1  180.0000771  1.0460000  2
   5501   5503   5504   5505     1  0.0000000  0.7531200  3
   5501   5503   5504   5523     1  0.0000000  0.6508444  3
   5503   5501   5500   5511     1  180.0000771  0.8368000  1
   5503   5501   5500   5511     1  180.0000771  1.0460000  2
   5503   5501   5500   5511     1  0.0000000  0.7531200  3
   5503   5501   5500   5518     1  0.0000000  0.6508444  3
   5503   5504   5505   5509     1  0.0000000  0.6508444  3
   5503   5504   5505   5518     1  0.0000000  0.6508444  3
   5504   5503   5501   5521     1  0.0000000  0.6508444  3
   5505   5504   5503   5510     1  0.0000000  0.6508444  3
   5505   5518   5500   5511     1  180.0000771  0.4184000  2
   5505   5518   5500   5511     1  0.0000000  1.6024720  3
   5509   5505   5504   5523     1  0.0000000  0.6508444  3
   5510   5503   5501   5521     1  0.0000000  4.9162000  2
   5510   5503   5501   5521     1  0.0000000  0.6024960  3
   5510   5503   5504   5523     1  0.0000000  0.6508444  3
   5511   5500   5501   5521     1  0.0000000  0.6508444  3
   5516   5511   5500   5518     1  0.0000000  4.9162000  2
   5516   5511   5500   5518     1  0.0000000  0.6024960  3
   5518   5500   5501   5521     1  0.0000000  4.9162000  2
   5518   5500   5501   5521     1  0.0000000  0.6024960  3
   5518   5505   5504   5523     1  0.0000000  0.6508444  3
   5525   5527   5529   5533     1  0.0000000  0.6508444  3
   5527   5529   5533   5534     1  0.0000000  0.6508444  3
   5527   5529   5533   5535     1  0.0000000  0.6508444  3
   5529   5533   5534   5545     1  0.0000000  0.6508444  3
   5529   5533   5535   5537     1  0.0000000  0.6508444  3
   5533   5534   5545   5548     1  0.0000000  0.6508444  3
   5533   5535   5537   5541     1  0.0000000  0.6508444  3
   5534   5545   5548   5549     1  180.0000771  0.0000000  2
   5534   5545   5548   5597     1  180.0000771  0.0000000  2
   5534   5533   5535   5537     1  0.0000000  0.6508444  3
   5535   5537   5541   5542     1  180.0000771  0.0000000  2
   5535   5537   5541   5573     1  180.0000771  0.0000000  2
   5535   5533   5534   5545     1  0.0000000  0.6508444  3
   5537   5541   5573   5554     1  180.0000771  6.0668000  2
   5537   5541   5573   5554     1  180.0000771  1.4644000  4
   5541   5573   5554   5555     1  0.0000000  1.2552000  3
   5541   5573   5554   5553     1  0.0000000  1.2552000  3
   5542   5541   5573   5554     1  180.0000771  6.0668000  2
   5542   5541   5573   5554     1  180.0000771  1.4644000  4
   5545   5548   5597   5578     1  180.0000771  6.0668000  2
   5545   5548   5597   5578     1  180.0000771  1.4644000  4
   5548   5597   5578   5579     1  0.0000000  1.2552000  3
   5548   5597   5578   5577     1  0.0000000  1.2552000  3
   5549   5548   5597   5578     1  180.0000771  6.0668000  2
   5549   5548   5597   5578     1  180.0000771  1.4644000  4
   5550   5551   5553   5554     1  180.0000771  0.8368000  1
   5550   5551   5553   5554     1  180.0000771  1.0460000  2
   5550   5551   5553   5554     1  0.0000000  0.7531200  3
   5550   5551   5553   5560     1  0.0000000  0.6508444  3
   5550   5568   5555   5559     1  0.0000000  1.6038667  3
   5550   5568   5555   5554     1  180.0000771  0.4184000  2
   5550   5568   5555   5554     1  0.0000000  1.6024720  3
   5551   5553   5554   5555     1  180.0000771  0.8368000  1
   5551   5553   5554   5555     1  180.0000771  1.0460000  2
   5551   5553   5554   5555     1  0.0000000  0.7531200  3
   5551   5553   5554   5573     1  0.0000000  0.6508444  3
   5551   5550   5561   5566     1  0.0000000  0.6508444  3
   5551   5550   5568   5555     1  180.0000771  0.4184000  2
   5551   5550   5568   5555     1  0.0000000  1.6024720  3
   5553   5554   5555   5559     1  0.0000000  0.6508444  3
   5553   5554   5555   5568     1  0.0000000  0.6508444  3
   5553   5551   5550   5561     1  180.0000771  0.8368000  1
   5553   5551   5550   5561     1  180.0000771  1.0460000  2
   5553   5551   5550   5561     1  0.0000000  0.7531200  3
   5553   5551   5550   5568     1  0.0000000  0.6508444  3
   5554   5553   5551   5571     1  0.0000000  0.6508444  3
   5555   5568   5550   5561     1  180.0000771  0.4184000  2
   5555   5568   5550   5561     1  0.0000000  1.6024720  3
   5555   5554   5553   5560     1  0.0000000  0.6508444  3
   5559   5555   5554   5573     1  0.0000000  0.6508444  3
   5560   5553   5554   5573     1  0.0000000  0.6508444  3
   5560   5553   5551   5571     1  0.0000000  4.9162000  2
   5560   5553   5551   5571     1  0.0000000  0.6024960  3
   5561   5550   5551   5571     1  0.0000000  0.6508444  3
   5566   5561   5550   5568     1  0.0000000  4.9162000  2
   5566   5561   5550   5568     1  0.0000000  0.6024960  3
   5568   5555   5554   5573     1  0.0000000  0.6508444  3
   5568   5550   5551   5571     1  0.0000000  4.9162000  2
   5568   5550   5551   5571     1  0.0000000  0.6024960  3
   5574   5575   5577   5578     1  180.0000771  0.8368000  1
   5574   5575   5577   5578     1  180.0000771  1.0460000  2
   5574   5575   5577   5578     1  0.0000000  0.7531200  3
   5574   5575   5577   5584     1  0.0000000  0.6508444  3
   5574   5592   5579   5583     1  0.0000000  1.6038667  3
   5574   5592   5579   5578     1  180.0000771  0.4184000  2
   5574   5592   5579   5578     1  0.0000000  1.6024720  3
   5575   5577   5578   5579     1  180.0000771  0.8368000  1
   5575   5577   5578   5579     1  180.0000771  1.0460000  2
   5575   5577   5578   5579     1  0.0000000  0.7531200  3
   5575   5577   5578   5597     1  0.0000000  0.6508444  3
   5575   5574   5585   5590     1  0.0000000  0.6508444  3
   5575   5574   5592   5579     1  180.0000771  0.4184000  2
   5575   5574   5592   5579     1  0.0000000  1.6024720  3
   5577   5578   5579   5583     1  0.0000000  0.6508444  3
   5577   5578   5579   5592     1  0.0000000  0.6508444  3
   5577   5575   5574   5585     1  180.0000771  0.8368000  1
   5577   5575   5574   5585     1  180.0000771  1.0460000  2
   5577   5575   5574   5585     1  0.0000000  0.7531200  3
   5577   5575   5574   5592     1  0.0000000  0.6508444  3
   5578   5577   5575   5595     1  0.0000000  0.6508444  3
   5579   5592   5574   5585     1  180.0000771  0.4184000  2
   5579   5592   5574   5585     1  0.0000000  1.6024720  3
   5579   5578   5577   5584     1  0.0000000  0.6508444  3
   5583   5579   5578   5597     1  0.0000000  0.6508444  3
   5584   5577   5578   5597     1  0.0000000  0.6508444  3
   5584   5577   5575   5595     1  0.0000000  4.9162000  2
   5584   5577   5575   5595     1  0.0000000  0.6024960  3
   5585   5574   5575   5595     1  0.0000000  0.6508444  3
   5590   5585   5574   5592     1  0.0000000  4.9162000  2
   5590   5585   5574   5592     1  0.0000000  0.6024960  3
   5592   5579   5578   5597     1  0.0000000  0.6508444  3
   5592   5574   5575   5595     1  0.0000000  4.9162000  2
   5592   5574   5575   5595     1  0.0000000  0.6024960  3
   5599   5601   5603   5607     1  0.0000000  0.6508444  3
   5601   5603   5607   5608     1  0.0000000  0.6508444  3
   5601   5603   5607   5609     1  0.0000000  0.6508444  3
   5603   5607   5608   5619     1  0.0000000  0.6508444  3
   5603   5607   5609   5611     1  0.0000000  0.6508444  3
   5607   5608   5619   5622     1  0.0000000  0.6508444  3
   5607   5609   5611   5615     1  0.0000000  0.6508444  3
   5608   5607   5609   5611     1  0.0000000  0.6508444  3
   5608   5619   5622   5623     1  180.0000771  0.0000000  2
   5608   5619   5622   5671     1  180.0000771  0.0000000  2
   5609   5607   5608   5619     1  0.0000000  0.6508444  3
   5609   5611   5615   5616     1  180.0000771  0.0000000  2
   5609   5611   5615   5647     1  180.0000771  0.0000000  2
   5611   5615   5647   5628     1  180.0000771  6.0668000  2
   5611   5615   5647   5628     1  180.0000771  1.4644000  4
   5615   5647   5628   5627     1  0.0000000  1.2552000  3
   5615   5647   5628   5629     1  0.0000000  1.2552000  3
   5616   5615   5647   5628     1  180.0000771  6.0668000  2
   5616   5615   5647   5628     1  180.0000771  1.4644000  4
   5619   5622   5671   5652     1  180.0000771  6.0668000  2
   5619   5622   5671   5652     1  180.0000771  1.4644000  4
   5622   5671   5652   5651     1  0.0000000  1.2552000  3
   5622   5671   5652   5653     1  0.0000000  1.2552000  3
   5623   5622   5671   5652     1  180.0000771  6.0668000  2
   5623   5622   5671   5652     1  180.0000771  1.4644000  4
   5624   5625   5627   5628     1  180.0000771  0.8368000  1
   5624   5625   5627   5628     1  180.0000771  1.0460000  2
   5624   5625   5627   5628     1  0.0000000  0.7531200  3
   5624   5625   5627   5634     1  0.0000000  0.6508444  3
   5624   5642   5629   5628     1  180.0000771  0.4184000  2
   5624   5642   5629   5628     1  0.0000000  1.6024720  3
   5624   5642   5629   5633     1  0.0000000  1.6038667  3
   5625   5624   5635   5640     1  0.0000000  0.6508444  3
   5625   5624   5642   5629     1  180.0000771  0.4184000  2
   5625   5624   5642   5629     1  0.0000000  1.6024720  3
   5625   5627   5628   5629     1  180.0000771  0.8368000  1
   5625   5627   5628   5629     1  180.0000771  1.0460000  2
   5625   5627   5628   5629     1  0.0000000  0.7531200  3
   5625   5627   5628   5647     1  0.0000000  0.6508444  3
   5627   5625   5624   5635     1  180.0000771  0.8368000  1
   5627   5625   5624   5635     1  180.0000771  1.0460000  2
   5627   5625   5624   5635     1  0.0000000  0.7531200  3
   5627   5625   5624   5642     1  0.0000000  0.6508444  3
   5627   5628   5629   5633     1  0.0000000  0.6508444  3
   5627   5628   5629   5642     1  0.0000000  0.6508444  3
   5628   5627   5625   5645     1  0.0000000  0.6508444  3
   5629   5628   5627   5634     1  0.0000000  0.6508444  3
   5629   5642   5624   5635     1  180.0000771  0.4184000  2
   5629   5642   5624   5635     1  0.0000000  1.6024720  3
   5633   5629   5628   5647     1  0.0000000  0.6508444  3
   5634   5627   5625   5645     1  0.0000000  4.9162000  2
   5634   5627   5625   5645     1  0.0000000  0.6024960  3
   5634   5627   5628   5647     1  0.0000000  0.6508444  3
   5635   5624   5625   5645     1  0.0000000  0.6508444  3
   5640   5635   5624   5642     1  0.0000000  4.9162000  2
   5640   5635   5624   5642     1  0.0000000  0.6024960  3
   5642   5624   5625   5645     1  0.0000000  4.9162000  2
   5642   5624   5625   5645     1  0.0000000  0.6024960  3
   5642   5629   5628   5647     1  0.0000000  0.6508444  3
   5648   5649   5651   5652     1  180.0000771  0.8368000  1
   5648   5649   5651   5652     1  180.0000771  1.0460000  2
   5648   5649   5651   5652     1  0.0000000  0.7531200  3
   5648   5649   5651   5658     1  0.0000000  0.6508444  3
   5648   5666   5653   5652     1  180.0000771  0.4184000  2
   5648   5666   5653   5652     1  0.0000000  1.6024720  3
   5648   5666   5653   5657     1  0.0000000  1.6038667  3
   5649   5648   5659   5664     1  0.0000000  0.6508444  3
   5649   5648   5666   5653     1  180.0000771  0.4184000  2
   5649   5648   5666   5653     1  0.0000000  1.6024720  3
   5649   5651   5652   5653     1  180.0000771  0.8368000  1
   5649   5651   5652   5653     1  180.0000771  1.0460000  2
   5649   5651   5652   5653     1  0.0000000  0.7531200  3
   5649   5651   5652   5671     1  0.0000000  0.6508444  3
   5651   5649   5648   5659     1  180.0000771  0.8368000  1
   5651   5649   5648   5659     1  180.0000771  1.0460000  2
   5651   5649   5648   5659     1  0.0000000  0.7531200  3
   5651   5649   5648   5666     1  0.0000000  0.6508444  3
   5651   5652   5653   5657     1  0.0000000  0.6508444  3
   5651   5652   5653   5666     1  0.0000000  0.6508444  3
   5652   5651   5649   5669     1  0.0000000  0.6508444  3
   5653   5652   5651   5658     1  0.0000000  0.6508444  3
   5653   5666   5648   5659     1  180.0000771  0.4184000  2
   5653   5666   5648   5659     1  0.0000000  1.6024720  3
   5657   5653   5652   5671     1  0.0000000  0.6508444  3
   5658   5651   5649   5669     1  0.0000000  4.9162000  2
   5658   5651   5649   5669     1  0.0000000  0.6024960  3
   5658   5651   5652   5671     1  0.0000000  0.6508444  3
   5659   5648   5649   5669     1  0.0000000  0.6508444  3
   5664   5659   5648   5666     1  0.0000000  4.9162000  2
   5664   5659   5648   5666     1  0.0000000  0.6024960  3
   5666   5648   5649   5669     1  0.0000000  4.9162000  2
   5666   5648   5649   5669     1  0.0000000  0.6024960  3
   5666   5653   5652   5671     1  0.0000000  0.6508444  3
   5673   5675   5677   5681     1  0.0000000  0.6508444  3
   5675   5677   5681   5682     1  0.0000000  0.6508444  3
   5675   5677   5681   5683     1  0.0000000  0.6508444  3
   5677   5681   5682   5693     1  0.0000000  0.6508444  3
   5677   5681   5683   5685     1  0.0000000  0.6508444  3
   5681   5682   5693   5696     1  0.0000000  0.6508444  3
   5681   5683   5685   5689     1  0.0000000  0.6508444  3
   5682   5693   5696   5697     1  180.0000771  0.0000000  2
   5682   5693   5696   5745     1  180.0000771  0.0000000  2
   5682   5681   5683   5685     1  0.0000000  0.6508444  3
   5683   5685   5689   5690     1  180.0000771  0.0000000  2
   5683   5685   5689   5721     1  180.0000771  0.0000000  2
   5683   5681   5682   5693     1  0.0000000  0.6508444  3
   5685   5689   5721   5702     1  180.0000771  6.0668000  2
   5685   5689   5721   5702     1  180.0000771  1.4644000  4
   5689   5721   5702   5703     1  0.0000000  1.2552000  3
   5689   5721   5702   5701     1  0.0000000  1.2552000  3
   5690   5689   5721   5702     1  180.0000771  6.0668000  2
   5690   5689   5721   5702     1  180.0000771  1.4644000  4
   5693   5696   5745   5726     1  180.0000771  6.0668000  2
   5693   5696   5745   5726     1  180.0000771  1.4644000  4
   5696   5745   5726   5727     1  0.0000000  1.2552000  3
   5696   5745   5726   5725     1  0.0000000  1.2552000  3
   5697   5696   5745   5726     1  180.0000771  6.0668000  2
   5697   5696   5745   5726     1  180.0000771  1.4644000  4
   5698   5699   5701   5702     1  180.0000771  0.8368000  1
   5698   5699   5701   5702     1  180.0000771  1.0460000  2
   5698   5699   5701   5702     1  0.0000000  0.7531200  3
   5698   5699   5701   5708     1  0.0000000  0.6508444  3
   5698   5716   5703   5707     1  0.0000000  1.6038667  3
   5698   5716   5703   5702     1  180.0000771  0.4184000  2
   5698   5716   5703   5702     1  0.0000000  1.6024720  3
   5699   5701   5702   5703     1  180.0000771  0.8368000  1
   5699   5701   5702   5703     1  180.0000771  1.0460000  2
   5699   5701   5702   5703     1  0.0000000  0.7531200  3
   5699   5701   5702   5721     1  0.0000000  0.6508444  3
   5699   5698   5709   5714     1  0.0000000  0.6508444  3
   5699   5698   5716   5703     1  180.0000771  0.4184000  2
   5699   5698   5716   5703     1  0.0000000  1.6024720  3
   5701   5702   5703   5707     1  0.0000000  0.6508444  3
   5701   5702   5703   5716     1  0.0000000  0.6508444  3
   5701   5699   5698   5709     1  180.0000771  0.8368000  1
   5701   5699   5698   5709     1  180.0000771  1.0460000  2
   5701   5699   5698   5709     1  0.0000000  0.7531200  3
   5701   5699   5698   5716     1  0.0000000  0.6508444  3
   5702   5701   5699   5719     1  0.0000000  0.6508444  3
   5703   5716   5698   5709     1  180.0000771  0.4184000  2
   5703   5716   5698   5709     1  0.0000000  1.6024720  3
   5703   5702   5701   5708     1  0.0000000  0.6508444  3
   5707   5703   5702   5721     1  0.0000000  0.6508444  3
   5708   5701   5702   5721     1  0.0000000  0.6508444  3
   5708   5701   5699   5719     1  0.0000000  4.9162000  2
   5708   5701   5699   5719     1  0.0000000  0.6024960  3
   5709   5698   5699   5719     1  0.0000000  0.6508444  3
   5714   5709   5698   5716     1  0.0000000  4.9162000  2
   5714   5709   5698   5716     1  0.0000000  0.6024960  3
   5716   5703   5702   5721     1  0.0000000  0.6508444  3
   5716   5698   5699   5719     1  0.0000000  4.9162000  2
   5716   5698   5699   5719     1  0.0000000  0.6024960  3
   5722   5723   5725   5726     1  180.0000771  0.8368000  1
   5722   5723   5725   5726     1  180.0000771  1.0460000  2
   5722   5723   5725   5726     1  0.0000000  0.7531200  3
   5722   5723   5725   5732     1  0.0000000  0.6508444  3
   5722   5740   5727   5731     1  0.0000000  1.6038667  3
   5722   5740   5727   5726     1  180.0000771  0.4184000  2
   5722   5740   5727   5726     1  0.0000000  1.6024720  3
   5723   5725   5726   5727     1  180.0000771  0.8368000  1
   5723   5725   5726   5727     1  180.0000771  1.0460000  2
   5723   5725   5726   5727     1  0.0000000  0.7531200  3
   5723   5725   5726   5745     1  0.0000000  0.6508444  3
   5723   5722   5733   5738     1  0.0000000  0.6508444  3
   5723   5722   5740   5727     1  180.0000771  0.4184000  2
   5723   5722   5740   5727     1  0.0000000  1.6024720  3
   5725   5726   5727   5731     1  0.0000000  0.6508444  3
   5725   5726   5727   5740     1  0.0000000  0.6508444  3
   5725   5723   5722   5733     1  180.0000771  0.8368000  1
   5725   5723   5722   5733     1  180.0000771  1.0460000  2
   5725   5723   5722   5733     1  0.0000000  0.7531200  3
   5725   5723   5722   5740     1  0.0000000  0.6508444  3
   5726   5725   5723   5743     1  0.0000000  0.6508444  3
   5727   5740   5722   5733     1  180.0000771  0.4184000  2
   5727   5740   5722   5733     1  0.0000000  1.6024720  3
   5727   5726   5725   5732     1  0.0000000  0.6508444  3
   5731   5727   5726   5745     1  0.0000000  0.6508444  3
   5732   5725   5726   5745     1  0.0000000  0.6508444  3
   5732   5725   5723   5743     1  0.0000000  4.9162000  2
   5732   5725   5723   5743     1  0.0000000  0.6024960  3
   5733   5722   5723   5743     1  0.0000000  0.6508444  3
   5738   5733   5722   5740     1  0.0000000  4.9162000  2
   5738   5733   5722   5740     1  0.0000000  0.6024960  3
   5740   5727   5726   5745     1  0.0000000  0.6508444  3
   5740   5722   5723   5743     1  0.0000000  4.9162000  2
   5740   5722   5723   5743     1  0.0000000  0.6024960  3
   5747   5749   5751   5755     1  0.0000000  0.6508444  3
   5749   5751   5755   5756     1  0.0000000  0.6508444  3
   5749   5751   5755   5757     1  0.0000000  0.6508444  3
   5751   5755   5756   5767     1  0.0000000  0.6508444  3
   5751   5755   5757   5759     1  0.0000000  0.6508444  3
   5755   5756   5767   5770     1  0.0000000  0.6508444  3
   5755   5757   5759   5763     1  0.0000000  0.6508444  3
   5756   5755   5757   5759     1  0.0000000  0.6508444  3
   5756   5767   5770   5771     1  180.0000771  0.0000000  2
   5756   5767   5770   5819     1  180.0000771  0.0000000  2
   5757   5755   5756   5767     1  0.0000000  0.6508444  3
   5757   5759   5763   5764     1  180.0000771  0.0000000  2
   5757   5759   5763   5795     1  180.0000771  0.0000000  2
   5759   5763   5795   5776     1  180.0000771  6.0668000  2
   5759   5763   5795   5776     1  180.0000771  1.4644000  4
   5763   5795   5776   5775     1  0.0000000  1.2552000  3
   5763   5795   5776   5777     1  0.0000000  1.2552000  3
   5764   5763   5795   5776     1  180.0000771  6.0668000  2
   5764   5763   5795   5776     1  180.0000771  1.4644000  4
   5767   5770   5819   5800     1  180.0000771  6.0668000  2
   5767   5770   5819   5800     1  180.0000771  1.4644000  4
   5770   5819   5800   5799     1  0.0000000  1.2552000  3
   5770   5819   5800   5801     1  0.0000000  1.2552000  3
   5771   5770   5819   5800     1  180.0000771  6.0668000  2
   5771   5770   5819   5800     1  180.0000771  1.4644000  4
   5772   5773   5775   5776     1  180.0000771  0.8368000  1
   5772   5773   5775   5776     1  180.0000771  1.0460000  2
   5772   5773   5775   5776     1  0.0000000  0.7531200  3
   5772   5773   5775   5782     1  0.0000000  0.6508444  3
   5772   5790   5777   5776     1  180.0000771  0.4184000  2
   5772   5790   5777   5776     1  0.0000000  1.6024720  3
   5772   5790   5777   5781     1  0.0000000  1.6038667  3
   5773   5772   5783   5788     1  0.0000000  0.6508444  3
   5773   5772   5790   5777     1  180.0000771  0.4184000  2
   5773   5772   5790   5777     1  0.0000000  1.6024720  3
   5773   5775   5776   5777     1  180.0000771  0.8368000  1
   5773   5775   5776   5777     1  180.0000771  1.0460000  2
   5773   5775   5776   5777     1  0.0000000  0.7531200  3
   5773   5775   5776   5795     1  0.0000000  0.6508444  3
   5775   5773   5772   5783     1  180.0000771  0.8368000  1
   5775   5773   5772   5783     1  180.0000771  1.0460000  2
   5775   5773   5772   5783     1  0.0000000  0.7531200  3
   5775   5773   5772   5790     1  0.0000000  0.6508444  3
   5775   5776   5777   5781     1  0.0000000  0.6508444  3
   5775   5776   5777   5790     1  0.0000000  0.6508444  3
   5776   5775   5773   5793     1  0.0000000  0.6508444  3
   5777   5776   5775   5782     1  0.0000000  0.6508444  3
   5777   5790   5772   5783     1  180.0000771  0.4184000  2
   5777   5790   5772   5783     1  0.0000000  1.6024720  3
   5781   5777   5776   5795     1  0.0000000  0.6508444  3
   5782   5775   5773   5793     1  0.0000000  4.9162000  2
   5782   5775   5773   5793     1  0.0000000  0.6024960  3
   5782   5775   5776   5795     1  0.0000000  0.6508444  3
   5783   5772   5773   5793     1  0.0000000  0.6508444  3
   5788   5783   5772   5790     1  0.0000000  4.9162000  2
   5788   5783   5772   5790     1  0.0000000  0.6024960  3
   5790   5772   5773   5793     1  0.0000000  4.9162000  2
   5790   5772   5773   5793     1  0.0000000  0.6024960  3
   5790   5777   5776   5795     1  0.0000000  0.6508444  3
   5796   5797   5799   5800     1  180.0000771  0.8368000  1
   5796   5797   5799   5800     1  180.0000771  1.0460000  2
   5796   5797   5799   5800     1  0.0000000  0.7531200  3
   5796   5797   5799   5806     1  0.0000000  0.6508444  3
   5796   5814   5801   5800     1  180.0000771  0.4184000  2
   5796   5814   5801   5800     1  0.0000000  1.6024720  3
   5796   5814   5801   5805     1  0.0000000  1.6038667  3
   5797   5796   5807   5812     1  0.0000000  0.6508444  3
   5797   5796   5814   5801     1  180.0000771  0.4184000  2
   5797   5796   5814   5801     1  0.0000000  1.6024720  3
   5797   5799   5800   5801     1  180.0000771  0.8368000  1
   5797   5799   5800   5801     1  180.0000771  1.0460000  2
   5797   5799   5800   5801     1  0.0000000  0.7531200  3
   5797   5799   5800   5819     1  0.0000000  0.6508444  3
   5799   5797   5796   5807     1  180.0000771  0.8368000  1
   5799   5797   5796   5807     1  180.0000771  1.0460000  2
   5799   5797   5796   5807     1  0.0000000  0.7531200  3
   5799   5797   5796   5814     1  0.0000000  0.6508444  3
   5799   5800   5801   5805     1  0.0000000  0.6508444  3
   5799   5800   5801   5814     1  0.0000000  0.6508444  3
   5800   5799   5797   5817     1  0.0000000  0.6508444  3
   5801   5800   5799   5806     1  0.0000000  0.6508444  3
   5801   5814   5796   5807     1  180.0000771  0.4184000  2
   5801   5814   5796   5807     1  0.0000000  1.6024720  3
   5805   5801   5800   5819     1  0.0000000  0.6508444  3
   5806   5799   5797   5817     1  0.0000000  4.9162000  2
   5806   5799   5797   5817     1  0.0000000  0.6024960  3
   5806   5799   5800   5819     1  0.0000000  0.6508444  3
   5807   5796   5797   5817     1  0.0000000  0.6508444  3
   5812   5807   5796   5814     1  0.0000000  4.9162000  2
   5812   5807   5796   5814     1  0.0000000  0.6024960  3
   5814   5796   5797   5817     1  0.0000000  4.9162000  2
   5814   5796   5797   5817     1  0.0000000  0.6024960  3
   5814   5801   5800   5819     1  0.0000000  0.6508444  3
   5821   5823   5825   5829     1  0.0000000  0.6508444  3
   5823   5825   5829   5830     1  0.0000000  0.6508444  3
   5823   5825   5829   5831     1  0.0000000  0.6508444  3
   5825   5829   5830   5841     1  0.0000000  0.6508444  3
   5825   5829   5831   5833     1  0.0000000  0.6508444  3
   5829   5830   5841   5844     1  0.0000000  0.6508444  3
   5829   5831   5833   5837     1  0.0000000  0.6508444  3
   5830   5841   5844   5845     1  180.0000771  0.0000000  2
   5830   5841   5844   5893     1  180.0000771  0.0000000  2
   5830   5829   5831   5833     1  0.0000000  0.6508444  3
   5831   5833   5837   5838     1  180.0000771  0.0000000  2
   5831   5833   5837   5869     1  180.0000771  0.0000000  2
   5831   5829   5830   5841     1  0.0000000  0.6508444  3
   5833   5837   5869   5850     1  180.0000771  6.0668000  2
   5833   5837   5869   5850     1  180.0000771  1.4644000  4
   5837   5869   5850   5851     1  0.0000000  1.2552000  3
   5837   5869   5850   5849     1  0.0000000  1.2552000  3
   5838   5837   5869   5850     1  180.0000771  6.0668000  2
   5838   5837   5869   5850     1  180.0000771  1.4644000  4
   5841   5844   5893   5874     1  180.0000771  6.0668000  2
   5841   5844   5893   5874     1  180.0000771  1.4644000  4
   5844   5893   5874   5875     1  0.0000000  1.2552000  3
   5844   5893   5874   5873     1  0.0000000  1.2552000  3
   5845   5844   5893   5874     1  180.0000771  6.0668000  2
   5845   5844   5893   5874     1  180.0000771  1.4644000  4
   5846   5847   5849   5850     1  180.0000771  0.8368000  1
   5846   5847   5849   5850     1  180.0000771  1.0460000  2
   5846   5847   5849   5850     1  0.0000000  0.7531200  3
   5846   5847   5849   5856     1  0.0000000  0.6508444  3
   5846   5864   5851   5855     1  0.0000000  1.6038667  3
   5846   5864   5851   5850     1  180.0000771  0.4184000  2
   5846   5864   5851   5850     1  0.0000000  1.6024720  3
   5847   5849   5850   5851     1  180.0000771  0.8368000  1
   5847   5849   5850   5851     1  180.0000771  1.0460000  2
   5847   5849   5850   5851     1  0.0000000  0.7531200  3
   5847   5849   5850   5869     1  0.0000000  0.6508444  3
   5847   5846   5857   5862     1  0.0000000  0.6508444  3
   5847   5846   5864   5851     1  180.0000771  0.4184000  2
   5847   5846   5864   5851     1  0.0000000  1.6024720  3
   5849   5850   5851   5855     1  0.0000000  0.6508444  3
   5849   5850   5851   5864     1  0.0000000  0.6508444  3
   5849   5847   5846   5857     1  180.0000771  0.8368000  1
   5849   5847   5846   5857     1  180.0000771  1.0460000  2
   5849   5847   5846   5857     1  0.0000000  0.7531200  3
   5849   5847   5846   5864     1  0.0000000  0.6508444  3
   5850   5849   5847   5867     1  0.0000000  0.6508444  3
   5851   5864   5846   5857     1  180.0000771  0.4184000  2
   5851   5864   5846   5857     1  0.0000000  1.6024720  3
   5851   5850   5849   5856     1  0.0000000  0.6508444  3
   5855   5851   5850   5869     1  0.0000000  0.6508444  3
   5856   5849   5850   5869     1  0.0000000  0.6508444  3
   5856   5849   5847   5867     1  0.0000000  4.9162000  2
   5856   5849   5847   5867     1  0.0000000  0.6024960  3
   5857   5846   5847   5867     1  0.0000000  0.6508444  3
   5862   5857   5846   5864     1  0.0000000  4.9162000  2
   5862   5857   5846   5864     1  0.0000000  0.6024960  3
   5864   5851   5850   5869     1  0.0000000  0.6508444  3
   5864   5846   5847   5867     1  0.0000000  4.9162000  2
   5864   5846   5847   5867     1  0.0000000  0.6024960  3
   5870   5871   5873   5874     1  180.0000771  0.8368000  1
   5870   5871   5873   5874     1  180.0000771  1.0460000  2
   5870   5871   5873   5874     1  0.0000000  0.7531200  3
   5870   5871   5873   5880     1  0.0000000  0.6508444  3
   5870   5888   5875   5879     1  0.0000000  1.6038667  3
   5870   5888   5875   5874     1  180.0000771  0.4184000  2
   5870   5888   5875   5874     1  0.0000000  1.6024720  3
   5871   5873   5874   5875     1  180.0000771  0.8368000  1
   5871   5873   5874   5875     1  180.0000771  1.0460000  2
   5871   5873   5874   5875     1  0.0000000  0.7531200  3
   5871   5873   5874   5893     1  0.0000000  0.6508444  3
   5871   5870   5881   5886     1  0.0000000  0.6508444  3
   5871   5870   5888   5875     1  180.0000771  0.4184000  2
   5871   5870   5888   5875     1  0.0000000  1.6024720  3
   5873   5874   5875   5879     1  0.0000000  0.6508444  3
   5873   5874   5875   5888     1  0.0000000  0.6508444  3
   5873   5871   5870   5881     1  180.0000771  0.8368000  1
   5873   5871   5870   5881     1  180.0000771  1.0460000  2
   5873   5871   5870   5881     1  0.0000000  0.7531200  3
   5873   5871   5870   5888     1  0.0000000  0.6508444  3
   5874   5873   5871   5891     1  0.0000000  0.6508444  3
   5875   5888   5870   5881     1  180.0000771  0.4184000  2
   5875   5888   5870   5881     1  0.0000000  1.6024720  3
   5875   5874   5873   5880     1  0.0000000  0.6508444  3
   5879   5875   5874   5893     1  0.0000000  0.6508444  3
   5880   5873   5874   5893     1  0.0000000  0.6508444  3
   5880   5873   5871   5891     1  0.0000000  4.9162000  2
   5880   5873   5871   5891     1  0.0000000  0.6024960  3
   5881   5870   5871   5891     1  0.0000000  0.6508444  3
   5886   5881   5870   5888     1  0.0000000  4.9162000  2
   5886   5881   5870   5888     1  0.0000000  0.6024960  3
   5888   5875   5874   5893     1  0.0000000  0.6508444  3
   5888   5870   5871   5891     1  0.0000000  4.9162000  2
   5888   5870   5871   5891     1  0.0000000  0.6024960  3
   5895   5897   5899   5903     1  0.0000000  0.6508444  3
   5897   5899   5903   5904     1  0.0000000  0.6508444  3
   5897   5899   5903   5905     1  0.0000000  0.6508444  3
   5899   5903   5904   5915     1  0.0000000  0.6508444  3
   5899   5903   5905   5907     1  0.0000000  0.6508444  3
   5903   5904   5915   5918     1  0.0000000  0.6508444  3
   5903   5905   5907   5911     1  0.0000000  0.6508444  3
   5904   5903   5905   5907     1  0.0000000  0.6508444  3
   5904   5915   5918   5919     1  180.0000771  0.0000000  2
   5904   5915   5918   5967     1  180.0000771  0.0000000  2
   5905   5903   5904   5915     1  0.0000000  0.6508444  3
   5905   5907   5911   5912     1  180.0000771  0.0000000  2
   5905   5907   5911   5943     1  180.0000771  0.0000000  2
   5907   5911   5943   5924     1  180.0000771  6.0668000  2
   5907   5911   5943   5924     1  180.0000771  1.4644000  4
   5911   5943   5924   5923     1  0.0000000  1.2552000  3
   5911   5943   5924   5925     1  0.0000000  1.2552000  3
   5912   5911   5943   5924     1  180.0000771  6.0668000  2
   5912   5911   5943   5924     1  180.0000771  1.4644000  4
   5915   5918   5967   5948     1  180.0000771  6.0668000  2
   5915   5918   5967   5948     1  180.0000771  1.4644000  4
   5918   5967   5948   5947     1  0.0000000  1.2552000  3
   5918   5967   5948   5949     1  0.0000000  1.2552000  3
   5919   5918   5967   5948     1  180.0000771  6.0668000  2
   5919   5918   5967   5948     1  180.0000771  1.4644000  4
   5920   5921   5923   5924     1  180.0000771  0.8368000  1
   5920   5921   5923   5924     1  180.0000771  1.0460000  2
   5920   5921   5923   5924     1  0.0000000  0.7531200  3
   5920   5921   5923   5930     1  0.0000000  0.6508444  3
   5920   5938   5925   5924     1  180.0000771  0.4184000  2
   5920   5938   5925   5924     1  0.0000000  1.6024720  3
   5920   5938   5925   5929     1  0.0000000  1.6038667  3
   5921   5920   5931   5936     1  0.0000000  0.6508444  3
   5921   5920   5938   5925     1  180.0000771  0.4184000  2
   5921   5920   5938   5925     1  0.0000000  1.6024720  3
   5921   5923   5924   5925     1  180.0000771  0.8368000  1
   5921   5923   5924   5925     1  180.0000771  1.0460000  2
   5921   5923   5924   5925     1  0.0000000  0.7531200  3
   5921   5923   5924   5943     1  0.0000000  0.6508444  3
   5923   5921   5920   5931     1  180.0000771  0.8368000  1
   5923   5921   5920   5931     1  180.0000771  1.0460000  2
   5923   5921   5920   5931     1  0.0000000  0.7531200  3
   5923   5921   5920   5938     1  0.0000000  0.6508444  3
   5923   5924   5925   5929     1  0.0000000  0.6508444  3
   5923   5924   5925   5938     1  0.0000000  0.6508444  3
   5924   5923   5921   5941     1  0.0000000  0.6508444  3
   5925   5924   5923   5930     1  0.0000000  0.6508444  3
   5925   5938   5920   5931     1  180.0000771  0.4184000  2
   5925   5938   5920   5931     1  0.0000000  1.6024720  3
   5929   5925   5924   5943     1  0.0000000  0.6508444  3
   5930   5923   5921   5941     1  0.0000000  4.9162000  2
   5930   5923   5921   5941     1  0.0000000  0.6024960  3
   5930   5923   5924   5943     1  0.0000000  0.6508444  3
   5931   5920   5921   5941     1  0.0000000  0.6508444  3
   5936   5931   5920   5938     1  0.0000000  4.9162000  2
   5936   5931   5920   5938     1  0.0000000  0.6024960  3
   5938   5920   5921   5941     1  0.0000000  4.9162000  2
   5938   5920   5921   5941     1  0.0000000  0.6024960  3
   5938   5925   5924   5943     1  0.0000000  0.6508444  3
   5944   5945   5947   5948     1  180.0000771  0.8368000  1
   5944   5945   5947   5948     1  180.0000771  1.0460000  2
   5944   5945   5947   5948     1  0.0000000  0.7531200  3
   5944   5945   5947   5954     1  0.0000000  0.6508444  3
   5944   5962   5949   5948     1  180.0000771  0.4184000  2
   5944   5962   5949   5948     1  0.0000000  1.6024720  3
   5944   5962   5949   5953     1  0.0000000  1.6038667  3
   5945   5944   5955   5960     1  0.0000000  0.6508444  3
   5945   5944   5962   5949     1  180.0000771  0.4184000  2
   5945   5944   5962   5949     1  0.0000000  1.6024720  3
   5945   5947   5948   5949     1  180.0000771  0.8368000  1
   5945   5947   5948   5949     1  180.0000771  1.0460000  2
   5945   5947   5948   5949     1  0.0000000  0.7531200  3
   5945   5947   5948   5967     1  0.0000000  0.6508444  3
   5947   5945   5944   5955     1  180.0000771  0.8368000  1
   5947   5945   5944   5955     1  180.0000771  1.0460000  2
   5947   5945   5944   5955     1  0.0000000  0.7531200  3
   5947   5945   5944   5962     1  0.0000000  0.6508444  3
   5947   5948   5949   5953     1  0.0000000  0.6508444  3
   5947   5948   5949   5962     1  0.0000000  0.6508444  3
   5948   5947   5945   5965     1  0.0000000  0.6508444  3
   5949   5948   5947   5954     1  0.0000000  0.6508444  3
   5949   5962   5944   5955     1  180.0000771  0.4184000  2
   5949   5962   5944   5955     1  0.0000000  1.6024720  3
   5953   5949   5948   5967     1  0.0000000  0.6508444  3
   5954   5947   5945   5965     1  0.0000000  4.9162000  2
   5954   5947   5945   5965     1  0.0000000  0.6024960  3
   5954   5947   5948   5967     1  0.0000000  0.6508444  3
   5955   5944   5945   5965     1  0.0000000  0.6508444  3
   5960   5955   5944   5962     1  0.0000000  4.9162000  2
   5960   5955   5944   5962     1  0.0000000  0.6024960  3
   5962   5944   5945   5965     1  0.0000000  4.9162000  2
   5962   5944   5945   5965     1  0.0000000  0.6024960  3
   5962   5949   5948   5967     1  0.0000000  0.6508444  3
   5969   5971   5973   5977     1  0.0000000  0.6508444  3
   5971   5973   5977   5978     1  0.0000000  0.6508444  3
   5971   5973   5977   5979     1  0.0000000  0.6508444  3
   5973   5977   5978   5989     1  0.0000000  0.6508444  3
   5973   5977   5979   5981     1  0.0000000  0.6508444  3
   5977   5978   5989   5992     1  0.0000000  0.6508444  3
   5977   5979   5981   5985     1  0.0000000  0.6508444  3
   5978   5989   5992   5993     1  180.0000771  0.0000000  2
   5978   5989   5992   6041     1  180.0000771  0.0000000  2
   5978   5977   5979   5981     1  0.0000000  0.6508444  3
   5979   5981   5985   5986     1  180.0000771  0.0000000  2
   5979   5981   5985   6017     1  180.0000771  0.0000000  2
   5979   5977   5978   5989     1  0.0000000  0.6508444  3
   5981   5985   6017   5998     1  180.0000771  6.0668000  2
   5981   5985   6017   5998     1  180.0000771  1.4644000  4
   5985   6017   5998   5999     1  0.0000000  1.2552000  3
   5985   6017   5998   5997     1  0.0000000  1.2552000  3
   5986   5985   6017   5998     1  180.0000771  6.0668000  2
   5986   5985   6017   5998     1  180.0000771  1.4644000  4
   5989   5992   6041   6022     1  180.0000771  6.0668000  2
   5989   5992   6041   6022     1  180.0000771  1.4644000  4
   5992   6041   6022   6023     1  0.0000000  1.2552000  3
   5992   6041   6022   6021     1  0.0000000  1.2552000  3
   5993   5992   6041   6022     1  180.0000771  6.0668000  2
   5993   5992   6041   6022     1  180.0000771  1.4644000  4
   5994   5995   5997   5998     1  180.0000771  0.8368000  1
   5994   5995   5997   5998     1  180.0000771  1.0460000  2
   5994   5995   5997   5998     1  0.0000000  0.7531200  3
   5994   5995   5997   6004     1  0.0000000  0.6508444  3
   5994   6012   5999   6003     1  0.0000000  1.6038667  3
   5994   6012   5999   5998     1  180.0000771  0.4184000  2
   5994   6012   5999   5998     1  0.0000000  1.6024720  3
   5995   5997   5998   5999     1  180.0000771  0.8368000  1
   5995   5997   5998   5999     1  180.0000771  1.0460000  2
   5995   5997   5998   5999     1  0.0000000  0.7531200  3
   5995   5997   5998   6017     1  0.0000000  0.6508444  3
   5995   5994   6005   6010     1  0.0000000  0.6508444  3
   5995   5994   6012   5999     1  180.0000771  0.4184000  2
   5995   5994   6012   5999     1  0.0000000  1.6024720  3
   5997   5998   5999   6003     1  0.0000000  0.6508444  3
   5997   5998   5999   6012     1  0.0000000  0.6508444  3
   5997   5995   5994   6005     1  180.0000771  0.8368000  1
   5997   5995   5994   6005     1  180.0000771  1.0460000  2
   5997   5995   5994   6005     1  0.0000000  0.7531200  3
   5997   5995   5994   6012     1  0.0000000  0.6508444  3
   5998   5997   5995   6015     1  0.0000000  0.6508444  3
   5999   6012   5994   6005     1  180.0000771  0.4184000  2
   5999   6012   5994   6005     1  0.0000000  1.6024720  3
   5999   5998   5997   6004     1  0.0000000  0.6508444  3
   6003   5999   5998   6017     1  0.0000000  0.6508444  3
   6004   5997   5998   6017     1  0.0000000  0.6508444  3
   6004   5997   5995   6015     1  0.0000000  4.9162000  2
   6004   5997   5995   6015     1  0.0000000  0.6024960  3
   6005   5994   5995   6015     1  0.0000000  0.6508444  3
   6010   6005   5994   6012     1  0.0000000  4.9162000  2
   6010   6005   5994   6012     1  0.0000000  0.6024960  3
   6012   5999   5998   6017     1  0.0000000  0.6508444  3
   6012   5994   5995   6015     1  0.0000000  4.9162000  2
   6012   5994   5995   6015     1  0.0000000  0.6024960  3
   6018   6019   6021   6022     1  180.0000771  0.8368000  1
   6018   6019   6021   6022     1  180.0000771  1.0460000  2
   6018   6019   6021   6022     1  0.0000000  0.7531200  3
   6018   6019   6021   6028     1  0.0000000  0.6508444  3
   6018   6036   6023   6027     1  0.0000000  1.6038667  3
   6018   6036   6023   6022     1  180.0000771  0.4184000  2
   6018   6036   6023   6022     1  0.0000000  1.6024720  3
   6019   6021   6022   6023     1  180.0000771  0.8368000  1
   6019   6021   6022   6023     1  180.0000771  1.0460000  2
   6019   6021   6022   6023     1  0.0000000  0.7531200  3
   6019   6021   6022   6041     1  0.0000000  0.6508444  3
   6019   6018   6029   6034     1  0.0000000  0.6508444  3
   6019   6018   6036   6023     1  180.0000771  0.4184000  2
   6019   6018   6036   6023     1  0.0000000  1.6024720  3
   6021   6022   6023   6027     1  0.0000000  0.6508444  3
   6021   6022   6023   6036     1  0.0000000  0.6508444  3
   6021   6019   6018   6029     1  180.0000771  0.8368000  1
   6021   6019   6018   6029     1  180.0000771  1.0460000  2
   6021   6019   6018   6029     1  0.0000000  0.7531200  3
   6021   6019   6018   6036     1  0.0000000  0.6508444  3
   6022   6021   6019   6039     1  0.0000000  0.6508444  3
   6023   6036   6018   6029     1  180.0000771  0.4184000  2
   6023   6036   6018   6029     1  0.0000000  1.6024720  3
   6023   6022   6021   6028     1  0.0000000  0.6508444  3
   6027   6023   6022   6041     1  0.0000000  0.6508444  3
   6028   6021   6022   6041     1  0.0000000  0.6508444  3
   6028   6021   6019   6039     1  0.0000000  4.9162000  2
   6028   6021   6019   6039     1  0.0000000  0.6024960  3
   6029   6018   6019   6039     1  0.0000000  0.6508444  3
   6034   6029   6018   6036     1  0.0000000  4.9162000  2
   6034   6029   6018   6036     1  0.0000000  0.6024960  3
   6036   6023   6022   6041     1  0.0000000  0.6508444  3
   6036   6018   6019   6039     1  0.0000000  4.9162000  2
   6036   6018   6019   6039     1  0.0000000  0.6024960  3
   6043   6045   6047   6051     1  0.0000000  0.6508444  3
   6045   6047   6051   6052     1  0.0000000  0.6508444  3
   6045   6047   6051   6053     1  0.0000000  0.6508444  3
   6047   6051   6052   6063     1  0.0000000  0.6508444  3
   6047   6051   6053   6055     1  0.0000000  0.6508444  3
   6051   6052   6063   6066     1  0.0000000  0.6508444  3
   6051   6053   6055   6059     1  0.0000000  0.6508444  3
   6052   6051   6053   6055     1  0.0000000  0.6508444  3
   6052   6063   6066   6067     1  180.0000771  0.0000000  2
   6052   6063   6066   6115     1  180.0000771  0.0000000  2
   6053   6051   6052   6063     1  0.0000000  0.6508444  3
   6053   6055   6059   6060     1  180.0000771  0.0000000  2
   6053   6055   6059   6091     1  180.0000771  0.0000000  2
   6055   6059   6091   6072     1  180.0000771  6.0668000  2
   6055   6059   6091   6072     1  180.0000771  1.4644000  4
   6059   6091   6072   6071     1  0.0000000  1.2552000  3
   6059   6091   6072   6073     1  0.0000000  1.2552000  3
   6060   6059   6091   6072     1  180.0000771  6.0668000  2
   6060   6059   6091   6072     1  180.0000771  1.4644000  4
   6063   6066   6115   6096     1  180.0000771  6.0668000  2
   6063   6066   6115   6096     1  180.0000771  1.4644000  4
   6066   6115   6096   6095     1  0.0000000  1.2552000  3
   6066   6115   6096   6097     1  0.0000000  1.2552000  3
   6067   6066   6115   6096     1  180.0000771  6.0668000  2
   6067   6066   6115   6096     1  180.0000771  1.4644000  4
   6068   6069   6071   6072     1  180.0000771  0.8368000  1
   6068   6069   6071   6072     1  180.0000771  1.0460000  2
   6068   6069   6071   6072     1  0.0000000  0.7531200  3
   6068   6069   6071   6078     1  0.0000000  0.6508444  3
   6068   6086   6073   6072     1  180.0000771  0.4184000  2
   6068   6086   6073   6072     1  0.0000000  1.6024720  3
   6068   6086   6073   6077     1  0.0000000  1.6038667  3
   6069   6068   6079   6084     1  0.0000000  0.6508444  3
   6069   6068   6086   6073     1  180.0000771  0.4184000  2
   6069   6068   6086   6073     1  0.0000000  1.6024720  3
   6069   6071   6072   6073     1  180.0000771  0.8368000  1
   6069   6071   6072   6073     1  180.0000771  1.0460000  2
   6069   6071   6072   6073     1  0.0000000  0.7531200  3
   6069   6071   6072   6091     1  0.0000000  0.6508444  3
   6071   6069   6068   6079     1  180.0000771  0.8368000  1
   6071   6069   6068   6079     1  180.0000771  1.0460000  2
   6071   6069   6068   6079     1  0.0000000  0.7531200  3
   6071   6069   6068   6086     1  0.0000000  0.6508444  3
   6071   6072   6073   6077     1  0.0000000  0.6508444  3
   6071   6072   6073   6086     1  0.0000000  0.6508444  3
   6072   6071   6069   6089     1  0.0000000  0.6508444  3
   6073   6072   6071   6078     1  0.0000000  0.6508444  3
   6073   6086   6068   6079     1  180.0000771  0.4184000  2
   6073   6086   6068   6079     1  0.0000000  1.6024720  3
   6077   6073   6072   6091     1  0.0000000  0.6508444  3
   6078   6071   6069   6089     1  0.0000000  4.9162000  2
   6078   6071   6069   6089     1  0.0000000  0.6024960  3
   6078   6071   6072   6091     1  0.0000000  0.6508444  3
   6079   6068   6069   6089     1  0.0000000  0.6508444  3
   6084   6079   6068   6086     1  0.0000000  4.9162000  2
   6084   6079   6068   6086     1  0.0000000  0.6024960  3
   6086   6068   6069   6089     1  0.0000000  4.9162000  2
   6086   6068   6069   6089     1  0.0000000  0.6024960  3
   6086   6073   6072   6091     1  0.0000000  0.6508444  3
   6092   6093   6095   6096     1  180.0000771  0.8368000  1
   6092   6093   6095   6096     1  180.0000771  1.0460000  2
   6092   6093   6095   6096     1  0.0000000  0.7531200  3
   6092   6093   6095   6102     1  0.0000000  0.6508444  3
   6092   6110   6097   6096     1  180.0000771  0.4184000  2
   6092   6110   6097   6096     1  0.0000000  1.6024720  3
   6092   6110   6097   6101     1  0.0000000  1.6038667  3
   6093   6092   6103   6108     1  0.0000000  0.6508444  3
   6093   6092   6110   6097     1  180.0000771  0.4184000  2
   6093   6092   6110   6097     1  0.0000000  1.6024720  3
   6093   6095   6096   6097     1  180.0000771  0.8368000  1
   6093   6095   6096   6097     1  180.0000771  1.0460000  2
   6093   6095   6096   6097     1  0.0000000  0.7531200  3
   6093   6095   6096   6115     1  0.0000000  0.6508444  3
   6095   6093   6092   6103     1  180.0000771  0.8368000  1
   6095   6093   6092   6103     1  180.0000771  1.0460000  2
   6095   6093   6092   6103     1  0.0000000  0.7531200  3
   6095   6093   6092   6110     1  0.0000000  0.6508444  3
   6095   6096   6097   6101     1  0.0000000  0.6508444  3
   6095   6096   6097   6110     1  0.0000000  0.6508444  3
   6096   6095   6093   6113     1  0.0000000  0.6508444  3
   6097   6096   6095   6102     1  0.0000000  0.6508444  3
   6097   6110   6092   6103     1  180.0000771  0.4184000  2
   6097   6110   6092   6103     1  0.0000000  1.6024720  3
   6101   6097   6096   6115     1  0.0000000  0.6508444  3
   6102   6095   6093   6113     1  0.0000000  4.9162000  2
   6102   6095   6093   6113     1  0.0000000  0.6024960  3
   6102   6095   6096   6115     1  0.0000000  0.6508444  3
   6103   6092   6093   6113     1  0.0000000  0.6508444  3
   6108   6103   6092   6110     1  0.0000000  4.9162000  2
   6108   6103   6092   6110     1  0.0000000  0.6024960  3
   6110   6092   6093   6113     1  0.0000000  4.9162000  2
   6110   6092   6093   6113     1  0.0000000  0.6024960  3
   6110   6097   6096   6115     1  0.0000000  0.6508444  3
   6117   6119   6121   6125     1  0.0000000  0.6508444  3
   6119   6121   6125   6126     1  0.0000000  0.6508444  3
   6119   6121   6125   6127     1  0.0000000  0.6508444  3
   6121   6125   6126   6137     1  0.0000000  0.6508444  3
   6121   6125   6127   6129     1  0.0000000  0.6508444  3
   6125   6126   6137   6140     1  0.0000000  0.6508444  3
   6125   6127   6129   6133     1  0.0000000  0.6508444  3
   6126   6137   6140   6141     1  180.0000771  0.0000000  2
   6126   6137   6140   6189     1  180.0000771  0.0000000  2
   6126   6125   6127   6129     1  0.0000000  0.6508444  3
   6127   6129   6133   6134     1  180.0000771  0.0000000  2
   6127   6129   6133   6165     1  180.0000771  0.0000000  2
   6127   6125   6126   6137     1  0.0000000  0.6508444  3
   6129   6133   6165   6146     1  180.0000771  6.0668000  2
   6129   6133   6165   6146     1  180.0000771  1.4644000  4
   6133   6165   6146   6147     1  0.0000000  1.2552000  3
   6133   6165   6146   6145     1  0.0000000  1.2552000  3
   6134   6133   6165   6146     1  180.0000771  6.0668000  2
   6134   6133   6165   6146     1  180.0000771  1.4644000  4
   6137   6140   6189   6170     1  180.0000771  6.0668000  2
   6137   6140   6189   6170     1  180.0000771  1.4644000  4
   6140   6189   6170   6171     1  0.0000000  1.2552000  3
   6140   6189   6170   6169     1  0.0000000  1.2552000  3
   6141   6140   6189   6170     1  180.0000771  6.0668000  2
   6141   6140   6189   6170     1  180.0000771  1.4644000  4
   6142   6143   6145   6146     1  180.0000771  0.8368000  1
   6142   6143   6145   6146     1  180.0000771  1.0460000  2
   6142   6143   6145   6146     1  0.0000000  0.7531200  3
   6142   6143   6145   6152     1  0.0000000  0.6508444  3
   6142   6160   6147   6151     1  0.0000000  1.6038667  3
   6142   6160   6147   6146     1  180.0000771  0.4184000  2
   6142   6160   6147   6146     1  0.0000000  1.6024720  3
   6143   6145   6146   6147     1  180.0000771  0.8368000  1
   6143   6145   6146   6147     1  180.0000771  1.0460000  2
   6143   6145   6146   6147     1  0.0000000  0.7531200  3
   6143   6145   6146   6165     1  0.0000000  0.6508444  3
   6143   6142   6153   6158     1  0.0000000  0.6508444  3
   6143   6142   6160   6147     1  180.0000771  0.4184000  2
   6143   6142   6160   6147     1  0.0000000  1.6024720  3
   6145   6146   6147   6151     1  0.0000000  0.6508444  3
   6145   6146   6147   6160     1  0.0000000  0.6508444  3
   6145   6143   6142   6153     1  180.0000771  0.8368000  1
   6145   6143   6142   6153     1  180.0000771  1.0460000  2
   6145   6143   6142   6153     1  0.0000000  0.7531200  3
   6145   6143   6142   6160     1  0.0000000  0.6508444  3
   6146   6145   6143   6163     1  0.0000000  0.6508444  3
   6147   6160   6142   6153     1  180.0000771  0.4184000  2
   6147   6160   6142   6153     1  0.0000000  1.6024720  3
   6147   6146   6145   6152     1  0.0000000  0.6508444  3
   6151   6147   6146   6165     1  0.0000000  0.6508444  3
   6152   6145   6146   6165     1  0.0000000  0.6508444  3
   6152   6145   6143   6163     1  0.0000000  4.9162000  2
   6152   6145   6143   6163     1  0.0000000  0.6024960  3
   6153   6142   6143   6163     1  0.0000000  0.6508444  3
   6158   6153   6142   6160     1  0.0000000  4.9162000  2
   6158   6153   6142   6160     1  0.0000000  0.6024960  3
   6160   6147   6146   6165     1  0.0000000  0.6508444  3
   6160   6142   6143   6163     1  0.0000000  4.9162000  2
   6160   6142   6143   6163     1  0.0000000  0.6024960  3
   6166   6167   6169   6170     1  180.0000771  0.8368000  1
   6166   6167   6169   6170     1  180.0000771  1.0460000  2
   6166   6167   6169   6170     1  0.0000000  0.7531200  3
   6166   6167   6169   6176     1  0.0000000  0.6508444  3
   6166   6184   6171   6175     1  0.0000000  1.6038667  3
   6166   6184   6171   6170     1  180.0000771  0.4184000  2
   6166   6184   6171   6170     1  0.0000000  1.6024720  3
   6167   6169   6170   6171     1  180.0000771  0.8368000  1
   6167   6169   6170   6171     1  180.0000771  1.0460000  2
   6167   6169   6170   6171     1  0.0000000  0.7531200  3
   6167   6169   6170   6189     1  0.0000000  0.6508444  3
   6167   6166   6177   6182     1  0.0000000  0.6508444  3
   6167   6166   6184   6171     1  180.0000771  0.4184000  2
   6167   6166   6184   6171     1  0.0000000  1.6024720  3
   6169   6170   6171   6175     1  0.0000000  0.6508444  3
   6169   6170   6171   6184     1  0.0000000  0.6508444  3
   6169   6167   6166   6177     1  180.0000771  0.8368000  1
   6169   6167   6166   6177     1  180.0000771  1.0460000  2
   6169   6167   6166   6177     1  0.0000000  0.7531200  3
   6169   6167   6166   6184     1  0.0000000  0.6508444  3
   6170   6169   6167   6187     1  0.0000000  0.6508444  3
   6171   6184   6166   6177     1  180.0000771  0.4184000  2
   6171   6184   6166   6177     1  0.0000000  1.6024720  3
   6171   6170   6169   6176     1  0.0000000  0.6508444  3
   6175   6171   6170   6189     1  0.0000000  0.6508444  3
   6176   6169   6170   6189     1  0.0000000  0.6508444  3
   6176   6169   6167   6187     1  0.0000000  4.9162000  2
   6176   6169   6167   6187     1  0.0000000  0.6024960  3
   6177   6166   6167   6187     1  0.0000000  0.6508444  3
   6182   6177   6166   6184     1  0.0000000  4.9162000  2
   6182   6177   6166   6184     1  0.0000000  0.6024960  3
   6184   6171   6170   6189     1  0.0000000  0.6508444  3
   6184   6166   6167   6187     1  0.0000000  4.9162000  2
   6184   6166   6167   6187     1  0.0000000  0.6024960  3
   6191   6193   6195   6199     1  0.0000000  0.6508444  3
   6193   6195   6199   6200     1  0.0000000  0.6508444  3
   6193   6195   6199   6201     1  0.0000000  0.6508444  3
   6195   6199   6200   6211     1  0.0000000  0.6508444  3
   6195   6199   6201   6203     1  0.0000000  0.6508444  3
   6199   6200   6211   6214     1  0.0000000  0.6508444  3
   6199   6201   6203   6207     1  0.0000000  0.6508444  3
   6200   6199   6201   6203     1  0.0000000  0.6508444  3
   6200   6211   6214   6215     1  180.0000771  0.0000000  2
   6200   6211   6214   6263     1  180.0000771  0.0000000  2
   6201   6199   6200   6211     1  0.0000000  0.6508444  3
   6201   6203   6207   6208     1  180.0000771  0.0000000  2
   6201   6203   6207   6239     1  180.0000771  0.0000000  2
   6203   6207   6239   6220     1  180.0000771  6.0668000  2
   6203   6207   6239   6220     1  180.0000771  1.4644000  4
   6207   6239   6220   6219     1  0.0000000  1.2552000  3
   6207   6239   6220   6221     1  0.0000000  1.2552000  3
   6208   6207   6239   6220     1  180.0000771  6.0668000  2
   6208   6207   6239   6220     1  180.0000771  1.4644000  4
   6211   6214   6263   6244     1  180.0000771  6.0668000  2
   6211   6214   6263   6244     1  180.0000771  1.4644000  4
   6214   6263   6244   6243     1  0.0000000  1.2552000  3
   6214   6263   6244   6245     1  0.0000000  1.2552000  3
   6215   6214   6263   6244     1  180.0000771  6.0668000  2
   6215   6214   6263   6244     1  180.0000771  1.4644000  4
   6216   6217   6219   6220     1  180.0000771  0.8368000  1
   6216   6217   6219   6220     1  180.0000771  1.0460000  2
   6216   6217   6219   6220     1  0.0000000  0.7531200  3
   6216   6217   6219   6226     1  0.0000000  0.6508444  3
   6216   6234   6221   6220     1  180.0000771  0.4184000  2
   6216   6234   6221   6220     1  0.0000000  1.6024720  3
   6216   6234   6221   6225     1  0.0000000  1.6038667  3
   6217   6216   6227   6232     1  0.0000000  0.6508444  3
   6217   6216   6234   6221     1  180.0000771  0.4184000  2
   6217   6216   6234   6221     1  0.0000000  1.6024720  3
   6217   6219   6220   6221     1  180.0000771  0.8368000  1
   6217   6219   6220   6221     1  180.0000771  1.0460000  2
   6217   6219   6220   6221     1  0.0000000  0.7531200  3
   6217   6219   6220   6239     1  0.0000000  0.6508444  3
   6219   6217   6216   6227     1  180.0000771  0.8368000  1
   6219   6217   6216   6227     1  180.0000771  1.0460000  2
   6219   6217   6216   6227     1  0.0000000  0.7531200  3
   6219   6217   6216   6234     1  0.0000000  0.6508444  3
   6219   6220   6221   6225     1  0.0000000  0.6508444  3
   6219   6220   6221   6234     1  0.0000000  0.6508444  3
   6220   6219   6217   6237     1  0.0000000  0.6508444  3
   6221   6220   6219   6226     1  0.0000000  0.6508444  3
   6221   6234   6216   6227     1  180.0000771  0.4184000  2
   6221   6234   6216   6227     1  0.0000000  1.6024720  3
   6225   6221   6220   6239     1  0.0000000  0.6508444  3
   6226   6219   6217   6237     1  0.0000000  4.9162000  2
   6226   6219   6217   6237     1  0.0000000  0.6024960  3
   6226   6219   6220   6239     1  0.0000000  0.6508444  3
   6227   6216   6217   6237     1  0.0000000  0.6508444  3
   6232   6227   6216   6234     1  0.0000000  4.9162000  2
   6232   6227   6216   6234     1  0.0000000  0.6024960  3
   6234   6216   6217   6237     1  0.0000000  4.9162000  2
   6234   6216   6217   6237     1  0.0000000  0.6024960  3
   6234   6221   6220   6239     1  0.0000000  0.6508444  3
   6240   6241   6243   6244     1  180.0000771  0.8368000  1
   6240   6241   6243   6244     1  180.0000771  1.0460000  2
   6240   6241   6243   6244     1  0.0000000  0.7531200  3
   6240   6241   6243   6250     1  0.0000000  0.6508444  3
   6240   6258   6245   6244     1  180.0000771  0.4184000  2
   6240   6258   6245   6244     1  0.0000000  1.6024720  3
   6240   6258   6245   6249     1  0.0000000  1.6038667  3
   6241   6240   6251   6256     1  0.0000000  0.6508444  3
   6241   6240   6258   6245     1  180.0000771  0.4184000  2
   6241   6240   6258   6245     1  0.0000000  1.6024720  3
   6241   6243   6244   6245     1  180.0000771  0.8368000  1
   6241   6243   6244   6245     1  180.0000771  1.0460000  2
   6241   6243   6244   6245     1  0.0000000  0.7531200  3
   6241   6243   6244   6263     1  0.0000000  0.6508444  3
   6243   6241   6240   6251     1  180.0000771  0.8368000  1
   6243   6241   6240   6251     1  180.0000771  1.0460000  2
   6243   6241   6240   6251     1  0.0000000  0.7531200  3
   6243   6241   6240   6258     1  0.0000000  0.6508444  3
   6243   6244   6245   6249     1  0.0000000  0.6508444  3
   6243   6244   6245   6258     1  0.0000000  0.6508444  3
   6244   6243   6241   6261     1  0.0000000  0.6508444  3
   6245   6244   6243   6250     1  0.0000000  0.6508444  3
   6245   6258   6240   6251     1  180.0000771  0.4184000  2
   6245   6258   6240   6251     1  0.0000000  1.6024720  3
   6249   6245   6244   6263     1  0.0000000  0.6508444  3
   6250   6243   6241   6261     1  0.0000000  4.9162000  2
   6250   6243   6241   6261     1  0.0000000  0.6024960  3
   6250   6243   6244   6263     1  0.0000000  0.6508444  3
   6251   6240   6241   6261     1  0.0000000  0.6508444  3
   6256   6251   6240   6258     1  0.0000000  4.9162000  2
   6256   6251   6240   6258     1  0.0000000  0.6024960  3
   6258   6240   6241   6261     1  0.0000000  4.9162000  2
   6258   6240   6241   6261     1  0.0000000  0.6024960  3
   6258   6245   6244   6263     1  0.0000000  0.6508444  3
   6265   6267   6269   6273     1  0.0000000  0.6508444  3
   6267   6269   6273   6274     1  0.0000000  0.6508444  3
   6267   6269   6273   6275     1  0.0000000  0.6508444  3
   6269   6273   6274   6285     1  0.0000000  0.6508444  3
   6269   6273   6275   6277     1  0.0000000  0.6508444  3
   6273   6274   6285   6288     1  0.0000000  0.6508444  3
   6273   6275   6277   6281     1  0.0000000  0.6508444  3
   6274   6285   6288   6289     1  180.0000771  0.0000000  2
   6274   6285   6288   6337     1  180.0000771  0.0000000  2
   6274   6273   6275   6277     1  0.0000000  0.6508444  3
   6275   6277   6281   6282     1  180.0000771  0.0000000  2
   6275   6277   6281   6313     1  180.0000771  0.0000000  2
   6275   6273   6274   6285     1  0.0000000  0.6508444  3
   6277   6281   6313   6294     1  180.0000771  6.0668000  2
   6277   6281   6313   6294     1  180.0000771  1.4644000  4
   6281   6313   6294   6295     1  0.0000000  1.2552000  3
   6281   6313   6294   6293     1  0.0000000  1.2552000  3
   6282   6281   6313   6294     1  180.0000771  6.0668000  2
   6282   6281   6313   6294     1  180.0000771  1.4644000  4
   6285   6288   6337   6318     1  180.0000771  6.0668000  2
   6285   6288   6337   6318     1  180.0000771  1.4644000  4
   6288   6337   6318   6319     1  0.0000000  1.2552000  3
   6288   6337   6318   6317     1  0.0000000  1.2552000  3
   6289   6288   6337   6318     1  180.0000771  6.0668000  2
   6289   6288   6337   6318     1  180.0000771  1.4644000  4
   6290   6291   6293   6294     1  180.0000771  0.8368000  1
   6290   6291   6293   6294     1  180.0000771  1.0460000  2
   6290   6291   6293   6294     1  0.0000000  0.7531200  3
   6290   6291   6293   6300     1  0.0000000  0.6508444  3
   6290   6308   6295   6299     1  0.0000000  1.6038667  3
   6290   6308   6295   6294     1  180.0000771  0.4184000  2
   6290   6308   6295   6294     1  0.0000000  1.6024720  3
   6291   6293   6294   6295     1  180.0000771  0.8368000  1
   6291   6293   6294   6295     1  180.0000771  1.0460000  2
   6291   6293   6294   6295     1  0.0000000  0.7531200  3
   6291   6293   6294   6313     1  0.0000000  0.6508444  3
   6291   6290   6301   6306     1  0.0000000  0.6508444  3
   6291   6290   6308   6295     1  180.0000771  0.4184000  2
   6291   6290   6308   6295     1  0.0000000  1.6024720  3
   6293   6294   6295   6299     1  0.0000000  0.6508444  3
   6293   6294   6295   6308     1  0.0000000  0.6508444  3
   6293   6291   6290   6301     1  180.0000771  0.8368000  1
   6293   6291   6290   6301     1  180.0000771  1.0460000  2
   6293   6291   6290   6301     1  0.0000000  0.7531200  3
   6293   6291   6290   6308     1  0.0000000  0.6508444  3
   6294   6293   6291   6311     1  0.0000000  0.6508444  3
   6295   6308   6290   6301     1  180.0000771  0.4184000  2
   6295   6308   6290   6301     1  0.0000000  1.6024720  3
   6295   6294   6293   6300     1  0.0000000  0.6508444  3
   6299   6295   6294   6313     1  0.0000000  0.6508444  3
   6300   6293   6294   6313     1  0.0000000  0.6508444  3
   6300   6293   6291   6311     1  0.0000000  4.9162000  2
   6300   6293   6291   6311     1  0.0000000  0.6024960  3
   6301   6290   6291   6311     1  0.0000000  0.6508444  3
   6306   6301   6290   6308     1  0.0000000  4.9162000  2
   6306   6301   6290   6308     1  0.0000000  0.6024960  3
   6308   6295   6294   6313     1  0.0000000  0.6508444  3
   6308   6290   6291   6311     1  0.0000000  4.9162000  2
   6308   6290   6291   6311     1  0.0000000  0.6024960  3
   6314   6315   6317   6318     1  180.0000771  0.8368000  1
   6314   6315   6317   6318     1  180.0000771  1.0460000  2
   6314   6315   6317   6318     1  0.0000000  0.7531200  3
   6314   6315   6317   6324     1  0.0000000  0.6508444  3
   6314   6332   6319   6323     1  0.0000000  1.6038667  3
   6314   6332   6319   6318     1  180.0000771  0.4184000  2
   6314   6332   6319   6318     1  0.0000000  1.6024720  3
   6315   6317   6318   6319     1  180.0000771  0.8368000  1
   6315   6317   6318   6319     1  180.0000771  1.0460000  2
   6315   6317   6318   6319     1  0.0000000  0.7531200  3
   6315   6317   6318   6337     1  0.0000000  0.6508444  3
   6315   6314   6325   6330     1  0.0000000  0.6508444  3
   6315   6314   6332   6319     1  180.0000771  0.4184000  2
   6315   6314   6332   6319     1  0.0000000  1.6024720  3
   6317   6318   6319   6323     1  0.0000000  0.6508444  3
   6317   6318   6319   6332     1  0.0000000  0.6508444  3
   6317   6315   6314   6325     1  180.0000771  0.8368000  1
   6317   6315   6314   6325     1  180.0000771  1.0460000  2
   6317   6315   6314   6325     1  0.0000000  0.7531200  3
   6317   6315   6314   6332     1  0.0000000  0.6508444  3
   6318   6317   6315   6335     1  0.0000000  0.6508444  3
   6319   6332   6314   6325     1  180.0000771  0.4184000  2
   6319   6332   6314   6325     1  0.0000000  1.6024720  3
   6319   6318   6317   6324     1  0.0000000  0.6508444  3
   6323   6319   6318   6337     1  0.0000000  0.6508444  3
   6324   6317   6318   6337     1  0.0000000  0.6508444  3
   6324   6317   6315   6335     1  0.0000000  4.9162000  2
   6324   6317   6315   6335     1  0.0000000  0.6024960  3
   6325   6314   6315   6335     1  0.0000000  0.6508444  3
   6330   6325   6314   6332     1  0.0000000  4.9162000  2
   6330   6325   6314   6332     1  0.0000000  0.6024960  3
   6332   6319   6318   6337     1  0.0000000  0.6508444  3
   6332   6314   6315   6335     1  0.0000000  4.9162000  2
   6332   6314   6315   6335     1  0.0000000  0.6024960  3
      9     52     10     18     4  180.0000771  43.9320000  2
     11     78     12     17     4  180.0000771  43.9320000  2
     13    104     14     20     4  180.0000771  43.9320000  2
     15    130     16     19     4  180.0000771  43.9320000  2
     46    156     47     53     4  180.0000771  43.9320000  2
     48    182     49     54     4  180.0000771  43.9320000  2
     72    208     73     79     4  180.0000771  43.9320000  2
     74    234     75     80     4  180.0000771  43.9320000  2
     98    260     99    105     4  180.0000771  43.9320000  2
    100    286    101    106     4  180.0000771  43.9320000  2
    124    312    125    131     4  180.0000771  43.9320000  2
    126    338    127    132     4  180.0000771  43.9320000  2
    150    364    151    157     4  180.0000771  43.9320000  2
    152    390    153    158     4  180.0000771  43.9320000  2
    176    416    177    183     4  180.0000771  43.9320000  2
    178    442    179    184     4  180.0000771  43.9320000  2
    202    468    203    209     4  180.0000771  43.9320000  2
    204    494    205    210     4  180.0000771  43.9320000  2
    228    520    229    235     4  180.0000771  43.9320000  2
    230    546    231    236     4  180.0000771  43.9320000  2
    254    572    255    261     4  180.0000771  43.9320000  2
    256    598    257    262     4  180.0000771  43.9320000  2
    280    624    281    287     4  180.0000771  43.9320000  2
    282    650    283    288     4  180.0000771  43.9320000  2
    306    676    307    313     4  180.0000771  43.9320000  2
    308    702    309    314     4  180.0000771  43.9320000  2
    332    728    333    339     4  180.0000771  43.9320000  2
    334    754    335    340     4  180.0000771  43.9320000  2
    358    780    359    365     4  180.0000771  43.9320000  2
    360    806    361    366     4  180.0000771  43.9320000  2
    384    832    385    391     4  180.0000771  43.9320000  2
    386    858    387    392     4  180.0000771  43.9320000  2
    410    884    411    417     4  180.0000771  43.9320000  2
    412    910    413    418     4  180.0000771  43.9320000  2
    436    936    437    443     4  180.0000771  43.9320000  2
    438    962    439    444     4  180.0000771  43.9320000  2
    462    988    463    469     4  180.0000771  43.9320000  2
    464   1014    465    470     4  180.0000771  43.9320000  2
    488   1040    489    495     4  180.0000771  43.9320000  2
    490   1066    491    496     4  180.0000771  43.9320000  2
    514   1092    515    521     4  180.0000771  43.9320000  2
    516   1118    517    522     4  180.0000771  43.9320000  2
    540   1144    541    547     4  180.0000771  43.9320000  2
    542   1170    543    548     4  180.0000771  43.9320000  2
    566   1196    567    573     4  180.0000771  43.9320000  2
    568   1222    569    574     4  180.0000771  43.9320000  2
    592   1248    593    599     4  180.0000771  43.9320000  2
    594   1274    595    600     4  180.0000771  43.9320000  2
    618   1300    619    625     4  180.0000771  43.9320000  2
    620   1326    621    626     4  180.0000771  43.9320000  2
    644   1352    645    651     4  180.0000771  43.9320000  2
    646   1378    647    652     4  180.0000771  43.9320000  2
    670   1404    671    677     4  180.0000771  43.9320000  2
    672   1430    673    678     4  180.0000771  43.9320000  2
    696   1456    697    703     4  180.0000771  43.9320000  2
    698   1482    699    704     4  180.0000771  43.9320000  2
    722   1508    723    729     4  180.0000771  43.9320000  2
    724   1534    725    730     4  180.0000771  43.9320000  2
    748   1560    749    755     4  180.0000771  43.9320000  2
    750   1586    751    756     4  180.0000771  43.9320000  2
    774   1603    775    781     4  180.0000771  43.9320000  2
    776   1677    777    782     4  180.0000771  43.9320000  2
    800   1751    801    807     4  180.0000771  43.9320000  2
    802   1825    803    808     4  180.0000771  43.9320000  2
    826   1899    827    833     4  180.0000771  43.9320000  2
    828   1973    829    834     4  180.0000771  43.9320000  2
    852   2047    853    859     4  180.0000771  43.9320000  2
    854   2121    855    860     4  180.0000771  43.9320000  2
    878   2195    879    885     4  180.0000771  43.9320000  2
    880   2269    881    886     4  180.0000771  43.9320000  2
    904   2343    905    911     4  180.0000771  43.9320000  2
    906   2417    907    912     4  180.0000771  43.9320000  2
    930   2491    931    937     4  180.0000771  43.9320000  2
    932   2565    933    938     4  180.0000771  43.9320000  2
    956   2639    957    963     4  180.0000771  43.9320000  2
    958   2713    959    964     4  180.0000771  43.9320000  2
    982   2787    983    989     4  180.0000771  43.9320000  2
    984   2861    985    990     4  180.0000771  43.9320000  2
   1008   2935   1009   1015     4  180.0000771  43.9320000  2
   1010   3009   1011   1016     4  180.0000771  43.9320000  2
   1034   3083   1035   1041     4  180.0000771  43.9320000  2
   1036   3157   1037   1042     4  180.0000771  43.9320000  2
   1060   3231   1061   1067     4  180.0000771  43.9320000  2
   1062   3305   1063   1068     4  180.0000771  43.9320000  2
   1086   3379   1087   1093     4  180.0000771  43.9320000  2
   1088   3453   1089   1094     4  180.0000771  43.9320000  2
   1112   3527   1113   1119     4  180.0000771  43.9320000  2
   1114   3601   1115   1120     4  180.0000771  43.9320000  2
   1138   3675   1139   1145     4  180.0000771  43.9320000  2
   1140   3749   1141   1146     4  180.0000771  43.9320000  2
   1164   3823   1165   1171     4  180.0000771  43.9320000  2
   1166   3897   1167   1172     4  180.0000771  43.9320000  2
   1190   3971   1191   1197     4  180.0000771  43.9320000  2
   1192   4045   1193   1198     4  180.0000771  43.9320000  2
   1216   4119   1217   1223     4  180.0000771  43.9320000  2
   1218   4193   1219   1224     4  180.0000771  43.9320000  2
   1242   4267   1243   1249     4  180.0000771  43.9320000  2
   1244   4341   1245   1250     4  180.0000771  43.9320000  2
   1268   4415   1269   1275     4  180.0000771  43.9320000  2
   1270   4489   1271   1276     4  180.0000771  43.9320000  2
   1294   4563   1295   1301     4  180.0000771  43.9320000  2
   1296   4637   1297   1302     4  180.0000771  43.9320000  2
   1320   4711   1321   1327     4  180.0000771  43.9320000  2
   1322   4785   1323   1328     4  180.0000771  43.9320000  2
   1346   4859   1347   1353     4  180.0000771  43.9320000  2
   1348   4933   1349   1354     4  180.0000771  43.9320000  2
   1372   5007   1373   1379     4  180.0000771  43.9320000  2
   1374   5081   1375   1380     4  180.0000771  43.9320000  2
   1398   5155   1399   1405     4  180.0000771  43.9320000  2
   1400   5229   1401   1406     4  180.0000771  43.9320000  2
   1424   5303   1425   1431     4  180.0000771  43.9320000  2
   1426   5377   1427   1432     4  180.0000771  43.9320000  2
   1450   5451   1451   1457     4  180.0000771  43.9320000  2
   1452   5525   1453   1458     4  180.0000771  43.9320000  2
   1476   5599   1477   1483     4  180.0000771  43.9320000  2
   1478   5673   1479   1484     4  180.0000771  43.9320000  2
   1502   5747   1503   1509     4  180.0000771  43.9320000  2
   1504   5821   1505   1510     4  180.0000771  43.9320000  2
   1528   5895   1529   1535     4  180.0000771  43.9320000  2
   1530   5969   1531   1536     4  180.0000771  43.9320000  2
   1554   6043   1555   1561     4  180.0000771  43.9320000  2
   1556   6117   1557   1562     4  180.0000771  43.9320000  2
   1580   6191   1581   1587     4  180.0000771  43.9320000  2
   1582   6265   1583   1588     4  180.0000771  43.9320000  2
   1615   1651   1619   1620     4  180.0000771  43.9320000  2
   1623   1675   1626   1627     4  180.0000771  43.9320000  2
   1689   1725   1693   1694     4  180.0000771  43.9320000  2
   1697   1749   1700   1701     4  180.0000771  43.9320000  2
   1763   1799   1767   1768     4  180.0000771  43.9320000  2
   1771   1823   1774   1775     4  180.0000771  43.9320000  2
   1837   1873   1841   1842     4  180.0000771  43.9320000  2
   1845   1897   1848   1849     4  180.0000771  43.9320000  2
   1911   1947   1915   1916     4  180.0000771  43.9320000  2
   1919   1971   1922   1923     4  180.0000771  43.9320000  2
   1985   2021   1989   1990     4  180.0000771  43.9320000  2
   1993   2045   1996   1997     4  180.0000771  43.9320000  2
   2059   2095   2063   2064     4  180.0000771  43.9320000  2
   2067   2119   2070   2071     4  180.0000771  43.9320000  2
   2133   2169   2137   2138     4  180.0000771  43.9320000  2
   2141   2193   2144   2145     4  180.0000771  43.9320000  2
   2207   2243   2211   2212     4  180.0000771  43.9320000  2
   2215   2267   2218   2219     4  180.0000771  43.9320000  2
   2281   2317   2285   2286     4  180.0000771  43.9320000  2
   2289   2341   2292   2293     4  180.0000771  43.9320000  2
   2355   2391   2359   2360     4  180.0000771  43.9320000  2
   2363   2415   2366   2367     4  180.0000771  43.9320000  2
   2429   2465   2433   2434     4  180.0000771  43.9320000  2
   2437   2489   2440   2441     4  180.0000771  43.9320000  2
   2503   2539   2507   2508     4  180.0000771  43.9320000  2
   2511   2563   2514   2515     4  180.0000771  43.9320000  2
   2577   2613   2581   2582     4  180.0000771  43.9320000  2
   2585   2637   2588   2589     4  180.0000771  43.9320000  2
   2651   2687   2655   2656     4  180.0000771  43.9320000  2
   2659   2711   2662   2663     4  180.0000771  43.9320000  2
   2725   2761   2729   2730     4  180.0000771  43.9320000  2
   2733   2785   2736   2737     4  180.0000771  43.9320000  2
   2799   2835   2803   2804     4  180.0000771  43.9320000  2
   2807   2859   2810   2811     4  180.0000771  43.9320000  2
   2873   2909   2877   2878     4  180.0000771  43.9320000  2
   2881   2933   2884   2885     4  180.0000771  43.9320000  2
   2947   2983   2951   2952     4  180.0000771  43.9320000  2
   2955   3007   2958   2959     4  180.0000771  43.9320000  2
   3021   3057   3025   3026     4  180.0000771  43.9320000  2
   3029   3081   3032   3033     4  180.0000771  43.9320000  2
   3095   3131   3099   3100     4  180.0000771  43.9320000  2
   3103   3155   3106   3107     4  180.0000771  43.9320000  2
   3169   3205   3173   3174     4  180.0000771  43.9320000  2
   3177   3229   3180   3181     4  180.0000771  43.9320000  2
   3243   3279   3247   3248     4  180.0000771  43.9320000  2
   3251   3303   3254   3255     4  180.0000771  43.9320000  2
   3317   3353   3321   3322     4  180.0000771  43.9320000  2
   3325   3377   3328   3329     4  180.0000771  43.9320000  2
   3391   3427   3395   3396     4  180.0000771  43.9320000  2
   3399   3451   3402   3403     4  180.0000771  43.9320000  2
   3465   3501   3469   3470     4  180.0000771  43.9320000  2
   3473   3525   3476   3477     4  180.0000771  43.9320000  2
   3539   3575   3543   3544     4  180.0000771  43.9320000  2
   3547   3599   3550   3551     4  180.0000771  43.9320000  2
   3613   3649   3617   3618     4  180.0000771  43.9320000  2
   3621   3673   3624   3625     4  180.0000771  43.9320000  2
   3687   3723   3691   3692     4  180.0000771  43.9320000  2
   3695   3747   3698   3699     4  180.0000771  43.9320000  2
   3761   3797   3765   3766     4  180.0000771  43.9320000  2
   3769   3821   3772   3773     4  180.0000771  43.9320000  2
   3835   3871   3839   3840     4  180.0000771  43.9320000  2
   3843   3895   3846   3847     4  180.0000771  43.9320000  2
   3909   3945   3913   3914     4  180.0000771  43.9320000  2
   3917   3969   3920   3921     4  180.0000771  43.9320000  2
   3983   4019   3987   3988     4  180.0000771  43.9320000  2
   3991   4043   3994   3995     4  180.0000771  43.9320000  2
   4057   4093   4061   4062     4  180.0000771  43.9320000  2
   4065   4117   4068   4069     4  180.0000771  43.9320000  2
   4131   4167   4135   4136     4  180.0000771  43.9320000  2
   4139   4191   4142   4143     4  180.0000771  43.9320000  2
   4205   4241   4209   4210     4  180.0000771  43.9320000  2
   4213   4265   4216   4217     4  180.0000771  43.9320000  2
   4279   4315   4283   4284     4  180.0000771  43.9320000  2
   4287   4339   4290   4291     4  180.0000771  43.9320000  2
   4353   4389   4357   4358     4  180.0000771  43.9320000  2
   4361   4413   4364   4365     4  180.0000771  43.9320000  2
   4427   4463   4431   4432     4  180.0000771  43.9320000  2
   4435   4487   4438   4439     4  180.0000771  43.9320000  2
   4501   4537   4505   4506     4  180.0000771  43.9320000  2
   4509   4561   4512   4513     4  180.0000771  43.9320000  2
   4575   4611   4579   4580     4  180.0000771  43.9320000  2
   4583   4635   4586   4587     4  180.0000771  43.9320000  2
   4649   4685   4653   4654     4  180.0000771  43.9320000  2
   4657   4709   4660   4661     4  180.0000771  43.9320000  2
   4723   4759   4727   4728     4  180.0000771  43.9320000  2
   4731   4783   4734   4735     4  180.0000771  43.9320000  2
   4797   4833   4801   4802     4  180.0000771  43.9320000  2
   4805   4857   4808   4809     4  180.0000771  43.9320000  2
   4871   4907   4875   4876     4  180.0000771  43.9320000  2
   4879   4931   4882   4883     4  180.0000771  43.9320000  2
   4945   4981   4949   4950     4  180.0000771  43.9320000  2
   4953   5005   4956   4957     4  180.0000771  43.9320000  2
   5019   5055   5023   5024     4  180.0000771  43.9320000  2
   5027   5079   5030   5031     4  180.0000771  43.9320000  2
   5093   5129   5097   5098     4  180.0000771  43.9320000  2
   5101   5153   5104   5105     4  180.0000771  43.9320000  2
   5167   5203   5171   5172     4  180.0000771  43.9320000  2
   5175   5227   5178   5179     4  180.0000771  43.9320000  2
   5241   5277   5245   5246     4  180.0000771  43.9320000  2
   5249   5301   5252   5253     4  180.0000771  43.9320000  2
   5315   5351   5319   5320     4  180.0000771  43.9320000  2
   5323   5375   5326   5327     4  180.0000771  43.9320000  2
   5389   5425   5393   5394     4  180.0000771  43.9320000  2
   5397   5449   5400   5401     4  180.0000771  43.9320000  2
   5463   5499   5467   5468     4  180.0000771  43.9320000  2
   5471   5523   5474   5475     4  180.0000771  43.9320000  2
   5537   5573   5541   5542     4  180.0000771  43.9320000  2
   5545   5597   5548   5549     4  180.0000771  43.9320000  2
   5611   5647   5615   5616     4  180.0000771  43.9320000  2
   5619   5671   5622   5623     4  180.0000771  43.9320000  2
   5685   5721   5689   5690     4  180.0000771  43.9320000  2
   5693   5745   5696   5697     4  180.0000771  43.9320000  2
   5759   5795   5763   5764     4  180.0000771  43.9320000  2
   5767   5819   5770   5771     4  180.0000771  43.9320000  2
   5833   5869   5837   5838     4  180.0000771  43.9320000  2
   5841   5893   5844   5845     4  180.0000771  43.9320000  2
   5907   5943   5911   5912     4  180.0000771  43.9320000  2
   5915   5967   5918   5919     4  180.0000771  43.9320000  2
   5981   6017   5985   5986     4  180.0000771  43.9320000  2
   5989   6041   5992   5993     4  180.0000771  43.9320000  2
   6055   6091   6059   6060     4  180.0000771  43.9320000  2
   6063   6115   6066   6067     4  180.0000771  43.9320000  2
   6129   6165   6133   6134     4  180.0000771  43.9320000  2
   6137   6189   6140   6141     4  180.0000771  43.9320000  2
   6203   6239   6207   6208     4  180.0000771  43.9320000  2
   6211   6263   6214   6215     4  180.0000771  43.9320000  2
   6277   6313   6281   6282     4  180.0000771  43.9320000  2
   6285   6337   6288   6289     4  180.0000771  43.9320000  2
      1      2      3     23     1  0.0000000  0.6508444  3
      1      2      3     24     1  0.0000000  0.6508444  3
      1      7     13     37     1  0.0000000  0.6508444  3
      1      7     13     38     1  0.0000000  0.6508444  3
      1      8     15     39     1  0.0000000  0.6508444  3
      1      8     15     40     1  0.0000000  0.6508444  3
      2      1      7     29     1  0.0000000  0.6508444  3
      2      1      7     30     1  0.0000000  0.6508444  3
      2      1      8     31     1  0.0000000  0.6508444  3
      2      1      8     32     1  0.0000000  0.6508444  3
      2      3      4     42     1  0.0000000  0.6508444  3
     41      1      2      3     1  0.0000000  0.6508444  3
      3      4      5     25     1  0.0000000  0.6508444  3
      3      4      5     26     1  0.0000000  0.6508444  3
      3      4      6     27     1  0.0000000  0.6508444  3
      3      4      6     28     1  0.0000000  0.6508444  3
      4      3      2     21     1  0.0000000  0.6508444  3
      4      3      2     22     1  0.0000000  0.6508444  3
      4      5     11     35     1  0.0000000  0.6508444  3
      4      5     11     36     1  0.0000000  0.6508444  3
      4      6      9     33     1  0.0000000  0.6508444  3
      4      6      9     34     1  0.0000000  0.6508444  3
      5      4      3     23     1  0.0000000  0.6508444  3
      5      4      3     24     1  0.0000000  0.6508444  3
      5      4      6     27     1  0.0000000  0.6508444  3
      5      4      6     28     1  0.0000000  0.6508444  3
      6      4      3     23     1  0.0000000  0.6508444  3
      6      4      3     24     1  0.0000000  0.6508444  3
      6      4      5     25     1  0.0000000  0.6508444  3
      6      4      5     26     1  0.0000000  0.6508444  3
      7      1      2     21     1  0.0000000  0.6508444  3
      7      1      2     22     1  0.0000000  0.6508444  3
      7      1      8     31     1  0.0000000  0.6508444  3
      7      1      8     32     1  0.0000000  0.6508444  3
      8      1      2     21     1  0.0000000  0.6508444  3
      8      1      2     22     1  0.0000000  0.6508444  3
      8      1      7     29     1  0.0000000  0.6508444  3
      8      1      7     30     1  0.0000000  0.6508444  3
      9      6      4     42     1  0.0000000  0.6508444  3
      9     10     52     67     1  180.0000771  10.4600000  2
     10      9      6     27     1  0.0000000  0.6508444  3
     10      9      6     28     1  0.0000000  0.6508444  3
     10     52     51     65     1  0.0000000  0.0000000  2
     10     52     51     66     1  0.0000000  0.0000000  2
     11      5      4     42     1  0.0000000  0.6508444  3
     11     12     78     93     1  180.0000771  10.4600000  2
     12     11      5     25     1  0.0000000  0.6508444  3
     12     11      5     26     1  0.0000000  0.6508444  3
     12     78     77     91     1  0.0000000  0.0000000  2
     12     78     77     92     1  0.0000000  0.0000000  2
     41      1      7     13     1  0.0000000  0.6508444  3
     13     14    104    119     1  180.0000771  10.4600000  2
     14     13      7     29     1  0.0000000  0.6508444  3
     14     13      7     30     1  0.0000000  0.6508444  3
     14    104    103    117     1  0.0000000  0.0000000  2
     14    104    103    118     1  0.0000000  0.0000000  2
     41      1      8     15     1  0.0000000  0.6508444  3
     15     16    130    145     1  180.0000771  10.4600000  2
     16     15      8     31     1  0.0000000  0.6508444  3
     16     15      8     32     1  0.0000000  0.6508444  3
     16    130    129    143     1  0.0000000  0.0000000  2
     16    130    129    144     1  0.0000000  0.0000000  2
     17     12     11     35     1  0.0000000  3.3472000  1
     17     12     11     35     1  0.0000000  0.0000000  2
     17     12     11     35     1  180.0000771  0.3347200  3
     17     12     11     36     1  0.0000000  3.3472000  1
     17     12     11     36     1  0.0000000  0.0000000  2
     17     12     11     36     1  180.0000771  0.3347200  3
     17     12     78     93     1  0.0000000  8.3680000  1
     17     12     78     93     1  180.0000771  10.4600000  2
     18     10      9     33     1  0.0000000  3.3472000  1
     18     10      9     33     1  0.0000000  0.0000000  2
     18     10      9     33     1  180.0000771  0.3347200  3
     18     10      9     34     1  0.0000000  3.3472000  1
     18     10      9     34     1  0.0000000  0.0000000  2
     18     10      9     34     1  180.0000771  0.3347200  3
     18     10     52     67     1  0.0000000  8.3680000  1
     18     10     52     67     1  180.0000771  10.4600000  2
     19     16     15     39     1  0.0000000  3.3472000  1
     19     16     15     39     1  0.0000000  0.0000000  2
     19     16     15     39     1  180.0000771  0.3347200  3
     19     16     15     40     1  0.0000000  3.3472000  1
     19     16     15     40     1  0.0000000  0.0000000  2
     19     16     15     40     1  180.0000771  0.3347200  3
     19     16    130    145     1  0.0000000  8.3680000  1
     19     16    130    145     1  180.0000771  10.4600000  2
     20     14     13     37     1  0.0000000  3.3472000  1
     20     14     13     37     1  0.0000000  0.0000000  2
     20     14     13     37     1  180.0000771  0.3347200  3
     20     14     13     38     1  0.0000000  3.3472000  1
     20     14     13     38     1  0.0000000  0.0000000  2
     20     14     13     38     1  180.0000771  0.3347200  3
     20     14    104    119     1  0.0000000  8.3680000  1
     20     14    104    119     1  180.0000771  10.4600000  2
     41      1      2     21     1  0.0000000  0.6508444  3
     21      2      3     23     1  0.0000000  0.6508444  3
     21      2      3     24     1  0.0000000  0.6508444  3
     41      1      2     22     1  0.0000000  0.6508444  3
     22      2      3     23     1  0.0000000  0.6508444  3
     22      2      3     24     1  0.0000000  0.6508444  3
     23      3      4     42     1  0.0000000  0.6508444  3
     24      3      4     42     1  0.0000000  0.6508444  3
     25      5      4     42     1  0.0000000  0.6508444  3
     25      5     11     35     1  0.0000000  0.6508444  3
     25      5     11     36     1  0.0000000  0.6508444  3
     26      5      4     42     1  0.0000000  0.6508444  3
     26      5     11     35     1  0.0000000  0.6508444  3
     26      5     11     36     1  0.0000000  0.6508444  3
     27      6      4     42     1  0.0000000  0.6508444  3
     27      6      9     33     1  0.0000000  0.6508444  3
     27      6      9     34     1  0.0000000  0.6508444  3
     28      6      4     42     1  0.0000000  0.6508444  3
     28      6      9     33     1  0.0000000  0.6508444  3
     28      6      9     34     1  0.0000000  0.6508444  3
     41      1      7     29     1  0.0000000  0.6508444  3
     29      7     13     37     1  0.0000000  0.6508444  3
     29      7     13     38     1  0.0000000  0.6508444  3
     41      1      7     30     1  0.0000000  0.6508444  3
     30      7     13     37     1  0.0000000  0.6508444  3
     30      7     13     38     1  0.0000000  0.6508444  3
     41      1      8     31     1  0.0000000  0.6508444  3
     31      8     15     39     1  0.0000000  0.6508444  3
     31      8     15     40     1  0.0000000  0.6508444  3
     41      1      8     32     1  0.0000000  0.6508444  3
     32      8     15     39     1  0.0000000  0.6508444  3
     32      8     15     40     1  0.0000000  0.6508444  3
     33      9     10     52     1  180.0000771  0.0000000  2
     34      9     10     52     1  180.0000771  0.0000000  2
     35     11     12     78     1  180.0000771  0.0000000  2
     36     11     12     78     1  180.0000771  0.0000000  2
     37     13     14    104     1  180.0000771  0.0000000  2
     38     13     14    104     1  180.0000771  0.0000000  2
     39     15     16    130     1  180.0000771  0.0000000  2
     40     15     16    130     1  180.0000771  0.0000000  2
     43     44     46     59     1  0.0000000  0.6508444  3
     43     44     46     60     1  0.0000000  0.6508444  3
     43     45     48     61     1  0.0000000  0.6508444  3
     43     45     48     62     1  0.0000000  0.6508444  3
     43     50     51     65     1  0.0000000  0.6508444  3
     43     50     51     66     1  0.0000000  0.6508444  3
     44     43     45     57     1  0.0000000  0.6508444  3
     44     43     45     58     1  0.0000000  0.6508444  3
     44     43     50     63     1  0.0000000  0.6508444  3
     44     43     50     64     1  0.0000000  0.6508444  3
     45     43     44     55     1  0.0000000  0.6508444  3
     45     43     44     56     1  0.0000000  0.6508444  3
     45     43     50     63     1  0.0000000  0.6508444  3
     45     43     50     64     1  0.0000000  0.6508444  3
     46     44     43     68     1  0.0000000  0.6508444  3
     46     47    156    171     1  180.0000771  10.4600000  2
     47     46     44     55     1  0.0000000  0.6508444  3
     47     46     44     56     1  0.0000000  0.6508444  3
     47    156    155    169     1  0.0000000  0.0000000  2
     47    156    155    170     1  0.0000000  0.0000000  2
     48     45     43     68     1  0.0000000  0.6508444  3
     48     49    182    197     1  180.0000771  10.4600000  2
     49     48     45     57     1  0.0000000  0.6508444  3
     49     48     45     58     1  0.0000000  0.6508444  3
     49    182    181    195     1  0.0000000  0.0000000  2
     49    182    181    196     1  0.0000000  0.0000000  2
     50     43     44     55     1  0.0000000  0.6508444  3
     50     43     44     56     1  0.0000000  0.6508444  3
     50     43     45     57     1  0.0000000  0.6508444  3
     50     43     45     58     1  0.0000000  0.6508444  3
     50     51     52     67     1  0.0000000  0.0000000  2
     51     50     43     68     1  0.0000000  0.6508444  3
     52     51     50     63     1  0.0000000  0.6508444  3
     52     51     50     64     1  0.0000000  0.6508444  3
     53     47     46     59     1  0.0000000  3.3472000  1
     53     47     46     59     1  0.0000000  0.0000000  2
     53     47     46     59     1  180.0000771  0.3347200  3
     53     47     46     60     1  0.0000000  3.3472000  1
     53     47     46     60     1  0.0000000  0.0000000  2
     53     47     46     60     1  180.0000771  0.3347200  3
     53     47    156    171     1  0.0000000  8.3680000  1
     53     47    156    171     1  180.0000771  10.4600000  2
     54     49     48     61     1  0.0000000  3.3472000  1
     54     49     48     61     1  0.0000000  0.0000000  2
     54     49     48     61     1  180.0000771  0.3347200  3
     54     49     48     62     1  0.0000000  3.3472000  1
     54     49     48     62     1  0.0000000  0.0000000  2
     54     49     48     62     1  180.0000771  0.3347200  3
     54     49    182    197     1  0.0000000  8.3680000  1
     54     49    182    197     1  180.0000771  10.4600000  2
     55     44     43     68     1  0.0000000  0.6508444  3
     55     44     46     59     1  0.0000000  0.6508444  3
     55     44     46     60     1  0.0000000  0.6508444  3
     56     44     43     68     1  0.0000000  0.6508444  3
     56     44     46     59     1  0.0000000  0.6508444  3
     56     44     46     60     1  0.0000000  0.6508444  3
     57     45     43     68     1  0.0000000  0.6508444  3
     57     45     48     61     1  0.0000000  0.6508444  3
     57     45     48     62     1  0.0000000  0.6508444  3
     58     45     43     68     1  0.0000000  0.6508444  3
     58     45     48     61     1  0.0000000  0.6508444  3
     58     45     48     62     1  0.0000000  0.6508444  3
     59     46     47    156     1  180.0000771  0.0000000  2
     60     46     47    156     1  180.0000771  0.0000000  2
     61     48     49    182     1  180.0000771  0.0000000  2
     62     48     49    182     1  180.0000771  0.0000000  2
     63     50     43     68     1  0.0000000  0.6508444  3
     63     50     51     65     1  0.0000000  0.6508444  3
     63     50     51     66     1  0.0000000  0.6508444  3
     64     50     43     68     1  0.0000000  0.6508444  3
     64     50     51     65     1  0.0000000  0.6508444  3
     64     50     51     66     1  0.0000000  0.6508444  3
     65     51     52     67     1  0.0000000  0.0000000  2
     66     51     52     67     1  0.0000000  0.0000000  2
     69     70     72     85     1  0.0000000  0.6508444  3
     69     70     72     86     1  0.0000000  0.6508444  3
     69     71     74     87     1  0.0000000  0.6508444  3
     69     71     74     88     1  0.0000000  0.6508444  3
     69     76     77     91     1  0.0000000  0.6508444  3
     69     76     77     92     1  0.0000000  0.6508444  3
     70     69     71     83     1  0.0000000  0.6508444  3
     70     69     71     84     1  0.0000000  0.6508444  3
     70     69     76     89     1  0.0000000  0.6508444  3
     70     69     76     90     1  0.0000000  0.6508444  3
     71     69     70     81     1  0.0000000  0.6508444  3
     71     69     70     82     1  0.0000000  0.6508444  3
     71     69     76     89     1  0.0000000  0.6508444  3
     71     69     76     90     1  0.0000000  0.6508444  3
     72     70     69     94     1  0.0000000  0.6508444  3
     72     73    208    223     1  180.0000771  10.4600000  2
     73     72     70     81     1  0.0000000  0.6508444  3
     73     72     70     82     1  0.0000000  0.6508444  3
     73    208    207    221     1  0.0000000  0.0000000  2
     73    208    207    222     1  0.0000000  0.0000000  2
     74     71     69     94     1  0.0000000  0.6508444  3
     74     75    234    249     1  180.0000771  10.4600000  2
     75     74     71     83     1  0.0000000  0.6508444  3
     75     74     71     84     1  0.0000000  0.6508444  3
     75    234    233    247     1  0.0000000  0.0000000  2
     75    234    233    248     1  0.0000000  0.0000000  2
     76     69     70     81     1  0.0000000  0.6508444  3
     76     69     70     82     1  0.0000000  0.6508444  3
     76     69     71     83     1  0.0000000  0.6508444  3
     76     69     71     84     1  0.0000000  0.6508444  3
     76     77     78     93     1  0.0000000  0.0000000  2
     77     76     69     94     1  0.0000000  0.6508444  3
     78     77     76     89     1  0.0000000  0.6508444  3
     78     77     76     90     1  0.0000000  0.6508444  3
     79     73     72     85     1  0.0000000  3.3472000  1
     79     73     72     85     1  0.0000000  0.0000000  2
     79     73     72     85     1  180.0000771  0.3347200  3
     79     73     72     86     1  0.0000000  3.3472000  1
     79     73     72     86     1  0.0000000  0.0000000  2
     79     73     72     86     1  180.0000771  0.3347200  3
     79     73    208    223     1  0.0000000  8.3680000  1
     79     73    208    223     1  180.0000771  10.4600000  2
     80     75     74     87     1  0.0000000  3.3472000  1
     80     75     74     87     1  0.0000000  0.0000000  2
     80     75     74     87     1  180.0000771  0.3347200  3
     80     75     74     88     1  0.0000000  3.3472000  1
     80     75     74     88     1  0.0000000  0.0000000  2
     80     75     74     88     1  180.0000771  0.3347200  3
     80     75    234    249     1  0.0000000  8.3680000  1
     80     75    234    249     1  180.0000771  10.4600000  2
     81     70     69     94     1  0.0000000  0.6508444  3
     81     70     72     85     1  0.0000000  0.6508444  3
     81     70     72     86     1  0.0000000  0.6508444  3
     82     70     69     94     1  0.0000000  0.6508444  3
     82     70     72     85     1  0.0000000  0.6508444  3
     82     70     72     86     1  0.0000000  0.6508444  3
     83     71     69     94     1  0.0000000  0.6508444  3
     83     71     74     87     1  0.0000000  0.6508444  3
     83     71     74     88     1  0.0000000  0.6508444  3
     84     71     69     94     1  0.0000000  0.6508444  3
     84     71     74     87     1  0.0000000  0.6508444  3
     84     71     74     88     1  0.0000000  0.6508444  3
     85     72     73    208     1  180.0000771  0.0000000  2
     86     72     73    208     1  180.0000771  0.0000000  2
     87     74     75    234     1  180.0000771  0.0000000  2
     88     74     75    234     1  180.0000771  0.0000000  2
     89     76     69     94     1  0.0000000  0.6508444  3
     89     76     77     91     1  0.0000000  0.6508444  3
     89     76     77     92     1  0.0000000  0.6508444  3
     90     76     69     94     1  0.0000000  0.6508444  3
     90     76     77     91     1  0.0000000  0.6508444  3
     90     76     77     92     1  0.0000000  0.6508444  3
     91     77     78     93     1  0.0000000  0.0000000  2
     92     77     78     93     1  0.0000000  0.0000000  2
     95     96     98    111     1  0.0000000  0.6508444  3
     95     96     98    112     1  0.0000000  0.6508444  3
     95     97    100    113     1  0.0000000  0.6508444  3
     95     97    100    114     1  0.0000000  0.6508444  3
     95    102    103    117     1  0.0000000  0.6508444  3
     95    102    103    118     1  0.0000000  0.6508444  3
     96     95     97    109     1  0.0000000  0.6508444  3
     96     95     97    110     1  0.0000000  0.6508444  3
     96     95    102    115     1  0.0000000  0.6508444  3
     96     95    102    116     1  0.0000000  0.6508444  3
     97     95     96    107     1  0.0000000  0.6508444  3
     97     95     96    108     1  0.0000000  0.6508444  3
     97     95    102    115     1  0.0000000  0.6508444  3
     97     95    102    116     1  0.0000000  0.6508444  3
     98     96     95    120     1  0.0000000  0.6508444  3
     98     99    260    275     1  180.0000771  10.4600000  2
     99     98     96    107     1  0.0000000  0.6508444  3
     99     98     96    108     1  0.0000000  0.6508444  3
     99    260    259    273     1  0.0000000  0.0000000  2
     99    260    259    274     1  0.0000000  0.0000000  2
    100     97     95    120     1  0.0000000  0.6508444  3
    100    101    286    301     1  180.0000771  10.4600000  2
    101    100     97    109     1  0.0000000  0.6508444  3
    101    100     97    110     1  0.0000000  0.6508444  3
    101    286    285    299     1  0.0000000  0.0000000  2
    101    286    285    300     1  0.0000000  0.0000000  2
    102     95     96    107     1  0.0000000  0.6508444  3
    102     95     96    108     1  0.0000000  0.6508444  3
    102     95     97    109     1  0.0000000  0.6508444  3
    102     95     97    110     1  0.0000000  0.6508444  3
    102    103    104    119     1  0.0000000  0.0000000  2
    103    102     95    120     1  0.0000000  0.6508444  3
    104    103    102    115     1  0.0000000  0.6508444  3
    104    103    102    116     1  0.0000000  0.6508444  3
    105     99     98    111     1  0.0000000  3.3472000  1
    105     99     98    111     1  0.0000000  0.0000000  2
    105     99     98    111     1  180.0000771  0.3347200  3
    105     99     98    112     1  0.0000000  3.3472000  1
    105     99     98    112     1  0.0000000  0.0000000  2
    105     99     98    112     1  180.0000771  0.3347200  3
    105     99    260    275     1  0.0000000  8.3680000  1
    105     99    260    275     1  180.0000771  10.4600000  2
    106    101    100    113     1  0.0000000  3.3472000  1
    106    101    100    113     1  0.0000000  0.0000000  2
    106    101    100    113     1  180.0000771  0.3347200  3
    106    101    100    114     1  0.0000000  3.3472000  1
    106    101    100    114     1  0.0000000  0.0000000  2
    106    101    100    114     1  180.0000771  0.3347200  3
    106    101    286    301     1  0.0000000  8.3680000  1
    106    101    286    301     1  180.0000771  10.4600000  2
    107     96     95    120     1  0.0000000  0.6508444  3
    107     96     98    111     1  0.0000000  0.6508444  3
    107     96     98    112     1  0.0000000  0.6508444  3
    108     96     95    120     1  0.0000000  0.6508444  3
    108     96     98    111     1  0.0000000  0.6508444  3
    108     96     98    112     1  0.0000000  0.6508444  3
    109     97     95    120     1  0.0000000  0.6508444  3
    109     97    100    113     1  0.0000000  0.6508444  3
    109     97    100    114     1  0.0000000  0.6508444  3
    110     97     95    120     1  0.0000000  0.6508444  3
    110     97    100    113     1  0.0000000  0.6508444  3
    110     97    100    114     1  0.0000000  0.6508444  3
    111     98     99    260     1  180.0000771  0.0000000  2
    112     98     99    260     1  180.0000771  0.0000000  2
    113    100    101    286     1  180.0000771  0.0000000  2
    114    100    101    286     1  180.0000771  0.0000000  2
    115    102     95    120     1  0.0000000  0.6508444  3
    115    102    103    117     1  0.0000000  0.6508444  3
    115    102    103    118     1  0.0000000  0.6508444  3
    116    102     95    120     1  0.0000000  0.6508444  3
    116    102    103    117     1  0.0000000  0.6508444  3
    116    102    103    118     1  0.0000000  0.6508444  3
    117    103    104    119     1  0.0000000  0.0000000  2
    118    103    104    119     1  0.0000000  0.0000000  2
    121    122    124    137     1  0.0000000  0.6508444  3
    121    122    124    138     1  0.0000000  0.6508444  3
    121    123    126    139     1  0.0000000  0.6508444  3
    121    123    126    140     1  0.0000000  0.6508444  3
    121    128    129    143     1  0.0000000  0.6508444  3
    121    128    129    144     1  0.0000000  0.6508444  3
    122    121    123    135     1  0.0000000  0.6508444  3
    122    121    123    136     1  0.0000000  0.6508444  3
    122    121    128    141     1  0.0000000  0.6508444  3
    122    121    128    142     1  0.0000000  0.6508444  3
    123    121    122    133     1  0.0000000  0.6508444  3
    123    121    122    134     1  0.0000000  0.6508444  3
    123    121    128    141     1  0.0000000  0.6508444  3
    123    121    128    142     1  0.0000000  0.6508444  3
    124    122    121    146     1  0.0000000  0.6508444  3
    124    125    312    327     1  180.0000771  10.4600000  2
    125    124    122    133     1  0.0000000  0.6508444  3
    125    124    122    134     1  0.0000000  0.6508444  3
    125    312    311    325     1  0.0000000  0.0000000  2
    125    312    311    326     1  0.0000000  0.0000000  2
    126    123    121    146     1  0.0000000  0.6508444  3
    126    127    338    353     1  180.0000771  10.4600000  2
    127    126    123    135     1  0.0000000  0.6508444  3
    127    126    123    136     1  0.0000000  0.6508444  3
    127    338    337    351     1  0.0000000  0.0000000  2
    127    338    337    352     1  0.0000000  0.0000000  2
    128    121    122    133     1  0.0000000  0.6508444  3
    128    121    122    134     1  0.0000000  0.6508444  3
    128    121    123    135     1  0.0000000  0.6508444  3
    128    121    123    136     1  0.0000000  0.6508444  3
    128    129    130    145     1  0.0000000  0.0000000  2
    129    128    121    146     1  0.0000000  0.6508444  3
    130    129    128    141     1  0.0000000  0.6508444  3
    130    129    128    142     1  0.0000000  0.6508444  3
    131    125    124    137     1  0.0000000  3.3472000  1
    131    125    124    137     1  0.0000000  0.0000000  2
    131    125    124    137     1  180.0000771  0.3347200  3
    131    125    124    138     1  0.0000000  3.3472000  1
    131    125    124    138     1  0.0000000  0.0000000  2
    131    125    124    138     1  180.0000771  0.3347200  3
    131    125    312    327     1  0.0000000  8.3680000  1
    131    125    312    327     1  180.0000771  10.4600000  2
    132    127    126    139     1  0.0000000  3.3472000  1
    132    127    126    139     1  0.0000000  0.0000000  2
    132    127    126    139     1  180.0000771  0.3347200  3
    132    127    126    140     1  0.0000000  3.3472000  1
    132    127    126    140     1  0.0000000  0.0000000  2
    132    127    126    140     1  180.0000771  0.3347200  3
    132    127    338    353     1  0.0000000  8.3680000  1
    132    127    338    353     1  180.0000771  10.4600000  2
    133    122    121    146     1  0.0000000  0.6508444  3
    133    122    124    137     1  0.0000000  0.6508444  3
    133    122    124    138     1  0.0000000  0.6508444  3
    134    122    121    146     1  0.0000000  0.6508444  3
    134    122    124    137     1  0.0000000  0.6508444  3
    134    122    124    138     1  0.0000000  0.6508444  3
    135    123    121    146     1  0.0000000  0.6508444  3
    135    123    126    139     1  0.0000000  0.6508444  3
    135    123    126    140     1  0.0000000  0.6508444  3
    136    123    121    146     1  0.0000000  0.6508444  3
    136    123    126    139     1  0.0000000  0.6508444  3
    136    123    126    140     1  0.0000000  0.6508444  3
    137    124    125    312     1  180.0000771  0.0000000  2
    138    124    125    312     1  180.0000771  0.0000000  2
    139    126    127    338     1  180.0000771  0.0000000  2
    140    126    127    338     1  180.0000771  0.0000000  2
    141    128    121    146     1  0.0000000  0.6508444  3
    141    128    129    143     1  0.0000000  0.6508444  3
    141    128    129    144     1  0.0000000  0.6508444  3
    142    128    121    146     1  0.0000000  0.6508444  3
    142    128    129    143     1  0.0000000  0.6508444  3
    142    128    129    144     1  0.0000000  0.6508444  3
    143    129    130    145     1  0.0000000  0.0000000  2
    144    129    130    145     1  0.0000000  0.0000000  2
    147    148    150    163     1  0.0000000  0.6508444  3
    147    148    150    164     1  0.0000000  0.6508444  3
    147    149    152    165     1  0.0000000  0.6508444  3
    147    149    152    166     1  0.0000000  0.6508444  3
    147    154    155    169     1  0.0000000  0.6508444  3
    147    154    155    170     1  0.0000000  0.6508444  3
    148    147    149    161     1  0.0000000  0.6508444  3
    148    147    149    162     1  0.0000000  0.6508444  3
    148    147    154    167     1  0.0000000  0.6508444  3
    148    147    154    168     1  0.0000000  0.6508444  3
    149    147    148    159     1  0.0000000  0.6508444  3
    149    147    148    160     1  0.0000000  0.6508444  3
    149    147    154    167     1  0.0000000  0.6508444  3
    149    147    154    168     1  0.0000000  0.6508444  3
    150    148    147    172     1  0.0000000  0.6508444  3
    150    151    364    379     1  180.0000771  10.4600000  2
    151    150    148    159     1  0.0000000  0.6508444  3
    151    150    148    160     1  0.0000000  0.6508444  3
    151    364    363    377     1  0.0000000  0.0000000  2
    151    364    363    378     1  0.0000000  0.0000000  2
    152    149    147    172     1  0.0000000  0.6508444  3
    152    153    390    405     1  180.0000771  10.4600000  2
    153    152    149    161     1  0.0000000  0.6508444  3
    153    152    149    162     1  0.0000000  0.6508444  3
    153    390    389    403     1  0.0000000  0.0000000  2
    153    390    389    404     1  0.0000000  0.0000000  2
    154    147    148    159     1  0.0000000  0.6508444  3
    154    147    148    160     1  0.0000000  0.6508444  3
    154    147    149    161     1  0.0000000  0.6508444  3
    154    147    149    162     1  0.0000000  0.6508444  3
    154    155    156    171     1  0.0000000  0.0000000  2
    155    154    147    172     1  0.0000000  0.6508444  3
    156    155    154    167     1  0.0000000  0.6508444  3
    156    155    154    168     1  0.0000000  0.6508444  3
    157    151    150    163     1  0.0000000  3.3472000  1
    157    151    150    163     1  0.0000000  0.0000000  2
    157    151    150    163     1  180.0000771  0.3347200  3
    157    151    150    164     1  0.0000000  3.3472000  1
    157    151    150    164     1  0.0000000  0.0000000  2
    157    151    150    164     1  180.0000771  0.3347200  3
    157    151    364    379     1  0.0000000  8.3680000  1
    157    151    364    379     1  180.0000771  10.4600000  2
    158    153    152    165     1  0.0000000  3.3472000  1
    158    153    152    165     1  0.0000000  0.0000000  2
    158    153    152    165     1  180.0000771  0.3347200  3
    158    153    152    166     1  0.0000000  3.3472000  1
    158    153    152    166     1  0.0000000  0.0000000  2
    158    153    152    166     1  180.0000771  0.3347200  3
    158    153    390    405     1  0.0000000  8.3680000  1
    158    153    390    405     1  180.0000771  10.4600000  2
    159    148    147    172     1  0.0000000  0.6508444  3
    159    148    150    163     1  0.0000000  0.6508444  3
    159    148    150    164     1  0.0000000  0.6508444  3
    160    148    147    172     1  0.0000000  0.6508444  3
    160    148    150    163     1  0.0000000  0.6508444  3
    160    148    150    164     1  0.0000000  0.6508444  3
    161    149    147    172     1  0.0000000  0.6508444  3
    161    149    152    165     1  0.0000000  0.6508444  3
    161    149    152    166     1  0.0000000  0.6508444  3
    162    149    147    172     1  0.0000000  0.6508444  3
    162    149    152    165     1  0.0000000  0.6508444  3
    162    149    152    166     1  0.0000000  0.6508444  3
    163    150    151    364     1  180.0000771  0.0000000  2
    164    150    151    364     1  180.0000771  0.0000000  2
    165    152    153    390     1  180.0000771  0.0000000  2
    166    152    153    390     1  180.0000771  0.0000000  2
    167    154    147    172     1  0.0000000  0.6508444  3
    167    154    155    169     1  0.0000000  0.6508444  3
    167    154    155    170     1  0.0000000  0.6508444  3
    168    154    147    172     1  0.0000000  0.6508444  3
    168    154    155    169     1  0.0000000  0.6508444  3
    168    154    155    170     1  0.0000000  0.6508444  3
    169    155    156    171     1  0.0000000  0.0000000  2
    170    155    156    171     1  0.0000000  0.0000000  2
    173    174    176    189     1  0.0000000  0.6508444  3
    173    174    176    190     1  0.0000000  0.6508444  3
    173    175    178    191     1  0.0000000  0.6508444  3
    173    175    178    192     1  0.0000000  0.6508444  3
    173    180    181    195     1  0.0000000  0.6508444  3
    173    180    181    196     1  0.0000000  0.6508444  3
    174    173    175    187     1  0.0000000  0.6508444  3
    174    173    175    188     1  0.0000000  0.6508444  3
    174    173    180    193     1  0.0000000  0.6508444  3
    174    173    180    194     1  0.0000000  0.6508444  3
    175    173    174    185     1  0.0000000  0.6508444  3
    175    173    174    186     1  0.0000000  0.6508444  3
    175    173    180    193     1  0.0000000  0.6508444  3
    175    173    180    194     1  0.0000000  0.6508444  3
    176    174    173    198     1  0.0000000  0.6508444  3
    176    177    416    431     1  180.0000771  10.4600000  2
    177    176    174    185     1  0.0000000  0.6508444  3
    177    176    174    186     1  0.0000000  0.6508444  3
    177    416    415    429     1  0.0000000  0.0000000  2
    177    416    415    430     1  0.0000000  0.0000000  2
    178    175    173    198     1  0.0000000  0.6508444  3
    178    179    442    457     1  180.0000771  10.4600000  2
    179    178    175    187     1  0.0000000  0.6508444  3
    179    178    175    188     1  0.0000000  0.6508444  3
    179    442    441    455     1  0.0000000  0.0000000  2
    179    442    441    456     1  0.0000000  0.0000000  2
    180    173    174    185     1  0.0000000  0.6508444  3
    180    173    174    186     1  0.0000000  0.6508444  3
    180    173    175    187     1  0.0000000  0.6508444  3
    180    173    175    188     1  0.0000000  0.6508444  3
    180    181    182    197     1  0.0000000  0.0000000  2
    181    180    173    198     1  0.0000000  0.6508444  3
    182    181    180    193     1  0.0000000  0.6508444  3
    182    181    180    194     1  0.0000000  0.6508444  3
    183    177    176    189     1  0.0000000  3.3472000  1
    183    177    176    189     1  0.0000000  0.0000000  2
    183    177    176    189     1  180.0000771  0.3347200  3
    183    177    176    190     1  0.0000000  3.3472000  1
    183    177    176    190     1  0.0000000  0.0000000  2
    183    177    176    190     1  180.0000771  0.3347200  3
    183    177    416    431     1  0.0000000  8.3680000  1
    183    177    416    431     1  180.0000771  10.4600000  2
    184    179    178    191     1  0.0000000  3.3472000  1
    184    179    178    191     1  0.0000000  0.0000000  2
    184    179    178    191     1  180.0000771  0.3347200  3
    184    179    178    192     1  0.0000000  3.3472000  1
    184    179    178    192     1  0.0000000  0.0000000  2
    184    179    178    192     1  180.0000771  0.3347200  3
    184    179    442    457     1  0.0000000  8.3680000  1
    184    179    442    457     1  180.0000771  10.4600000  2
    185    174    173    198     1  0.0000000  0.6508444  3
    185    174    176    189     1  0.0000000  0.6508444  3
    185    174    176    190     1  0.0000000  0.6508444  3
    186    174    173    198     1  0.0000000  0.6508444  3
    186    174    176    189     1  0.0000000  0.6508444  3
    186    174    176    190     1  0.0000000  0.6508444  3
    187    175    173    198     1  0.0000000  0.6508444  3
    187    175    178    191     1  0.0000000  0.6508444  3
    187    175    178    192     1  0.0000000  0.6508444  3
    188    175    173    198     1  0.0000000  0.6508444  3
    188    175    178    191     1  0.0000000  0.6508444  3
    188    175    178    192     1  0.0000000  0.6508444  3
    189    176    177    416     1  180.0000771  0.0000000  2
    190    176    177    416     1  180.0000771  0.0000000  2
    191    178    179    442     1  180.0000771  0.0000000  2
    192    178    179    442     1  180.0000771  0.0000000  2
    193    180    173    198     1  0.0000000  0.6508444  3
    193    180    181    195     1  0.0000000  0.6508444  3
    193    180    181    196     1  0.0000000  0.6508444  3
    194    180    173    198     1  0.0000000  0.6508444  3
    194    180    181    195     1  0.0000000  0.6508444  3
    194    180    181    196     1  0.0000000  0.6508444  3
    195    181    182    197     1  0.0000000  0.0000000  2
    196    181    182    197     1  0.0000000  0.0000000  2
    199    200    202    215     1  0.0000000  0.6508444  3
    199    200    202    216     1  0.0000000  0.6508444  3
    199    201    204    217     1  0.0000000  0.6508444  3
    199    201    204    218     1  0.0000000  0.6508444  3
    199    206    207    221     1  0.0000000  0.6508444  3
    199    206    207    222     1  0.0000000  0.6508444  3
    200    199    201    213     1  0.0000000  0.6508444  3
    200    199    201    214     1  0.0000000  0.6508444  3
    200    199    206    219     1  0.0000000  0.6508444  3
    200    199    206    220     1  0.0000000  0.6508444  3
    201    199    200    211     1  0.0000000  0.6508444  3
    201    199    200    212     1  0.0000000  0.6508444  3
    201    199    206    219     1  0.0000000  0.6508444  3
    201    199    206    220     1  0.0000000  0.6508444  3
    202    200    199    224     1  0.0000000  0.6508444  3
    202    203    468    483     1  180.0000771  10.4600000  2
    203    202    200    211     1  0.0000000  0.6508444  3
    203    202    200    212     1  0.0000000  0.6508444  3
    203    468    467    481     1  0.0000000  0.0000000  2
    203    468    467    482     1  0.0000000  0.0000000  2
    204    201    199    224     1  0.0000000  0.6508444  3
    204    205    494    509     1  180.0000771  10.4600000  2
    205    204    201    213     1  0.0000000  0.6508444  3
    205    204    201    214     1  0.0000000  0.6508444  3
    205    494    493    507     1  0.0000000  0.0000000  2
    205    494    493    508     1  0.0000000  0.0000000  2
    206    199    200    211     1  0.0000000  0.6508444  3
    206    199    200    212     1  0.0000000  0.6508444  3
    206    199    201    213     1  0.0000000  0.6508444  3
    206    199    201    214     1  0.0000000  0.6508444  3
    206    207    208    223     1  0.0000000  0.0000000  2
    207    206    199    224     1  0.0000000  0.6508444  3
    208    207    206    219     1  0.0000000  0.6508444  3
    208    207    206    220     1  0.0000000  0.6508444  3
    209    203    202    215     1  0.0000000  3.3472000  1
    209    203    202    215     1  0.0000000  0.0000000  2
    209    203    202    215     1  180.0000771  0.3347200  3
    209    203    202    216     1  0.0000000  3.3472000  1
    209    203    202    216     1  0.0000000  0.0000000  2
    209    203    202    216     1  180.0000771  0.3347200  3
    209    203    468    483     1  0.0000000  8.3680000  1
    209    203    468    483     1  180.0000771  10.4600000  2
    210    205    204    217     1  0.0000000  3.3472000  1
    210    205    204    217     1  0.0000000  0.0000000  2
    210    205    204    217     1  180.0000771  0.3347200  3
    210    205    204    218     1  0.0000000  3.3472000  1
    210    205    204    218     1  0.0000000  0.0000000  2
    210    205    204    218     1  180.0000771  0.3347200  3
    210    205    494    509     1  0.0000000  8.3680000  1
    210    205    494    509     1  180.0000771  10.4600000  2
    211    200    199    224     1  0.0000000  0.6508444  3
    211    200    202    215     1  0.0000000  0.6508444  3
    211    200    202    216     1  0.0000000  0.6508444  3
    212    200    199    224     1  0.0000000  0.6508444  3
    212    200    202    215     1  0.0000000  0.6508444  3
    212    200    202    216     1  0.0000000  0.6508444  3
    213    201    199    224     1  0.0000000  0.6508444  3
    213    201    204    217     1  0.0000000  0.6508444  3
    213    201    204    218     1  0.0000000  0.6508444  3
    214    201    199    224     1  0.0000000  0.6508444  3
    214    201    204    217     1  0.0000000  0.6508444  3
    214    201    204    218     1  0.0000000  0.6508444  3
    215    202    203    468     1  180.0000771  0.0000000  2
    216    202    203    468     1  180.0000771  0.0000000  2
    217    204    205    494     1  180.0000771  0.0000000  2
    218    204    205    494     1  180.0000771  0.0000000  2
    219    206    199    224     1  0.0000000  0.6508444  3
    219    206    207    221     1  0.0000000  0.6508444  3
    219    206    207    222     1  0.0000000  0.6508444  3
    220    206    199    224     1  0.0000000  0.6508444  3
    220    206    207    221     1  0.0000000  0.6508444  3
    220    206    207    222     1  0.0000000  0.6508444  3
    221    207    208    223     1  0.0000000  0.0000000  2
    222    207    208    223     1  0.0000000  0.0000000  2
    225    226    228    241     1  0.0000000  0.6508444  3
    225    226    228    242     1  0.0000000  0.6508444  3
    225    227    230    243     1  0.0000000  0.6508444  3
    225    227    230    244     1  0.0000000  0.6508444  3
    225    232    233    247     1  0.0000000  0.6508444  3
    225    232    233    248     1  0.0000000  0.6508444  3
    226    225    227    239     1  0.0000000  0.6508444  3
    226    225    227    240     1  0.0000000  0.6508444  3
    226    225    232    245     1  0.0000000  0.6508444  3
    226    225    232    246     1  0.0000000  0.6508444  3
    227    225    226    237     1  0.0000000  0.6508444  3
    227    225    226    238     1  0.0000000  0.6508444  3
    227    225    232    245     1  0.0000000  0.6508444  3
    227    225    232    246     1  0.0000000  0.6508444  3
    228    226    225    250     1  0.0000000  0.6508444  3
    228    229    520    535     1  180.0000771  10.4600000  2
    229    228    226    237     1  0.0000000  0.6508444  3
    229    228    226    238     1  0.0000000  0.6508444  3
    229    520    519    533     1  0.0000000  0.0000000  2
    229    520    519    534     1  0.0000000  0.0000000  2
    230    227    225    250     1  0.0000000  0.6508444  3
    230    231    546    561     1  180.0000771  10.4600000  2
    231    230    227    239     1  0.0000000  0.6508444  3
    231    230    227    240     1  0.0000000  0.6508444  3
    231    546    545    559     1  0.0000000  0.0000000  2
    231    546    545    560     1  0.0000000  0.0000000  2
    232    225    226    237     1  0.0000000  0.6508444  3
    232    225    226    238     1  0.0000000  0.6508444  3
    232    225    227    239     1  0.0000000  0.6508444  3
    232    225    227    240     1  0.0000000  0.6508444  3
    232    233    234    249     1  0.0000000  0.0000000  2
    233    232    225    250     1  0.0000000  0.6508444  3
    234    233    232    245     1  0.0000000  0.6508444  3
    234    233    232    246     1  0.0000000  0.6508444  3
    235    229    228    241     1  0.0000000  3.3472000  1
    235    229    228    241     1  0.0000000  0.0000000  2
    235    229    228    241     1  180.0000771  0.3347200  3
    235    229    228    242     1  0.0000000  3.3472000  1
    235    229    228    242     1  0.0000000  0.0000000  2
    235    229    228    242     1  180.0000771  0.3347200  3
    235    229    520    535     1  0.0000000  8.3680000  1
    235    229    520    535     1  180.0000771  10.4600000  2
    236    231    230    243     1  0.0000000  3.3472000  1
    236    231    230    243     1  0.0000000  0.0000000  2
    236    231    230    243     1  180.0000771  0.3347200  3
    236    231    230    244     1  0.0000000  3.3472000  1
    236    231    230    244     1  0.0000000  0.0000000  2
    236    231    230    244     1  180.0000771  0.3347200  3
    236    231    546    561     1  0.0000000  8.3680000  1
    236    231    546    561     1  180.0000771  10.4600000  2
    237    226    225    250     1  0.0000000  0.6508444  3
    237    226    228    241     1  0.0000000  0.6508444  3
    237    226    228    242     1  0.0000000  0.6508444  3
    238    226    225    250     1  0.0000000  0.6508444  3
    238    226    228    241     1  0.0000000  0.6508444  3
    238    226    228    242     1  0.0000000  0.6508444  3
    239    227    225    250     1  0.0000000  0.6508444  3
    239    227    230    243     1  0.0000000  0.6508444  3
    239    227    230    244     1  0.0000000  0.6508444  3
    240    227    225    250     1  0.0000000  0.6508444  3
    240    227    230    243     1  0.0000000  0.6508444  3
    240    227    230    244     1  0.0000000  0.6508444  3
    241    228    229    520     1  180.0000771  0.0000000  2
    242    228    229    520     1  180.0000771  0.0000000  2
    243    230    231    546     1  180.0000771  0.0000000  2
    244    230    231    546     1  180.0000771  0.0000000  2
    245    232    225    250     1  0.0000000  0.6508444  3
    245    232    233    247     1  0.0000000  0.6508444  3
    245    232    233    248     1  0.0000000  0.6508444  3
    246    232    225    250     1  0.0000000  0.6508444  3
    246    232    233    247     1  0.0000000  0.6508444  3
    246    232    233    248     1  0.0000000  0.6508444  3
    247    233    234    249     1  0.0000000  0.0000000  2
    248    233    234    249     1  0.0000000  0.0000000  2
    251    252    254    267     1  0.0000000  0.6508444  3
    251    252    254    268     1  0.0000000  0.6508444  3
    251    253    256    269     1  0.0000000  0.6508444  3
    251    253    256    270     1  0.0000000  0.6508444  3
    251    258    259    273     1  0.0000000  0.6508444  3
    251    258    259    274     1  0.0000000  0.6508444  3
    252    251    253    265     1  0.0000000  0.6508444  3
    252    251    253    266     1  0.0000000  0.6508444  3
    252    251    258    271     1  0.0000000  0.6508444  3
    252    251    258    272     1  0.0000000  0.6508444  3
    253    251    252    263     1  0.0000000  0.6508444  3
    253    251    252    264     1  0.0000000  0.6508444  3
    253    251    258    271     1  0.0000000  0.6508444  3
    253    251    258    272     1  0.0000000  0.6508444  3
    254    252    251    276     1  0.0000000  0.6508444  3
    254    255    572    587     1  180.0000771  10.4600000  2
    255    254    252    263     1  0.0000000  0.6508444  3
    255    254    252    264     1  0.0000000  0.6508444  3
    255    572    571    585     1  0.0000000  0.0000000  2
    255    572    571    586     1  0.0000000  0.0000000  2
    256    253    251    276     1  0.0000000  0.6508444  3
    256    257    598    613     1  180.0000771  10.4600000  2
    257    256    253    265     1  0.0000000  0.6508444  3
    257    256    253    266     1  0.0000000  0.6508444  3
    257    598    597    611     1  0.0000000  0.0000000  2
    257    598    597    612     1  0.0000000  0.0000000  2
    258    251    252    263     1  0.0000000  0.6508444  3
    258    251    252    264     1  0.0000000  0.6508444  3
    258    251    253    265     1  0.0000000  0.6508444  3
    258    251    253    266     1  0.0000000  0.6508444  3
    258    259    260    275     1  0.0000000  0.0000000  2
    259    258    251    276     1  0.0000000  0.6508444  3
    260    259    258    271     1  0.0000000  0.6508444  3
    260    259    258    272     1  0.0000000  0.6508444  3
    261    255    254    267     1  0.0000000  3.3472000  1
    261    255    254    267     1  0.0000000  0.0000000  2
    261    255    254    267     1  180.0000771  0.3347200  3
    261    255    254    268     1  0.0000000  3.3472000  1
    261    255    254    268     1  0.0000000  0.0000000  2
    261    255    254    268     1  180.0000771  0.3347200  3
    261    255    572    587     1  0.0000000  8.3680000  1
    261    255    572    587     1  180.0000771  10.4600000  2
    262    257    256    269     1  0.0000000  3.3472000  1
    262    257    256    269     1  0.0000000  0.0000000  2
    262    257    256    269     1  180.0000771  0.3347200  3
    262    257    256    270     1  0.0000000  3.3472000  1
    262    257    256    270     1  0.0000000  0.0000000  2
    262    257    256    270     1  180.0000771  0.3347200  3
    262    257    598    613     1  0.0000000  8.3680000  1
    262    257    598    613     1  180.0000771  10.4600000  2
    263    252    251    276     1  0.0000000  0.6508444  3
    263    252    254    267     1  0.0000000  0.6508444  3
    263    252    254    268     1  0.0000000  0.6508444  3
    264    252    251    276     1  0.0000000  0.6508444  3
    264    252    254    267     1  0.0000000  0.6508444  3
    264    252    254    268     1  0.0000000  0.6508444  3
    265    253    251    276     1  0.0000000  0.6508444  3
    265    253    256    269     1  0.0000000  0.6508444  3
    265    253    256    270     1  0.0000000  0.6508444  3
    266    253    251    276     1  0.0000000  0.6508444  3
    266    253    256    269     1  0.0000000  0.6508444  3
    266    253    256    270     1  0.0000000  0.6508444  3
    267    254    255    572     1  180.0000771  0.0000000  2
    268    254    255    572     1  180.0000771  0.0000000  2
    269    256    257    598     1  180.0000771  0.0000000  2
    270    256    257    598     1  180.0000771  0.0000000  2
    271    258    251    276     1  0.0000000  0.6508444  3
    271    258    259    273     1  0.0000000  0.6508444  3
    271    258    259    274     1  0.0000000  0.6508444  3
    272    258    251    276     1  0.0000000  0.6508444  3
    272    258    259    273     1  0.0000000  0.6508444  3
    272    258    259    274     1  0.0000000  0.6508444  3
    273    259    260    275     1  0.0000000  0.0000000  2
    274    259    260    275     1  0.0000000  0.0000000  2
    277    278    280    293     1  0.0000000  0.6508444  3
    277    278    280    294     1  0.0000000  0.6508444  3
    277    279    282    295     1  0.0000000  0.6508444  3
    277    279    282    296     1  0.0000000  0.6508444  3
    277    284    285    299     1  0.0000000  0.6508444  3
    277    284    285    300     1  0.0000000  0.6508444  3
    278    277    279    291     1  0.0000000  0.6508444  3
    278    277    279    292     1  0.0000000  0.6508444  3
    278    277    284    297     1  0.0000000  0.6508444  3
    278    277    284    298     1  0.0000000  0.6508444  3
    279    277    278    289     1  0.0000000  0.6508444  3
    279    277    278    290     1  0.0000000  0.6508444  3
    279    277    284    297     1  0.0000000  0.6508444  3
    279    277    284    298     1  0.0000000  0.6508444  3
    280    278    277    302     1  0.0000000  0.6508444  3
    280    281    624    639     1  180.0000771  10.4600000  2
    281    280    278    289     1  0.0000000  0.6508444  3
    281    280    278    290     1  0.0000000  0.6508444  3
    281    624    623    637     1  0.0000000  0.0000000  2
    281    624    623    638     1  0.0000000  0.0000000  2
    282    279    277    302     1  0.0000000  0.6508444  3
    282    283    650    665     1  180.0000771  10.4600000  2
    283    282    279    291     1  0.0000000  0.6508444  3
    283    282    279    292     1  0.0000000  0.6508444  3
    283    650    649    663     1  0.0000000  0.0000000  2
    283    650    649    664     1  0.0000000  0.0000000  2
    284    277    278    289     1  0.0000000  0.6508444  3
    284    277    278    290     1  0.0000000  0.6508444  3
    284    277    279    291     1  0.0000000  0.6508444  3
    284    277    279    292     1  0.0000000  0.6508444  3
    284    285    286    301     1  0.0000000  0.0000000  2
    285    284    277    302     1  0.0000000  0.6508444  3
    286    285    284    297     1  0.0000000  0.6508444  3
    286    285    284    298     1  0.0000000  0.6508444  3
    287    281    280    293     1  0.0000000  3.3472000  1
    287    281    280    293     1  0.0000000  0.0000000  2
    287    281    280    293     1  180.0000771  0.3347200  3
    287    281    280    294     1  0.0000000  3.3472000  1
    287    281    280    294     1  0.0000000  0.0000000  2
    287    281    280    294     1  180.0000771  0.3347200  3
    287    281    624    639     1  0.0000000  8.3680000  1
    287    281    624    639     1  180.0000771  10.4600000  2
    288    283    282    295     1  0.0000000  3.3472000  1
    288    283    282    295     1  0.0000000  0.0000000  2
    288    283    282    295     1  180.0000771  0.3347200  3
    288    283    282    296     1  0.0000000  3.3472000  1
    288    283    282    296     1  0.0000000  0.0000000  2
    288    283    282    296     1  180.0000771  0.3347200  3
    288    283    650    665     1  0.0000000  8.3680000  1
    288    283    650    665     1  180.0000771  10.4600000  2
    289    278    277    302     1  0.0000000  0.6508444  3
    289    278    280    293     1  0.0000000  0.6508444  3
    289    278    280    294     1  0.0000000  0.6508444  3
    290    278    277    302     1  0.0000000  0.6508444  3
    290    278    280    293     1  0.0000000  0.6508444  3
    290    278    280    294     1  0.0000000  0.6508444  3
    291    279    277    302     1  0.0000000  0.6508444  3
    291    279    282    295     1  0.0000000  0.6508444  3
    291    279    282    296     1  0.0000000  0.6508444  3
    292    279    277    302     1  0.0000000  0.6508444  3
    292    279    282    295     1  0.0000000  0.6508444  3
    292    279    282    296     1  0.0000000  0.6508444  3
    293    280    281    624     1  180.0000771  0.0000000  2
    294    280    281    624     1  180.0000771  0.0000000  2
    295    282    283    650     1  180.0000771  0.0000000  2
    296    282    283    650     1  180.0000771  0.0000000  2
    297    284    277    302     1  0.0000000  0.6508444  3
    297    284    285    299     1  0.0000000  0.6508444  3
    297    284    285    300     1  0.0000000  0.6508444  3
    298    284    277    302     1  0.0000000  0.6508444  3
    298    284    285    299     1  0.0000000  0.6508444  3
    298    284    285    300     1  0.0000000  0.6508444  3
    299    285    286    301     1  0.0000000  0.0000000  2
    300    285    286    301     1  0.0000000  0.0000000  2
    303    304    306    319     1  0.0000000  0.6508444  3
    303    304    306    320     1  0.0000000  0.6508444  3
    303    305    308    321     1  0.0000000  0.6508444  3
    303    305    308    322     1  0.0000000  0.6508444  3
    303    310    311    325     1  0.0000000  0.6508444  3
    303    310    311    326     1  0.0000000  0.6508444  3
    304    303    305    317     1  0.0000000  0.6508444  3
    304    303    305    318     1  0.0000000  0.6508444  3
    304    303    310    323     1  0.0000000  0.6508444  3
    304    303    310    324     1  0.0000000  0.6508444  3
    305    303    304    315     1  0.0000000  0.6508444  3
    305    303    304    316     1  0.0000000  0.6508444  3
    305    303    310    323     1  0.0000000  0.6508444  3
    305    303    310    324     1  0.0000000  0.6508444  3
    306    304    303    328     1  0.0000000  0.6508444  3
    306    307    676    691     1  180.0000771  10.4600000  2
    307    306    304    315     1  0.0000000  0.6508444  3
    307    306    304    316     1  0.0000000  0.6508444  3
    307    676    675    689     1  0.0000000  0.0000000  2
    307    676    675    690     1  0.0000000  0.0000000  2
    308    305    303    328     1  0.0000000  0.6508444  3
    308    309    702    717     1  180.0000771  10.4600000  2
    309    308    305    317     1  0.0000000  0.6508444  3
    309    308    305    318     1  0.0000000  0.6508444  3
    309    702    701    715     1  0.0000000  0.0000000  2
    309    702    701    716     1  0.0000000  0.0000000  2
    310    303    304    315     1  0.0000000  0.6508444  3
    310    303    304    316     1  0.0000000  0.6508444  3
    310    303    305    317     1  0.0000000  0.6508444  3
    310    303    305    318     1  0.0000000  0.6508444  3
    310    311    312    327     1  0.0000000  0.0000000  2
    311    310    303    328     1  0.0000000  0.6508444  3
    312    311    310    323     1  0.0000000  0.6508444  3
    312    311    310    324     1  0.0000000  0.6508444  3
    313    307    306    319     1  0.0000000  3.3472000  1
    313    307    306    319     1  0.0000000  0.0000000  2
    313    307    306    319     1  180.0000771  0.3347200  3
    313    307    306    320     1  0.0000000  3.3472000  1
    313    307    306    320     1  0.0000000  0.0000000  2
    313    307    306    320     1  180.0000771  0.3347200  3
    313    307    676    691     1  0.0000000  8.3680000  1
    313    307    676    691     1  180.0000771  10.4600000  2
    314    309    308    321     1  0.0000000  3.3472000  1
    314    309    308    321     1  0.0000000  0.0000000  2
    314    309    308    321     1  180.0000771  0.3347200  3
    314    309    308    322     1  0.0000000  3.3472000  1
    314    309    308    322     1  0.0000000  0.0000000  2
    314    309    308    322     1  180.0000771  0.3347200  3
    314    309    702    717     1  0.0000000  8.3680000  1
    314    309    702    717     1  180.0000771  10.4600000  2
    315    304    303    328     1  0.0000000  0.6508444  3
    315    304    306    319     1  0.0000000  0.6508444  3
    315    304    306    320     1  0.0000000  0.6508444  3
    316    304    303    328     1  0.0000000  0.6508444  3
    316    304    306    319     1  0.0000000  0.6508444  3
    316    304    306    320     1  0.0000000  0.6508444  3
    317    305    303    328     1  0.0000000  0.6508444  3
    317    305    308    321     1  0.0000000  0.6508444  3
    317    305    308    322     1  0.0000000  0.6508444  3
    318    305    303    328     1  0.0000000  0.6508444  3
    318    305    308    321     1  0.0000000  0.6508444  3
    318    305    308    322     1  0.0000000  0.6508444  3
    319    306    307    676     1  180.0000771  0.0000000  2
    320    306    307    676     1  180.0000771  0.0000000  2
    321    308    309    702     1  180.0000771  0.0000000  2
    322    308    309    702     1  180.0000771  0.0000000  2
    323    310    303    328     1  0.0000000  0.6508444  3
    323    310    311    325     1  0.0000000  0.6508444  3
    323    310    311    326     1  0.0000000  0.6508444  3
    324    310    303    328     1  0.0000000  0.6508444  3
    324    310    311    325     1  0.0000000  0.6508444  3
    324    310    311    326     1  0.0000000  0.6508444  3
    325    311    312    327     1  0.0000000  0.0000000  2
    326    311    312    327     1  0.0000000  0.0000000  2
    329    330    332    345     1  0.0000000  0.6508444  3
    329    330    332    346     1  0.0000000  0.6508444  3
    329    331    334    347     1  0.0000000  0.6508444  3
    329    331    334    348     1  0.0000000  0.6508444  3
    329    336    337    351     1  0.0000000  0.6508444  3
    329    336    337    352     1  0.0000000  0.6508444  3
    330    329    331    343     1  0.0000000  0.6508444  3
    330    329    331    344     1  0.0000000  0.6508444  3
    330    329    336    349     1  0.0000000  0.6508444  3
    330    329    336    350     1  0.0000000  0.6508444  3
    331    329    330    341     1  0.0000000  0.6508444  3
    331    329    330    342     1  0.0000000  0.6508444  3
    331    329    336    349     1  0.0000000  0.6508444  3
    331    329    336    350     1  0.0000000  0.6508444  3
    332    330    329    354     1  0.0000000  0.6508444  3
    332    333    728    743     1  180.0000771  10.4600000  2
    333    332    330    341     1  0.0000000  0.6508444  3
    333    332    330    342     1  0.0000000  0.6508444  3
    333    728    727    741     1  0.0000000  0.0000000  2
    333    728    727    742     1  0.0000000  0.0000000  2
    334    331    329    354     1  0.0000000  0.6508444  3
    334    335    754    769     1  180.0000771  10.4600000  2
    335    334    331    343     1  0.0000000  0.6508444  3
    335    334    331    344     1  0.0000000  0.6508444  3
    335    754    753    767     1  0.0000000  0.0000000  2
    335    754    753    768     1  0.0000000  0.0000000  2
    336    329    330    341     1  0.0000000  0.6508444  3
    336    329    330    342     1  0.0000000  0.6508444  3
    336    329    331    343     1  0.0000000  0.6508444  3
    336    329    331    344     1  0.0000000  0.6508444  3
    336    337    338    353     1  0.0000000  0.0000000  2
    337    336    329    354     1  0.0000000  0.6508444  3
    338    337    336    349     1  0.0000000  0.6508444  3
    338    337    336    350     1  0.0000000  0.6508444  3
    339    333    332    345     1  0.0000000  3.3472000  1
    339    333    332    345     1  0.0000000  0.0000000  2
    339    333    332    345     1  180.0000771  0.3347200  3
    339    333    332    346     1  0.0000000  3.3472000  1
    339    333    332    346     1  0.0000000  0.0000000  2
    339    333    332    346     1  180.0000771  0.3347200  3
    339    333    728    743     1  0.0000000  8.3680000  1
    339    333    728    743     1  180.0000771  10.4600000  2
    340    335    334    347     1  0.0000000  3.3472000  1
    340    335    334    347     1  0.0000000  0.0000000  2
    340    335    334    347     1  180.0000771  0.3347200  3
    340    335    334    348     1  0.0000000  3.3472000  1
    340    335    334    348     1  0.0000000  0.0000000  2
    340    335    334    348     1  180.0000771  0.3347200  3
    340    335    754    769     1  0.0000000  8.3680000  1
    340    335    754    769     1  180.0000771  10.4600000  2
    341    330    329    354     1  0.0000000  0.6508444  3
    341    330    332    345     1  0.0000000  0.6508444  3
    341    330    332    346     1  0.0000000  0.6508444  3
    342    330    329    354     1  0.0000000  0.6508444  3
    342    330    332    345     1  0.0000000  0.6508444  3
    342    330    332    346     1  0.0000000  0.6508444  3
    343    331    329    354     1  0.0000000  0.6508444  3
    343    331    334    347     1  0.0000000  0.6508444  3
    343    331    334    348     1  0.0000000  0.6508444  3
    344    331    329    354     1  0.0000000  0.6508444  3
    344    331    334    347     1  0.0000000  0.6508444  3
    344    331    334    348     1  0.0000000  0.6508444  3
    345    332    333    728     1  180.0000771  0.0000000  2
    346    332    333    728     1  180.0000771  0.0000000  2
    347    334    335    754     1  180.0000771  0.0000000  2
    348    334    335    754     1  180.0000771  0.0000000  2
    349    336    329    354     1  0.0000000  0.6508444  3
    349    336    337    351     1  0.0000000  0.6508444  3
    349    336    337    352     1  0.0000000  0.6508444  3
    350    336    329    354     1  0.0000000  0.6508444  3
    350    336    337    351     1  0.0000000  0.6508444  3
    350    336    337    352     1  0.0000000  0.6508444  3
    351    337    338    353     1  0.0000000  0.0000000  2
    352    337    338    353     1  0.0000000  0.0000000  2
    355    356    358    371     1  0.0000000  0.6508444  3
    355    356    358    372     1  0.0000000  0.6508444  3
    355    357    360    373     1  0.0000000  0.6508444  3
    355    357    360    374     1  0.0000000  0.6508444  3
    355    362    363    377     1  0.0000000  0.6508444  3
    355    362    363    378     1  0.0000000  0.6508444  3
    356    355    357    369     1  0.0000000  0.6508444  3
    356    355    357    370     1  0.0000000  0.6508444  3
    356    355    362    375     1  0.0000000  0.6508444  3
    356    355    362    376     1  0.0000000  0.6508444  3
    357    355    356    367     1  0.0000000  0.6508444  3
    357    355    356    368     1  0.0000000  0.6508444  3
    357    355    362    375     1  0.0000000  0.6508444  3
    357    355    362    376     1  0.0000000  0.6508444  3
    358    356    355    380     1  0.0000000  0.6508444  3
    358    359    780    795     1  180.0000771  10.4600000  2
    359    358    356    367     1  0.0000000  0.6508444  3
    359    358    356    368     1  0.0000000  0.6508444  3
    359    780    779    793     1  0.0000000  0.0000000  2
    359    780    779    794     1  0.0000000  0.0000000  2
    360    357    355    380     1  0.0000000  0.6508444  3
    360    361    806    821     1  180.0000771  10.4600000  2
    361    360    357    369     1  0.0000000  0.6508444  3
    361    360    357    370     1  0.0000000  0.6508444  3
    361    806    805    819     1  0.0000000  0.0000000  2
    361    806    805    820     1  0.0000000  0.0000000  2
    362    355    356    367     1  0.0000000  0.6508444  3
    362    355    356    368     1  0.0000000  0.6508444  3
    362    355    357    369     1  0.0000000  0.6508444  3
    362    355    357    370     1  0.0000000  0.6508444  3
    362    363    364    379     1  0.0000000  0.0000000  2
    363    362    355    380     1  0.0000000  0.6508444  3
    364    363    362    375     1  0.0000000  0.6508444  3
    364    363    362    376     1  0.0000000  0.6508444  3
    365    359    358    371     1  0.0000000  3.3472000  1
    365    359    358    371     1  0.0000000  0.0000000  2
    365    359    358    371     1  180.0000771  0.3347200  3
    365    359    358    372     1  0.0000000  3.3472000  1
    365    359    358    372     1  0.0000000  0.0000000  2
    365    359    358    372     1  180.0000771  0.3347200  3
    365    359    780    795     1  0.0000000  8.3680000  1
    365    359    780    795     1  180.0000771  10.4600000  2
    366    361    360    373     1  0.0000000  3.3472000  1
    366    361    360    373     1  0.0000000  0.0000000  2
    366    361    360    373     1  180.0000771  0.3347200  3
    366    361    360    374     1  0.0000000  3.3472000  1
    366    361    360    374     1  0.0000000  0.0000000  2
    366    361    360    374     1  180.0000771  0.3347200  3
    366    361    806    821     1  0.0000000  8.3680000  1
    366    361    806    821     1  180.0000771  10.4600000  2
    367    356    355    380     1  0.0000000  0.6508444  3
    367    356    358    371     1  0.0000000  0.6508444  3
    367    356    358    372     1  0.0000000  0.6508444  3
    368    356    355    380     1  0.0000000  0.6508444  3
    368    356    358    371     1  0.0000000  0.6508444  3
    368    356    358    372     1  0.0000000  0.6508444  3
    369    357    355    380     1  0.0000000  0.6508444  3
    369    357    360    373     1  0.0000000  0.6508444  3
    369    357    360    374     1  0.0000000  0.6508444  3
    370    357    355    380     1  0.0000000  0.6508444  3
    370    357    360    373     1  0.0000000  0.6508444  3
    370    357    360    374     1  0.0000000  0.6508444  3
    371    358    359    780     1  180.0000771  0.0000000  2
    372    358    359    780     1  180.0000771  0.0000000  2
    373    360    361    806     1  180.0000771  0.0000000  2
    374    360    361    806     1  180.0000771  0.0000000  2
    375    362    355    380     1  0.0000000  0.6508444  3
    375    362    363    377     1  0.0000000  0.6508444  3
    375    362    363    378     1  0.0000000  0.6508444  3
    376    362    355    380     1  0.0000000  0.6508444  3
    376    362    363    377     1  0.0000000  0.6508444  3
    376    362    363    378     1  0.0000000  0.6508444  3
    377    363    364    379     1  0.0000000  0.0000000  2
    378    363    364    379     1  0.0000000  0.0000000  2
    381    382    384    397     1  0.0000000  0.6508444  3
    381    382    384    398     1  0.0000000  0.6508444  3
    381    383    386    399     1  0.0000000  0.6508444  3
    381    383    386    400     1  0.0000000  0.6508444  3
    381    388    389    403     1  0.0000000  0.6508444  3
    381    388    389    404     1  0.0000000  0.6508444  3
    382    381    383    395     1  0.0000000  0.6508444  3
    382    381    383    396     1  0.0000000  0.6508444  3
    382    381    388    401     1  0.0000000  0.6508444  3
    382    381    388    402     1  0.0000000  0.6508444  3
    383    381    382    393     1  0.0000000  0.6508444  3
    383    381    382    394     1  0.0000000  0.6508444  3
    383    381    388    401     1  0.0000000  0.6508444  3
    383    381    388    402     1  0.0000000  0.6508444  3
    384    382    381    406     1  0.0000000  0.6508444  3
    384    385    832    847     1  180.0000771  10.4600000  2
    385    384    382    393     1  0.0000000  0.6508444  3
    385    384    382    394     1  0.0000000  0.6508444  3
    385    832    831    845     1  0.0000000  0.0000000  2
    385    832    831    846     1  0.0000000  0.0000000  2
    386    383    381    406     1  0.0000000  0.6508444  3
    386    387    858    873     1  180.0000771  10.4600000  2
    387    386    383    395     1  0.0000000  0.6508444  3
    387    386    383    396     1  0.0000000  0.6508444  3
    387    858    857    871     1  0.0000000  0.0000000  2
    387    858    857    872     1  0.0000000  0.0000000  2
    388    381    382    393     1  0.0000000  0.6508444  3
    388    381    382    394     1  0.0000000  0.6508444  3
    388    381    383    395     1  0.0000000  0.6508444  3
    388    381    383    396     1  0.0000000  0.6508444  3
    388    389    390    405     1  0.0000000  0.0000000  2
    389    388    381    406     1  0.0000000  0.6508444  3
    390    389    388    401     1  0.0000000  0.6508444  3
    390    389    388    402     1  0.0000000  0.6508444  3
    391    385    384    397     1  0.0000000  3.3472000  1
    391    385    384    397     1  0.0000000  0.0000000  2
    391    385    384    397     1  180.0000771  0.3347200  3
    391    385    384    398     1  0.0000000  3.3472000  1
    391    385    384    398     1  0.0000000  0.0000000  2
    391    385    384    398     1  180.0000771  0.3347200  3
    391    385    832    847     1  0.0000000  8.3680000  1
    391    385    832    847     1  180.0000771  10.4600000  2
    392    387    386    399     1  0.0000000  3.3472000  1
    392    387    386    399     1  0.0000000  0.0000000  2
    392    387    386    399     1  180.0000771  0.3347200  3
    392    387    386    400     1  0.0000000  3.3472000  1
    392    387    386    400     1  0.0000000  0.0000000  2
    392    387    386    400     1  180.0000771  0.3347200  3
    392    387    858    873     1  0.0000000  8.3680000  1
    392    387    858    873     1  180.0000771  10.4600000  2
    393    382    381    406     1  0.0000000  0.6508444  3
    393    382    384    397     1  0.0000000  0.6508444  3
    393    382    384    398     1  0.0000000  0.6508444  3
    394    382    381    406     1  0.0000000  0.6508444  3
    394    382    384    397     1  0.0000000  0.6508444  3
    394    382    384    398     1  0.0000000  0.6508444  3
    395    383    381    406     1  0.0000000  0.6508444  3
    395    383    386    399     1  0.0000000  0.6508444  3
    395    383    386    400     1  0.0000000  0.6508444  3
    396    383    381    406     1  0.0000000  0.6508444  3
    396    383    386    399     1  0.0000000  0.6508444  3
    396    383    386    400     1  0.0000000  0.6508444  3
    397    384    385    832     1  180.0000771  0.0000000  2
    398    384    385    832     1  180.0000771  0.0000000  2
    399    386    387    858     1  180.0000771  0.0000000  2
    400    386    387    858     1  180.0000771  0.0000000  2
    401    388    381    406     1  0.0000000  0.6508444  3
    401    388    389    403     1  0.0000000  0.6508444  3
    401    388    389    404     1  0.0000000  0.6508444  3
    402    388    381    406     1  0.0000000  0.6508444  3
    402    388    389    403     1  0.0000000  0.6508444  3
    402    388    389    404     1  0.0000000  0.6508444  3
    403    389    390    405     1  0.0000000  0.0000000  2
    404    389    390    405     1  0.0000000  0.0000000  2
    407    408    410    423     1  0.0000000  0.6508444  3
    407    408    410    424     1  0.0000000  0.6508444  3
    407    409    412    425     1  0.0000000  0.6508444  3
    407    409    412    426     1  0.0000000  0.6508444  3
    407    414    415    429     1  0.0000000  0.6508444  3
    407    414    415    430     1  0.0000000  0.6508444  3
    408    407    409    421     1  0.0000000  0.6508444  3
    408    407    409    422     1  0.0000000  0.6508444  3
    408    407    414    427     1  0.0000000  0.6508444  3
    408    407    414    428     1  0.0000000  0.6508444  3
    409    407    408    419     1  0.0000000  0.6508444  3
    409    407    408    420     1  0.0000000  0.6508444  3
    409    407    414    427     1  0.0000000  0.6508444  3
    409    407    414    428     1  0.0000000  0.6508444  3
    410    408    407    432     1  0.0000000  0.6508444  3
    410    411    884    899     1  180.0000771  10.4600000  2
    411    410    408    419     1  0.0000000  0.6508444  3
    411    410    408    420     1  0.0000000  0.6508444  3
    411    884    883    897     1  0.0000000  0.0000000  2
    411    884    883    898     1  0.0000000  0.0000000  2
    412    409    407    432     1  0.0000000  0.6508444  3
    412    413    910    925     1  180.0000771  10.4600000  2
    413    412    409    421     1  0.0000000  0.6508444  3
    413    412    409    422     1  0.0000000  0.6508444  3
    413    910    909    923     1  0.0000000  0.0000000  2
    413    910    909    924     1  0.0000000  0.0000000  2
    414    407    408    419     1  0.0000000  0.6508444  3
    414    407    408    420     1  0.0000000  0.6508444  3
    414    407    409    421     1  0.0000000  0.6508444  3
    414    407    409    422     1  0.0000000  0.6508444  3
    414    415    416    431     1  0.0000000  0.0000000  2
    415    414    407    432     1  0.0000000  0.6508444  3
    416    415    414    427     1  0.0000000  0.6508444  3
    416    415    414    428     1  0.0000000  0.6508444  3
    417    411    410    423     1  0.0000000  3.3472000  1
    417    411    410    423     1  0.0000000  0.0000000  2
    417    411    410    423     1  180.0000771  0.3347200  3
    417    411    410    424     1  0.0000000  3.3472000  1
    417    411    410    424     1  0.0000000  0.0000000  2
    417    411    410    424     1  180.0000771  0.3347200  3
    417    411    884    899     1  0.0000000  8.3680000  1
    417    411    884    899     1  180.0000771  10.4600000  2
    418    413    412    425     1  0.0000000  3.3472000  1
    418    413    412    425     1  0.0000000  0.0000000  2
    418    413    412    425     1  180.0000771  0.3347200  3
    418    413    412    426     1  0.0000000  3.3472000  1
    418    413    412    426     1  0.0000000  0.0000000  2
    418    413    412    426     1  180.0000771  0.3347200  3
    418    413    910    925     1  0.0000000  8.3680000  1
    418    413    910    925     1  180.0000771  10.4600000  2
    419    408    407    432     1  0.0000000  0.6508444  3
    419    408    410    423     1  0.0000000  0.6508444  3
    419    408    410    424     1  0.0000000  0.6508444  3
    420    408    407    432     1  0.0000000  0.6508444  3
    420    408    410    423     1  0.0000000  0.6508444  3
    420    408    410    424     1  0.0000000  0.6508444  3
    421    409    407    432     1  0.0000000  0.6508444  3
    421    409    412    425     1  0.0000000  0.6508444  3
    421    409    412    426     1  0.0000000  0.6508444  3
    422    409    407    432     1  0.0000000  0.6508444  3
    422    409    412    425     1  0.0000000  0.6508444  3
    422    409    412    426     1  0.0000000  0.6508444  3
    423    410    411    884     1  180.0000771  0.0000000  2
    424    410    411    884     1  180.0000771  0.0000000  2
    425    412    413    910     1  180.0000771  0.0000000  2
    426    412    413    910     1  180.0000771  0.0000000  2
    427    414    407    432     1  0.0000000  0.6508444  3
    427    414    415    429     1  0.0000000  0.6508444  3
    427    414    415    430     1  0.0000000  0.6508444  3
    428    414    407    432     1  0.0000000  0.6508444  3
    428    414    415    429     1  0.0000000  0.6508444  3
    428    414    415    430     1  0.0000000  0.6508444  3
    429    415    416    431     1  0.0000000  0.0000000  2
    430    415    416    431     1  0.0000000  0.0000000  2
    433    434    436    449     1  0.0000000  0.6508444  3
    433    434    436    450     1  0.0000000  0.6508444  3
    433    435    438    451     1  0.0000000  0.6508444  3
    433    435    438    452     1  0.0000000  0.6508444  3
    433    440    441    455     1  0.0000000  0.6508444  3
    433    440    441    456     1  0.0000000  0.6508444  3
    434    433    435    447     1  0.0000000  0.6508444  3
    434    433    435    448     1  0.0000000  0.6508444  3
    434    433    440    453     1  0.0000000  0.6508444  3
    434    433    440    454     1  0.0000000  0.6508444  3
    435    433    434    445     1  0.0000000  0.6508444  3
    435    433    434    446     1  0.0000000  0.6508444  3
    435    433    440    453     1  0.0000000  0.6508444  3
    435    433    440    454     1  0.0000000  0.6508444  3
    436    434    433    458     1  0.0000000  0.6508444  3
    436    437    936    951     1  180.0000771  10.4600000  2
    437    436    434    445     1  0.0000000  0.6508444  3
    437    436    434    446     1  0.0000000  0.6508444  3
    437    936    935    949     1  0.0000000  0.0000000  2
    437    936    935    950     1  0.0000000  0.0000000  2
    438    435    433    458     1  0.0000000  0.6508444  3
    438    439    962    977     1  180.0000771  10.4600000  2
    439    438    435    447     1  0.0000000  0.6508444  3
    439    438    435    448     1  0.0000000  0.6508444  3
    439    962    961    975     1  0.0000000  0.0000000  2
    439    962    961    976     1  0.0000000  0.0000000  2
    440    433    434    445     1  0.0000000  0.6508444  3
    440    433    434    446     1  0.0000000  0.6508444  3
    440    433    435    447     1  0.0000000  0.6508444  3
    440    433    435    448     1  0.0000000  0.6508444  3
    440    441    442    457     1  0.0000000  0.0000000  2
    441    440    433    458     1  0.0000000  0.6508444  3
    442    441    440    453     1  0.0000000  0.6508444  3
    442    441    440    454     1  0.0000000  0.6508444  3
    443    437    436    449     1  0.0000000  3.3472000  1
    443    437    436    449     1  0.0000000  0.0000000  2
    443    437    436    449     1  180.0000771  0.3347200  3
    443    437    436    450     1  0.0000000  3.3472000  1
    443    437    436    450     1  0.0000000  0.0000000  2
    443    437    436    450     1  180.0000771  0.3347200  3
    443    437    936    951     1  0.0000000  8.3680000  1
    443    437    936    951     1  180.0000771  10.4600000  2
    444    439    438    451     1  0.0000000  3.3472000  1
    444    439    438    451     1  0.0000000  0.0000000  2
    444    439    438    451     1  180.0000771  0.3347200  3
    444    439    438    452     1  0.0000000  3.3472000  1
    444    439    438    452     1  0.0000000  0.0000000  2
    444    439    438    452     1  180.0000771  0.3347200  3
    444    439    962    977     1  0.0000000  8.3680000  1
    444    439    962    977     1  180.0000771  10.4600000  2
    445    434    433    458     1  0.0000000  0.6508444  3
    445    434    436    449     1  0.0000000  0.6508444  3
    445    434    436    450     1  0.0000000  0.6508444  3
    446    434    433    458     1  0.0000000  0.6508444  3
    446    434    436    449     1  0.0000000  0.6508444  3
    446    434    436    450     1  0.0000000  0.6508444  3
    447    435    433    458     1  0.0000000  0.6508444  3
    447    435    438    451     1  0.0000000  0.6508444  3
    447    435    438    452     1  0.0000000  0.6508444  3
    448    435    433    458     1  0.0000000  0.6508444  3
    448    435    438    451     1  0.0000000  0.6508444  3
    448    435    438    452     1  0.0000000  0.6508444  3
    449    436    437    936     1  180.0000771  0.0000000  2
    450    436    437    936     1  180.0000771  0.0000000  2
    451    438    439    962     1  180.0000771  0.0000000  2
    452    438    439    962     1  180.0000771  0.0000000  2
    453    440    433    458     1  0.0000000  0.6508444  3
    453    440    441    455     1  0.0000000  0.6508444  3
    453    440    441    456     1  0.0000000  0.6508444  3
    454    440    433    458     1  0.0000000  0.6508444  3
    454    440    441    455     1  0.0000000  0.6508444  3
    454    440    441    456     1  0.0000000  0.6508444  3
    455    441    442    457     1  0.0000000  0.0000000  2
    456    441    442    457     1  0.0000000  0.0000000  2
    459    460    462    475     1  0.0000000  0.6508444  3
    459    460    462    476     1  0.0000000  0.6508444  3
    459    461    464    477     1  0.0000000  0.6508444  3
    459    461    464    478     1  0.0000000  0.6508444  3
    459    466    467    481     1  0.0000000  0.6508444  3
    459    466    467    482     1  0.0000000  0.6508444  3
    460    459    461    473     1  0.0000000  0.6508444  3
    460    459    461    474     1  0.0000000  0.6508444  3
    460    459    466    479     1  0.0000000  0.6508444  3
    460    459    466    480     1  0.0000000  0.6508444  3
    461    459    460    471     1  0.0000000  0.6508444  3
    461    459    460    472     1  0.0000000  0.6508444  3
    461    459    466    479     1  0.0000000  0.6508444  3
    461    459    466    480     1  0.0000000  0.6508444  3
    462    460    459    484     1  0.0000000  0.6508444  3
    462    463    988   1003     1  180.0000771  10.4600000  2
    463    462    460    471     1  0.0000000  0.6508444  3
    463    462    460    472     1  0.0000000  0.6508444  3
    463    988    987   1001     1  0.0000000  0.0000000  2
    463    988    987   1002     1  0.0000000  0.0000000  2
    464    461    459    484     1  0.0000000  0.6508444  3
    464    465   1014   1029     1  180.0000771  10.4600000  2
    465    464    461    473     1  0.0000000  0.6508444  3
    465    464    461    474     1  0.0000000  0.6508444  3
    465   1014   1013   1027     1  0.0000000  0.0000000  2
    465   1014   1013   1028     1  0.0000000  0.0000000  2
    466    459    460    471     1  0.0000000  0.6508444  3
    466    459    460    472     1  0.0000000  0.6508444  3
    466    459    461    473     1  0.0000000  0.6508444  3
    466    459    461    474     1  0.0000000  0.6508444  3
    466    467    468    483     1  0.0000000  0.0000000  2
    467    466    459    484     1  0.0000000  0.6508444  3
    468    467    466    479     1  0.0000000  0.6508444  3
    468    467    466    480     1  0.0000000  0.6508444  3
    469    463    462    475     1  0.0000000  3.3472000  1
    469    463    462    475     1  0.0000000  0.0000000  2
    469    463    462    475     1  180.0000771  0.3347200  3
    469    463    462    476     1  0.0000000  3.3472000  1
    469    463    462    476     1  0.0000000  0.0000000  2
    469    463    462    476     1  180.0000771  0.3347200  3
    469    463    988   1003     1  0.0000000  8.3680000  1
    469    463    988   1003     1  180.0000771  10.4600000  2
    470    465    464    477     1  0.0000000  3.3472000  1
    470    465    464    477     1  0.0000000  0.0000000  2
    470    465    464    477     1  180.0000771  0.3347200  3
    470    465    464    478     1  0.0000000  3.3472000  1
    470    465    464    478     1  0.0000000  0.0000000  2
    470    465    464    478     1  180.0000771  0.3347200  3
    470    465   1014   1029     1  0.0000000  8.3680000  1
    470    465   1014   1029     1  180.0000771  10.4600000  2
    471    460    459    484     1  0.0000000  0.6508444  3
    471    460    462    475     1  0.0000000  0.6508444  3
    471    460    462    476     1  0.0000000  0.6508444  3
    472    460    459    484     1  0.0000000  0.6508444  3
    472    460    462    475     1  0.0000000  0.6508444  3
    472    460    462    476     1  0.0000000  0.6508444  3
    473    461    459    484     1  0.0000000  0.6508444  3
    473    461    464    477     1  0.0000000  0.6508444  3
    473    461    464    478     1  0.0000000  0.6508444  3
    474    461    459    484     1  0.0000000  0.6508444  3
    474    461    464    477     1  0.0000000  0.6508444  3
    474    461    464    478     1  0.0000000  0.6508444  3
    475    462    463    988     1  180.0000771  0.0000000  2
    476    462    463    988     1  180.0000771  0.0000000  2
    477    464    465   1014     1  180.0000771  0.0000000  2
    478    464    465   1014     1  180.0000771  0.0000000  2
    479    466    459    484     1  0.0000000  0.6508444  3
    479    466    467    481     1  0.0000000  0.6508444  3
    479    466    467    482     1  0.0000000  0.6508444  3
    480    466    459    484     1  0.0000000  0.6508444  3
    480    466    467    481     1  0.0000000  0.6508444  3
    480    466    467    482     1  0.0000000  0.6508444  3
    481    467    468    483     1  0.0000000  0.0000000  2
    482    467    468    483     1  0.0000000  0.0000000  2
    485    486    488    501     1  0.0000000  0.6508444  3
    485    486    488    502     1  0.0000000  0.6508444  3
    485    487    490    503     1  0.0000000  0.6508444  3
    485    487    490    504     1  0.0000000  0.6508444  3
    485    492    493    507     1  0.0000000  0.6508444  3
    485    492    493    508     1  0.0000000  0.6508444  3
    486    485    487    499     1  0.0000000  0.6508444  3
    486    485    487    500     1  0.0000000  0.6508444  3
    486    485    492    505     1  0.0000000  0.6508444  3
    486    485    492    506     1  0.0000000  0.6508444  3
    487    485    486    497     1  0.0000000  0.6508444  3
    487    485    486    498     1  0.0000000  0.6508444  3
    487    485    492    505     1  0.0000000  0.6508444  3
    487    485    492    506     1  0.0000000  0.6508444  3
    488    486    485    510     1  0.0000000  0.6508444  3
    488    489   1040   1055     1  180.0000771  10.4600000  2
    489    488    486    497     1  0.0000000  0.6508444  3
    489    488    486    498     1  0.0000000  0.6508444  3
    489   1040   1039   1053     1  0.0000000  0.0000000  2
    489   1040   1039   1054     1  0.0000000  0.0000000  2
    490    487    485    510     1  0.0000000  0.6508444  3
    490    491   1066   1081     1  180.0000771  10.4600000  2
    491    490    487    499     1  0.0000000  0.6508444  3
    491    490    487    500     1  0.0000000  0.6508444  3
    491   1066   1065   1079     1  0.0000000  0.0000000  2
    491   1066   1065   1080     1  0.0000000  0.0000000  2
    492    485    486    497     1  0.0000000  0.6508444  3
    492    485    486    498     1  0.0000000  0.6508444  3
    492    485    487    499     1  0.0000000  0.6508444  3
    492    485    487    500     1  0.0000000  0.6508444  3
    492    493    494    509     1  0.0000000  0.0000000  2
    493    492    485    510     1  0.0000000  0.6508444  3
    494    493    492    505     1  0.0000000  0.6508444  3
    494    493    492    506     1  0.0000000  0.6508444  3
    495    489    488    501     1  0.0000000  3.3472000  1
    495    489    488    501     1  0.0000000  0.0000000  2
    495    489    488    501     1  180.0000771  0.3347200  3
    495    489    488    502     1  0.0000000  3.3472000  1
    495    489    488    502     1  0.0000000  0.0000000  2
    495    489    488    502     1  180.0000771  0.3347200  3
    495    489   1040   1055     1  0.0000000  8.3680000  1
    495    489   1040   1055     1  180.0000771  10.4600000  2
    496    491    490    503     1  0.0000000  3.3472000  1
    496    491    490    503     1  0.0000000  0.0000000  2
    496    491    490    503     1  180.0000771  0.3347200  3
    496    491    490    504     1  0.0000000  3.3472000  1
    496    491    490    504     1  0.0000000  0.0000000  2
    496    491    490    504     1  180.0000771  0.3347200  3
    496    491   1066   1081     1  0.0000000  8.3680000  1
    496    491   1066   1081     1  180.0000771  10.4600000  2
    497    486    485    510     1  0.0000000  0.6508444  3
    497    486    488    501     1  0.0000000  0.6508444  3
    497    486    488    502     1  0.0000000  0.6508444  3
    498    486    485    510     1  0.0000000  0.6508444  3
    498    486    488    501     1  0.0000000  0.6508444  3
    498    486    488    502     1  0.0000000  0.6508444  3
    499    487    485    510     1  0.0000000  0.6508444  3
    499    487    490    503     1  0.0000000  0.6508444  3
    499    487    490    504     1  0.0000000  0.6508444  3
    500    487    485    510     1  0.0000000  0.6508444  3
    500    487    490    503     1  0.0000000  0.6508444  3
    500    487    490    504     1  0.0000000  0.6508444  3
    501    488    489   1040     1  180.0000771  0.0000000  2
    502    488    489   1040     1  180.0000771  0.0000000  2
    503    490    491   1066     1  180.0000771  0.0000000  2
    504    490    491   1066     1  180.0000771  0.0000000  2
    505    492    485    510     1  0.0000000  0.6508444  3
    505    492    493    507     1  0.0000000  0.6508444  3
    505    492    493    508     1  0.0000000  0.6508444  3
    506    492    485    510     1  0.0000000  0.6508444  3
    506    492    493    507     1  0.0000000  0.6508444  3
    506    492    493    508     1  0.0000000  0.6508444  3
    507    493    494    509     1  0.0000000  0.0000000  2
    508    493    494    509     1  0.0000000  0.0000000  2
    511    512    514    527     1  0.0000000  0.6508444  3
    511    512    514    528     1  0.0000000  0.6508444  3
    511    513    516    529     1  0.0000000  0.6508444  3
    511    513    516    530     1  0.0000000  0.6508444  3
    511    518    519    533     1  0.0000000  0.6508444  3
    511    518    519    534     1  0.0000000  0.6508444  3
    512    511    513    525     1  0.0000000  0.6508444  3
    512    511    513    526     1  0.0000000  0.6508444  3
    512    511    518    531     1  0.0000000  0.6508444  3
    512    511    518    532     1  0.0000000  0.6508444  3
    513    511    512    523     1  0.0000000  0.6508444  3
    513    511    512    524     1  0.0000000  0.6508444  3
    513    511    518    531     1  0.0000000  0.6508444  3
    513    511    518    532     1  0.0000000  0.6508444  3
    514    512    511    536     1  0.0000000  0.6508444  3
    514    515   1092   1107     1  180.0000771  10.4600000  2
    515    514    512    523     1  0.0000000  0.6508444  3
    515    514    512    524     1  0.0000000  0.6508444  3
    515   1092   1091   1105     1  0.0000000  0.0000000  2
    515   1092   1091   1106     1  0.0000000  0.0000000  2
    516    513    511    536     1  0.0000000  0.6508444  3
    516    517   1118   1133     1  180.0000771  10.4600000  2
    517    516    513    525     1  0.0000000  0.6508444  3
    517    516    513    526     1  0.0000000  0.6508444  3
    517   1118   1117   1131     1  0.0000000  0.0000000  2
    517   1118   1117   1132     1  0.0000000  0.0000000  2
    518    511    512    523     1  0.0000000  0.6508444  3
    518    511    512    524     1  0.0000000  0.6508444  3
    518    511    513    525     1  0.0000000  0.6508444  3
    518    511    513    526     1  0.0000000  0.6508444  3
    518    519    520    535     1  0.0000000  0.0000000  2
    519    518    511    536     1  0.0000000  0.6508444  3
    520    519    518    531     1  0.0000000  0.6508444  3
    520    519    518    532     1  0.0000000  0.6508444  3
    521    515    514    527     1  0.0000000  3.3472000  1
    521    515    514    527     1  0.0000000  0.0000000  2
    521    515    514    527     1  180.0000771  0.3347200  3
    521    515    514    528     1  0.0000000  3.3472000  1
    521    515    514    528     1  0.0000000  0.0000000  2
    521    515    514    528     1  180.0000771  0.3347200  3
    521    515   1092   1107     1  0.0000000  8.3680000  1
    521    515   1092   1107     1  180.0000771  10.4600000  2
    522    517    516    529     1  0.0000000  3.3472000  1
    522    517    516    529     1  0.0000000  0.0000000  2
    522    517    516    529     1  180.0000771  0.3347200  3
    522    517    516    530     1  0.0000000  3.3472000  1
    522    517    516    530     1  0.0000000  0.0000000  2
    522    517    516    530     1  180.0000771  0.3347200  3
    522    517   1118   1133     1  0.0000000  8.3680000  1
    522    517   1118   1133     1  180.0000771  10.4600000  2
    523    512    511    536     1  0.0000000  0.6508444  3
    523    512    514    527     1  0.0000000  0.6508444  3
    523    512    514    528     1  0.0000000  0.6508444  3
    524    512    511    536     1  0.0000000  0.6508444  3
    524    512    514    527     1  0.0000000  0.6508444  3
    524    512    514    528     1  0.0000000  0.6508444  3
    525    513    511    536     1  0.0000000  0.6508444  3
    525    513    516    529     1  0.0000000  0.6508444  3
    525    513    516    530     1  0.0000000  0.6508444  3
    526    513    511    536     1  0.0000000  0.6508444  3
    526    513    516    529     1  0.0000000  0.6508444  3
    526    513    516    530     1  0.0000000  0.6508444  3
    527    514    515   1092     1  180.0000771  0.0000000  2
    528    514    515   1092     1  180.0000771  0.0000000  2
    529    516    517   1118     1  180.0000771  0.0000000  2
    530    516    517   1118     1  180.0000771  0.0000000  2
    531    518    511    536     1  0.0000000  0.6508444  3
    531    518    519    533     1  0.0000000  0.6508444  3
    531    518    519    534     1  0.0000000  0.6508444  3
    532    518    511    536     1  0.0000000  0.6508444  3
    532    518    519    533     1  0.0000000  0.6508444  3
    532    518    519    534     1  0.0000000  0.6508444  3
    533    519    520    535     1  0.0000000  0.0000000  2
    534    519    520    535     1  0.0000000  0.0000000  2
    537    538    540    553     1  0.0000000  0.6508444  3
    537    538    540    554     1  0.0000000  0.6508444  3
    537    539    542    555     1  0.0000000  0.6508444  3
    537    539    542    556     1  0.0000000  0.6508444  3
    537    544    545    559     1  0.0000000  0.6508444  3
    537    544    545    560     1  0.0000000  0.6508444  3
    538    537    539    551     1  0.0000000  0.6508444  3
    538    537    539    552     1  0.0000000  0.6508444  3
    538    537    544    557     1  0.0000000  0.6508444  3
    538    537    544    558     1  0.0000000  0.6508444  3
    539    537    538    549     1  0.0000000  0.6508444  3
    539    537    538    550     1  0.0000000  0.6508444  3
    539    537    544    557     1  0.0000000  0.6508444  3
    539    537    544    558     1  0.0000000  0.6508444  3
    540    538    537    562     1  0.0000000  0.6508444  3
    540    541   1144   1159     1  180.0000771  10.4600000  2
    541    540    538    549     1  0.0000000  0.6508444  3
    541    540    538    550     1  0.0000000  0.6508444  3
    541   1144   1143   1157     1  0.0000000  0.0000000  2
    541   1144   1143   1158     1  0.0000000  0.0000000  2
    542    539    537    562     1  0.0000000  0.6508444  3
    542    543   1170   1185     1  180.0000771  10.4600000  2
    543    542    539    551     1  0.0000000  0.6508444  3
    543    542    539    552     1  0.0000000  0.6508444  3
    543   1170   1169   1183     1  0.0000000  0.0000000  2
    543   1170   1169   1184     1  0.0000000  0.0000000  2
    544    537    538    549     1  0.0000000  0.6508444  3
    544    537    538    550     1  0.0000000  0.6508444  3
    544    537    539    551     1  0.0000000  0.6508444  3
    544    537    539    552     1  0.0000000  0.6508444  3
    544    545    546    561     1  0.0000000  0.0000000  2
    545    544    537    562     1  0.0000000  0.6508444  3
    546    545    544    557     1  0.0000000  0.6508444  3
    546    545    544    558     1  0.0000000  0.6508444  3
    547    541    540    553     1  0.0000000  3.3472000  1
    547    541    540    553     1  0.0000000  0.0000000  2
    547    541    540    553     1  180.0000771  0.3347200  3
    547    541    540    554     1  0.0000000  3.3472000  1
    547    541    540    554     1  0.0000000  0.0000000  2
    547    541    540    554     1  180.0000771  0.3347200  3
    547    541   1144   1159     1  0.0000000  8.3680000  1
    547    541   1144   1159     1  180.0000771  10.4600000  2
    548    543    542    555     1  0.0000000  3.3472000  1
    548    543    542    555     1  0.0000000  0.0000000  2
    548    543    542    555     1  180.0000771  0.3347200  3
    548    543    542    556     1  0.0000000  3.3472000  1
    548    543    542    556     1  0.0000000  0.0000000  2
    548    543    542    556     1  180.0000771  0.3347200  3
    548    543   1170   1185     1  0.0000000  8.3680000  1
    548    543   1170   1185     1  180.0000771  10.4600000  2
    549    538    537    562     1  0.0000000  0.6508444  3
    549    538    540    553     1  0.0000000  0.6508444  3
    549    538    540    554     1  0.0000000  0.6508444  3
    550    538    537    562     1  0.0000000  0.6508444  3
    550    538    540    553     1  0.0000000  0.6508444  3
    550    538    540    554     1  0.0000000  0.6508444  3
    551    539    537    562     1  0.0000000  0.6508444  3
    551    539    542    555     1  0.0000000  0.6508444  3
    551    539    542    556     1  0.0000000  0.6508444  3
    552    539    537    562     1  0.0000000  0.6508444  3
    552    539    542    555     1  0.0000000  0.6508444  3
    552    539    542    556     1  0.0000000  0.6508444  3
    553    540    541   1144     1  180.0000771  0.0000000  2
    554    540    541   1144     1  180.0000771  0.0000000  2
    555    542    543   1170     1  180.0000771  0.0000000  2
    556    542    543   1170     1  180.0000771  0.0000000  2
    557    544    537    562     1  0.0000000  0.6508444  3
    557    544    545    559     1  0.0000000  0.6508444  3
    557    544    545    560     1  0.0000000  0.6508444  3
    558    544    537    562     1  0.0000000  0.6508444  3
    558    544    545    559     1  0.0000000  0.6508444  3
    558    544    545    560     1  0.0000000  0.6508444  3
    559    545    546    561     1  0.0000000  0.0000000  2
    560    545    546    561     1  0.0000000  0.0000000  2
    563    564    566    579     1  0.0000000  0.6508444  3
    563    564    566    580     1  0.0000000  0.6508444  3
    563    565    568    581     1  0.0000000  0.6508444  3
    563    565    568    582     1  0.0000000  0.6508444  3
    563    570    571    585     1  0.0000000  0.6508444  3
    563    570    571    586     1  0.0000000  0.6508444  3
    564    563    565    577     1  0.0000000  0.6508444  3
    564    563    565    578     1  0.0000000  0.6508444  3
    564    563    570    583     1  0.0000000  0.6508444  3
    564    563    570    584     1  0.0000000  0.6508444  3
    565    563    564    575     1  0.0000000  0.6508444  3
    565    563    564    576     1  0.0000000  0.6508444  3
    565    563    570    583     1  0.0000000  0.6508444  3
    565    563    570    584     1  0.0000000  0.6508444  3
    566    564    563    588     1  0.0000000  0.6508444  3
    566    567   1196   1211     1  180.0000771  10.4600000  2
    567    566    564    575     1  0.0000000  0.6508444  3
    567    566    564    576     1  0.0000000  0.6508444  3
    567   1196   1195   1209     1  0.0000000  0.0000000  2
    567   1196   1195   1210     1  0.0000000  0.0000000  2
    568    565    563    588     1  0.0000000  0.6508444  3
    568    569   1222   1237     1  180.0000771  10.4600000  2
    569    568    565    577     1  0.0000000  0.6508444  3
    569    568    565    578     1  0.0000000  0.6508444  3
    569   1222   1221   1235     1  0.0000000  0.0000000  2
    569   1222   1221   1236     1  0.0000000  0.0000000  2
    570    563    564    575     1  0.0000000  0.6508444  3
    570    563    564    576     1  0.0000000  0.6508444  3
    570    563    565    577     1  0.0000000  0.6508444  3
    570    563    565    578     1  0.0000000  0.6508444  3
    570    571    572    587     1  0.0000000  0.0000000  2
    571    570    563    588     1  0.0000000  0.6508444  3
    572    571    570    583     1  0.0000000  0.6508444  3
    572    571    570    584     1  0.0000000  0.6508444  3
    573    567    566    579     1  0.0000000  3.3472000  1
    573    567    566    579     1  0.0000000  0.0000000  2
    573    567    566    579     1  180.0000771  0.3347200  3
    573    567    566    580     1  0.0000000  3.3472000  1
    573    567    566    580     1  0.0000000  0.0000000  2
    573    567    566    580     1  180.0000771  0.3347200  3
    573    567   1196   1211     1  0.0000000  8.3680000  1
    573    567   1196   1211     1  180.0000771  10.4600000  2
    574    569    568    581     1  0.0000000  3.3472000  1
    574    569    568    581     1  0.0000000  0.0000000  2
    574    569    568    581     1  180.0000771  0.3347200  3
    574    569    568    582     1  0.0000000  3.3472000  1
    574    569    568    582     1  0.0000000  0.0000000  2
    574    569    568    582     1  180.0000771  0.3347200  3
    574    569   1222   1237     1  0.0000000  8.3680000  1
    574    569   1222   1237     1  180.0000771  10.4600000  2
    575    564    563    588     1  0.0000000  0.6508444  3
    575    564    566    579     1  0.0000000  0.6508444  3
    575    564    566    580     1  0.0000000  0.6508444  3
    576    564    563    588     1  0.0000000  0.6508444  3
    576    564    566    579     1  0.0000000  0.6508444  3
    576    564    566    580     1  0.0000000  0.6508444  3
    577    565    563    588     1  0.0000000  0.6508444  3
    577    565    568    581     1  0.0000000  0.6508444  3
    577    565    568    582     1  0.0000000  0.6508444  3
    578    565    563    588     1  0.0000000  0.6508444  3
    578    565    568    581     1  0.0000000  0.6508444  3
    578    565    568    582     1  0.0000000  0.6508444  3
    579    566    567   1196     1  180.0000771  0.0000000  2
    580    566    567   1196     1  180.0000771  0.0000000  2
    581    568    569   1222     1  180.0000771  0.0000000  2
    582    568    569   1222     1  180.0000771  0.0000000  2
    583    570    563    588     1  0.0000000  0.6508444  3
    583    570    571    585     1  0.0000000  0.6508444  3
    583    570    571    586     1  0.0000000  0.6508444  3
    584    570    563    588     1  0.0000000  0.6508444  3
    584    570    571    585     1  0.0000000  0.6508444  3
    584    570    571    586     1  0.0000000  0.6508444  3
    585    571    572    587     1  0.0000000  0.0000000  2
    586    571    572    587     1  0.0000000  0.0000000  2
    589    590    592    605     1  0.0000000  0.6508444  3
    589    590    592    606     1  0.0000000  0.6508444  3
    589    591    594    607     1  0.0000000  0.6508444  3
    589    591    594    608     1  0.0000000  0.6508444  3
    589    596    597    611     1  0.0000000  0.6508444  3
    589    596    597    612     1  0.0000000  0.6508444  3
    590    589    591    603     1  0.0000000  0.6508444  3
    590    589    591    604     1  0.0000000  0.6508444  3
    590    589    596    609     1  0.0000000  0.6508444  3
    590    589    596    610     1  0.0000000  0.6508444  3
    591    589    590    601     1  0.0000000  0.6508444  3
    591    589    590    602     1  0.0000000  0.6508444  3
    591    589    596    609     1  0.0000000  0.6508444  3
    591    589    596    610     1  0.0000000  0.6508444  3
    592    590    589    614     1  0.0000000  0.6508444  3
    592    593   1248   1263     1  180.0000771  10.4600000  2
    593    592    590    601     1  0.0000000  0.6508444  3
    593    592    590    602     1  0.0000000  0.6508444  3
    593   1248   1247   1261     1  0.0000000  0.0000000  2
    593   1248   1247   1262     1  0.0000000  0.0000000  2
    594    591    589    614     1  0.0000000  0.6508444  3
    594    595   1274   1289     1  180.0000771  10.4600000  2
    595    594    591    603     1  0.0000000  0.6508444  3
    595    594    591    604     1  0.0000000  0.6508444  3
    595   1274   1273   1287     1  0.0000000  0.0000000  2
    595   1274   1273   1288     1  0.0000000  0.0000000  2
    596    589    590    601     1  0.0000000  0.6508444  3
    596    589    590    602     1  0.0000000  0.6508444  3
    596    589    591    603     1  0.0000000  0.6508444  3
    596    589    591    604     1  0.0000000  0.6508444  3
    596    597    598    613     1  0.0000000  0.0000000  2
    597    596    589    614     1  0.0000000  0.6508444  3
    598    597    596    609     1  0.0000000  0.6508444  3
    598    597    596    610     1  0.0000000  0.6508444  3
    599    593    592    605     1  0.0000000  3.3472000  1
    599    593    592    605     1  0.0000000  0.0000000  2
    599    593    592    605     1  180.0000771  0.3347200  3
    599    593    592    606     1  0.0000000  3.3472000  1
    599    593    592    606     1  0.0000000  0.0000000  2
    599    593    592    606     1  180.0000771  0.3347200  3
    599    593   1248   1263     1  0.0000000  8.3680000  1
    599    593   1248   1263     1  180.0000771  10.4600000  2
    600    595    594    607     1  0.0000000  3.3472000  1
    600    595    594    607     1  0.0000000  0.0000000  2
    600    595    594    607     1  180.0000771  0.3347200  3
    600    595    594    608     1  0.0000000  3.3472000  1
    600    595    594    608     1  0.0000000  0.0000000  2
    600    595    594    608     1  180.0000771  0.3347200  3
    600    595   1274   1289     1  0.0000000  8.3680000  1
    600    595   1274   1289     1  180.0000771  10.4600000  2
    601    590    589    614     1  0.0000000  0.6508444  3
    601    590    592    605     1  0.0000000  0.6508444  3
    601    590    592    606     1  0.0000000  0.6508444  3
    602    590    589    614     1  0.0000000  0.6508444  3
    602    590    592    605     1  0.0000000  0.6508444  3
    602    590    592    606     1  0.0000000  0.6508444  3
    603    591    589    614     1  0.0000000  0.6508444  3
    603    591    594    607     1  0.0000000  0.6508444  3
    603    591    594    608     1  0.0000000  0.6508444  3
    604    591    589    614     1  0.0000000  0.6508444  3
    604    591    594    607     1  0.0000000  0.6508444  3
    604    591    594    608     1  0.0000000  0.6508444  3
    605    592    593   1248     1  180.0000771  0.0000000  2
    606    592    593   1248     1  180.0000771  0.0000000  2
    607    594    595   1274     1  180.0000771  0.0000000  2
    608    594    595   1274     1  180.0000771  0.0000000  2
    609    596    589    614     1  0.0000000  0.6508444  3
    609    596    597    611     1  0.0000000  0.6508444  3
    609    596    597    612     1  0.0000000  0.6508444  3
    610    596    589    614     1  0.0000000  0.6508444  3
    610    596    597    611     1  0.0000000  0.6508444  3
    610    596    597    612     1  0.0000000  0.6508444  3
    611    597    598    613     1  0.0000000  0.0000000  2
    612    597    598    613     1  0.0000000  0.0000000  2
    615    616    618    631     1  0.0000000  0.6508444  3
    615    616    618    632     1  0.0000000  0.6508444  3
    615    617    620    633     1  0.0000000  0.6508444  3
    615    617    620    634     1  0.0000000  0.6508444  3
    615    622    623    637     1  0.0000000  0.6508444  3
    615    622    623    638     1  0.0000000  0.6508444  3
    616    615    617    629     1  0.0000000  0.6508444  3
    616    615    617    630     1  0.0000000  0.6508444  3
    616    615    622    635     1  0.0000000  0.6508444  3
    616    615    622    636     1  0.0000000  0.6508444  3
    617    615    616    627     1  0.0000000  0.6508444  3
    617    615    616    628     1  0.0000000  0.6508444  3
    617    615    622    635     1  0.0000000  0.6508444  3
    617    615    622    636     1  0.0000000  0.6508444  3
    618    616    615    640     1  0.0000000  0.6508444  3
    618    619   1300   1315     1  180.0000771  10.4600000  2
    619    618    616    627     1  0.0000000  0.6508444  3
    619    618    616    628     1  0.0000000  0.6508444  3
    619   1300   1299   1313     1  0.0000000  0.0000000  2
    619   1300   1299   1314     1  0.0000000  0.0000000  2
    620    617    615    640     1  0.0000000  0.6508444  3
    620    621   1326   1341     1  180.0000771  10.4600000  2
    621    620    617    629     1  0.0000000  0.6508444  3
    621    620    617    630     1  0.0000000  0.6508444  3
    621   1326   1325   1339     1  0.0000000  0.0000000  2
    621   1326   1325   1340     1  0.0000000  0.0000000  2
    622    615    616    627     1  0.0000000  0.6508444  3
    622    615    616    628     1  0.0000000  0.6508444  3
    622    615    617    629     1  0.0000000  0.6508444  3
    622    615    617    630     1  0.0000000  0.6508444  3
    622    623    624    639     1  0.0000000  0.0000000  2
    623    622    615    640     1  0.0000000  0.6508444  3
    624    623    622    635     1  0.0000000  0.6508444  3
    624    623    622    636     1  0.0000000  0.6508444  3
    625    619    618    631     1  0.0000000  3.3472000  1
    625    619    618    631     1  0.0000000  0.0000000  2
    625    619    618    631     1  180.0000771  0.3347200  3
    625    619    618    632     1  0.0000000  3.3472000  1
    625    619    618    632     1  0.0000000  0.0000000  2
    625    619    618    632     1  180.0000771  0.3347200  3
    625    619   1300   1315     1  0.0000000  8.3680000  1
    625    619   1300   1315     1  180.0000771  10.4600000  2
    626    621    620    633     1  0.0000000  3.3472000  1
    626    621    620    633     1  0.0000000  0.0000000  2
    626    621    620    633     1  180.0000771  0.3347200  3
    626    621    620    634     1  0.0000000  3.3472000  1
    626    621    620    634     1  0.0000000  0.0000000  2
    626    621    620    634     1  180.0000771  0.3347200  3
    626    621   1326   1341     1  0.0000000  8.3680000  1
    626    621   1326   1341     1  180.0000771  10.4600000  2
    627    616    615    640     1  0.0000000  0.6508444  3
    627    616    618    631     1  0.0000000  0.6508444  3
    627    616    618    632     1  0.0000000  0.6508444  3
    628    616    615    640     1  0.0000000  0.6508444  3
    628    616    618    631     1  0.0000000  0.6508444  3
    628    616    618    632     1  0.0000000  0.6508444  3
    629    617    615    640     1  0.0000000  0.6508444  3
    629    617    620    633     1  0.0000000  0.6508444  3
    629    617    620    634     1  0.0000000  0.6508444  3
    630    617    615    640     1  0.0000000  0.6508444  3
    630    617    620    633     1  0.0000000  0.6508444  3
    630    617    620    634     1  0.0000000  0.6508444  3
    631    618    619   1300     1  180.0000771  0.0000000  2
    632    618    619   1300     1  180.0000771  0.0000000  2
    633    620    621   1326     1  180.0000771  0.0000000  2
    634    620    621   1326     1  180.0000771  0.0000000  2
    635    622    615    640     1  0.0000000  0.6508444  3
    635    622    623    637     1  0.0000000  0.6508444  3
    635    622    623    638     1  0.0000000  0.6508444  3
    636    622    615    640     1  0.0000000  0.6508444  3
    636    622    623    637     1  0.0000000  0.6508444  3
    636    622    623    638     1  0.0000000  0.6508444  3
    637    623    624    639     1  0.0000000  0.0000000  2
    638    623    624    639     1  0.0000000  0.0000000  2
    641    642    644    657     1  0.0000000  0.6508444  3
    641    642    644    658     1  0.0000000  0.6508444  3
    641    643    646    659     1  0.0000000  0.6508444  3
    641    643    646    660     1  0.0000000  0.6508444  3
    641    648    649    663     1  0.0000000  0.6508444  3
    641    648    649    664     1  0.0000000  0.6508444  3
    642    641    643    655     1  0.0000000  0.6508444  3
    642    641    643    656     1  0.0000000  0.6508444  3
    642    641    648    661     1  0.0000000  0.6508444  3
    642    641    648    662     1  0.0000000  0.6508444  3
    643    641    642    653     1  0.0000000  0.6508444  3
    643    641    642    654     1  0.0000000  0.6508444  3
    643    641    648    661     1  0.0000000  0.6508444  3
    643    641    648    662     1  0.0000000  0.6508444  3
    644    642    641    666     1  0.0000000  0.6508444  3
    644    645   1352   1367     1  180.0000771  10.4600000  2
    645    644    642    653     1  0.0000000  0.6508444  3
    645    644    642    654     1  0.0000000  0.6508444  3
    645   1352   1351   1365     1  0.0000000  0.0000000  2
    645   1352   1351   1366     1  0.0000000  0.0000000  2
    646    643    641    666     1  0.0000000  0.6508444  3
    646    647   1378   1393     1  180.0000771  10.4600000  2
    647    646    643    655     1  0.0000000  0.6508444  3
    647    646    643    656     1  0.0000000  0.6508444  3
    647   1378   1377   1391     1  0.0000000  0.0000000  2
    647   1378   1377   1392     1  0.0000000  0.0000000  2
    648    641    642    653     1  0.0000000  0.6508444  3
    648    641    642    654     1  0.0000000  0.6508444  3
    648    641    643    655     1  0.0000000  0.6508444  3
    648    641    643    656     1  0.0000000  0.6508444  3
    648    649    650    665     1  0.0000000  0.0000000  2
    649    648    641    666     1  0.0000000  0.6508444  3
    650    649    648    661     1  0.0000000  0.6508444  3
    650    649    648    662     1  0.0000000  0.6508444  3
    651    645    644    657     1  0.0000000  3.3472000  1
    651    645    644    657     1  0.0000000  0.0000000  2
    651    645    644    657     1  180.0000771  0.3347200  3
    651    645    644    658     1  0.0000000  3.3472000  1
    651    645    644    658     1  0.0000000  0.0000000  2
    651    645    644    658     1  180.0000771  0.3347200  3
    651    645   1352   1367     1  0.0000000  8.3680000  1
    651    645   1352   1367     1  180.0000771  10.4600000  2
    652    647    646    659     1  0.0000000  3.3472000  1
    652    647    646    659     1  0.0000000  0.0000000  2
    652    647    646    659     1  180.0000771  0.3347200  3
    652    647    646    660     1  0.0000000  3.3472000  1
    652    647    646    660     1  0.0000000  0.0000000  2
    652    647    646    660     1  180.0000771  0.3347200  3
    652    647   1378   1393     1  0.0000000  8.3680000  1
    652    647   1378   1393     1  180.0000771  10.4600000  2
    653    642    641    666     1  0.0000000  0.6508444  3
    653    642    644    657     1  0.0000000  0.6508444  3
    653    642    644    658     1  0.0000000  0.6508444  3
    654    642    641    666     1  0.0000000  0.6508444  3
    654    642    644    657     1  0.0000000  0.6508444  3
    654    642    644    658     1  0.0000000  0.6508444  3
    655    643    641    666     1  0.0000000  0.6508444  3
    655    643    646    659     1  0.0000000  0.6508444  3
    655    643    646    660     1  0.0000000  0.6508444  3
    656    643    641    666     1  0.0000000  0.6508444  3
    656    643    646    659     1  0.0000000  0.6508444  3
    656    643    646    660     1  0.0000000  0.6508444  3
    657    644    645   1352     1  180.0000771  0.0000000  2
    658    644    645   1352     1  180.0000771  0.0000000  2
    659    646    647   1378     1  180.0000771  0.0000000  2
    660    646    647   1378     1  180.0000771  0.0000000  2
    661    648    641    666     1  0.0000000  0.6508444  3
    661    648    649    663     1  0.0000000  0.6508444  3
    661    648    649    664     1  0.0000000  0.6508444  3
    662    648    641    666     1  0.0000000  0.6508444  3
    662    648    649    663     1  0.0000000  0.6508444  3
    662    648    649    664     1  0.0000000  0.6508444  3
    663    649    650    665     1  0.0000000  0.0000000  2
    664    649    650    665     1  0.0000000  0.0000000  2
    667    668    670    683     1  0.0000000  0.6508444  3
    667    668    670    684     1  0.0000000  0.6508444  3
    667    669    672    685     1  0.0000000  0.6508444  3
    667    669    672    686     1  0.0000000  0.6508444  3
    667    674    675    689     1  0.0000000  0.6508444  3
    667    674    675    690     1  0.0000000  0.6508444  3
    668    667    669    681     1  0.0000000  0.6508444  3
    668    667    669    682     1  0.0000000  0.6508444  3
    668    667    674    687     1  0.0000000  0.6508444  3
    668    667    674    688     1  0.0000000  0.6508444  3
    669    667    668    679     1  0.0000000  0.6508444  3
    669    667    668    680     1  0.0000000  0.6508444  3
    669    667    674    687     1  0.0000000  0.6508444  3
    669    667    674    688     1  0.0000000  0.6508444  3
    670    668    667    692     1  0.0000000  0.6508444  3
    670    671   1404   1419     1  180.0000771  10.4600000  2
    671    670    668    679     1  0.0000000  0.6508444  3
    671    670    668    680     1  0.0000000  0.6508444  3
    671   1404   1403   1417     1  0.0000000  0.0000000  2
    671   1404   1403   1418     1  0.0000000  0.0000000  2
    672    669    667    692     1  0.0000000  0.6508444  3
    672    673   1430   1445     1  180.0000771  10.4600000  2
    673    672    669    681     1  0.0000000  0.6508444  3
    673    672    669    682     1  0.0000000  0.6508444  3
    673   1430   1429   1443     1  0.0000000  0.0000000  2
    673   1430   1429   1444     1  0.0000000  0.0000000  2
    674    667    668    679     1  0.0000000  0.6508444  3
    674    667    668    680     1  0.0000000  0.6508444  3
    674    667    669    681     1  0.0000000  0.6508444  3
    674    667    669    682     1  0.0000000  0.6508444  3
    674    675    676    691     1  0.0000000  0.0000000  2
    675    674    667    692     1  0.0000000  0.6508444  3
    676    675    674    687     1  0.0000000  0.6508444  3
    676    675    674    688     1  0.0000000  0.6508444  3
    677    671    670    683     1  0.0000000  3.3472000  1
    677    671    670    683     1  0.0000000  0.0000000  2
    677    671    670    683     1  180.0000771  0.3347200  3
    677    671    670    684     1  0.0000000  3.3472000  1
    677    671    670    684     1  0.0000000  0.0000000  2
    677    671    670    684     1  180.0000771  0.3347200  3
    677    671   1404   1419     1  0.0000000  8.3680000  1
    677    671   1404   1419     1  180.0000771  10.4600000  2
    678    673    672    685     1  0.0000000  3.3472000  1
    678    673    672    685     1  0.0000000  0.0000000  2
    678    673    672    685     1  180.0000771  0.3347200  3
    678    673    672    686     1  0.0000000  3.3472000  1
    678    673    672    686     1  0.0000000  0.0000000  2
    678    673    672    686     1  180.0000771  0.3347200  3
    678    673   1430   1445     1  0.0000000  8.3680000  1
    678    673   1430   1445     1  180.0000771  10.4600000  2
    679    668    667    692     1  0.0000000  0.6508444  3
    679    668    670    683     1  0.0000000  0.6508444  3
    679    668    670    684     1  0.0000000  0.6508444  3
    680    668    667    692     1  0.0000000  0.6508444  3
    680    668    670    683     1  0.0000000  0.6508444  3
    680    668    670    684     1  0.0000000  0.6508444  3
    681    669    667    692     1  0.0000000  0.6508444  3
    681    669    672    685     1  0.0000000  0.6508444  3
    681    669    672    686     1  0.0000000  0.6508444  3
    682    669    667    692     1  0.0000000  0.6508444  3
    682    669    672    685     1  0.0000000  0.6508444  3
    682    669    672    686     1  0.0000000  0.6508444  3
    683    670    671   1404     1  180.0000771  0.0000000  2
    684    670    671   1404     1  180.0000771  0.0000000  2
    685    672    673   1430     1  180.0000771  0.0000000  2
    686    672    673   1430     1  180.0000771  0.0000000  2
    687    674    667    692     1  0.0000000  0.6508444  3
    687    674    675    689     1  0.0000000  0.6508444  3
    687    674    675    690     1  0.0000000  0.6508444  3
    688    674    667    692     1  0.0000000  0.6508444  3
    688    674    675    689     1  0.0000000  0.6508444  3
    688    674    675    690     1  0.0000000  0.6508444  3
    689    675    676    691     1  0.0000000  0.0000000  2
    690    675    676    691     1  0.0000000  0.0000000  2
    693    694    696    709     1  0.0000000  0.6508444  3
    693    694    696    710     1  0.0000000  0.6508444  3
    693    695    698    711     1  0.0000000  0.6508444  3
    693    695    698    712     1  0.0000000  0.6508444  3
    693    700    701    715     1  0.0000000  0.6508444  3
    693    700    701    716     1  0.0000000  0.6508444  3
    694    693    695    707     1  0.0000000  0.6508444  3
    694    693    695    708     1  0.0000000  0.6508444  3
    694    693    700    713     1  0.0000000  0.6508444  3
    694    693    700    714     1  0.0000000  0.6508444  3
    695    693    694    705     1  0.0000000  0.6508444  3
    695    693    694    706     1  0.0000000  0.6508444  3
    695    693    700    713     1  0.0000000  0.6508444  3
    695    693    700    714     1  0.0000000  0.6508444  3
    696    694    693    718     1  0.0000000  0.6508444  3
    696    697   1456   1471     1  180.0000771  10.4600000  2
    697    696    694    705     1  0.0000000  0.6508444  3
    697    696    694    706     1  0.0000000  0.6508444  3
    697   1456   1455   1469     1  0.0000000  0.0000000  2
    697   1456   1455   1470     1  0.0000000  0.0000000  2
    698    695    693    718     1  0.0000000  0.6508444  3
    698    699   1482   1497     1  180.0000771  10.4600000  2
    699    698    695    707     1  0.0000000  0.6508444  3
    699    698    695    708     1  0.0000000  0.6508444  3
    699   1482   1481   1495     1  0.0000000  0.0000000  2
    699   1482   1481   1496     1  0.0000000  0.0000000  2
    700    693    694    705     1  0.0000000  0.6508444  3
    700    693    694    706     1  0.0000000  0.6508444  3
    700    693    695    707     1  0.0000000  0.6508444  3
    700    693    695    708     1  0.0000000  0.6508444  3
    700    701    702    717     1  0.0000000  0.0000000  2
    701    700    693    718     1  0.0000000  0.6508444  3
    702    701    700    713     1  0.0000000  0.6508444  3
    702    701    700    714     1  0.0000000  0.6508444  3
    703    697    696    709     1  0.0000000  3.3472000  1
    703    697    696    709     1  0.0000000  0.0000000  2
    703    697    696    709     1  180.0000771  0.3347200  3
    703    697    696    710     1  0.0000000  3.3472000  1
    703    697    696    710     1  0.0000000  0.0000000  2
    703    697    696    710     1  180.0000771  0.3347200  3
    703    697   1456   1471     1  0.0000000  8.3680000  1
    703    697   1456   1471     1  180.0000771  10.4600000  2
    704    699    698    711     1  0.0000000  3.3472000  1
    704    699    698    711     1  0.0000000  0.0000000  2
    704    699    698    711     1  180.0000771  0.3347200  3
    704    699    698    712     1  0.0000000  3.3472000  1
    704    699    698    712     1  0.0000000  0.0000000  2
    704    699    698    712     1  180.0000771  0.3347200  3
    704    699   1482   1497     1  0.0000000  8.3680000  1
    704    699   1482   1497     1  180.0000771  10.4600000  2
    705    694    693    718     1  0.0000000  0.6508444  3
    705    694    696    709     1  0.0000000  0.6508444  3
    705    694    696    710     1  0.0000000  0.6508444  3
    706    694    693    718     1  0.0000000  0.6508444  3
    706    694    696    709     1  0.0000000  0.6508444  3
    706    694    696    710     1  0.0000000  0.6508444  3
    707    695    693    718     1  0.0000000  0.6508444  3
    707    695    698    711     1  0.0000000  0.6508444  3
    707    695    698    712     1  0.0000000  0.6508444  3
    708    695    693    718     1  0.0000000  0.6508444  3
    708    695    698    711     1  0.0000000  0.6508444  3
    708    695    698    712     1  0.0000000  0.6508444  3
    709    696    697   1456     1  180.0000771  0.0000000  2
    710    696    697   1456     1  180.0000771  0.0000000  2
    711    698    699   1482     1  180.0000771  0.0000000  2
    712    698    699   1482     1  180.0000771  0.0000000  2
    713    700    693    718     1  0.0000000  0.6508444  3
    713    700    701    715     1  0.0000000  0.6508444  3
    713    700    701    716     1  0.0000000  0.6508444  3
    714    700    693    718     1  0.0000000  0.6508444  3
    714    700    701    715     1  0.0000000  0.6508444  3
    714    700    701    716     1  0.0000000  0.6508444  3
    715    701    702    717     1  0.0000000  0.0000000  2
    716    701    702    717     1  0.0000000  0.0000000  2
    719    720    722    735     1  0.0000000  0.6508444  3
    719    720    722    736     1  0.0000000  0.6508444  3
    719    721    724    737     1  0.0000000  0.6508444  3
    719    721    724    738     1  0.0000000  0.6508444  3
    719    726    727    741     1  0.0000000  0.6508444  3
    719    726    727    742     1  0.0000000  0.6508444  3
    720    719    721    733     1  0.0000000  0.6508444  3
    720    719    721    734     1  0.0000000  0.6508444  3
    720    719    726    739     1  0.0000000  0.6508444  3
    720    719    726    740     1  0.0000000  0.6508444  3
    721    719    720    731     1  0.0000000  0.6508444  3
    721    719    720    732     1  0.0000000  0.6508444  3
    721    719    726    739     1  0.0000000  0.6508444  3
    721    719    726    740     1  0.0000000  0.6508444  3
    722    720    719    744     1  0.0000000  0.6508444  3
    722    723   1508   1523     1  180.0000771  10.4600000  2
    723    722    720    731     1  0.0000000  0.6508444  3
    723    722    720    732     1  0.0000000  0.6508444  3
    723   1508   1507   1521     1  0.0000000  0.0000000  2
    723   1508   1507   1522     1  0.0000000  0.0000000  2
    724    721    719    744     1  0.0000000  0.6508444  3
    724    725   1534   1549     1  180.0000771  10.4600000  2
    725    724    721    733     1  0.0000000  0.6508444  3
    725    724    721    734     1  0.0000000  0.6508444  3
    725   1534   1533   1547     1  0.0000000  0.0000000  2
    725   1534   1533   1548     1  0.0000000  0.0000000  2
    726    719    720    731     1  0.0000000  0.6508444  3
    726    719    720    732     1  0.0000000  0.6508444  3
    726    719    721    733     1  0.0000000  0.6508444  3
    726    719    721    734     1  0.0000000  0.6508444  3
    726    727    728    743     1  0.0000000  0.0000000  2
    727    726    719    744     1  0.0000000  0.6508444  3
    728    727    726    739     1  0.0000000  0.6508444  3
    728    727    726    740     1  0.0000000  0.6508444  3
    729    723    722    735     1  0.0000000  3.3472000  1
    729    723    722    735     1  0.0000000  0.0000000  2
    729    723    722    735     1  180.0000771  0.3347200  3
    729    723    722    736     1  0.0000000  3.3472000  1
    729    723    722    736     1  0.0000000  0.0000000  2
    729    723    722    736     1  180.0000771  0.3347200  3
    729    723   1508   1523     1  0.0000000  8.3680000  1
    729    723   1508   1523     1  180.0000771  10.4600000  2
    730    725    724    737     1  0.0000000  3.3472000  1
    730    725    724    737     1  0.0000000  0.0000000  2
    730    725    724    737     1  180.0000771  0.3347200  3
    730    725    724    738     1  0.0000000  3.3472000  1
    730    725    724    738     1  0.0000000  0.0000000  2
    730    725    724    738     1  180.0000771  0.3347200  3
    730    725   1534   1549     1  0.0000000  8.3680000  1
    730    725   1534   1549     1  180.0000771  10.4600000  2
    731    720    719    744     1  0.0000000  0.6508444  3
    731    720    722    735     1  0.0000000  0.6508444  3
    731    720    722    736     1  0.0000000  0.6508444  3
    732    720    719    744     1  0.0000000  0.6508444  3
    732    720    722    735     1  0.0000000  0.6508444  3
    732    720    722    736     1  0.0000000  0.6508444  3
    733    721    719    744     1  0.0000000  0.6508444  3
    733    721    724    737     1  0.0000000  0.6508444  3
    733    721    724    738     1  0.0000000  0.6508444  3
    734    721    719    744     1  0.0000000  0.6508444  3
    734    721    724    737     1  0.0000000  0.6508444  3
    734    721    724    738     1  0.0000000  0.6508444  3
    735    722    723   1508     1  180.0000771  0.0000000  2
    736    722    723   1508     1  180.0000771  0.0000000  2
    737    724    725   1534     1  180.0000771  0.0000000  2
    738    724    725   1534     1  180.0000771  0.0000000  2
    739    726    719    744     1  0.0000000  0.6508444  3
    739    726    727    741     1  0.0000000  0.6508444  3
    739    726    727    742     1  0.0000000  0.6508444  3
    740    726    719    744     1  0.0000000  0.6508444  3
    740    726    727    741     1  0.0000000  0.6508444  3
    740    726    727    742     1  0.0000000  0.6508444  3
    741    727    728    743     1  0.0000000  0.0000000  2
    742    727    728    743     1  0.0000000  0.0000000  2
    745    746    748    761     1  0.0000000  0.6508444  3
    745    746    748    762     1  0.0000000  0.6508444  3
    745    747    750    763     1  0.0000000  0.6508444  3
    745    747    750    764     1  0.0000000  0.6508444  3
    745    752    753    767     1  0.0000000  0.6508444  3
    745    752    753    768     1  0.0000000  0.6508444  3
    746    745    747    759     1  0.0000000  0.6508444  3
    746    745    747    760     1  0.0000000  0.6508444  3
    746    745    752    765     1  0.0000000  0.6508444  3
    746    745    752    766     1  0.0000000  0.6508444  3
    747    745    746    757     1  0.0000000  0.6508444  3
    747    745    746    758     1  0.0000000  0.6508444  3
    747    745    752    765     1  0.0000000  0.6508444  3
    747    745    752    766     1  0.0000000  0.6508444  3
    748    746    745    770     1  0.0000000  0.6508444  3
    748    749   1560   1575     1  180.0000771  10.4600000  2
    749    748    746    757     1  0.0000000  0.6508444  3
    749    748    746    758     1  0.0000000  0.6508444  3
    749   1560   1559   1573     1  0.0000000  0.0000000  2
    749   1560   1559   1574     1  0.0000000  0.0000000  2
    750    747    745    770     1  0.0000000  0.6508444  3
    750    751   1586   1601     1  180.0000771  10.4600000  2
    751    750    747    759     1  0.0000000  0.6508444  3
    751    750    747    760     1  0.0000000  0.6508444  3
    751   1586   1585   1599     1  0.0000000  0.0000000  2
    751   1586   1585   1600     1  0.0000000  0.0000000  2
    752    745    746    757     1  0.0000000  0.6508444  3
    752    745    746    758     1  0.0000000  0.6508444  3
    752    745    747    759     1  0.0000000  0.6508444  3
    752    745    747    760     1  0.0000000  0.6508444  3
    752    753    754    769     1  0.0000000  0.0000000  2
    753    752    745    770     1  0.0000000  0.6508444  3
    754    753    752    765     1  0.0000000  0.6508444  3
    754    753    752    766     1  0.0000000  0.6508444  3
    755    749    748    761     1  0.0000000  3.3472000  1
    755    749    748    761     1  0.0000000  0.0000000  2
    755    749    748    761     1  180.0000771  0.3347200  3
    755    749    748    762     1  0.0000000  3.3472000  1
    755    749    748    762     1  0.0000000  0.0000000  2
    755    749    748    762     1  180.0000771  0.3347200  3
    755    749   1560   1575     1  0.0000000  8.3680000  1
    755    749   1560   1575     1  180.0000771  10.4600000  2
    756    751    750    763     1  0.0000000  3.3472000  1
    756    751    750    763     1  0.0000000  0.0000000  2
    756    751    750    763     1  180.0000771  0.3347200  3
    756    751    750    764     1  0.0000000  3.3472000  1
    756    751    750    764     1  0.0000000  0.0000000  2
    756    751    750    764     1  180.0000771  0.3347200  3
    756    751   1586   1601     1  0.0000000  8.3680000  1
    756    751   1586   1601     1  180.0000771  10.4600000  2
    757    746    745    770     1  0.0000000  0.6508444  3
    757    746    748    761     1  0.0000000  0.6508444  3
    757    746    748    762     1  0.0000000  0.6508444  3
    758    746    745    770     1  0.0000000  0.6508444  3
    758    746    748    761     1  0.0000000  0.6508444  3
    758    746    748    762     1  0.0000000  0.6508444  3
    759    747    745    770     1  0.0000000  0.6508444  3
    759    747    750    763     1  0.0000000  0.6508444  3
    759    747    750    764     1  0.0000000  0.6508444  3
    760    747    745    770     1  0.0000000  0.6508444  3
    760    747    750    763     1  0.0000000  0.6508444  3
    760    747    750    764     1  0.0000000  0.6508444  3
    761    748    749   1560     1  180.0000771  0.0000000  2
    762    748    749   1560     1  180.0000771  0.0000000  2
    763    750    751   1586     1  180.0000771  0.0000000  2
    764    750    751   1586     1  180.0000771  0.0000000  2
    765    752    745    770     1  0.0000000  0.6508444  3
    765    752    753    767     1  0.0000000  0.6508444  3
    765    752    753    768     1  0.0000000  0.6508444  3
    766    752    745    770     1  0.0000000  0.6508444  3
    766    752    753    767     1  0.0000000  0.6508444  3
    766    752    753    768     1  0.0000000  0.6508444  3
    767    753    754    769     1  0.0000000  0.0000000  2
    768    753    754    769     1  0.0000000  0.0000000  2
    771    772    774    787     1  0.0000000  0.6508444  3
    771    772    774    788     1  0.0000000  0.6508444  3
    771    773    776    789     1  0.0000000  0.6508444  3
    771    773    776    790     1  0.0000000  0.6508444  3
    771    778    779    793     1  0.0000000  0.6508444  3
    771    778    779    794     1  0.0000000  0.6508444  3
    772    771    773    785     1  0.0000000  0.6508444  3
    772    771    773    786     1  0.0000000  0.6508444  3
    772    771    778    791     1  0.0000000  0.6508444  3
    772    771    778    792     1  0.0000000  0.6508444  3
    773    771    772    783     1  0.0000000  0.6508444  3
    773    771    772    784     1  0.0000000  0.6508444  3
    773    771    778    791     1  0.0000000  0.6508444  3
    773    771    778    792     1  0.0000000  0.6508444  3
    774    772    771    796     1  0.0000000  0.6508444  3
    774    775   1603   1604     1  180.0000771  10.4600000  2
    775    774    772    783     1  0.0000000  0.6508444  3
    775    774    772    784     1  0.0000000  0.6508444  3
    775   1603   1605   1606     1  0.0000000  0.0000000  2
    775   1603   1605   1608     1  0.0000000  0.0000000  2
    776    773    771    796     1  0.0000000  0.6508444  3
    776    777   1677   1678     1  180.0000771  10.4600000  2
    777    776    773    785     1  0.0000000  0.6508444  3
    777    776    773    786     1  0.0000000  0.6508444  3
    777   1677   1679   1680     1  0.0000000  0.0000000  2
    777   1677   1679   1682     1  0.0000000  0.0000000  2
    778    771    772    783     1  0.0000000  0.6508444  3
    778    771    772    784     1  0.0000000  0.6508444  3
    778    771    773    785     1  0.0000000  0.6508444  3
    778    771    773    786     1  0.0000000  0.6508444  3
    778    779    780    795     1  0.0000000  0.0000000  2
    779    778    771    796     1  0.0000000  0.6508444  3
    780    779    778    791     1  0.0000000  0.6508444  3
    780    779    778    792     1  0.0000000  0.6508444  3
    781    775    774    787     1  0.0000000  3.3472000  1
    781    775    774    787     1  0.0000000  0.0000000  2
    781    775    774    787     1  180.0000771  0.3347200  3
    781    775    774    788     1  0.0000000  3.3472000  1
    781    775    774    788     1  0.0000000  0.0000000  2
    781    775    774    788     1  180.0000771  0.3347200  3
    781    775   1603   1604     1  0.0000000  8.3680000  1
    781    775   1603   1604     1  180.0000771  10.4600000  2
    782    777    776    789     1  0.0000000  3.3472000  1
    782    777    776    789     1  0.0000000  0.0000000  2
    782    777    776    789     1  180.0000771  0.3347200  3
    782    777    776    790     1  0.0000000  3.3472000  1
    782    777    776    790     1  0.0000000  0.0000000  2
    782    777    776    790     1  180.0000771  0.3347200  3
    782    777   1677   1678     1  0.0000000  8.3680000  1
    782    777   1677   1678     1  180.0000771  10.4600000  2
    783    772    771    796     1  0.0000000  0.6508444  3
    783    772    774    787     1  0.0000000  0.6508444  3
    783    772    774    788     1  0.0000000  0.6508444  3
    784    772    771    796     1  0.0000000  0.6508444  3
    784    772    774    787     1  0.0000000  0.6508444  3
    784    772    774    788     1  0.0000000  0.6508444  3
    785    773    771    796     1  0.0000000  0.6508444  3
    785    773    776    789     1  0.0000000  0.6508444  3
    785    773    776    790     1  0.0000000  0.6508444  3
    786    773    771    796     1  0.0000000  0.6508444  3
    786    773    776    789     1  0.0000000  0.6508444  3
    786    773    776    790     1  0.0000000  0.6508444  3
    787    774    775   1603     1  180.0000771  0.0000000  2
    788    774    775   1603     1  180.0000771  0.0000000  2
    789    776    777   1677     1  180.0000771  0.0000000  2
    790    776    777   1677     1  180.0000771  0.0000000  2
    791    778    771    796     1  0.0000000  0.6508444  3
    791    778    779    793     1  0.0000000  0.6508444  3
    791    778    779    794     1  0.0000000  0.6508444  3
    792    778    771    796     1  0.0000000  0.6508444  3
    792    778    779    793     1  0.0000000  0.6508444  3
    792    778    779    794     1  0.0000000  0.6508444  3
    793    779    780    795     1  0.0000000  0.0000000  2
    794    779    780    795     1  0.0000000  0.0000000  2
    797    798    800    813     1  0.0000000  0.6508444  3
    797    798    800    814     1  0.0000000  0.6508444  3
    797    799    802    815     1  0.0000000  0.6508444  3
    797    799    802    816     1  0.0000000  0.6508444  3
    797    804    805    819     1  0.0000000  0.6508444  3
    797    804    805    820     1  0.0000000  0.6508444  3
    798    797    799    811     1  0.0000000  0.6508444  3
    798    797    799    812     1  0.0000000  0.6508444  3
    798    797    804    817     1  0.0000000  0.6508444  3
    798    797    804    818     1  0.0000000  0.6508444  3
    799    797    798    809     1  0.0000000  0.6508444  3
    799    797    798    810     1  0.0000000  0.6508444  3
    799    797    804    817     1  0.0000000  0.6508444  3
    799    797    804    818     1  0.0000000  0.6508444  3
    800    798    797    822     1  0.0000000  0.6508444  3
    800    801   1751   1752     1  180.0000771  10.4600000  2
    801    800    798    809     1  0.0000000  0.6508444  3
    801    800    798    810     1  0.0000000  0.6508444  3
    801   1751   1753   1754     1  0.0000000  0.0000000  2
    801   1751   1753   1756     1  0.0000000  0.0000000  2
    802    799    797    822     1  0.0000000  0.6508444  3
    802    803   1825   1826     1  180.0000771  10.4600000  2
    803    802    799    811     1  0.0000000  0.6508444  3
    803    802    799    812     1  0.0000000  0.6508444  3
    803   1825   1827   1828     1  0.0000000  0.0000000  2
    803   1825   1827   1830     1  0.0000000  0.0000000  2
    804    797    798    809     1  0.0000000  0.6508444  3
    804    797    798    810     1  0.0000000  0.6508444  3
    804    797    799    811     1  0.0000000  0.6508444  3
    804    797    799    812     1  0.0000000  0.6508444  3
    804    805    806    821     1  0.0000000  0.0000000  2
    805    804    797    822     1  0.0000000  0.6508444  3
    806    805    804    817     1  0.0000000  0.6508444  3
    806    805    804    818     1  0.0000000  0.6508444  3
    807    801    800    813     1  0.0000000  3.3472000  1
    807    801    800    813     1  0.0000000  0.0000000  2
    807    801    800    813     1  180.0000771  0.3347200  3
    807    801    800    814     1  0.0000000  3.3472000  1
    807    801    800    814     1  0.0000000  0.0000000  2
    807    801    800    814     1  180.0000771  0.3347200  3
    807    801   1751   1752     1  0.0000000  8.3680000  1
    807    801   1751   1752     1  180.0000771  10.4600000  2
    808    803    802    815     1  0.0000000  3.3472000  1
    808    803    802    815     1  0.0000000  0.0000000  2
    808    803    802    815     1  180.0000771  0.3347200  3
    808    803    802    816     1  0.0000000  3.3472000  1
    808    803    802    816     1  0.0000000  0.0000000  2
    808    803    802    816     1  180.0000771  0.3347200  3
    808    803   1825   1826     1  0.0000000  8.3680000  1
    808    803   1825   1826     1  180.0000771  10.4600000  2
    809    798    797    822     1  0.0000000  0.6508444  3
    809    798    800    813     1  0.0000000  0.6508444  3
    809    798    800    814     1  0.0000000  0.6508444  3
    810    798    797    822     1  0.0000000  0.6508444  3
    810    798    800    813     1  0.0000000  0.6508444  3
    810    798    800    814     1  0.0000000  0.6508444  3
    811    799    797    822     1  0.0000000  0.6508444  3
    811    799    802    815     1  0.0000000  0.6508444  3
    811    799    802    816     1  0.0000000  0.6508444  3
    812    799    797    822     1  0.0000000  0.6508444  3
    812    799    802    815     1  0.0000000  0.6508444  3
    812    799    802    816     1  0.0000000  0.6508444  3
    813    800    801   1751     1  180.0000771  0.0000000  2
    814    800    801   1751     1  180.0000771  0.0000000  2
    815    802    803   1825     1  180.0000771  0.0000000  2
    816    802    803   1825     1  180.0000771  0.0000000  2
    817    804    797    822     1  0.0000000  0.6508444  3
    817    804    805    819     1  0.0000000  0.6508444  3
    817    804    805    820     1  0.0000000  0.6508444  3
    818    804    797    822     1  0.0000000  0.6508444  3
    818    804    805    819     1  0.0000000  0.6508444  3
    818    804    805    820     1  0.0000000  0.6508444  3
    819    805    806    821     1  0.0000000  0.0000000  2
    820    805    806    821     1  0.0000000  0.0000000  2
    823    824    826    839     1  0.0000000  0.6508444  3
    823    824    826    840     1  0.0000000  0.6508444  3
    823    825    828    841     1  0.0000000  0.6508444  3
    823    825    828    842     1  0.0000000  0.6508444  3
    823    830    831    845     1  0.0000000  0.6508444  3
    823    830    831    846     1  0.0000000  0.6508444  3
    824    823    825    837     1  0.0000000  0.6508444  3
    824    823    825    838     1  0.0000000  0.6508444  3
    824    823    830    843     1  0.0000000  0.6508444  3
    824    823    830    844     1  0.0000000  0.6508444  3
    825    823    824    835     1  0.0000000  0.6508444  3
    825    823    824    836     1  0.0000000  0.6508444  3
    825    823    830    843     1  0.0000000  0.6508444  3
    825    823    830    844     1  0.0000000  0.6508444  3
    826    824    823    848     1  0.0000000  0.6508444  3
    826    827   1899   1900     1  180.0000771  10.4600000  2
    827    826    824    835     1  0.0000000  0.6508444  3
    827    826    824    836     1  0.0000000  0.6508444  3
    827   1899   1901   1902     1  0.0000000  0.0000000  2
    827   1899   1901   1904     1  0.0000000  0.0000000  2
    828    825    823    848     1  0.0000000  0.6508444  3
    828    829   1973   1974     1  180.0000771  10.4600000  2
    829    828    825    837     1  0.0000000  0.6508444  3
    829    828    825    838     1  0.0000000  0.6508444  3
    829   1973   1975   1976     1  0.0000000  0.0000000  2
    829   1973   1975   1978     1  0.0000000  0.0000000  2
    830    823    824    835     1  0.0000000  0.6508444  3
    830    823    824    836     1  0.0000000  0.6508444  3
    830    823    825    837     1  0.0000000  0.6508444  3
    830    823    825    838     1  0.0000000  0.6508444  3
    830    831    832    847     1  0.0000000  0.0000000  2
    831    830    823    848     1  0.0000000  0.6508444  3
    832    831    830    843     1  0.0000000  0.6508444  3
    832    831    830    844     1  0.0000000  0.6508444  3
    833    827    826    839     1  0.0000000  3.3472000  1
    833    827    826    839     1  0.0000000  0.0000000  2
    833    827    826    839     1  180.0000771  0.3347200  3
    833    827    826    840     1  0.0000000  3.3472000  1
    833    827    826    840     1  0.0000000  0.0000000  2
    833    827    826    840     1  180.0000771  0.3347200  3
    833    827   1899   1900     1  0.0000000  8.3680000  1
    833    827   1899   1900     1  180.0000771  10.4600000  2
    834    829    828    841     1  0.0000000  3.3472000  1
    834    829    828    841     1  0.0000000  0.0000000  2
    834    829    828    841     1  180.0000771  0.3347200  3
    834    829    828    842     1  0.0000000  3.3472000  1
    834    829    828    842     1  0.0000000  0.0000000  2
    834    829    828    842     1  180.0000771  0.3347200  3
    834    829   1973   1974     1  0.0000000  8.3680000  1
    834    829   1973   1974     1  180.0000771  10.4600000  2
    835    824    823    848     1  0.0000000  0.6508444  3
    835    824    826    839     1  0.0000000  0.6508444  3
    835    824    826    840     1  0.0000000  0.6508444  3
    836    824    823    848     1  0.0000000  0.6508444  3
    836    824    826    839     1  0.0000000  0.6508444  3
    836    824    826    840     1  0.0000000  0.6508444  3
    837    825    823    848     1  0.0000000  0.6508444  3
    837    825    828    841     1  0.0000000  0.6508444  3
    837    825    828    842     1  0.0000000  0.6508444  3
    838    825    823    848     1  0.0000000  0.6508444  3
    838    825    828    841     1  0.0000000  0.6508444  3
    838    825    828    842     1  0.0000000  0.6508444  3
    839    826    827   1899     1  180.0000771  0.0000000  2
    840    826    827   1899     1  180.0000771  0.0000000  2
    841    828    829   1973     1  180.0000771  0.0000000  2
    842    828    829   1973     1  180.0000771  0.0000000  2
    843    830    823    848     1  0.0000000  0.6508444  3
    843    830    831    845     1  0.0000000  0.6508444  3
    843    830    831    846     1  0.0000000  0.6508444  3
    844    830    823    848     1  0.0000000  0.6508444  3
    844    830    831    845     1  0.0000000  0.6508444  3
    844    830    831    846     1  0.0000000  0.6508444  3
    845    831    832    847     1  0.0000000  0.0000000  2
    846    831    832    847     1  0.0000000  0.0000000  2
    849    850    852    865     1  0.0000000  0.6508444  3
    849    850    852    866     1  0.0000000  0.6508444  3
    849    851    854    867     1  0.0000000  0.6508444  3
    849    851    854    868     1  0.0000000  0.6508444  3
    849    856    857    871     1  0.0000000  0.6508444  3
    849    856    857    872     1  0.0000000  0.6508444  3
    850    849    851    863     1  0.0000000  0.6508444  3
    850    849    851    864     1  0.0000000  0.6508444  3
    850    849    856    869     1  0.0000000  0.6508444  3
    850    849    856    870     1  0.0000000  0.6508444  3
    851    849    850    861     1  0.0000000  0.6508444  3
    851    849    850    862     1  0.0000000  0.6508444  3
    851    849    856    869     1  0.0000000  0.6508444  3
    851    849    856    870     1  0.0000000  0.6508444  3
    852    850    849    874     1  0.0000000  0.6508444  3
    852    853   2047   2048     1  180.0000771  10.4600000  2
    853    852    850    861     1  0.0000000  0.6508444  3
    853    852    850    862     1  0.0000000  0.6508444  3
    853   2047   2049   2050     1  0.0000000  0.0000000  2
    853   2047   2049   2052     1  0.0000000  0.0000000  2
    854    851    849    874     1  0.0000000  0.6508444  3
    854    855   2121   2122     1  180.0000771  10.4600000  2
    855    854    851    863     1  0.0000000  0.6508444  3
    855    854    851    864     1  0.0000000  0.6508444  3
    855   2121   2123   2124     1  0.0000000  0.0000000  2
    855   2121   2123   2126     1  0.0000000  0.0000000  2
    856    849    850    861     1  0.0000000  0.6508444  3
    856    849    850    862     1  0.0000000  0.6508444  3
    856    849    851    863     1  0.0000000  0.6508444  3
    856    849    851    864     1  0.0000000  0.6508444  3
    856    857    858    873     1  0.0000000  0.0000000  2
    857    856    849    874     1  0.0000000  0.6508444  3
    858    857    856    869     1  0.0000000  0.6508444  3
    858    857    856    870     1  0.0000000  0.6508444  3
    859    853    852    865     1  0.0000000  3.3472000  1
    859    853    852    865     1  0.0000000  0.0000000  2
    859    853    852    865     1  180.0000771  0.3347200  3
    859    853    852    866     1  0.0000000  3.3472000  1
    859    853    852    866     1  0.0000000  0.0000000  2
    859    853    852    866     1  180.0000771  0.3347200  3
    859    853   2047   2048     1  0.0000000  8.3680000  1
    859    853   2047   2048     1  180.0000771  10.4600000  2
    860    855    854    867     1  0.0000000  3.3472000  1
    860    855    854    867     1  0.0000000  0.0000000  2
    860    855    854    867     1  180.0000771  0.3347200  3
    860    855    854    868     1  0.0000000  3.3472000  1
    860    855    854    868     1  0.0000000  0.0000000  2
    860    855    854    868     1  180.0000771  0.3347200  3
    860    855   2121   2122     1  0.0000000  8.3680000  1
    860    855   2121   2122     1  180.0000771  10.4600000  2
    861    850    849    874     1  0.0000000  0.6508444  3
    861    850    852    865     1  0.0000000  0.6508444  3
    861    850    852    866     1  0.0000000  0.6508444  3
    862    850    849    874     1  0.0000000  0.6508444  3
    862    850    852    865     1  0.0000000  0.6508444  3
    862    850    852    866     1  0.0000000  0.6508444  3
    863    851    849    874     1  0.0000000  0.6508444  3
    863    851    854    867     1  0.0000000  0.6508444  3
    863    851    854    868     1  0.0000000  0.6508444  3
    864    851    849    874     1  0.0000000  0.6508444  3
    864    851    854    867     1  0.0000000  0.6508444  3
    864    851    854    868     1  0.0000000  0.6508444  3
    865    852    853   2047     1  180.0000771  0.0000000  2
    866    852    853   2047     1  180.0000771  0.0000000  2
    867    854    855   2121     1  180.0000771  0.0000000  2
    868    854    855   2121     1  180.0000771  0.0000000  2
    869    856    849    874     1  0.0000000  0.6508444  3
    869    856    857    871     1  0.0000000  0.6508444  3
    869    856    857    872     1  0.0000000  0.6508444  3
    870    856    849    874     1  0.0000000  0.6508444  3
    870    856    857    871     1  0.0000000  0.6508444  3
    870    856    857    872     1  0.0000000  0.6508444  3
    871    857    858    873     1  0.0000000  0.0000000  2
    872    857    858    873     1  0.0000000  0.0000000  2
    875    876    878    891     1  0.0000000  0.6508444  3
    875    876    878    892     1  0.0000000  0.6508444  3
    875    877    880    893     1  0.0000000  0.6508444  3
    875    877    880    894     1  0.0000000  0.6508444  3
    875    882    883    897     1  0.0000000  0.6508444  3
    875    882    883    898     1  0.0000000  0.6508444  3
    876    875    877    889     1  0.0000000  0.6508444  3
    876    875    877    890     1  0.0000000  0.6508444  3
    876    875    882    895     1  0.0000000  0.6508444  3
    876    875    882    896     1  0.0000000  0.6508444  3
    877    875    876    887     1  0.0000000  0.6508444  3
    877    875    876    888     1  0.0000000  0.6508444  3
    877    875    882    895     1  0.0000000  0.6508444  3
    877    875    882    896     1  0.0000000  0.6508444  3
    878    876    875    900     1  0.0000000  0.6508444  3
    878    879   2195   2196     1  180.0000771  10.4600000  2
    879    878    876    887     1  0.0000000  0.6508444  3
    879    878    876    888     1  0.0000000  0.6508444  3
    879   2195   2197   2198     1  0.0000000  0.0000000  2
    879   2195   2197   2200     1  0.0000000  0.0000000  2
    880    877    875    900     1  0.0000000  0.6508444  3
    880    881   2269   2270     1  180.0000771  10.4600000  2
    881    880    877    889     1  0.0000000  0.6508444  3
    881    880    877    890     1  0.0000000  0.6508444  3
    881   2269   2271   2272     1  0.0000000  0.0000000  2
    881   2269   2271   2274     1  0.0000000  0.0000000  2
    882    875    876    887     1  0.0000000  0.6508444  3
    882    875    876    888     1  0.0000000  0.6508444  3
    882    875    877    889     1  0.0000000  0.6508444  3
    882    875    877    890     1  0.0000000  0.6508444  3
    882    883    884    899     1  0.0000000  0.0000000  2
    883    882    875    900     1  0.0000000  0.6508444  3
    884    883    882    895     1  0.0000000  0.6508444  3
    884    883    882    896     1  0.0000000  0.6508444  3
    885    879    878    891     1  0.0000000  3.3472000  1
    885    879    878    891     1  0.0000000  0.0000000  2
    885    879    878    891     1  180.0000771  0.3347200  3
    885    879    878    892     1  0.0000000  3.3472000  1
    885    879    878    892     1  0.0000000  0.0000000  2
    885    879    878    892     1  180.0000771  0.3347200  3
    885    879   2195   2196     1  0.0000000  8.3680000  1
    885    879   2195   2196     1  180.0000771  10.4600000  2
    886    881    880    893     1  0.0000000  3.3472000  1
    886    881    880    893     1  0.0000000  0.0000000  2
    886    881    880    893     1  180.0000771  0.3347200  3
    886    881    880    894     1  0.0000000  3.3472000  1
    886    881    880    894     1  0.0000000  0.0000000  2
    886    881    880    894     1  180.0000771  0.3347200  3
    886    881   2269   2270     1  0.0000000  8.3680000  1
    886    881   2269   2270     1  180.0000771  10.4600000  2
    887    876    875    900     1  0.0000000  0.6508444  3
    887    876    878    891     1  0.0000000  0.6508444  3
    887    876    878    892     1  0.0000000  0.6508444  3
    888    876    875    900     1  0.0000000  0.6508444  3
    888    876    878    891     1  0.0000000  0.6508444  3
    888    876    878    892     1  0.0000000  0.6508444  3
    889    877    875    900     1  0.0000000  0.6508444  3
    889    877    880    893     1  0.0000000  0.6508444  3
    889    877    880    894     1  0.0000000  0.6508444  3
    890    877    875    900     1  0.0000000  0.6508444  3
    890    877    880    893     1  0.0000000  0.6508444  3
    890    877    880    894     1  0.0000000  0.6508444  3
    891    878    879   2195     1  180.0000771  0.0000000  2
    892    878    879   2195     1  180.0000771  0.0000000  2
    893    880    881   2269     1  180.0000771  0.0000000  2
    894    880    881   2269     1  180.0000771  0.0000000  2
    895    882    875    900     1  0.0000000  0.6508444  3
    895    882    883    897     1  0.0000000  0.6508444  3
    895    882    883    898     1  0.0000000  0.6508444  3
    896    882    875    900     1  0.0000000  0.6508444  3
    896    882    883    897     1  0.0000000  0.6508444  3
    896    882    883    898     1  0.0000000  0.6508444  3
    897    883    884    899     1  0.0000000  0.0000000  2
    898    883    884    899     1  0.0000000  0.0000000  2
    901    902    904    917     1  0.0000000  0.6508444  3
    901    902    904    918     1  0.0000000  0.6508444  3
    901    903    906    919     1  0.0000000  0.6508444  3
    901    903    906    920     1  0.0000000  0.6508444  3
    901    908    909    923     1  0.0000000  0.6508444  3
    901    908    909    924     1  0.0000000  0.6508444  3
    902    901    903    915     1  0.0000000  0.6508444  3
    902    901    903    916     1  0.0000000  0.6508444  3
    902    901    908    921     1  0.0000000  0.6508444  3
    902    901    908    922     1  0.0000000  0.6508444  3
    903    901    902    913     1  0.0000000  0.6508444  3
    903    901    902    914     1  0.0000000  0.6508444  3
    903    901    908    921     1  0.0000000  0.6508444  3
    903    901    908    922     1  0.0000000  0.6508444  3
    904    902    901    926     1  0.0000000  0.6508444  3
    904    905   2343   2344     1  180.0000771  10.4600000  2
    905    904    902    913     1  0.0000000  0.6508444  3
    905    904    902    914     1  0.0000000  0.6508444  3
    905   2343   2345   2346     1  0.0000000  0.0000000  2
    905   2343   2345   2348     1  0.0000000  0.0000000  2
    906    903    901    926     1  0.0000000  0.6508444  3
    906    907   2417   2418     1  180.0000771  10.4600000  2
    907    906    903    915     1  0.0000000  0.6508444  3
    907    906    903    916     1  0.0000000  0.6508444  3
    907   2417   2419   2420     1  0.0000000  0.0000000  2
    907   2417   2419   2422     1  0.0000000  0.0000000  2
    908    901    902    913     1  0.0000000  0.6508444  3
    908    901    902    914     1  0.0000000  0.6508444  3
    908    901    903    915     1  0.0000000  0.6508444  3
    908    901    903    916     1  0.0000000  0.6508444  3
    908    909    910    925     1  0.0000000  0.0000000  2
    909    908    901    926     1  0.0000000  0.6508444  3
    910    909    908    921     1  0.0000000  0.6508444  3
    910    909    908    922     1  0.0000000  0.6508444  3
    911    905    904    917     1  0.0000000  3.3472000  1
    911    905    904    917     1  0.0000000  0.0000000  2
    911    905    904    917     1  180.0000771  0.3347200  3
    911    905    904    918     1  0.0000000  3.3472000  1
    911    905    904    918     1  0.0000000  0.0000000  2
    911    905    904    918     1  180.0000771  0.3347200  3
    911    905   2343   2344     1  0.0000000  8.3680000  1
    911    905   2343   2344     1  180.0000771  10.4600000  2
    912    907    906    919     1  0.0000000  3.3472000  1
    912    907    906    919     1  0.0000000  0.0000000  2
    912    907    906    919     1  180.0000771  0.3347200  3
    912    907    906    920     1  0.0000000  3.3472000  1
    912    907    906    920     1  0.0000000  0.0000000  2
    912    907    906    920     1  180.0000771  0.3347200  3
    912    907   2417   2418     1  0.0000000  8.3680000  1
    912    907   2417   2418     1  180.0000771  10.4600000  2
    913    902    901    926     1  0.0000000  0.6508444  3
    913    902    904    917     1  0.0000000  0.6508444  3
    913    902    904    918     1  0.0000000  0.6508444  3
    914    902    901    926     1  0.0000000  0.6508444  3
    914    902    904    917     1  0.0000000  0.6508444  3
    914    902    904    918     1  0.0000000  0.6508444  3
    915    903    901    926     1  0.0000000  0.6508444  3
    915    903    906    919     1  0.0000000  0.6508444  3
    915    903    906    920     1  0.0000000  0.6508444  3
    916    903    901    926     1  0.0000000  0.6508444  3
    916    903    906    919     1  0.0000000  0.6508444  3
    916    903    906    920     1  0.0000000  0.6508444  3
    917    904    905   2343     1  180.0000771  0.0000000  2
    918    904    905   2343     1  180.0000771  0.0000000  2
    919    906    907   2417     1  180.0000771  0.0000000  2
    920    906    907   2417     1  180.0000771  0.0000000  2
    921    908    901    926     1  0.0000000  0.6508444  3
    921    908    909    923     1  0.0000000  0.6508444  3
    921    908    909    924     1  0.0000000  0.6508444  3
    922    908    901    926     1  0.0000000  0.6508444  3
    922    908    909    923     1  0.0000000  0.6508444  3
    922    908    909    924     1  0.0000000  0.6508444  3
    923    909    910    925     1  0.0000000  0.0000000  2
    924    909    910    925     1  0.0000000  0.0000000  2
    927    928    930    943     1  0.0000000  0.6508444  3
    927    928    930    944     1  0.0000000  0.6508444  3
    927    929    932    945     1  0.0000000  0.6508444  3
    927    929    932    946     1  0.0000000  0.6508444  3
    927    934    935    949     1  0.0000000  0.6508444  3
    927    934    935    950     1  0.0000000  0.6508444  3
    928    927    929    941     1  0.0000000  0.6508444  3
    928    927    929    942     1  0.0000000  0.6508444  3
    928    927    934    947     1  0.0000000  0.6508444  3
    928    927    934    948     1  0.0000000  0.6508444  3
    929    927    928    939     1  0.0000000  0.6508444  3
    929    927    928    940     1  0.0000000  0.6508444  3
    929    927    934    947     1  0.0000000  0.6508444  3
    929    927    934    948     1  0.0000000  0.6508444  3
    930    928    927    952     1  0.0000000  0.6508444  3
    930    931   2491   2492     1  180.0000771  10.4600000  2
    931    930    928    939     1  0.0000000  0.6508444  3
    931    930    928    940     1  0.0000000  0.6508444  3
    931   2491   2493   2494     1  0.0000000  0.0000000  2
    931   2491   2493   2496     1  0.0000000  0.0000000  2
    932    929    927    952     1  0.0000000  0.6508444  3
    932    933   2565   2566     1  180.0000771  10.4600000  2
    933    932    929    941     1  0.0000000  0.6508444  3
    933    932    929    942     1  0.0000000  0.6508444  3
    933   2565   2567   2568     1  0.0000000  0.0000000  2
    933   2565   2567   2570     1  0.0000000  0.0000000  2
    934    927    928    939     1  0.0000000  0.6508444  3
    934    927    928    940     1  0.0000000  0.6508444  3
    934    927    929    941     1  0.0000000  0.6508444  3
    934    927    929    942     1  0.0000000  0.6508444  3
    934    935    936    951     1  0.0000000  0.0000000  2
    935    934    927    952     1  0.0000000  0.6508444  3
    936    935    934    947     1  0.0000000  0.6508444  3
    936    935    934    948     1  0.0000000  0.6508444  3
    937    931    930    943     1  0.0000000  3.3472000  1
    937    931    930    943     1  0.0000000  0.0000000  2
    937    931    930    943     1  180.0000771  0.3347200  3
    937    931    930    944     1  0.0000000  3.3472000  1
    937    931    930    944     1  0.0000000  0.0000000  2
    937    931    930    944     1  180.0000771  0.3347200  3
    937    931   2491   2492     1  0.0000000  8.3680000  1
    937    931   2491   2492     1  180.0000771  10.4600000  2
    938    933    932    945     1  0.0000000  3.3472000  1
    938    933    932    945     1  0.0000000  0.0000000  2
    938    933    932    945     1  180.0000771  0.3347200  3
    938    933    932    946     1  0.0000000  3.3472000  1
    938    933    932    946     1  0.0000000  0.0000000  2
    938    933    932    946     1  180.0000771  0.3347200  3
    938    933   2565   2566     1  0.0000000  8.3680000  1
    938    933   2565   2566     1  180.0000771  10.4600000  2
    939    928    927    952     1  0.0000000  0.6508444  3
    939    928    930    943     1  0.0000000  0.6508444  3
    939    928    930    944     1  0.0000000  0.6508444  3
    940    928    927    952     1  0.0000000  0.6508444  3
    940    928    930    943     1  0.0000000  0.6508444  3
    940    928    930    944     1  0.0000000  0.6508444  3
    941    929    927    952     1  0.0000000  0.6508444  3
    941    929    932    945     1  0.0000000  0.6508444  3
    941    929    932    946     1  0.0000000  0.6508444  3
    942    929    927    952     1  0.0000000  0.6508444  3
    942    929    932    945     1  0.0000000  0.6508444  3
    942    929    932    946     1  0.0000000  0.6508444  3
    943    930    931   2491     1  180.0000771  0.0000000  2
    944    930    931   2491     1  180.0000771  0.0000000  2
    945    932    933   2565     1  180.0000771  0.0000000  2
    946    932    933   2565     1  180.0000771  0.0000000  2
    947    934    927    952     1  0.0000000  0.6508444  3
    947    934    935    949     1  0.0000000  0.6508444  3
    947    934    935    950     1  0.0000000  0.6508444  3
    948    934    927    952     1  0.0000000  0.6508444  3
    948    934    935    949     1  0.0000000  0.6508444  3
    948    934    935    950     1  0.0000000  0.6508444  3
    949    935    936    951     1  0.0000000  0.0000000  2
    950    935    936    951     1  0.0000000  0.0000000  2
    953    954    956    969     1  0.0000000  0.6508444  3
    953    954    956    970     1  0.0000000  0.6508444  3
    953    955    958    971     1  0.0000000  0.6508444  3
    953    955    958    972     1  0.0000000  0.6508444  3
    953    960    961    975     1  0.0000000  0.6508444  3
    953    960    961    976     1  0.0000000  0.6508444  3
    954    953    955    967     1  0.0000000  0.6508444  3
    954    953    955    968     1  0.0000000  0.6508444  3
    954    953    960    973     1  0.0000000  0.6508444  3
    954    953    960    974     1  0.0000000  0.6508444  3
    955    953    954    965     1  0.0000000  0.6508444  3
    955    953    954    966     1  0.0000000  0.6508444  3
    955    953    960    973     1  0.0000000  0.6508444  3
    955    953    960    974     1  0.0000000  0.6508444  3
    956    954    953    978     1  0.0000000  0.6508444  3
    956    957   2639   2640     1  180.0000771  10.4600000  2
    957    956    954    965     1  0.0000000  0.6508444  3
    957    956    954    966     1  0.0000000  0.6508444  3
    957   2639   2641   2642     1  0.0000000  0.0000000  2
    957   2639   2641   2644     1  0.0000000  0.0000000  2
    958    955    953    978     1  0.0000000  0.6508444  3
    958    959   2713   2714     1  180.0000771  10.4600000  2
    959    958    955    967     1  0.0000000  0.6508444  3
    959    958    955    968     1  0.0000000  0.6508444  3
    959   2713   2715   2716     1  0.0000000  0.0000000  2
    959   2713   2715   2718     1  0.0000000  0.0000000  2
    960    953    954    965     1  0.0000000  0.6508444  3
    960    953    954    966     1  0.0000000  0.6508444  3
    960    953    955    967     1  0.0000000  0.6508444  3
    960    953    955    968     1  0.0000000  0.6508444  3
    960    961    962    977     1  0.0000000  0.0000000  2
    961    960    953    978     1  0.0000000  0.6508444  3
    962    961    960    973     1  0.0000000  0.6508444  3
    962    961    960    974     1  0.0000000  0.6508444  3
    963    957    956    969     1  0.0000000  3.3472000  1
    963    957    956    969     1  0.0000000  0.0000000  2
    963    957    956    969     1  180.0000771  0.3347200  3
    963    957    956    970     1  0.0000000  3.3472000  1
    963    957    956    970     1  0.0000000  0.0000000  2
    963    957    956    970     1  180.0000771  0.3347200  3
    963    957   2639   2640     1  0.0000000  8.3680000  1
    963    957   2639   2640     1  180.0000771  10.4600000  2
    964    959    958    971     1  0.0000000  3.3472000  1
    964    959    958    971     1  0.0000000  0.0000000  2
    964    959    958    971     1  180.0000771  0.3347200  3
    964    959    958    972     1  0.0000000  3.3472000  1
    964    959    958    972     1  0.0000000  0.0000000  2
    964    959    958    972     1  180.0000771  0.3347200  3
    964    959   2713   2714     1  0.0000000  8.3680000  1
    964    959   2713   2714     1  180.0000771  10.4600000  2
    965    954    953    978     1  0.0000000  0.6508444  3
    965    954    956    969     1  0.0000000  0.6508444  3
    965    954    956    970     1  0.0000000  0.6508444  3
    966    954    953    978     1  0.0000000  0.6508444  3
    966    954    956    969     1  0.0000000  0.6508444  3
    966    954    956    970     1  0.0000000  0.6508444  3
    967    955    953    978     1  0.0000000  0.6508444  3
    967    955    958    971     1  0.0000000  0.6508444  3
    967    955    958    972     1  0.0000000  0.6508444  3
    968    955    953    978     1  0.0000000  0.6508444  3
    968    955    958    971     1  0.0000000  0.6508444  3
    968    955    958    972     1  0.0000000  0.6508444  3
    969    956    957   2639     1  180.0000771  0.0000000  2
    970    956    957   2639     1  180.0000771  0.0000000  2
    971    958    959   2713     1  180.0000771  0.0000000  2
    972    958    959   2713     1  180.0000771  0.0000000  2
    973    960    953    978     1  0.0000000  0.6508444  3
    973    960    961    975     1  0.0000000  0.6508444  3
    973    960    961    976     1  0.0000000  0.6508444  3
    974    960    953    978     1  0.0000000  0.6508444  3
    974    960    961    975     1  0.0000000  0.6508444  3
    974    960    961    976     1  0.0000000  0.6508444  3
    975    961    962    977     1  0.0000000  0.0000000  2
    976    961    962    977     1  0.0000000  0.0000000  2
    979    980    982    995     1  0.0000000  0.6508444  3
    979    980    982    996     1  0.0000000  0.6508444  3
    979    981    984    997     1  0.0000000  0.6508444  3
    979    981    984    998     1  0.0000000  0.6508444  3
    979    986    987   1001     1  0.0000000  0.6508444  3
    979    986    987   1002     1  0.0000000  0.6508444  3
    980    979    981    993     1  0.0000000  0.6508444  3
    980    979    981    994     1  0.0000000  0.6508444  3
    980    979    986    999     1  0.0000000  0.6508444  3
    980    979    986   1000     1  0.0000000  0.6508444  3
    981    979    980    991     1  0.0000000  0.6508444  3
    981    979    980    992     1  0.0000000  0.6508444  3
    981    979    986    999     1  0.0000000  0.6508444  3
    981    979    986   1000     1  0.0000000  0.6508444  3
    982    980    979   1004     1  0.0000000  0.6508444  3
    982    983   2787   2788     1  180.0000771  10.4600000  2
    983    982    980    991     1  0.0000000  0.6508444  3
    983    982    980    992     1  0.0000000  0.6508444  3
    983   2787   2789   2790     1  0.0000000  0.0000000  2
    983   2787   2789   2792     1  0.0000000  0.0000000  2
    984    981    979   1004     1  0.0000000  0.6508444  3
    984    985   2861   2862     1  180.0000771  10.4600000  2
    985    984    981    993     1  0.0000000  0.6508444  3
    985    984    981    994     1  0.0000000  0.6508444  3
    985   2861   2863   2864     1  0.0000000  0.0000000  2
    985   2861   2863   2866     1  0.0000000  0.0000000  2
    986    979    980    991     1  0.0000000  0.6508444  3
    986    979    980    992     1  0.0000000  0.6508444  3
    986    979    981    993     1  0.0000000  0.6508444  3
    986    979    981    994     1  0.0000000  0.6508444  3
    986    987    988   1003     1  0.0000000  0.0000000  2
    987    986    979   1004     1  0.0000000  0.6508444  3
    988    987    986    999     1  0.0000000  0.6508444  3
    988    987    986   1000     1  0.0000000  0.6508444  3
    989    983    982    995     1  0.0000000  3.3472000  1
    989    983    982    995     1  0.0000000  0.0000000  2
    989    983    982    995     1  180.0000771  0.3347200  3
    989    983    982    996     1  0.0000000  3.3472000  1
    989    983    982    996     1  0.0000000  0.0000000  2
    989    983    982    996     1  180.0000771  0.3347200  3
    989    983   2787   2788     1  0.0000000  8.3680000  1
    989    983   2787   2788     1  180.0000771  10.4600000  2
    990    985    984    997     1  0.0000000  3.3472000  1
    990    985    984    997     1  0.0000000  0.0000000  2
    990    985    984    997     1  180.0000771  0.3347200  3
    990    985    984    998     1  0.0000000  3.3472000  1
    990    985    984    998     1  0.0000000  0.0000000  2
    990    985    984    998     1  180.0000771  0.3347200  3
    990    985   2861   2862     1  0.0000000  8.3680000  1
    990    985   2861   2862     1  180.0000771  10.4600000  2
    991    980    979   1004     1  0.0000000  0.6508444  3
    991    980    982    995     1  0.0000000  0.6508444  3
    991    980    982    996     1  0.0000000  0.6508444  3
    992    980    979   1004     1  0.0000000  0.6508444  3
    992    980    982    995     1  0.0000000  0.6508444  3
    992    980    982    996     1  0.0000000  0.6508444  3
    993    981    979   1004     1  0.0000000  0.6508444  3
    993    981    984    997     1  0.0000000  0.6508444  3
    993    981    984    998     1  0.0000000  0.6508444  3
    994    981    979   1004     1  0.0000000  0.6508444  3
    994    981    984    997     1  0.0000000  0.6508444  3
    994    981    984    998     1  0.0000000  0.6508444  3
    995    982    983   2787     1  180.0000771  0.0000000  2
    996    982    983   2787     1  180.0000771  0.0000000  2
    997    984    985   2861     1  180.0000771  0.0000000  2
    998    984    985   2861     1  180.0000771  0.0000000  2
    999    986    979   1004     1  0.0000000  0.6508444  3
    999    986    987   1001     1  0.0000000  0.6508444  3
    999    986    987   1002     1  0.0000000  0.6508444  3
   1000    986    979   1004     1  0.0000000  0.6508444  3
   1000    986    987   1001     1  0.0000000  0.6508444  3
   1000    986    987   1002     1  0.0000000  0.6508444  3
   1001    987    988   1003     1  0.0000000  0.0000000  2
   1002    987    988   1003     1  0.0000000  0.0000000  2
   1005   1006   1008   1021     1  0.0000000  0.6508444  3
   1005   1006   1008   1022     1  0.0000000  0.6508444  3
   1005   1007   1010   1023     1  0.0000000  0.6508444  3
   1005   1007   1010   1024     1  0.0000000  0.6508444  3
   1005   1012   1013   1027     1  0.0000000  0.6508444  3
   1005   1012   1013   1028     1  0.0000000  0.6508444  3
   1006   1005   1007   1019     1  0.0000000  0.6508444  3
   1006   1005   1007   1020     1  0.0000000  0.6508444  3
   1006   1005   1012   1025     1  0.0000000  0.6508444  3
   1006   1005   1012   1026     1  0.0000000  0.6508444  3
   1007   1005   1006   1017     1  0.0000000  0.6508444  3
   1007   1005   1006   1018     1  0.0000000  0.6508444  3
   1007   1005   1012   1025     1  0.0000000  0.6508444  3
   1007   1005   1012   1026     1  0.0000000  0.6508444  3
   1008   1006   1005   1030     1  0.0000000  0.6508444  3
   1008   1009   2935   2936     1  180.0000771  10.4600000  2
   1009   1008   1006   1017     1  0.0000000  0.6508444  3
   1009   1008   1006   1018     1  0.0000000  0.6508444  3
   1009   2935   2937   2938     1  0.0000000  0.0000000  2
   1009   2935   2937   2940     1  0.0000000  0.0000000  2
   1010   1007   1005   1030     1  0.0000000  0.6508444  3
   1010   1011   3009   3010     1  180.0000771  10.4600000  2
   1011   1010   1007   1019     1  0.0000000  0.6508444  3
   1011   1010   1007   1020     1  0.0000000  0.6508444  3
   1011   3009   3011   3012     1  0.0000000  0.0000000  2
   1011   3009   3011   3014     1  0.0000000  0.0000000  2
   1012   1005   1006   1017     1  0.0000000  0.6508444  3
   1012   1005   1006   1018     1  0.0000000  0.6508444  3
   1012   1005   1007   1019     1  0.0000000  0.6508444  3
   1012   1005   1007   1020     1  0.0000000  0.6508444  3
   1012   1013   1014   1029     1  0.0000000  0.0000000  2
   1013   1012   1005   1030     1  0.0000000  0.6508444  3
   1014   1013   1012   1025     1  0.0000000  0.6508444  3
   1014   1013   1012   1026     1  0.0000000  0.6508444  3
   1015   1009   1008   1021     1  0.0000000  3.3472000  1
   1015   1009   1008   1021     1  0.0000000  0.0000000  2
   1015   1009   1008   1021     1  180.0000771  0.3347200  3
   1015   1009   1008   1022     1  0.0000000  3.3472000  1
   1015   1009   1008   1022     1  0.0000000  0.0000000  2
   1015   1009   1008   1022     1  180.0000771  0.3347200  3
   1015   1009   2935   2936     1  0.0000000  8.3680000  1
   1015   1009   2935   2936     1  180.0000771  10.4600000  2
   1016   1011   1010   1023     1  0.0000000  3.3472000  1
   1016   1011   1010   1023     1  0.0000000  0.0000000  2
   1016   1011   1010   1023     1  180.0000771  0.3347200  3
   1016   1011   1010   1024     1  0.0000000  3.3472000  1
   1016   1011   1010   1024     1  0.0000000  0.0000000  2
   1016   1011   1010   1024     1  180.0000771  0.3347200  3
   1016   1011   3009   3010     1  0.0000000  8.3680000  1
   1016   1011   3009   3010     1  180.0000771  10.4600000  2
   1017   1006   1005   1030     1  0.0000000  0.6508444  3
   1017   1006   1008   1021     1  0.0000000  0.6508444  3
   1017   1006   1008   1022     1  0.0000000  0.6508444  3
   1018   1006   1005   1030     1  0.0000000  0.6508444  3
   1018   1006   1008   1021     1  0.0000000  0.6508444  3
   1018   1006   1008   1022     1  0.0000000  0.6508444  3
   1019   1007   1005   1030     1  0.0000000  0.6508444  3
   1019   1007   1010   1023     1  0.0000000  0.6508444  3
   1019   1007   1010   1024     1  0.0000000  0.6508444  3
   1020   1007   1005   1030     1  0.0000000  0.6508444  3
   1020   1007   1010   1023     1  0.0000000  0.6508444  3
   1020   1007   1010   1024     1  0.0000000  0.6508444  3
   1021   1008   1009   2935     1  180.0000771  0.0000000  2
   1022   1008   1009   2935     1  180.0000771  0.0000000  2
   1023   1010   1011   3009     1  180.0000771  0.0000000  2
   1024   1010   1011   3009     1  180.0000771  0.0000000  2
   1025   1012   1005   1030     1  0.0000000  0.6508444  3
   1025   1012   1013   1027     1  0.0000000  0.6508444  3
   1025   1012   1013   1028     1  0.0000000  0.6508444  3
   1026   1012   1005   1030     1  0.0000000  0.6508444  3
   1026   1012   1013   1027     1  0.0000000  0.6508444  3
   1026   1012   1013   1028     1  0.0000000  0.6508444  3
   1027   1013   1014   1029     1  0.0000000  0.0000000  2
   1028   1013   1014   1029     1  0.0000000  0.0000000  2
   1031   1032   1034   1047     1  0.0000000  0.6508444  3
   1031   1032   1034   1048     1  0.0000000  0.6508444  3
   1031   1033   1036   1049     1  0.0000000  0.6508444  3
   1031   1033   1036   1050     1  0.0000000  0.6508444  3
   1031   1038   1039   1053     1  0.0000000  0.6508444  3
   1031   1038   1039   1054     1  0.0000000  0.6508444  3
   1032   1031   1033   1045     1  0.0000000  0.6508444  3
   1032   1031   1033   1046     1  0.0000000  0.6508444  3
   1032   1031   1038   1051     1  0.0000000  0.6508444  3
   1032   1031   1038   1052     1  0.0000000  0.6508444  3
   1033   1031   1032   1043     1  0.0000000  0.6508444  3
   1033   1031   1032   1044     1  0.0000000  0.6508444  3
   1033   1031   1038   1051     1  0.0000000  0.6508444  3
   1033   1031   1038   1052     1  0.0000000  0.6508444  3
   1034   1032   1031   1056     1  0.0000000  0.6508444  3
   1034   1035   3083   3084     1  180.0000771  10.4600000  2
   1035   1034   1032   1043     1  0.0000000  0.6508444  3
   1035   1034   1032   1044     1  0.0000000  0.6508444  3
   1035   3083   3085   3086     1  0.0000000  0.0000000  2
   1035   3083   3085   3088     1  0.0000000  0.0000000  2
   1036   1033   1031   1056     1  0.0000000  0.6508444  3
   1036   1037   3157   3158     1  180.0000771  10.4600000  2
   1037   1036   1033   1045     1  0.0000000  0.6508444  3
   1037   1036   1033   1046     1  0.0000000  0.6508444  3
   1037   3157   3159   3160     1  0.0000000  0.0000000  2
   1037   3157   3159   3162     1  0.0000000  0.0000000  2
   1038   1031   1032   1043     1  0.0000000  0.6508444  3
   1038   1031   1032   1044     1  0.0000000  0.6508444  3
   1038   1031   1033   1045     1  0.0000000  0.6508444  3
   1038   1031   1033   1046     1  0.0000000  0.6508444  3
   1038   1039   1040   1055     1  0.0000000  0.0000000  2
   1039   1038   1031   1056     1  0.0000000  0.6508444  3
   1040   1039   1038   1051     1  0.0000000  0.6508444  3
   1040   1039   1038   1052     1  0.0000000  0.6508444  3
   1041   1035   1034   1047     1  0.0000000  3.3472000  1
   1041   1035   1034   1047     1  0.0000000  0.0000000  2
   1041   1035   1034   1047     1  180.0000771  0.3347200  3
   1041   1035   1034   1048     1  0.0000000  3.3472000  1
   1041   1035   1034   1048     1  0.0000000  0.0000000  2
   1041   1035   1034   1048     1  180.0000771  0.3347200  3
   1041   1035   3083   3084     1  0.0000000  8.3680000  1
   1041   1035   3083   3084     1  180.0000771  10.4600000  2
   1042   1037   1036   1049     1  0.0000000  3.3472000  1
   1042   1037   1036   1049     1  0.0000000  0.0000000  2
   1042   1037   1036   1049     1  180.0000771  0.3347200  3
   1042   1037   1036   1050     1  0.0000000  3.3472000  1
   1042   1037   1036   1050     1  0.0000000  0.0000000  2
   1042   1037   1036   1050     1  180.0000771  0.3347200  3
   1042   1037   3157   3158     1  0.0000000  8.3680000  1
   1042   1037   3157   3158     1  180.0000771  10.4600000  2
   1043   1032   1031   1056     1  0.0000000  0.6508444  3
   1043   1032   1034   1047     1  0.0000000  0.6508444  3
   1043   1032   1034   1048     1  0.0000000  0.6508444  3
   1044   1032   1031   1056     1  0.0000000  0.6508444  3
   1044   1032   1034   1047     1  0.0000000  0.6508444  3
   1044   1032   1034   1048     1  0.0000000  0.6508444  3
   1045   1033   1031   1056     1  0.0000000  0.6508444  3
   1045   1033   1036   1049     1  0.0000000  0.6508444  3
   1045   1033   1036   1050     1  0.0000000  0.6508444  3
   1046   1033   1031   1056     1  0.0000000  0.6508444  3
   1046   1033   1036   1049     1  0.0000000  0.6508444  3
   1046   1033   1036   1050     1  0.0000000  0.6508444  3
   1047   1034   1035   3083     1  180.0000771  0.0000000  2
   1048   1034   1035   3083     1  180.0000771  0.0000000  2
   1049   1036   1037   3157     1  180.0000771  0.0000000  2
   1050   1036   1037   3157     1  180.0000771  0.0000000  2
   1051   1038   1031   1056     1  0.0000000  0.6508444  3
   1051   1038   1039   1053     1  0.0000000  0.6508444  3
   1051   1038   1039   1054     1  0.0000000  0.6508444  3
   1052   1038   1031   1056     1  0.0000000  0.6508444  3
   1052   1038   1039   1053     1  0.0000000  0.6508444  3
   1052   1038   1039   1054     1  0.0000000  0.6508444  3
   1053   1039   1040   1055     1  0.0000000  0.0000000  2
   1054   1039   1040   1055     1  0.0000000  0.0000000  2
   1057   1058   1060   1073     1  0.0000000  0.6508444  3
   1057   1058   1060   1074     1  0.0000000  0.6508444  3
   1057   1059   1062   1075     1  0.0000000  0.6508444  3
   1057   1059   1062   1076     1  0.0000000  0.6508444  3
   1057   1064   1065   1079     1  0.0000000  0.6508444  3
   1057   1064   1065   1080     1  0.0000000  0.6508444  3
   1058   1057   1059   1071     1  0.0000000  0.6508444  3
   1058   1057   1059   1072     1  0.0000000  0.6508444  3
   1058   1057   1064   1077     1  0.0000000  0.6508444  3
   1058   1057   1064   1078     1  0.0000000  0.6508444  3
   1059   1057   1058   1069     1  0.0000000  0.6508444  3
   1059   1057   1058   1070     1  0.0000000  0.6508444  3
   1059   1057   1064   1077     1  0.0000000  0.6508444  3
   1059   1057   1064   1078     1  0.0000000  0.6508444  3
   1060   1058   1057   1082     1  0.0000000  0.6508444  3
   1060   1061   3231   3232     1  180.0000771  10.4600000  2
   1061   1060   1058   1069     1  0.0000000  0.6508444  3
   1061   1060   1058   1070     1  0.0000000  0.6508444  3
   1061   3231   3233   3234     1  0.0000000  0.0000000  2
   1061   3231   3233   3236     1  0.0000000  0.0000000  2
   1062   1059   1057   1082     1  0.0000000  0.6508444  3
   1062   1063   3305   3306     1  180.0000771  10.4600000  2
   1063   1062   1059   1071     1  0.0000000  0.6508444  3
   1063   1062   1059   1072     1  0.0000000  0.6508444  3
   1063   3305   3307   3308     1  0.0000000  0.0000000  2
   1063   3305   3307   3310     1  0.0000000  0.0000000  2
   1064   1057   1058   1069     1  0.0000000  0.6508444  3
   1064   1057   1058   1070     1  0.0000000  0.6508444  3
   1064   1057   1059   1071     1  0.0000000  0.6508444  3
   1064   1057   1059   1072     1  0.0000000  0.6508444  3
   1064   1065   1066   1081     1  0.0000000  0.0000000  2
   1065   1064   1057   1082     1  0.0000000  0.6508444  3
   1066   1065   1064   1077     1  0.0000000  0.6508444  3
   1066   1065   1064   1078     1  0.0000000  0.6508444  3
   1067   1061   1060   1073     1  0.0000000  3.3472000  1
   1067   1061   1060   1073     1  0.0000000  0.0000000  2
   1067   1061   1060   1073     1  180.0000771  0.3347200  3
   1067   1061   1060   1074     1  0.0000000  3.3472000  1
   1067   1061   1060   1074     1  0.0000000  0.0000000  2
   1067   1061   1060   1074     1  180.0000771  0.3347200  3
   1067   1061   3231   3232     1  0.0000000  8.3680000  1
   1067   1061   3231   3232     1  180.0000771  10.4600000  2
   1068   1063   1062   1075     1  0.0000000  3.3472000  1
   1068   1063   1062   1075     1  0.0000000  0.0000000  2
   1068   1063   1062   1075     1  180.0000771  0.3347200  3
   1068   1063   1062   1076     1  0.0000000  3.3472000  1
   1068   1063   1062   1076     1  0.0000000  0.0000000  2
   1068   1063   1062   1076     1  180.0000771  0.3347200  3
   1068   1063   3305   3306     1  0.0000000  8.3680000  1
   1068   1063   3305   3306     1  180.0000771  10.4600000  2
   1069   1058   1057   1082     1  0.0000000  0.6508444  3
   1069   1058   1060   1073     1  0.0000000  0.6508444  3
   1069   1058   1060   1074     1  0.0000000  0.6508444  3
   1070   1058   1057   1082     1  0.0000000  0.6508444  3
   1070   1058   1060   1073     1  0.0000000  0.6508444  3
   1070   1058   1060   1074     1  0.0000000  0.6508444  3
   1071   1059   1057   1082     1  0.0000000  0.6508444  3
   1071   1059   1062   1075     1  0.0000000  0.6508444  3
   1071   1059   1062   1076     1  0.0000000  0.6508444  3
   1072   1059   1057   1082     1  0.0000000  0.6508444  3
   1072   1059   1062   1075     1  0.0000000  0.6508444  3
   1072   1059   1062   1076     1  0.0000000  0.6508444  3
   1073   1060   1061   3231     1  180.0000771  0.0000000  2
   1074   1060   1061   3231     1  180.0000771  0.0000000  2
   1075   1062   1063   3305     1  180.0000771  0.0000000  2
   1076   1062   1063   3305     1  180.0000771  0.0000000  2
   1077   1064   1057   1082     1  0.0000000  0.6508444  3
   1077   1064   1065   1079     1  0.0000000  0.6508444  3
   1077   1064   1065   1080     1  0.0000000  0.6508444  3
   1078   1064   1057   1082     1  0.0000000  0.6508444  3
   1078   1064   1065   1079     1  0.0000000  0.6508444  3
   1078   1064   1065   1080     1  0.0000000  0.6508444  3
   1079   1065   1066   1081     1  0.0000000  0.0000000  2
   1080   1065   1066   1081     1  0.0000000  0.0000000  2
   1083   1084   1086   1099     1  0.0000000  0.6508444  3
   1083   1084   1086   1100     1  0.0000000  0.6508444  3
   1083   1085   1088   1101     1  0.0000000  0.6508444  3
   1083   1085   1088   1102     1  0.0000000  0.6508444  3
   1083   1090   1091   1105     1  0.0000000  0.6508444  3
   1083   1090   1091   1106     1  0.0000000  0.6508444  3
   1084   1083   1085   1097     1  0.0000000  0.6508444  3
   1084   1083   1085   1098     1  0.0000000  0.6508444  3
   1084   1083   1090   1103     1  0.0000000  0.6508444  3
   1084   1083   1090   1104     1  0.0000000  0.6508444  3
   1085   1083   1084   1095     1  0.0000000  0.6508444  3
   1085   1083   1084   1096     1  0.0000000  0.6508444  3
   1085   1083   1090   1103     1  0.0000000  0.6508444  3
   1085   1083   1090   1104     1  0.0000000  0.6508444  3
   1086   1084   1083   1108     1  0.0000000  0.6508444  3
   1086   1087   3379   3380     1  180.0000771  10.4600000  2
   1087   1086   1084   1095     1  0.0000000  0.6508444  3
   1087   1086   1084   1096     1  0.0000000  0.6508444  3
   1087   3379   3381   3382     1  0.0000000  0.0000000  2
   1087   3379   3381   3384     1  0.0000000  0.0000000  2
   1088   1085   1083   1108     1  0.0000000  0.6508444  3
   1088   1089   3453   3454     1  180.0000771  10.4600000  2
   1089   1088   1085   1097     1  0.0000000  0.6508444  3
   1089   1088   1085   1098     1  0.0000000  0.6508444  3
   1089   3453   3455   3456     1  0.0000000  0.0000000  2
   1089   3453   3455   3458     1  0.0000000  0.0000000  2
   1090   1083   1084   1095     1  0.0000000  0.6508444  3
   1090   1083   1084   1096     1  0.0000000  0.6508444  3
   1090   1083   1085   1097     1  0.0000000  0.6508444  3
   1090   1083   1085   1098     1  0.0000000  0.6508444  3
   1090   1091   1092   1107     1  0.0000000  0.0000000  2
   1091   1090   1083   1108     1  0.0000000  0.6508444  3
   1092   1091   1090   1103     1  0.0000000  0.6508444  3
   1092   1091   1090   1104     1  0.0000000  0.6508444  3
   1093   1087   1086   1099     1  0.0000000  3.3472000  1
   1093   1087   1086   1099     1  0.0000000  0.0000000  2
   1093   1087   1086   1099     1  180.0000771  0.3347200  3
   1093   1087   1086   1100     1  0.0000000  3.3472000  1
   1093   1087   1086   1100     1  0.0000000  0.0000000  2
   1093   1087   1086   1100     1  180.0000771  0.3347200  3
   1093   1087   3379   3380     1  0.0000000  8.3680000  1
   1093   1087   3379   3380     1  180.0000771  10.4600000  2
   1094   1089   1088   1101     1  0.0000000  3.3472000  1
   1094   1089   1088   1101     1  0.0000000  0.0000000  2
   1094   1089   1088   1101     1  180.0000771  0.3347200  3
   1094   1089   1088   1102     1  0.0000000  3.3472000  1
   1094   1089   1088   1102     1  0.0000000  0.0000000  2
   1094   1089   1088   1102     1  180.0000771  0.3347200  3
   1094   1089   3453   3454     1  0.0000000  8.3680000  1
   1094   1089   3453   3454     1  180.0000771  10.4600000  2
   1095   1084   1083   1108     1  0.0000000  0.6508444  3
   1095   1084   1086   1099     1  0.0000000  0.6508444  3
   1095   1084   1086   1100     1  0.0000000  0.6508444  3
   1096   1084   1083   1108     1  0.0000000  0.6508444  3
   1096   1084   1086   1099     1  0.0000000  0.6508444  3
   1096   1084   1086   1100     1  0.0000000  0.6508444  3
   1097   1085   1083   1108     1  0.0000000  0.6508444  3
   1097   1085   1088   1101     1  0.0000000  0.6508444  3
   1097   1085   1088   1102     1  0.0000000  0.6508444  3
   1098   1085   1083   1108     1  0.0000000  0.6508444  3
   1098   1085   1088   1101     1  0.0000000  0.6508444  3
   1098   1085   1088   1102     1  0.0000000  0.6508444  3
   1099   1086   1087   3379     1  180.0000771  0.0000000  2
   1100   1086   1087   3379     1  180.0000771  0.0000000  2
   1101   1088   1089   3453     1  180.0000771  0.0000000  2
   1102   1088   1089   3453     1  180.0000771  0.0000000  2
   1103   1090   1083   1108     1  0.0000000  0.6508444  3
   1103   1090   1091   1105     1  0.0000000  0.6508444  3
   1103   1090   1091   1106     1  0.0000000  0.6508444  3
   1104   1090   1083   1108     1  0.0000000  0.6508444  3
   1104   1090   1091   1105     1  0.0000000  0.6508444  3
   1104   1090   1091   1106     1  0.0000000  0.6508444  3
   1105   1091   1092   1107     1  0.0000000  0.0000000  2
   1106   1091   1092   1107     1  0.0000000  0.0000000  2
   1109   1110   1112   1125     1  0.0000000  0.6508444  3
   1109   1110   1112   1126     1  0.0000000  0.6508444  3
   1109   1111   1114   1127     1  0.0000000  0.6508444  3
   1109   1111   1114   1128     1  0.0000000  0.6508444  3
   1109   1116   1117   1131     1  0.0000000  0.6508444  3
   1109   1116   1117   1132     1  0.0000000  0.6508444  3
   1110   1109   1111   1123     1  0.0000000  0.6508444  3
   1110   1109   1111   1124     1  0.0000000  0.6508444  3
   1110   1109   1116   1129     1  0.0000000  0.6508444  3
   1110   1109   1116   1130     1  0.0000000  0.6508444  3
   1111   1109   1110   1121     1  0.0000000  0.6508444  3
   1111   1109   1110   1122     1  0.0000000  0.6508444  3
   1111   1109   1116   1129     1  0.0000000  0.6508444  3
   1111   1109   1116   1130     1  0.0000000  0.6508444  3
   1112   1110   1109   1134     1  0.0000000  0.6508444  3
   1112   1113   3527   3528     1  180.0000771  10.4600000  2
   1113   1112   1110   1121     1  0.0000000  0.6508444  3
   1113   1112   1110   1122     1  0.0000000  0.6508444  3
   1113   3527   3529   3530     1  0.0000000  0.0000000  2
   1113   3527   3529   3532     1  0.0000000  0.0000000  2
   1114   1111   1109   1134     1  0.0000000  0.6508444  3
   1114   1115   3601   3602     1  180.0000771  10.4600000  2
   1115   1114   1111   1123     1  0.0000000  0.6508444  3
   1115   1114   1111   1124     1  0.0000000  0.6508444  3
   1115   3601   3603   3604     1  0.0000000  0.0000000  2
   1115   3601   3603   3606     1  0.0000000  0.0000000  2
   1116   1109   1110   1121     1  0.0000000  0.6508444  3
   1116   1109   1110   1122     1  0.0000000  0.6508444  3
   1116   1109   1111   1123     1  0.0000000  0.6508444  3
   1116   1109   1111   1124     1  0.0000000  0.6508444  3
   1116   1117   1118   1133     1  0.0000000  0.0000000  2
   1117   1116   1109   1134     1  0.0000000  0.6508444  3
   1118   1117   1116   1129     1  0.0000000  0.6508444  3
   1118   1117   1116   1130     1  0.0000000  0.6508444  3
   1119   1113   1112   1125     1  0.0000000  3.3472000  1
   1119   1113   1112   1125     1  0.0000000  0.0000000  2
   1119   1113   1112   1125     1  180.0000771  0.3347200  3
   1119   1113   1112   1126     1  0.0000000  3.3472000  1
   1119   1113   1112   1126     1  0.0000000  0.0000000  2
   1119   1113   1112   1126     1  180.0000771  0.3347200  3
   1119   1113   3527   3528     1  0.0000000  8.3680000  1
   1119   1113   3527   3528     1  180.0000771  10.4600000  2
   1120   1115   1114   1127     1  0.0000000  3.3472000  1
   1120   1115   1114   1127     1  0.0000000  0.0000000  2
   1120   1115   1114   1127     1  180.0000771  0.3347200  3
   1120   1115   1114   1128     1  0.0000000  3.3472000  1
   1120   1115   1114   1128     1  0.0000000  0.0000000  2
   1120   1115   1114   1128     1  180.0000771  0.3347200  3
   1120   1115   3601   3602     1  0.0000000  8.3680000  1
   1120   1115   3601   3602     1  180.0000771  10.4600000  2
   1121   1110   1109   1134     1  0.0000000  0.6508444  3
   1121   1110   1112   1125     1  0.0000000  0.6508444  3
   1121   1110   1112   1126     1  0.0000000  0.6508444  3
   1122   1110   1109   1134     1  0.0000000  0.6508444  3
   1122   1110   1112   1125     1  0.0000000  0.6508444  3
   1122   1110   1112   1126     1  0.0000000  0.6508444  3
   1123   1111   1109   1134     1  0.0000000  0.6508444  3
   1123   1111   1114   1127     1  0.0000000  0.6508444  3
   1123   1111   1114   1128     1  0.0000000  0.6508444  3
   1124   1111   1109   1134     1  0.0000000  0.6508444  3
   1124   1111   1114   1127     1  0.0000000  0.6508444  3
   1124   1111   1114   1128     1  0.0000000  0.6508444  3
   1125   1112   1113   3527     1  180.0000771  0.0000000  2
   1126   1112   1113   3527     1  180.0000771  0.0000000  2
   1127   1114   1115   3601     1  180.0000771  0.0000000  2
   1128   1114   1115   3601     1  180.0000771  0.0000000  2
   1129   1116   1109   1134     1  0.0000000  0.6508444  3
   1129   1116   1117   1131     1  0.0000000  0.6508444  3
   1129   1116   1117   1132     1  0.0000000  0.6508444  3
   1130   1116   1109   1134     1  0.0000000  0.6508444  3
   1130   1116   1117   1131     1  0.0000000  0.6508444  3
   1130   1116   1117   1132     1  0.0000000  0.6508444  3
   1131   1117   1118   1133     1  0.0000000  0.0000000  2
   1132   1117   1118   1133     1  0.0000000  0.0000000  2
   1135   1136   1138   1151     1  0.0000000  0.6508444  3
   1135   1136   1138   1152     1  0.0000000  0.6508444  3
   1135   1137   1140   1153     1  0.0000000  0.6508444  3
   1135   1137   1140   1154     1  0.0000000  0.6508444  3
   1135   1142   1143   1157     1  0.0000000  0.6508444  3
   1135   1142   1143   1158     1  0.0000000  0.6508444  3
   1136   1135   1137   1149     1  0.0000000  0.6508444  3
   1136   1135   1137   1150     1  0.0000000  0.6508444  3
   1136   1135   1142   1155     1  0.0000000  0.6508444  3
   1136   1135   1142   1156     1  0.0000000  0.6508444  3
   1137   1135   1136   1147     1  0.0000000  0.6508444  3
   1137   1135   1136   1148     1  0.0000000  0.6508444  3
   1137   1135   1142   1155     1  0.0000000  0.6508444  3
   1137   1135   1142   1156     1  0.0000000  0.6508444  3
   1138   1136   1135   1160     1  0.0000000  0.6508444  3
   1138   1139   3675   3676     1  180.0000771  10.4600000  2
   1139   1138   1136   1147     1  0.0000000  0.6508444  3
   1139   1138   1136   1148     1  0.0000000  0.6508444  3
   1139   3675   3677   3678     1  0.0000000  0.0000000  2
   1139   3675   3677   3680     1  0.0000000  0.0000000  2
   1140   1137   1135   1160     1  0.0000000  0.6508444  3
   1140   1141   3749   3750     1  180.0000771  10.4600000  2
   1141   1140   1137   1149     1  0.0000000  0.6508444  3
   1141   1140   1137   1150     1  0.0000000  0.6508444  3
   1141   3749   3751   3752     1  0.0000000  0.0000000  2
   1141   3749   3751   3754     1  0.0000000  0.0000000  2
   1142   1135   1136   1147     1  0.0000000  0.6508444  3
   1142   1135   1136   1148     1  0.0000000  0.6508444  3
   1142   1135   1137   1149     1  0.0000000  0.6508444  3
   1142   1135   1137   1150     1  0.0000000  0.6508444  3
   1142   1143   1144   1159     1  0.0000000  0.0000000  2
   1143   1142   1135   1160     1  0.0000000  0.6508444  3
   1144   1143   1142   1155     1  0.0000000  0.6508444  3
   1144   1143   1142   1156     1  0.0000000  0.6508444  3
   1145   1139   1138   1151     1  0.0000000  3.3472000  1
   1145   1139   1138   1151     1  0.0000000  0.0000000  2
   1145   1139   1138   1151     1  180.0000771  0.3347200  3
   1145   1139   1138   1152     1  0.0000000  3.3472000  1
   1145   1139   1138   1152     1  0.0000000  0.0000000  2
   1145   1139   1138   1152     1  180.0000771  0.3347200  3
   1145   1139   3675   3676     1  0.0000000  8.3680000  1
   1145   1139   3675   3676     1  180.0000771  10.4600000  2
   1146   1141   1140   1153     1  0.0000000  3.3472000  1
   1146   1141   1140   1153     1  0.0000000  0.0000000  2
   1146   1141   1140   1153     1  180.0000771  0.3347200  3
   1146   1141   1140   1154     1  0.0000000  3.3472000  1
   1146   1141   1140   1154     1  0.0000000  0.0000000  2
   1146   1141   1140   1154     1  180.0000771  0.3347200  3
   1146   1141   3749   3750     1  0.0000000  8.3680000  1
   1146   1141   3749   3750     1  180.0000771  10.4600000  2
   1147   1136   1135   1160     1  0.0000000  0.6508444  3
   1147   1136   1138   1151     1  0.0000000  0.6508444  3
   1147   1136   1138   1152     1  0.0000000  0.6508444  3
   1148   1136   1135   1160     1  0.0000000  0.6508444  3
   1148   1136   1138   1151     1  0.0000000  0.6508444  3
   1148   1136   1138   1152     1  0.0000000  0.6508444  3
   1149   1137   1135   1160     1  0.0000000  0.6508444  3
   1149   1137   1140   1153     1  0.0000000  0.6508444  3
   1149   1137   1140   1154     1  0.0000000  0.6508444  3
   1150   1137   1135   1160     1  0.0000000  0.6508444  3
   1150   1137   1140   1153     1  0.0000000  0.6508444  3
   1150   1137   1140   1154     1  0.0000000  0.6508444  3
   1151   1138   1139   3675     1  180.0000771  0.0000000  2
   1152   1138   1139   3675     1  180.0000771  0.0000000  2
   1153   1140   1141   3749     1  180.0000771  0.0000000  2
   1154   1140   1141   3749     1  180.0000771  0.0000000  2
   1155   1142   1135   1160     1  0.0000000  0.6508444  3
   1155   1142   1143   1157     1  0.0000000  0.6508444  3
   1155   1142   1143   1158     1  0.0000000  0.6508444  3
   1156   1142   1135   1160     1  0.0000000  0.6508444  3
   1156   1142   1143   1157     1  0.0000000  0.6508444  3
   1156   1142   1143   1158     1  0.0000000  0.6508444  3
   1157   1143   1144   1159     1  0.0000000  0.0000000  2
   1158   1143   1144   1159     1  0.0000000  0.0000000  2
   1161   1162   1164   1177     1  0.0000000  0.6508444  3
   1161   1162   1164   1178     1  0.0000000  0.6508444  3
   1161   1163   1166   1179     1  0.0000000  0.6508444  3
   1161   1163   1166   1180     1  0.0000000  0.6508444  3
   1161   1168   1169   1183     1  0.0000000  0.6508444  3
   1161   1168   1169   1184     1  0.0000000  0.6508444  3
   1162   1161   1163   1175     1  0.0000000  0.6508444  3
   1162   1161   1163   1176     1  0.0000000  0.6508444  3
   1162   1161   1168   1181     1  0.0000000  0.6508444  3
   1162   1161   1168   1182     1  0.0000000  0.6508444  3
   1163   1161   1162   1173     1  0.0000000  0.6508444  3
   1163   1161   1162   1174     1  0.0000000  0.6508444  3
   1163   1161   1168   1181     1  0.0000000  0.6508444  3
   1163   1161   1168   1182     1  0.0000000  0.6508444  3
   1164   1162   1161   1186     1  0.0000000  0.6508444  3
   1164   1165   3823   3824     1  180.0000771  10.4600000  2
   1165   1164   1162   1173     1  0.0000000  0.6508444  3
   1165   1164   1162   1174     1  0.0000000  0.6508444  3
   1165   3823   3825   3826     1  0.0000000  0.0000000  2
   1165   3823   3825   3828     1  0.0000000  0.0000000  2
   1166   1163   1161   1186     1  0.0000000  0.6508444  3
   1166   1167   3897   3898     1  180.0000771  10.4600000  2
   1167   1166   1163   1175     1  0.0000000  0.6508444  3
   1167   1166   1163   1176     1  0.0000000  0.6508444  3
   1167   3897   3899   3900     1  0.0000000  0.0000000  2
   1167   3897   3899   3902     1  0.0000000  0.0000000  2
   1168   1161   1162   1173     1  0.0000000  0.6508444  3
   1168   1161   1162   1174     1  0.0000000  0.6508444  3
   1168   1161   1163   1175     1  0.0000000  0.6508444  3
   1168   1161   1163   1176     1  0.0000000  0.6508444  3
   1168   1169   1170   1185     1  0.0000000  0.0000000  2
   1169   1168   1161   1186     1  0.0000000  0.6508444  3
   1170   1169   1168   1181     1  0.0000000  0.6508444  3
   1170   1169   1168   1182     1  0.0000000  0.6508444  3
   1171   1165   1164   1177     1  0.0000000  3.3472000  1
   1171   1165   1164   1177     1  0.0000000  0.0000000  2
   1171   1165   1164   1177     1  180.0000771  0.3347200  3
   1171   1165   1164   1178     1  0.0000000  3.3472000  1
   1171   1165   1164   1178     1  0.0000000  0.0000000  2
   1171   1165   1164   1178     1  180.0000771  0.3347200  3
   1171   1165   3823   3824     1  0.0000000  8.3680000  1
   1171   1165   3823   3824     1  180.0000771  10.4600000  2
   1172   1167   1166   1179     1  0.0000000  3.3472000  1
   1172   1167   1166   1179     1  0.0000000  0.0000000  2
   1172   1167   1166   1179     1  180.0000771  0.3347200  3
   1172   1167   1166   1180     1  0.0000000  3.3472000  1
   1172   1167   1166   1180     1  0.0000000  0.0000000  2
   1172   1167   1166   1180     1  180.0000771  0.3347200  3
   1172   1167   3897   3898     1  0.0000000  8.3680000  1
   1172   1167   3897   3898     1  180.0000771  10.4600000  2
   1173   1162   1161   1186     1  0.0000000  0.6508444  3
   1173   1162   1164   1177     1  0.0000000  0.6508444  3
   1173   1162   1164   1178     1  0.0000000  0.6508444  3
   1174   1162   1161   1186     1  0.0000000  0.6508444  3
   1174   1162   1164   1177     1  0.0000000  0.6508444  3
   1174   1162   1164   1178     1  0.0000000  0.6508444  3
   1175   1163   1161   1186     1  0.0000000  0.6508444  3
   1175   1163   1166   1179     1  0.0000000  0.6508444  3
   1175   1163   1166   1180     1  0.0000000  0.6508444  3
   1176   1163   1161   1186     1  0.0000000  0.6508444  3
   1176   1163   1166   1179     1  0.0000000  0.6508444  3
   1176   1163   1166   1180     1  0.0000000  0.6508444  3
   1177   1164   1165   3823     1  180.0000771  0.0000000  2
   1178   1164   1165   3823     1  180.0000771  0.0000000  2
   1179   1166   1167   3897     1  180.0000771  0.0000000  2
   1180   1166   1167   3897     1  180.0000771  0.0000000  2
   1181   1168   1161   1186     1  0.0000000  0.6508444  3
   1181   1168   1169   1183     1  0.0000000  0.6508444  3
   1181   1168   1169   1184     1  0.0000000  0.6508444  3
   1182   1168   1161   1186     1  0.0000000  0.6508444  3
   1182   1168   1169   1183     1  0.0000000  0.6508444  3
   1182   1168   1169   1184     1  0.0000000  0.6508444  3
   1183   1169   1170   1185     1  0.0000000  0.0000000  2
   1184   1169   1170   1185     1  0.0000000  0.0000000  2
   1187   1188   1190   1203     1  0.0000000  0.6508444  3
   1187   1188   1190   1204     1  0.0000000  0.6508444  3
   1187   1189   1192   1205     1  0.0000000  0.6508444  3
   1187   1189   1192   1206     1  0.0000000  0.6508444  3
   1187   1194   1195   1209     1  0.0000000  0.6508444  3
   1187   1194   1195   1210     1  0.0000000  0.6508444  3
   1188   1187   1189   1201     1  0.0000000  0.6508444  3
   1188   1187   1189   1202     1  0.0000000  0.6508444  3
   1188   1187   1194   1207     1  0.0000000  0.6508444  3
   1188   1187   1194   1208     1  0.0000000  0.6508444  3
   1189   1187   1188   1199     1  0.0000000  0.6508444  3
   1189   1187   1188   1200     1  0.0000000  0.6508444  3
   1189   1187   1194   1207     1  0.0000000  0.6508444  3
   1189   1187   1194   1208     1  0.0000000  0.6508444  3
   1190   1188   1187   1212     1  0.0000000  0.6508444  3
   1190   1191   3971   3972     1  180.0000771  10.4600000  2
   1191   1190   1188   1199     1  0.0000000  0.6508444  3
   1191   1190   1188   1200     1  0.0000000  0.6508444  3
   1191   3971   3973   3974     1  0.0000000  0.0000000  2
   1191   3971   3973   3976     1  0.0000000  0.0000000  2
   1192   1189   1187   1212     1  0.0000000  0.6508444  3
   1192   1193   4045   4046     1  180.0000771  10.4600000  2
   1193   1192   1189   1201     1  0.0000000  0.6508444  3
   1193   1192   1189   1202     1  0.0000000  0.6508444  3
   1193   4045   4047   4048     1  0.0000000  0.0000000  2
   1193   4045   4047   4050     1  0.0000000  0.0000000  2
   1194   1187   1188   1199     1  0.0000000  0.6508444  3
   1194   1187   1188   1200     1  0.0000000  0.6508444  3
   1194   1187   1189   1201     1  0.0000000  0.6508444  3
   1194   1187   1189   1202     1  0.0000000  0.6508444  3
   1194   1195   1196   1211     1  0.0000000  0.0000000  2
   1195   1194   1187   1212     1  0.0000000  0.6508444  3
   1196   1195   1194   1207     1  0.0000000  0.6508444  3
   1196   1195   1194   1208     1  0.0000000  0.6508444  3
   1197   1191   1190   1203     1  0.0000000  3.3472000  1
   1197   1191   1190   1203     1  0.0000000  0.0000000  2
   1197   1191   1190   1203     1  180.0000771  0.3347200  3
   1197   1191   1190   1204     1  0.0000000  3.3472000  1
   1197   1191   1190   1204     1  0.0000000  0.0000000  2
   1197   1191   1190   1204     1  180.0000771  0.3347200  3
   1197   1191   3971   3972     1  0.0000000  8.3680000  1
   1197   1191   3971   3972     1  180.0000771  10.4600000  2
   1198   1193   1192   1205     1  0.0000000  3.3472000  1
   1198   1193   1192   1205     1  0.0000000  0.0000000  2
   1198   1193   1192   1205     1  180.0000771  0.3347200  3
   1198   1193   1192   1206     1  0.0000000  3.3472000  1
   1198   1193   1192   1206     1  0.0000000  0.0000000  2
   1198   1193   1192   1206     1  180.0000771  0.3347200  3
   1198   1193   4045   4046     1  0.0000000  8.3680000  1
   1198   1193   4045   4046     1  180.0000771  10.4600000  2
   1199   1188   1187   1212     1  0.0000000  0.6508444  3
   1199   1188   1190   1203     1  0.0000000  0.6508444  3
   1199   1188   1190   1204     1  0.0000000  0.6508444  3
   1200   1188   1187   1212     1  0.0000000  0.6508444  3
   1200   1188   1190   1203     1  0.0000000  0.6508444  3
   1200   1188   1190   1204     1  0.0000000  0.6508444  3
   1201   1189   1187   1212     1  0.0000000  0.6508444  3
   1201   1189   1192   1205     1  0.0000000  0.6508444  3
   1201   1189   1192   1206     1  0.0000000  0.6508444  3
   1202   1189   1187   1212     1  0.0000000  0.6508444  3
   1202   1189   1192   1205     1  0.0000000  0.6508444  3
   1202   1189   1192   1206     1  0.0000000  0.6508444  3
   1203   1190   1191   3971     1  180.0000771  0.0000000  2
   1204   1190   1191   3971     1  180.0000771  0.0000000  2
   1205   1192   1193   4045     1  180.0000771  0.0000000  2
   1206   1192   1193   4045     1  180.0000771  0.0000000  2
   1207   1194   1187   1212     1  0.0000000  0.6508444  3
   1207   1194   1195   1209     1  0.0000000  0.6508444  3
   1207   1194   1195   1210     1  0.0000000  0.6508444  3
   1208   1194   1187   1212     1  0.0000000  0.6508444  3
   1208   1194   1195   1209     1  0.0000000  0.6508444  3
   1208   1194   1195   1210     1  0.0000000  0.6508444  3
   1209   1195   1196   1211     1  0.0000000  0.0000000  2
   1210   1195   1196   1211     1  0.0000000  0.0000000  2
   1213   1214   1216   1229     1  0.0000000  0.6508444  3
   1213   1214   1216   1230     1  0.0000000  0.6508444  3
   1213   1215   1218   1231     1  0.0000000  0.6508444  3
   1213   1215   1218   1232     1  0.0000000  0.6508444  3
   1213   1220   1221   1235     1  0.0000000  0.6508444  3
   1213   1220   1221   1236     1  0.0000000  0.6508444  3
   1214   1213   1215   1227     1  0.0000000  0.6508444  3
   1214   1213   1215   1228     1  0.0000000  0.6508444  3
   1214   1213   1220   1233     1  0.0000000  0.6508444  3
   1214   1213   1220   1234     1  0.0000000  0.6508444  3
   1215   1213   1214   1225     1  0.0000000  0.6508444  3
   1215   1213   1214   1226     1  0.0000000  0.6508444  3
   1215   1213   1220   1233     1  0.0000000  0.6508444  3
   1215   1213   1220   1234     1  0.0000000  0.6508444  3
   1216   1214   1213   1238     1  0.0000000  0.6508444  3
   1216   1217   4119   4120     1  180.0000771  10.4600000  2
   1217   1216   1214   1225     1  0.0000000  0.6508444  3
   1217   1216   1214   1226     1  0.0000000  0.6508444  3
   1217   4119   4121   4122     1  0.0000000  0.0000000  2
   1217   4119   4121   4124     1  0.0000000  0.0000000  2
   1218   1215   1213   1238     1  0.0000000  0.6508444  3
   1218   1219   4193   4194     1  180.0000771  10.4600000  2
   1219   1218   1215   1227     1  0.0000000  0.6508444  3
   1219   1218   1215   1228     1  0.0000000  0.6508444  3
   1219   4193   4195   4196     1  0.0000000  0.0000000  2
   1219   4193   4195   4198     1  0.0000000  0.0000000  2
   1220   1213   1214   1225     1  0.0000000  0.6508444  3
   1220   1213   1214   1226     1  0.0000000  0.6508444  3
   1220   1213   1215   1227     1  0.0000000  0.6508444  3
   1220   1213   1215   1228     1  0.0000000  0.6508444  3
   1220   1221   1222   1237     1  0.0000000  0.0000000  2
   1221   1220   1213   1238     1  0.0000000  0.6508444  3
   1222   1221   1220   1233     1  0.0000000  0.6508444  3
   1222   1221   1220   1234     1  0.0000000  0.6508444  3
   1223   1217   1216   1229     1  0.0000000  3.3472000  1
   1223   1217   1216   1229     1  0.0000000  0.0000000  2
   1223   1217   1216   1229     1  180.0000771  0.3347200  3
   1223   1217   1216   1230     1  0.0000000  3.3472000  1
   1223   1217   1216   1230     1  0.0000000  0.0000000  2
   1223   1217   1216   1230     1  180.0000771  0.3347200  3
   1223   1217   4119   4120     1  0.0000000  8.3680000  1
   1223   1217   4119   4120     1  180.0000771  10.4600000  2
   1224   1219   1218   1231     1  0.0000000  3.3472000  1
   1224   1219   1218   1231     1  0.0000000  0.0000000  2
   1224   1219   1218   1231     1  180.0000771  0.3347200  3
   1224   1219   1218   1232     1  0.0000000  3.3472000  1
   1224   1219   1218   1232     1  0.0000000  0.0000000  2
   1224   1219   1218   1232     1  180.0000771  0.3347200  3
   1224   1219   4193   4194     1  0.0000000  8.3680000  1
   1224   1219   4193   4194     1  180.0000771  10.4600000  2
   1225   1214   1213   1238     1  0.0000000  0.6508444  3
   1225   1214   1216   1229     1  0.0000000  0.6508444  3
   1225   1214   1216   1230     1  0.0000000  0.6508444  3
   1226   1214   1213   1238     1  0.0000000  0.6508444  3
   1226   1214   1216   1229     1  0.0000000  0.6508444  3
   1226   1214   1216   1230     1  0.0000000  0.6508444  3
   1227   1215   1213   1238     1  0.0000000  0.6508444  3
   1227   1215   1218   1231     1  0.0000000  0.6508444  3
   1227   1215   1218   1232     1  0.0000000  0.6508444  3
   1228   1215   1213   1238     1  0.0000000  0.6508444  3
   1228   1215   1218   1231     1  0.0000000  0.6508444  3
   1228   1215   1218   1232     1  0.0000000  0.6508444  3
   1229   1216   1217   4119     1  180.0000771  0.0000000  2
   1230   1216   1217   4119     1  180.0000771  0.0000000  2
   1231   1218   1219   4193     1  180.0000771  0.0000000  2
   1232   1218   1219   4193     1  180.0000771  0.0000000  2
   1233   1220   1213   1238     1  0.0000000  0.6508444  3
   1233   1220   1221   1235     1  0.0000000  0.6508444  3
   1233   1220   1221   1236     1  0.0000000  0.6508444  3
   1234   1220   1213   1238     1  0.0000000  0.6508444  3
   1234   1220   1221   1235     1  0.0000000  0.6508444  3
   1234   1220   1221   1236     1  0.0000000  0.6508444  3
   1235   1221   1222   1237     1  0.0000000  0.0000000  2
   1236   1221   1222   1237     1  0.0000000  0.0000000  2
   1239   1240   1242   1255     1  0.0000000  0.6508444  3
   1239   1240   1242   1256     1  0.0000000  0.6508444  3
   1239   1241   1244   1257     1  0.0000000  0.6508444  3
   1239   1241   1244   1258     1  0.0000000  0.6508444  3
   1239   1246   1247   1261     1  0.0000000  0.6508444  3
   1239   1246   1247   1262     1  0.0000000  0.6508444  3
   1240   1239   1241   1253     1  0.0000000  0.6508444  3
   1240   1239   1241   1254     1  0.0000000  0.6508444  3
   1240   1239   1246   1259     1  0.0000000  0.6508444  3
   1240   1239   1246   1260     1  0.0000000  0.6508444  3
   1241   1239   1240   1251     1  0.0000000  0.6508444  3
   1241   1239   1240   1252     1  0.0000000  0.6508444  3
   1241   1239   1246   1259     1  0.0000000  0.6508444  3
   1241   1239   1246   1260     1  0.0000000  0.6508444  3
   1242   1240   1239   1264     1  0.0000000  0.6508444  3
   1242   1243   4267   4268     1  180.0000771  10.4600000  2
   1243   1242   1240   1251     1  0.0000000  0.6508444  3
   1243   1242   1240   1252     1  0.0000000  0.6508444  3
   1243   4267   4269   4270     1  0.0000000  0.0000000  2
   1243   4267   4269   4272     1  0.0000000  0.0000000  2
   1244   1241   1239   1264     1  0.0000000  0.6508444  3
   1244   1245   4341   4342     1  180.0000771  10.4600000  2
   1245   1244   1241   1253     1  0.0000000  0.6508444  3
   1245   1244   1241   1254     1  0.0000000  0.6508444  3
   1245   4341   4343   4344     1  0.0000000  0.0000000  2
   1245   4341   4343   4346     1  0.0000000  0.0000000  2
   1246   1239   1240   1251     1  0.0000000  0.6508444  3
   1246   1239   1240   1252     1  0.0000000  0.6508444  3
   1246   1239   1241   1253     1  0.0000000  0.6508444  3
   1246   1239   1241   1254     1  0.0000000  0.6508444  3
   1246   1247   1248   1263     1  0.0000000  0.0000000  2
   1247   1246   1239   1264     1  0.0000000  0.6508444  3
   1248   1247   1246   1259     1  0.0000000  0.6508444  3
   1248   1247   1246   1260     1  0.0000000  0.6508444  3
   1249   1243   1242   1255     1  0.0000000  3.3472000  1
   1249   1243   1242   1255     1  0.0000000  0.0000000  2
   1249   1243   1242   1255     1  180.0000771  0.3347200  3
   1249   1243   1242   1256     1  0.0000000  3.3472000  1
   1249   1243   1242   1256     1  0.0000000  0.0000000  2
   1249   1243   1242   1256     1  180.0000771  0.3347200  3
   1249   1243   4267   4268     1  0.0000000  8.3680000  1
   1249   1243   4267   4268     1  180.0000771  10.4600000  2
   1250   1245   1244   1257     1  0.0000000  3.3472000  1
   1250   1245   1244   1257     1  0.0000000  0.0000000  2
   1250   1245   1244   1257     1  180.0000771  0.3347200  3
   1250   1245   1244   1258     1  0.0000000  3.3472000  1
   1250   1245   1244   1258     1  0.0000000  0.0000000  2
   1250   1245   1244   1258     1  180.0000771  0.3347200  3
   1250   1245   4341   4342     1  0.0000000  8.3680000  1
   1250   1245   4341   4342     1  180.0000771  10.4600000  2
   1251   1240   1239   1264     1  0.0000000  0.6508444  3
   1251   1240   1242   1255     1  0.0000000  0.6508444  3
   1251   1240   1242   1256     1  0.0000000  0.6508444  3
   1252   1240   1239   1264     1  0.0000000  0.6508444  3
   1252   1240   1242   1255     1  0.0000000  0.6508444  3
   1252   1240   1242   1256     1  0.0000000  0.6508444  3
   1253   1241   1239   1264     1  0.0000000  0.6508444  3
   1253   1241   1244   1257     1  0.0000000  0.6508444  3
   1253   1241   1244   1258     1  0.0000000  0.6508444  3
   1254   1241   1239   1264     1  0.0000000  0.6508444  3
   1254   1241   1244   1257     1  0.0000000  0.6508444  3
   1254   1241   1244   1258     1  0.0000000  0.6508444  3
   1255   1242   1243   4267     1  180.0000771  0.0000000  2
   1256   1242   1243   4267     1  180.0000771  0.0000000  2
   1257   1244   1245   4341     1  180.0000771  0.0000000  2
   1258   1244   1245   4341     1  180.0000771  0.0000000  2
   1259   1246   1239   1264     1  0.0000000  0.6508444  3
   1259   1246   1247   1261     1  0.0000000  0.6508444  3
   1259   1246   1247   1262     1  0.0000000  0.6508444  3
   1260   1246   1239   1264     1  0.0000000  0.6508444  3
   1260   1246   1247   1261     1  0.0000000  0.6508444  3
   1260   1246   1247   1262     1  0.0000000  0.6508444  3
   1261   1247   1248   1263     1  0.0000000  0.0000000  2
   1262   1247   1248   1263     1  0.0000000  0.0000000  2
   1265   1266   1268   1281     1  0.0000000  0.6508444  3
   1265   1266   1268   1282     1  0.0000000  0.6508444  3
   1265   1267   1270   1283     1  0.0000000  0.6508444  3
   1265   1267   1270   1284     1  0.0000000  0.6508444  3
   1265   1272   1273   1287     1  0.0000000  0.6508444  3
   1265   1272   1273   1288     1  0.0000000  0.6508444  3
   1266   1265   1267   1279     1  0.0000000  0.6508444  3
   1266   1265   1267   1280     1  0.0000000  0.6508444  3
   1266   1265   1272   1285     1  0.0000000  0.6508444  3
   1266   1265   1272   1286     1  0.0000000  0.6508444  3
   1267   1265   1266   1277     1  0.0000000  0.6508444  3
   1267   1265   1266   1278     1  0.0000000  0.6508444  3
   1267   1265   1272   1285     1  0.0000000  0.6508444  3
   1267   1265   1272   1286     1  0.0000000  0.6508444  3
   1268   1266   1265   1290     1  0.0000000  0.6508444  3
   1268   1269   4415   4416     1  180.0000771  10.4600000  2
   1269   1268   1266   1277     1  0.0000000  0.6508444  3
   1269   1268   1266   1278     1  0.0000000  0.6508444  3
   1269   4415   4417   4418     1  0.0000000  0.0000000  2
   1269   4415   4417   4420     1  0.0000000  0.0000000  2
   1270   1267   1265   1290     1  0.0000000  0.6508444  3
   1270   1271   4489   4490     1  180.0000771  10.4600000  2
   1271   1270   1267   1279     1  0.0000000  0.6508444  3
   1271   1270   1267   1280     1  0.0000000  0.6508444  3
   1271   4489   4491   4492     1  0.0000000  0.0000000  2
   1271   4489   4491   4494     1  0.0000000  0.0000000  2
   1272   1265   1266   1277     1  0.0000000  0.6508444  3
   1272   1265   1266   1278     1  0.0000000  0.6508444  3
   1272   1265   1267   1279     1  0.0000000  0.6508444  3
   1272   1265   1267   1280     1  0.0000000  0.6508444  3
   1272   1273   1274   1289     1  0.0000000  0.0000000  2
   1273   1272   1265   1290     1  0.0000000  0.6508444  3
   1274   1273   1272   1285     1  0.0000000  0.6508444  3
   1274   1273   1272   1286     1  0.0000000  0.6508444  3
   1275   1269   1268   1281     1  0.0000000  3.3472000  1
   1275   1269   1268   1281     1  0.0000000  0.0000000  2
   1275   1269   1268   1281     1  180.0000771  0.3347200  3
   1275   1269   1268   1282     1  0.0000000  3.3472000  1
   1275   1269   1268   1282     1  0.0000000  0.0000000  2
   1275   1269   1268   1282     1  180.0000771  0.3347200  3
   1275   1269   4415   4416     1  0.0000000  8.3680000  1
   1275   1269   4415   4416     1  180.0000771  10.4600000  2
   1276   1271   1270   1283     1  0.0000000  3.3472000  1
   1276   1271   1270   1283     1  0.0000000  0.0000000  2
   1276   1271   1270   1283     1  180.0000771  0.3347200  3
   1276   1271   1270   1284     1  0.0000000  3.3472000  1
   1276   1271   1270   1284     1  0.0000000  0.0000000  2
   1276   1271   1270   1284     1  180.0000771  0.3347200  3
   1276   1271   4489   4490     1  0.0000000  8.3680000  1
   1276   1271   4489   4490     1  180.0000771  10.4600000  2
   1277   1266   1265   1290     1  0.0000000  0.6508444  3
   1277   1266   1268   1281     1  0.0000000  0.6508444  3
   1277   1266   1268   1282     1  0.0000000  0.6508444  3
   1278   1266   1265   1290     1  0.0000000  0.6508444  3
   1278   1266   1268   1281     1  0.0000000  0.6508444  3
   1278   1266   1268   1282     1  0.0000000  0.6508444  3
   1279   1267   1265   1290     1  0.0000000  0.6508444  3
   1279   1267   1270   1283     1  0.0000000  0.6508444  3
   1279   1267   1270   1284     1  0.0000000  0.6508444  3
   1280   1267   1265   1290     1  0.0000000  0.6508444  3
   1280   1267   1270   1283     1  0.0000000  0.6508444  3
   1280   1267   1270   1284     1  0.0000000  0.6508444  3
   1281   1268   1269   4415     1  180.0000771  0.0000000  2
   1282   1268   1269   4415     1  180.0000771  0.0000000  2
   1283   1270   1271   4489     1  180.0000771  0.0000000  2
   1284   1270   1271   4489     1  180.0000771  0.0000000  2
   1285   1272   1265   1290     1  0.0000000  0.6508444  3
   1285   1272   1273   1287     1  0.0000000  0.6508444  3
   1285   1272   1273   1288     1  0.0000000  0.6508444  3
   1286   1272   1265   1290     1  0.0000000  0.6508444  3
   1286   1272   1273   1287     1  0.0000000  0.6508444  3
   1286   1272   1273   1288     1  0.0000000  0.6508444  3
   1287   1273   1274   1289     1  0.0000000  0.0000000  2
   1288   1273   1274   1289     1  0.0000000  0.0000000  2
   1291   1292   1294   1307     1  0.0000000  0.6508444  3
   1291   1292   1294   1308     1  0.0000000  0.6508444  3
   1291   1293   1296   1309     1  0.0000000  0.6508444  3
   1291   1293   1296   1310     1  0.0000000  0.6508444  3
   1291   1298   1299   1313     1  0.0000000  0.6508444  3
   1291   1298   1299   1314     1  0.0000000  0.6508444  3
   1292   1291   1293   1305     1  0.0000000  0.6508444  3
   1292   1291   1293   1306     1  0.0000000  0.6508444  3
   1292   1291   1298   1311     1  0.0000000  0.6508444  3
   1292   1291   1298   1312     1  0.0000000  0.6508444  3
   1293   1291   1292   1303     1  0.0000000  0.6508444  3
   1293   1291   1292   1304     1  0.0000000  0.6508444  3
   1293   1291   1298   1311     1  0.0000000  0.6508444  3
   1293   1291   1298   1312     1  0.0000000  0.6508444  3
   1294   1292   1291   1316     1  0.0000000  0.6508444  3
   1294   1295   4563   4564     1  180.0000771  10.4600000  2
   1295   1294   1292   1303     1  0.0000000  0.6508444  3
   1295   1294   1292   1304     1  0.0000000  0.6508444  3
   1295   4563   4565   4566     1  0.0000000  0.0000000  2
   1295   4563   4565   4568     1  0.0000000  0.0000000  2
   1296   1293   1291   1316     1  0.0000000  0.6508444  3
   1296   1297   4637   4638     1  180.0000771  10.4600000  2
   1297   1296   1293   1305     1  0.0000000  0.6508444  3
   1297   1296   1293   1306     1  0.0000000  0.6508444  3
   1297   4637   4639   4640     1  0.0000000  0.0000000  2
   1297   4637   4639   4642     1  0.0000000  0.0000000  2
   1298   1291   1292   1303     1  0.0000000  0.6508444  3
   1298   1291   1292   1304     1  0.0000000  0.6508444  3
   1298   1291   1293   1305     1  0.0000000  0.6508444  3
   1298   1291   1293   1306     1  0.0000000  0.6508444  3
   1298   1299   1300   1315     1  0.0000000  0.0000000  2
   1299   1298   1291   1316     1  0.0000000  0.6508444  3
   1300   1299   1298   1311     1  0.0000000  0.6508444  3
   1300   1299   1298   1312     1  0.0000000  0.6508444  3
   1301   1295   1294   1307     1  0.0000000  3.3472000  1
   1301   1295   1294   1307     1  0.0000000  0.0000000  2
   1301   1295   1294   1307     1  180.0000771  0.3347200  3
   1301   1295   1294   1308     1  0.0000000  3.3472000  1
   1301   1295   1294   1308     1  0.0000000  0.0000000  2
   1301   1295   1294   1308     1  180.0000771  0.3347200  3
   1301   1295   4563   4564     1  0.0000000  8.3680000  1
   1301   1295   4563   4564     1  180.0000771  10.4600000  2
   1302   1297   1296   1309     1  0.0000000  3.3472000  1
   1302   1297   1296   1309     1  0.0000000  0.0000000  2
   1302   1297   1296   1309     1  180.0000771  0.3347200  3
   1302   1297   1296   1310     1  0.0000000  3.3472000  1
   1302   1297   1296   1310     1  0.0000000  0.0000000  2
   1302   1297   1296   1310     1  180.0000771  0.3347200  3
   1302   1297   4637   4638     1  0.0000000  8.3680000  1
   1302   1297   4637   4638     1  180.0000771  10.4600000  2
   1303   1292   1291   1316     1  0.0000000  0.6508444  3
   1303   1292   1294   1307     1  0.0000000  0.6508444  3
   1303   1292   1294   1308     1  0.0000000  0.6508444  3
   1304   1292   1291   1316     1  0.0000000  0.6508444  3
   1304   1292   1294   1307     1  0.0000000  0.6508444  3
   1304   1292   1294   1308     1  0.0000000  0.6508444  3
   1305   1293   1291   1316     1  0.0000000  0.6508444  3
   1305   1293   1296   1309     1  0.0000000  0.6508444  3
   1305   1293   1296   1310     1  0.0000000  0.6508444  3
   1306   1293   1291   1316     1  0.0000000  0.6508444  3
   1306   1293   1296   1309     1  0.0000000  0.6508444  3
   1306   1293   1296   1310     1  0.0000000  0.6508444  3
   1307   1294   1295   4563     1  180.0000771  0.0000000  2
   1308   1294   1295   4563     1  180.0000771  0.0000000  2
   1309   1296   1297   4637     1  180.0000771  0.0000000  2
   1310   1296   1297   4637     1  180.0000771  0.0000000  2
   1311   1298   1291   1316     1  0.0000000  0.6508444  3
   1311   1298   1299   1313     1  0.0000000  0.6508444  3
   1311   1298   1299   1314     1  0.0000000  0.6508444  3
   1312   1298   1291   1316     1  0.0000000  0.6508444  3
   1312   1298   1299   1313     1  0.0000000  0.6508444  3
   1312   1298   1299   1314     1  0.0000000  0.6508444  3
   1313   1299   1300   1315     1  0.0000000  0.0000000  2
   1314   1299   1300   1315     1  0.0000000  0.0000000  2
   1317   1318   1320   1333     1  0.0000000  0.6508444  3
   1317   1318   1320   1334     1  0.0000000  0.6508444  3
   1317   1319   1322   1335     1  0.0000000  0.6508444  3
   1317   1319   1322   1336     1  0.0000000  0.6508444  3
   1317   1324   1325   1339     1  0.0000000  0.6508444  3
   1317   1324   1325   1340     1  0.0000000  0.6508444  3
   1318   1317   1319   1331     1  0.0000000  0.6508444  3
   1318   1317   1319   1332     1  0.0000000  0.6508444  3
   1318   1317   1324   1337     1  0.0000000  0.6508444  3
   1318   1317   1324   1338     1  0.0000000  0.6508444  3
   1319   1317   1318   1329     1  0.0000000  0.6508444  3
   1319   1317   1318   1330     1  0.0000000  0.6508444  3
   1319   1317   1324   1337     1  0.0000000  0.6508444  3
   1319   1317   1324   1338     1  0.0000000  0.6508444  3
   1320   1318   1317   1342     1  0.0000000  0.6508444  3
   1320   1321   4711   4712     1  180.0000771  10.4600000  2
   1321   1320   1318   1329     1  0.0000000  0.6508444  3
   1321   1320   1318   1330     1  0.0000000  0.6508444  3
   1321   4711   4713   4714     1  0.0000000  0.0000000  2
   1321   4711   4713   4716     1  0.0000000  0.0000000  2
   1322   1319   1317   1342     1  0.0000000  0.6508444  3
   1322   1323   4785   4786     1  180.0000771  10.4600000  2
   1323   1322   1319   1331     1  0.0000000  0.6508444  3
   1323   1322   1319   1332     1  0.0000000  0.6508444  3
   1323   4785   4787   4788     1  0.0000000  0.0000000  2
   1323   4785   4787   4790     1  0.0000000  0.0000000  2
   1324   1317   1318   1329     1  0.0000000  0.6508444  3
   1324   1317   1318   1330     1  0.0000000  0.6508444  3
   1324   1317   1319   1331     1  0.0000000  0.6508444  3
   1324   1317   1319   1332     1  0.0000000  0.6508444  3
   1324   1325   1326   1341     1  0.0000000  0.0000000  2
   1325   1324   1317   1342     1  0.0000000  0.6508444  3
   1326   1325   1324   1337     1  0.0000000  0.6508444  3
   1326   1325   1324   1338     1  0.0000000  0.6508444  3
   1327   1321   1320   1333     1  0.0000000  3.3472000  1
   1327   1321   1320   1333     1  0.0000000  0.0000000  2
   1327   1321   1320   1333     1  180.0000771  0.3347200  3
   1327   1321   1320   1334     1  0.0000000  3.3472000  1
   1327   1321   1320   1334     1  0.0000000  0.0000000  2
   1327   1321   1320   1334     1  180.0000771  0.3347200  3
   1327   1321   4711   4712     1  0.0000000  8.3680000  1
   1327   1321   4711   4712     1  180.0000771  10.4600000  2
   1328   1323   1322   1335     1  0.0000000  3.3472000  1
   1328   1323   1322   1335     1  0.0000000  0.0000000  2
   1328   1323   1322   1335     1  180.0000771  0.3347200  3
   1328   1323   1322   1336     1  0.0000000  3.3472000  1
   1328   1323   1322   1336     1  0.0000000  0.0000000  2
   1328   1323   1322   1336     1  180.0000771  0.3347200  3
   1328   1323   4785   4786     1  0.0000000  8.3680000  1
   1328   1323   4785   4786     1  180.0000771  10.4600000  2
   1329   1318   1317   1342     1  0.0000000  0.6508444  3
   1329   1318   1320   1333     1  0.0000000  0.6508444  3
   1329   1318   1320   1334     1  0.0000000  0.6508444  3
   1330   1318   1317   1342     1  0.0000000  0.6508444  3
   1330   1318   1320   1333     1  0.0000000  0.6508444  3
   1330   1318   1320   1334     1  0.0000000  0.6508444  3
   1331   1319   1317   1342     1  0.0000000  0.6508444  3
   1331   1319   1322   1335     1  0.0000000  0.6508444  3
   1331   1319   1322   1336     1  0.0000000  0.6508444  3
   1332   1319   1317   1342     1  0.0000000  0.6508444  3
   1332   1319   1322   1335     1  0.0000000  0.6508444  3
   1332   1319   1322   1336     1  0.0000000  0.6508444  3
   1333   1320   1321   4711     1  180.0000771  0.0000000  2
   1334   1320   1321   4711     1  180.0000771  0.0000000  2
   1335   1322   1323   4785     1  180.0000771  0.0000000  2
   1336   1322   1323   4785     1  180.0000771  0.0000000  2
   1337   1324   1317   1342     1  0.0000000  0.6508444  3
   1337   1324   1325   1339     1  0.0000000  0.6508444  3
   1337   1324   1325   1340     1  0.0000000  0.6508444  3
   1338   1324   1317   1342     1  0.0000000  0.6508444  3
   1338   1324   1325   1339     1  0.0000000  0.6508444  3
   1338   1324   1325   1340     1  0.0000000  0.6508444  3
   1339   1325   1326   1341     1  0.0000000  0.0000000  2
   1340   1325   1326   1341     1  0.0000000  0.0000000  2
   1343   1344   1346   1359     1  0.0000000  0.6508444  3
   1343   1344   1346   1360     1  0.0000000  0.6508444  3
   1343   1345   1348   1361     1  0.0000000  0.6508444  3
   1343   1345   1348   1362     1  0.0000000  0.6508444  3
   1343   1350   1351   1365     1  0.0000000  0.6508444  3
   1343   1350   1351   1366     1  0.0000000  0.6508444  3
   1344   1343   1345   1357     1  0.0000000  0.6508444  3
   1344   1343   1345   1358     1  0.0000000  0.6508444  3
   1344   1343   1350   1363     1  0.0000000  0.6508444  3
   1344   1343   1350   1364     1  0.0000000  0.6508444  3
   1345   1343   1344   1355     1  0.0000000  0.6508444  3
   1345   1343   1344   1356     1  0.0000000  0.6508444  3
   1345   1343   1350   1363     1  0.0000000  0.6508444  3
   1345   1343   1350   1364     1  0.0000000  0.6508444  3
   1346   1344   1343   1368     1  0.0000000  0.6508444  3
   1346   1347   4859   4860     1  180.0000771  10.4600000  2
   1347   1346   1344   1355     1  0.0000000  0.6508444  3
   1347   1346   1344   1356     1  0.0000000  0.6508444  3
   1347   4859   4861   4862     1  0.0000000  0.0000000  2
   1347   4859   4861   4864     1  0.0000000  0.0000000  2
   1348   1345   1343   1368     1  0.0000000  0.6508444  3
   1348   1349   4933   4934     1  180.0000771  10.4600000  2
   1349   1348   1345   1357     1  0.0000000  0.6508444  3
   1349   1348   1345   1358     1  0.0000000  0.6508444  3
   1349   4933   4935   4936     1  0.0000000  0.0000000  2
   1349   4933   4935   4938     1  0.0000000  0.0000000  2
   1350   1343   1344   1355     1  0.0000000  0.6508444  3
   1350   1343   1344   1356     1  0.0000000  0.6508444  3
   1350   1343   1345   1357     1  0.0000000  0.6508444  3
   1350   1343   1345   1358     1  0.0000000  0.6508444  3
   1350   1351   1352   1367     1  0.0000000  0.0000000  2
   1351   1350   1343   1368     1  0.0000000  0.6508444  3
   1352   1351   1350   1363     1  0.0000000  0.6508444  3
   1352   1351   1350   1364     1  0.0000000  0.6508444  3
   1353   1347   1346   1359     1  0.0000000  3.3472000  1
   1353   1347   1346   1359     1  0.0000000  0.0000000  2
   1353   1347   1346   1359     1  180.0000771  0.3347200  3
   1353   1347   1346   1360     1  0.0000000  3.3472000  1
   1353   1347   1346   1360     1  0.0000000  0.0000000  2
   1353   1347   1346   1360     1  180.0000771  0.3347200  3
   1353   1347   4859   4860     1  0.0000000  8.3680000  1
   1353   1347   4859   4860     1  180.0000771  10.4600000  2
   1354   1349   1348   1361     1  0.0000000  3.3472000  1
   1354   1349   1348   1361     1  0.0000000  0.0000000  2
   1354   1349   1348   1361     1  180.0000771  0.3347200  3
   1354   1349   1348   1362     1  0.0000000  3.3472000  1
   1354   1349   1348   1362     1  0.0000000  0.0000000  2
   1354   1349   1348   1362     1  180.0000771  0.3347200  3
   1354   1349   4933   4934     1  0.0000000  8.3680000  1
   1354   1349   4933   4934     1  180.0000771  10.4600000  2
   1355   1344   1343   1368     1  0.0000000  0.6508444  3
   1355   1344   1346   1359     1  0.0000000  0.6508444  3
   1355   1344   1346   1360     1  0.0000000  0.6508444  3
   1356   1344   1343   1368     1  0.0000000  0.6508444  3
   1356   1344   1346   1359     1  0.0000000  0.6508444  3
   1356   1344   1346   1360     1  0.0000000  0.6508444  3
   1357   1345   1343   1368     1  0.0000000  0.6508444  3
   1357   1345   1348   1361     1  0.0000000  0.6508444  3
   1357   1345   1348   1362     1  0.0000000  0.6508444  3
   1358   1345   1343   1368     1  0.0000000  0.6508444  3
   1358   1345   1348   1361     1  0.0000000  0.6508444  3
   1358   1345   1348   1362     1  0.0000000  0.6508444  3
   1359   1346   1347   4859     1  180.0000771  0.0000000  2
   1360   1346   1347   4859     1  180.0000771  0.0000000  2
   1361   1348   1349   4933     1  180.0000771  0.0000000  2
   1362   1348   1349   4933     1  180.0000771  0.0000000  2
   1363   1350   1343   1368     1  0.0000000  0.6508444  3
   1363   1350   1351   1365     1  0.0000000  0.6508444  3
   1363   1350   1351   1366     1  0.0000000  0.6508444  3
   1364   1350   1343   1368     1  0.0000000  0.6508444  3
   1364   1350   1351   1365     1  0.0000000  0.6508444  3
   1364   1350   1351   1366     1  0.0000000  0.6508444  3
   1365   1351   1352   1367     1  0.0000000  0.0000000  2
   1366   1351   1352   1367     1  0.0000000  0.0000000  2
   1369   1370   1372   1385     1  0.0000000  0.6508444  3
   1369   1370   1372   1386     1  0.0000000  0.6508444  3
   1369   1371   1374   1387     1  0.0000000  0.6508444  3
   1369   1371   1374   1388     1  0.0000000  0.6508444  3
   1369   1376   1377   1391     1  0.0000000  0.6508444  3
   1369   1376   1377   1392     1  0.0000000  0.6508444  3
   1370   1369   1371   1383     1  0.0000000  0.6508444  3
   1370   1369   1371   1384     1  0.0000000  0.6508444  3
   1370   1369   1376   1389     1  0.0000000  0.6508444  3
   1370   1369   1376   1390     1  0.0000000  0.6508444  3
   1371   1369   1370   1381     1  0.0000000  0.6508444  3
   1371   1369   1370   1382     1  0.0000000  0.6508444  3
   1371   1369   1376   1389     1  0.0000000  0.6508444  3
   1371   1369   1376   1390     1  0.0000000  0.6508444  3
   1372   1370   1369   1394     1  0.0000000  0.6508444  3
   1372   1373   5007   5008     1  180.0000771  10.4600000  2
   1373   1372   1370   1381     1  0.0000000  0.6508444  3
   1373   1372   1370   1382     1  0.0000000  0.6508444  3
   1373   5007   5009   5010     1  0.0000000  0.0000000  2
   1373   5007   5009   5012     1  0.0000000  0.0000000  2
   1374   1371   1369   1394     1  0.0000000  0.6508444  3
   1374   1375   5081   5082     1  180.0000771  10.4600000  2
   1375   1374   1371   1383     1  0.0000000  0.6508444  3
   1375   1374   1371   1384     1  0.0000000  0.6508444  3
   1375   5081   5083   5084     1  0.0000000  0.0000000  2
   1375   5081   5083   5086     1  0.0000000  0.0000000  2
   1376   1369   1370   1381     1  0.0000000  0.6508444  3
   1376   1369   1370   1382     1  0.0000000  0.6508444  3
   1376   1369   1371   1383     1  0.0000000  0.6508444  3
   1376   1369   1371   1384     1  0.0000000  0.6508444  3
   1376   1377   1378   1393     1  0.0000000  0.0000000  2
   1377   1376   1369   1394     1  0.0000000  0.6508444  3
   1378   1377   1376   1389     1  0.0000000  0.6508444  3
   1378   1377   1376   1390     1  0.0000000  0.6508444  3
   1379   1373   1372   1385     1  0.0000000  3.3472000  1
   1379   1373   1372   1385     1  0.0000000  0.0000000  2
   1379   1373   1372   1385     1  180.0000771  0.3347200  3
   1379   1373   1372   1386     1  0.0000000  3.3472000  1
   1379   1373   1372   1386     1  0.0000000  0.0000000  2
   1379   1373   1372   1386     1  180.0000771  0.3347200  3
   1379   1373   5007   5008     1  0.0000000  8.3680000  1
   1379   1373   5007   5008     1  180.0000771  10.4600000  2
   1380   1375   1374   1387     1  0.0000000  3.3472000  1
   1380   1375   1374   1387     1  0.0000000  0.0000000  2
   1380   1375   1374   1387     1  180.0000771  0.3347200  3
   1380   1375   1374   1388     1  0.0000000  3.3472000  1
   1380   1375   1374   1388     1  0.0000000  0.0000000  2
   1380   1375   1374   1388     1  180.0000771  0.3347200  3
   1380   1375   5081   5082     1  0.0000000  8.3680000  1
   1380   1375   5081   5082     1  180.0000771  10.4600000  2
   1381   1370   1369   1394     1  0.0000000  0.6508444  3
   1381   1370   1372   1385     1  0.0000000  0.6508444  3
   1381   1370   1372   1386     1  0.0000000  0.6508444  3
   1382   1370   1369   1394     1  0.0000000  0.6508444  3
   1382   1370   1372   1385     1  0.0000000  0.6508444  3
   1382   1370   1372   1386     1  0.0000000  0.6508444  3
   1383   1371   1369   1394     1  0.0000000  0.6508444  3
   1383   1371   1374   1387     1  0.0000000  0.6508444  3
   1383   1371   1374   1388     1  0.0000000  0.6508444  3
   1384   1371   1369   1394     1  0.0000000  0.6508444  3
   1384   1371   1374   1387     1  0.0000000  0.6508444  3
   1384   1371   1374   1388     1  0.0000000  0.6508444  3
   1385   1372   1373   5007     1  180.0000771  0.0000000  2
   1386   1372   1373   5007     1  180.0000771  0.0000000  2
   1387   1374   1375   5081     1  180.0000771  0.0000000  2
   1388   1374   1375   5081     1  180.0000771  0.0000000  2
   1389   1376   1369   1394     1  0.0000000  0.6508444  3
   1389   1376   1377   1391     1  0.0000000  0.6508444  3
   1389   1376   1377   1392     1  0.0000000  0.6508444  3
   1390   1376   1369   1394     1  0.0000000  0.6508444  3
   1390   1376   1377   1391     1  0.0000000  0.6508444  3
   1390   1376   1377   1392     1  0.0000000  0.6508444  3
   1391   1377   1378   1393     1  0.0000000  0.0000000  2
   1392   1377   1378   1393     1  0.0000000  0.0000000  2
   1395   1396   1398   1411     1  0.0000000  0.6508444  3
   1395   1396   1398   1412     1  0.0000000  0.6508444  3
   1395   1397   1400   1413     1  0.0000000  0.6508444  3
   1395   1397   1400   1414     1  0.0000000  0.6508444  3
   1395   1402   1403   1417     1  0.0000000  0.6508444  3
   1395   1402   1403   1418     1  0.0000000  0.6508444  3
   1396   1395   1397   1409     1  0.0000000  0.6508444  3
   1396   1395   1397   1410     1  0.0000000  0.6508444  3
   1396   1395   1402   1415     1  0.0000000  0.6508444  3
   1396   1395   1402   1416     1  0.0000000  0.6508444  3
   1397   1395   1396   1407     1  0.0000000  0.6508444  3
   1397   1395   1396   1408     1  0.0000000  0.6508444  3
   1397   1395   1402   1415     1  0.0000000  0.6508444  3
   1397   1395   1402   1416     1  0.0000000  0.6508444  3
   1398   1396   1395   1420     1  0.0000000  0.6508444  3
   1398   1399   5155   5156     1  180.0000771  10.4600000  2
   1399   1398   1396   1407     1  0.0000000  0.6508444  3
   1399   1398   1396   1408     1  0.0000000  0.6508444  3
   1399   5155   5157   5158     1  0.0000000  0.0000000  2
   1399   5155   5157   5160     1  0.0000000  0.0000000  2
   1400   1397   1395   1420     1  0.0000000  0.6508444  3
   1400   1401   5229   5230     1  180.0000771  10.4600000  2
   1401   1400   1397   1409     1  0.0000000  0.6508444  3
   1401   1400   1397   1410     1  0.0000000  0.6508444  3
   1401   5229   5231   5232     1  0.0000000  0.0000000  2
   1401   5229   5231   5234     1  0.0000000  0.0000000  2
   1402   1395   1396   1407     1  0.0000000  0.6508444  3
   1402   1395   1396   1408     1  0.0000000  0.6508444  3
   1402   1395   1397   1409     1  0.0000000  0.6508444  3
   1402   1395   1397   1410     1  0.0000000  0.6508444  3
   1402   1403   1404   1419     1  0.0000000  0.0000000  2
   1403   1402   1395   1420     1  0.0000000  0.6508444  3
   1404   1403   1402   1415     1  0.0000000  0.6508444  3
   1404   1403   1402   1416     1  0.0000000  0.6508444  3
   1405   1399   1398   1411     1  0.0000000  3.3472000  1
   1405   1399   1398   1411     1  0.0000000  0.0000000  2
   1405   1399   1398   1411     1  180.0000771  0.3347200  3
   1405   1399   1398   1412     1  0.0000000  3.3472000  1
   1405   1399   1398   1412     1  0.0000000  0.0000000  2
   1405   1399   1398   1412     1  180.0000771  0.3347200  3
   1405   1399   5155   5156     1  0.0000000  8.3680000  1
   1405   1399   5155   5156     1  180.0000771  10.4600000  2
   1406   1401   1400   1413     1  0.0000000  3.3472000  1
   1406   1401   1400   1413     1  0.0000000  0.0000000  2
   1406   1401   1400   1413     1  180.0000771  0.3347200  3
   1406   1401   1400   1414     1  0.0000000  3.3472000  1
   1406   1401   1400   1414     1  0.0000000  0.0000000  2
   1406   1401   1400   1414     1  180.0000771  0.3347200  3
   1406   1401   5229   5230     1  0.0000000  8.3680000  1
   1406   1401   5229   5230     1  180.0000771  10.4600000  2
   1407   1396   1395   1420     1  0.0000000  0.6508444  3
   1407   1396   1398   1411     1  0.0000000  0.6508444  3
   1407   1396   1398   1412     1  0.0000000  0.6508444  3
   1408   1396   1395   1420     1  0.0000000  0.6508444  3
   1408   1396   1398   1411     1  0.0000000  0.6508444  3
   1408   1396   1398   1412     1  0.0000000  0.6508444  3
   1409   1397   1395   1420     1  0.0000000  0.6508444  3
   1409   1397   1400   1413     1  0.0000000  0.6508444  3
   1409   1397   1400   1414     1  0.0000000  0.6508444  3
   1410   1397   1395   1420     1  0.0000000  0.6508444  3
   1410   1397   1400   1413     1  0.0000000  0.6508444  3
   1410   1397   1400   1414     1  0.0000000  0.6508444  3
   1411   1398   1399   5155     1  180.0000771  0.0000000  2
   1412   1398   1399   5155     1  180.0000771  0.0000000  2
   1413   1400   1401   5229     1  180.0000771  0.0000000  2
   1414   1400   1401   5229     1  180.0000771  0.0000000  2
   1415   1402   1395   1420     1  0.0000000  0.6508444  3
   1415   1402   1403   1417     1  0.0000000  0.6508444  3
   1415   1402   1403   1418     1  0.0000000  0.6508444  3
   1416   1402   1395   1420     1  0.0000000  0.6508444  3
   1416   1402   1403   1417     1  0.0000000  0.6508444  3
   1416   1402   1403   1418     1  0.0000000  0.6508444  3
   1417   1403   1404   1419     1  0.0000000  0.0000000  2
   1418   1403   1404   1419     1  0.0000000  0.0000000  2
   1421   1422   1424   1437     1  0.0000000  0.6508444  3
   1421   1422   1424   1438     1  0.0000000  0.6508444  3
   1421   1423   1426   1439     1  0.0000000  0.6508444  3
   1421   1423   1426   1440     1  0.0000000  0.6508444  3
   1421   1428   1429   1443     1  0.0000000  0.6508444  3
   1421   1428   1429   1444     1  0.0000000  0.6508444  3
   1422   1421   1423   1435     1  0.0000000  0.6508444  3
   1422   1421   1423   1436     1  0.0000000  0.6508444  3
   1422   1421   1428   1441     1  0.0000000  0.6508444  3
   1422   1421   1428   1442     1  0.0000000  0.6508444  3
   1423   1421   1422   1433     1  0.0000000  0.6508444  3
   1423   1421   1422   1434     1  0.0000000  0.6508444  3
   1423   1421   1428   1441     1  0.0000000  0.6508444  3
   1423   1421   1428   1442     1  0.0000000  0.6508444  3
   1424   1422   1421   1446     1  0.0000000  0.6508444  3
   1424   1425   5303   5304     1  180.0000771  10.4600000  2
   1425   1424   1422   1433     1  0.0000000  0.6508444  3
   1425   1424   1422   1434     1  0.0000000  0.6508444  3
   1425   5303   5305   5306     1  0.0000000  0.0000000  2
   1425   5303   5305   5308     1  0.0000000  0.0000000  2
   1426   1423   1421   1446     1  0.0000000  0.6508444  3
   1426   1427   5377   5378     1  180.0000771  10.4600000  2
   1427   1426   1423   1435     1  0.0000000  0.6508444  3
   1427   1426   1423   1436     1  0.0000000  0.6508444  3
   1427   5377   5379   5380     1  0.0000000  0.0000000  2
   1427   5377   5379   5382     1  0.0000000  0.0000000  2
   1428   1421   1422   1433     1  0.0000000  0.6508444  3
   1428   1421   1422   1434     1  0.0000000  0.6508444  3
   1428   1421   1423   1435     1  0.0000000  0.6508444  3
   1428   1421   1423   1436     1  0.0000000  0.6508444  3
   1428   1429   1430   1445     1  0.0000000  0.0000000  2
   1429   1428   1421   1446     1  0.0000000  0.6508444  3
   1430   1429   1428   1441     1  0.0000000  0.6508444  3
   1430   1429   1428   1442     1  0.0000000  0.6508444  3
   1431   1425   1424   1437     1  0.0000000  3.3472000  1
   1431   1425   1424   1437     1  0.0000000  0.0000000  2
   1431   1425   1424   1437     1  180.0000771  0.3347200  3
   1431   1425   1424   1438     1  0.0000000  3.3472000  1
   1431   1425   1424   1438     1  0.0000000  0.0000000  2
   1431   1425   1424   1438     1  180.0000771  0.3347200  3
   1431   1425   5303   5304     1  0.0000000  8.3680000  1
   1431   1425   5303   5304     1  180.0000771  10.4600000  2
   1432   1427   1426   1439     1  0.0000000  3.3472000  1
   1432   1427   1426   1439     1  0.0000000  0.0000000  2
   1432   1427   1426   1439     1  180.0000771  0.3347200  3
   1432   1427   1426   1440     1  0.0000000  3.3472000  1
   1432   1427   1426   1440     1  0.0000000  0.0000000  2
   1432   1427   1426   1440     1  180.0000771  0.3347200  3
   1432   1427   5377   5378     1  0.0000000  8.3680000  1
   1432   1427   5377   5378     1  180.0000771  10.4600000  2
   1433   1422   1421   1446     1  0.0000000  0.6508444  3
   1433   1422   1424   1437     1  0.0000000  0.6508444  3
   1433   1422   1424   1438     1  0.0000000  0.6508444  3
   1434   1422   1421   1446     1  0.0000000  0.6508444  3
   1434   1422   1424   1437     1  0.0000000  0.6508444  3
   1434   1422   1424   1438     1  0.0000000  0.6508444  3
   1435   1423   1421   1446     1  0.0000000  0.6508444  3
   1435   1423   1426   1439     1  0.0000000  0.6508444  3
   1435   1423   1426   1440     1  0.0000000  0.6508444  3
   1436   1423   1421   1446     1  0.0000000  0.6508444  3
   1436   1423   1426   1439     1  0.0000000  0.6508444  3
   1436   1423   1426   1440     1  0.0000000  0.6508444  3
   1437   1424   1425   5303     1  180.0000771  0.0000000  2
   1438   1424   1425   5303     1  180.0000771  0.0000000  2
   1439   1426   1427   5377     1  180.0000771  0.0000000  2
   1440   1426   1427   5377     1  180.0000771  0.0000000  2
   1441   1428   1421   1446     1  0.0000000  0.6508444  3
   1441   1428   1429   1443     1  0.0000000  0.6508444  3
   1441   1428   1429   1444     1  0.0000000  0.6508444  3
   1442   1428   1421   1446     1  0.0000000  0.6508444  3
   1442   1428   1429   1443     1  0.0000000  0.6508444  3
   1442   1428   1429   1444     1  0.0000000  0.6508444  3
   1443   1429   1430   1445     1  0.0000000  0.0000000  2
   1444   1429   1430   1445     1  0.0000000  0.0000000  2
   1447   1448   1450   1463     1  0.0000000  0.6508444  3
   1447   1448   1450   1464     1  0.0000000  0.6508444  3
   1447   1449   1452   1465     1  0.0000000  0.6508444  3
   1447   1449   1452   1466     1  0.0000000  0.6508444  3
   1447   1454   1455   1469     1  0.0000000  0.6508444  3
   1447   1454   1455   1470     1  0.0000000  0.6508444  3
   1448   1447   1449   1461     1  0.0000000  0.6508444  3
   1448   1447   1449   1462     1  0.0000000  0.6508444  3
   1448   1447   1454   1467     1  0.0000000  0.6508444  3
   1448   1447   1454   1468     1  0.0000000  0.6508444  3
   1449   1447   1448   1459     1  0.0000000  0.6508444  3
   1449   1447   1448   1460     1  0.0000000  0.6508444  3
   1449   1447   1454   1467     1  0.0000000  0.6508444  3
   1449   1447   1454   1468     1  0.0000000  0.6508444  3
   1450   1448   1447   1472     1  0.0000000  0.6508444  3
   1450   1451   5451   5452     1  180.0000771  10.4600000  2
   1451   1450   1448   1459     1  0.0000000  0.6508444  3
   1451   1450   1448   1460     1  0.0000000  0.6508444  3
   1451   5451   5453   5454     1  0.0000000  0.0000000  2
   1451   5451   5453   5456     1  0.0000000  0.0000000  2
   1452   1449   1447   1472     1  0.0000000  0.6508444  3
   1452   1453   5525   5526     1  180.0000771  10.4600000  2
   1453   1452   1449   1461     1  0.0000000  0.6508444  3
   1453   1452   1449   1462     1  0.0000000  0.6508444  3
   1453   5525   5527   5528     1  0.0000000  0.0000000  2
   1453   5525   5527   5530     1  0.0000000  0.0000000  2
   1454   1447   1448   1459     1  0.0000000  0.6508444  3
   1454   1447   1448   1460     1  0.0000000  0.6508444  3
   1454   1447   1449   1461     1  0.0000000  0.6508444  3
   1454   1447   1449   1462     1  0.0000000  0.6508444  3
   1454   1455   1456   1471     1  0.0000000  0.0000000  2
   1455   1454   1447   1472     1  0.0000000  0.6508444  3
   1456   1455   1454   1467     1  0.0000000  0.6508444  3
   1456   1455   1454   1468     1  0.0000000  0.6508444  3
   1457   1451   1450   1463     1  0.0000000  3.3472000  1
   1457   1451   1450   1463     1  0.0000000  0.0000000  2
   1457   1451   1450   1463     1  180.0000771  0.3347200  3
   1457   1451   1450   1464     1  0.0000000  3.3472000  1
   1457   1451   1450   1464     1  0.0000000  0.0000000  2
   1457   1451   1450   1464     1  180.0000771  0.3347200  3
   1457   1451   5451   5452     1  0.0000000  8.3680000  1
   1457   1451   5451   5452     1  180.0000771  10.4600000  2
   1458   1453   1452   1465     1  0.0000000  3.3472000  1
   1458   1453   1452   1465     1  0.0000000  0.0000000  2
   1458   1453   1452   1465     1  180.0000771  0.3347200  3
   1458   1453   1452   1466     1  0.0000000  3.3472000  1
   1458   1453   1452   1466     1  0.0000000  0.0000000  2
   1458   1453   1452   1466     1  180.0000771  0.3347200  3
   1458   1453   5525   5526     1  0.0000000  8.3680000  1
   1458   1453   5525   5526     1  180.0000771  10.4600000  2
   1459   1448   1447   1472     1  0.0000000  0.6508444  3
   1459   1448   1450   1463     1  0.0000000  0.6508444  3
   1459   1448   1450   1464     1  0.0000000  0.6508444  3
   1460   1448   1447   1472     1  0.0000000  0.6508444  3
   1460   1448   1450   1463     1  0.0000000  0.6508444  3
   1460   1448   1450   1464     1  0.0000000  0.6508444  3
   1461   1449   1447   1472     1  0.0000000  0.6508444  3
   1461   1449   1452   1465     1  0.0000000  0.6508444  3
   1461   1449   1452   1466     1  0.0000000  0.6508444  3
   1462   1449   1447   1472     1  0.0000000  0.6508444  3
   1462   1449   1452   1465     1  0.0000000  0.6508444  3
   1462   1449   1452   1466     1  0.0000000  0.6508444  3
   1463   1450   1451   5451     1  180.0000771  0.0000000  2
   1464   1450   1451   5451     1  180.0000771  0.0000000  2
   1465   1452   1453   5525     1  180.0000771  0.0000000  2
   1466   1452   1453   5525     1  180.0000771  0.0000000  2
   1467   1454   1447   1472     1  0.0000000  0.6508444  3
   1467   1454   1455   1469     1  0.0000000  0.6508444  3
   1467   1454   1455   1470     1  0.0000000  0.6508444  3
   1468   1454   1447   1472     1  0.0000000  0.6508444  3
   1468   1454   1455   1469     1  0.0000000  0.6508444  3
   1468   1454   1455   1470     1  0.0000000  0.6508444  3
   1469   1455   1456   1471     1  0.0000000  0.0000000  2
   1470   1455   1456   1471     1  0.0000000  0.0000000  2
   1473   1474   1476   1489     1  0.0000000  0.6508444  3
   1473   1474   1476   1490     1  0.0000000  0.6508444  3
   1473   1475   1478   1491     1  0.0000000  0.6508444  3
   1473   1475   1478   1492     1  0.0000000  0.6508444  3
   1473   1480   1481   1495     1  0.0000000  0.6508444  3
   1473   1480   1481   1496     1  0.0000000  0.6508444  3
   1474   1473   1475   1487     1  0.0000000  0.6508444  3
   1474   1473   1475   1488     1  0.0000000  0.6508444  3
   1474   1473   1480   1493     1  0.0000000  0.6508444  3
   1474   1473   1480   1494     1  0.0000000  0.6508444  3
   1475   1473   1474   1485     1  0.0000000  0.6508444  3
   1475   1473   1474   1486     1  0.0000000  0.6508444  3
   1475   1473   1480   1493     1  0.0000000  0.6508444  3
   1475   1473   1480   1494     1  0.0000000  0.6508444  3
   1476   1474   1473   1498     1  0.0000000  0.6508444  3
   1476   1477   5599   5600     1  180.0000771  10.4600000  2
   1477   1476   1474   1485     1  0.0000000  0.6508444  3
   1477   1476   1474   1486     1  0.0000000  0.6508444  3
   1477   5599   5601   5602     1  0.0000000  0.0000000  2
   1477   5599   5601   5604     1  0.0000000  0.0000000  2
   1478   1475   1473   1498     1  0.0000000  0.6508444  3
   1478   1479   5673   5674     1  180.0000771  10.4600000  2
   1479   1478   1475   1487     1  0.0000000  0.6508444  3
   1479   1478   1475   1488     1  0.0000000  0.6508444  3
   1479   5673   5675   5676     1  0.0000000  0.0000000  2
   1479   5673   5675   5678     1  0.0000000  0.0000000  2
   1480   1473   1474   1485     1  0.0000000  0.6508444  3
   1480   1473   1474   1486     1  0.0000000  0.6508444  3
   1480   1473   1475   1487     1  0.0000000  0.6508444  3
   1480   1473   1475   1488     1  0.0000000  0.6508444  3
   1480   1481   1482   1497     1  0.0000000  0.0000000  2
   1481   1480   1473   1498     1  0.0000000  0.6508444  3
   1482   1481   1480   1493     1  0.0000000  0.6508444  3
   1482   1481   1480   1494     1  0.0000000  0.6508444  3
   1483   1477   1476   1489     1  0.0000000  3.3472000  1
   1483   1477   1476   1489     1  0.0000000  0.0000000  2
   1483   1477   1476   1489     1  180.0000771  0.3347200  3
   1483   1477   1476   1490     1  0.0000000  3.3472000  1
   1483   1477   1476   1490     1  0.0000000  0.0000000  2
   1483   1477   1476   1490     1  180.0000771  0.3347200  3
   1483   1477   5599   5600     1  0.0000000  8.3680000  1
   1483   1477   5599   5600     1  180.0000771  10.4600000  2
   1484   1479   1478   1491     1  0.0000000  3.3472000  1
   1484   1479   1478   1491     1  0.0000000  0.0000000  2
   1484   1479   1478   1491     1  180.0000771  0.3347200  3
   1484   1479   1478   1492     1  0.0000000  3.3472000  1
   1484   1479   1478   1492     1  0.0000000  0.0000000  2
   1484   1479   1478   1492     1  180.0000771  0.3347200  3
   1484   1479   5673   5674     1  0.0000000  8.3680000  1
   1484   1479   5673   5674     1  180.0000771  10.4600000  2
   1485   1474   1473   1498     1  0.0000000  0.6508444  3
   1485   1474   1476   1489     1  0.0000000  0.6508444  3
   1485   1474   1476   1490     1  0.0000000  0.6508444  3
   1486   1474   1473   1498     1  0.0000000  0.6508444  3
   1486   1474   1476   1489     1  0.0000000  0.6508444  3
   1486   1474   1476   1490     1  0.0000000  0.6508444  3
   1487   1475   1473   1498     1  0.0000000  0.6508444  3
   1487   1475   1478   1491     1  0.0000000  0.6508444  3
   1487   1475   1478   1492     1  0.0000000  0.6508444  3
   1488   1475   1473   1498     1  0.0000000  0.6508444  3
   1488   1475   1478   1491     1  0.0000000  0.6508444  3
   1488   1475   1478   1492     1  0.0000000  0.6508444  3
   1489   1476   1477   5599     1  180.0000771  0.0000000  2
   1490   1476   1477   5599     1  180.0000771  0.0000000  2
   1491   1478   1479   5673     1  180.0000771  0.0000000  2
   1492   1478   1479   5673     1  180.0000771  0.0000000  2
   1493   1480   1473   1498     1  0.0000000  0.6508444  3
   1493   1480   1481   1495     1  0.0000000  0.6508444  3
   1493   1480   1481   1496     1  0.0000000  0.6508444  3
   1494   1480   1473   1498     1  0.0000000  0.6508444  3
   1494   1480   1481   1495     1  0.0000000  0.6508444  3
   1494   1480   1481   1496     1  0.0000000  0.6508444  3
   1495   1481   1482   1497     1  0.0000000  0.0000000  2
   1496   1481   1482   1497     1  0.0000000  0.0000000  2
   1499   1500   1502   1515     1  0.0000000  0.6508444  3
   1499   1500   1502   1516     1  0.0000000  0.6508444  3
   1499   1501   1504   1517     1  0.0000000  0.6508444  3
   1499   1501   1504   1518     1  0.0000000  0.6508444  3
   1499   1506   1507   1521     1  0.0000000  0.6508444  3
   1499   1506   1507   1522     1  0.0000000  0.6508444  3
   1500   1499   1501   1513     1  0.0000000  0.6508444  3
   1500   1499   1501   1514     1  0.0000000  0.6508444  3
   1500   1499   1506   1519     1  0.0000000  0.6508444  3
   1500   1499   1506   1520     1  0.0000000  0.6508444  3
   1501   1499   1500   1511     1  0.0000000  0.6508444  3
   1501   1499   1500   1512     1  0.0000000  0.6508444  3
   1501   1499   1506   1519     1  0.0000000  0.6508444  3
   1501   1499   1506   1520     1  0.0000000  0.6508444  3
   1502   1500   1499   1524     1  0.0000000  0.6508444  3
   1502   1503   5747   5748     1  180.0000771  10.4600000  2
   1503   1502   1500   1511     1  0.0000000  0.6508444  3
   1503   1502   1500   1512     1  0.0000000  0.6508444  3
   1503   5747   5749   5750     1  0.0000000  0.0000000  2
   1503   5747   5749   5752     1  0.0000000  0.0000000  2
   1504   1501   1499   1524     1  0.0000000  0.6508444  3
   1504   1505   5821   5822     1  180.0000771  10.4600000  2
   1505   1504   1501   1513     1  0.0000000  0.6508444  3
   1505   1504   1501   1514     1  0.0000000  0.6508444  3
   1505   5821   5823   5824     1  0.0000000  0.0000000  2
   1505   5821   5823   5826     1  0.0000000  0.0000000  2
   1506   1499   1500   1511     1  0.0000000  0.6508444  3
   1506   1499   1500   1512     1  0.0000000  0.6508444  3
   1506   1499   1501   1513     1  0.0000000  0.6508444  3
   1506   1499   1501   1514     1  0.0000000  0.6508444  3
   1506   1507   1508   1523     1  0.0000000  0.0000000  2
   1507   1506   1499   1524     1  0.0000000  0.6508444  3
   1508   1507   1506   1519     1  0.0000000  0.6508444  3
   1508   1507   1506   1520     1  0.0000000  0.6508444  3
   1509   1503   1502   1515     1  0.0000000  3.3472000  1
   1509   1503   1502   1515     1  0.0000000  0.0000000  2
   1509   1503   1502   1515     1  180.0000771  0.3347200  3
   1509   1503   1502   1516     1  0.0000000  3.3472000  1
   1509   1503   1502   1516     1  0.0000000  0.0000000  2
   1509   1503   1502   1516     1  180.0000771  0.3347200  3
   1509   1503   5747   5748     1  0.0000000  8.3680000  1
   1509   1503   5747   5748     1  180.0000771  10.4600000  2
   1510   1505   1504   1517     1  0.0000000  3.3472000  1
   1510   1505   1504   1517     1  0.0000000  0.0000000  2
   1510   1505   1504   1517     1  180.0000771  0.3347200  3
   1510   1505   1504   1518     1  0.0000000  3.3472000  1
   1510   1505   1504   1518     1  0.0000000  0.0000000  2
   1510   1505   1504   1518     1  180.0000771  0.3347200  3
   1510   1505   5821   5822     1  0.0000000  8.3680000  1
   1510   1505   5821   5822     1  180.0000771  10.4600000  2
   1511   1500   1499   1524     1  0.0000000  0.6508444  3
   1511   1500   1502   1515     1  0.0000000  0.6508444  3
   1511   1500   1502   1516     1  0.0000000  0.6508444  3
   1512   1500   1499   1524     1  0.0000000  0.6508444  3
   1512   1500   1502   1515     1  0.0000000  0.6508444  3
   1512   1500   1502   1516     1  0.0000000  0.6508444  3
   1513   1501   1499   1524     1  0.0000000  0.6508444  3
   1513   1501   1504   1517     1  0.0000000  0.6508444  3
   1513   1501   1504   1518     1  0.0000000  0.6508444  3
   1514   1501   1499   1524     1  0.0000000  0.6508444  3
   1514   1501   1504   1517     1  0.0000000  0.6508444  3
   1514   1501   1504   1518     1  0.0000000  0.6508444  3
   1515   1502   1503   5747     1  180.0000771  0.0000000  2
   1516   1502   1503   5747     1  180.0000771  0.0000000  2
   1517   1504   1505   5821     1  180.0000771  0.0000000  2
   1518   1504   1505   5821     1  180.0000771  0.0000000  2
   1519   1506   1499   1524     1  0.0000000  0.6508444  3
   1519   1506   1507   1521     1  0.0000000  0.6508444  3
   1519   1506   1507   1522     1  0.0000000  0.6508444  3
   1520   1506   1499   1524     1  0.0000000  0.6508444  3
   1520   1506   1507   1521     1  0.0000000  0.6508444  3
   1520   1506   1507   1522     1  0.0000000  0.6508444  3
   1521   1507   1508   1523     1  0.0000000  0.0000000  2
   1522   1507   1508   1523     1  0.0000000  0.0000000  2
   1525   1526   1528   1541     1  0.0000000  0.6508444  3
   1525   1526   1528   1542     1  0.0000000  0.6508444  3
   1525   1527   1530   1543     1  0.0000000  0.6508444  3
   1525   1527   1530   1544     1  0.0000000  0.6508444  3
   1525   1532   1533   1547     1  0.0000000  0.6508444  3
   1525   1532   1533   1548     1  0.0000000  0.6508444  3
   1526   1525   1527   1539     1  0.0000000  0.6508444  3
   1526   1525   1527   1540     1  0.0000000  0.6508444  3
   1526   1525   1532   1545     1  0.0000000  0.6508444  3
   1526   1525   1532   1546     1  0.0000000  0.6508444  3
   1527   1525   1526   1537     1  0.0000000  0.6508444  3
   1527   1525   1526   1538     1  0.0000000  0.6508444  3
   1527   1525   1532   1545     1  0.0000000  0.6508444  3
   1527   1525   1532   1546     1  0.0000000  0.6508444  3
   1528   1526   1525   1550     1  0.0000000  0.6508444  3
   1528   1529   5895   5896     1  180.0000771  10.4600000  2
   1529   1528   1526   1537     1  0.0000000  0.6508444  3
   1529   1528   1526   1538     1  0.0000000  0.6508444  3
   1529   5895   5897   5898     1  0.0000000  0.0000000  2
   1529   5895   5897   5900     1  0.0000000  0.0000000  2
   1530   1527   1525   1550     1  0.0000000  0.6508444  3
   1530   1531   5969   5970     1  180.0000771  10.4600000  2
   1531   1530   1527   1539     1  0.0000000  0.6508444  3
   1531   1530   1527   1540     1  0.0000000  0.6508444  3
   1531   5969   5971   5972     1  0.0000000  0.0000000  2
   1531   5969   5971   5974     1  0.0000000  0.0000000  2
   1532   1525   1526   1537     1  0.0000000  0.6508444  3
   1532   1525   1526   1538     1  0.0000000  0.6508444  3
   1532   1525   1527   1539     1  0.0000000  0.6508444  3
   1532   1525   1527   1540     1  0.0000000  0.6508444  3
   1532   1533   1534   1549     1  0.0000000  0.0000000  2
   1533   1532   1525   1550     1  0.0000000  0.6508444  3
   1534   1533   1532   1545     1  0.0000000  0.6508444  3
   1534   1533   1532   1546     1  0.0000000  0.6508444  3
   1535   1529   1528   1541     1  0.0000000  3.3472000  1
   1535   1529   1528   1541     1  0.0000000  0.0000000  2
   1535   1529   1528   1541     1  180.0000771  0.3347200  3
   1535   1529   1528   1542     1  0.0000000  3.3472000  1
   1535   1529   1528   1542     1  0.0000000  0.0000000  2
   1535   1529   1528   1542     1  180.0000771  0.3347200  3
   1535   1529   5895   5896     1  0.0000000  8.3680000  1
   1535   1529   5895   5896     1  180.0000771  10.4600000  2
   1536   1531   1530   1543     1  0.0000000  3.3472000  1
   1536   1531   1530   1543     1  0.0000000  0.0000000  2
   1536   1531   1530   1543     1  180.0000771  0.3347200  3
   1536   1531   1530   1544     1  0.0000000  3.3472000  1
   1536   1531   1530   1544     1  0.0000000  0.0000000  2
   1536   1531   1530   1544     1  180.0000771  0.3347200  3
   1536   1531   5969   5970     1  0.0000000  8.3680000  1
   1536   1531   5969   5970     1  180.0000771  10.4600000  2
   1537   1526   1525   1550     1  0.0000000  0.6508444  3
   1537   1526   1528   1541     1  0.0000000  0.6508444  3
   1537   1526   1528   1542     1  0.0000000  0.6508444  3
   1538   1526   1525   1550     1  0.0000000  0.6508444  3
   1538   1526   1528   1541     1  0.0000000  0.6508444  3
   1538   1526   1528   1542     1  0.0000000  0.6508444  3
   1539   1527   1525   1550     1  0.0000000  0.6508444  3
   1539   1527   1530   1543     1  0.0000000  0.6508444  3
   1539   1527   1530   1544     1  0.0000000  0.6508444  3
   1540   1527   1525   1550     1  0.0000000  0.6508444  3
   1540   1527   1530   1543     1  0.0000000  0.6508444  3
   1540   1527   1530   1544     1  0.0000000  0.6508444  3
   1541   1528   1529   5895     1  180.0000771  0.0000000  2
   1542   1528   1529   5895     1  180.0000771  0.0000000  2
   1543   1530   1531   5969     1  180.0000771  0.0000000  2
   1544   1530   1531   5969     1  180.0000771  0.0000000  2
   1545   1532   1525   1550     1  0.0000000  0.6508444  3
   1545   1532   1533   1547     1  0.0000000  0.6508444  3
   1545   1532   1533   1548     1  0.0000000  0.6508444  3
   1546   1532   1525   1550     1  0.0000000  0.6508444  3
   1546   1532   1533   1547     1  0.0000000  0.6508444  3
   1546   1532   1533   1548     1  0.0000000  0.6508444  3
   1547   1533   1534   1549     1  0.0000000  0.0000000  2
   1548   1533   1534   1549     1  0.0000000  0.0000000  2
   1551   1552   1554   1567     1  0.0000000  0.6508444  3
   1551   1552   1554   1568     1  0.0000000  0.6508444  3
   1551   1553   1556   1569     1  0.0000000  0.6508444  3
   1551   1553   1556   1570     1  0.0000000  0.6508444  3
   1551   1558   1559   1573     1  0.0000000  0.6508444  3
   1551   1558   1559   1574     1  0.0000000  0.6508444  3
   1552   1551   1553   1565     1  0.0000000  0.6508444  3
   1552   1551   1553   1566     1  0.0000000  0.6508444  3
   1552   1551   1558   1571     1  0.0000000  0.6508444  3
   1552   1551   1558   1572     1  0.0000000  0.6508444  3
   1553   1551   1552   1563     1  0.0000000  0.6508444  3
   1553   1551   1552   1564     1  0.0000000  0.6508444  3
   1553   1551   1558   1571     1  0.0000000  0.6508444  3
   1553   1551   1558   1572     1  0.0000000  0.6508444  3
   1554   1552   1551   1576     1  0.0000000  0.6508444  3
   1554   1555   6043   6044     1  180.0000771  10.4600000  2
   1555   1554   1552   1563     1  0.0000000  0.6508444  3
   1555   1554   1552   1564     1  0.0000000  0.6508444  3
   1555   6043   6045   6046     1  0.0000000  0.0000000  2
   1555   6043   6045   6048     1  0.0000000  0.0000000  2
   1556   1553   1551   1576     1  0.0000000  0.6508444  3
   1556   1557   6117   6118     1  180.0000771  10.4600000  2
   1557   1556   1553   1565     1  0.0000000  0.6508444  3
   1557   1556   1553   1566     1  0.0000000  0.6508444  3
   1557   6117   6119   6120     1  0.0000000  0.0000000  2
   1557   6117   6119   6122     1  0.0000000  0.0000000  2
   1558   1551   1552   1563     1  0.0000000  0.6508444  3
   1558   1551   1552   1564     1  0.0000000  0.6508444  3
   1558   1551   1553   1565     1  0.0000000  0.6508444  3
   1558   1551   1553   1566     1  0.0000000  0.6508444  3
   1558   1559   1560   1575     1  0.0000000  0.0000000  2
   1559   1558   1551   1576     1  0.0000000  0.6508444  3
   1560   1559   1558   1571     1  0.0000000  0.6508444  3
   1560   1559   1558   1572     1  0.0000000  0.6508444  3
   1561   1555   1554   1567     1  0.0000000  3.3472000  1
   1561   1555   1554   1567     1  0.0000000  0.0000000  2
   1561   1555   1554   1567     1  180.0000771  0.3347200  3
   1561   1555   1554   1568     1  0.0000000  3.3472000  1
   1561   1555   1554   1568     1  0.0000000  0.0000000  2
   1561   1555   1554   1568     1  180.0000771  0.3347200  3
   1561   1555   6043   6044     1  0.0000000  8.3680000  1
   1561   1555   6043   6044     1  180.0000771  10.4600000  2
   1562   1557   1556   1569     1  0.0000000  3.3472000  1
   1562   1557   1556   1569     1  0.0000000  0.0000000  2
   1562   1557   1556   1569     1  180.0000771  0.3347200  3
   1562   1557   1556   1570     1  0.0000000  3.3472000  1
   1562   1557   1556   1570     1  0.0000000  0.0000000  2
   1562   1557   1556   1570     1  180.0000771  0.3347200  3
   1562   1557   6117   6118     1  0.0000000  8.3680000  1
   1562   1557   6117   6118     1  180.0000771  10.4600000  2
   1563   1552   1551   1576     1  0.0000000  0.6508444  3
   1563   1552   1554   1567     1  0.0000000  0.6508444  3
   1563   1552   1554   1568     1  0.0000000  0.6508444  3
   1564   1552   1551   1576     1  0.0000000  0.6508444  3
   1564   1552   1554   1567     1  0.0000000  0.6508444  3
   1564   1552   1554   1568     1  0.0000000  0.6508444  3
   1565   1553   1551   1576     1  0.0000000  0.6508444  3
   1565   1553   1556   1569     1  0.0000000  0.6508444  3
   1565   1553   1556   1570     1  0.0000000  0.6508444  3
   1566   1553   1551   1576     1  0.0000000  0.6508444  3
   1566   1553   1556   1569     1  0.0000000  0.6508444  3
   1566   1553   1556   1570     1  0.0000000  0.6508444  3
   1567   1554   1555   6043     1  180.0000771  0.0000000  2
   1568   1554   1555   6043     1  180.0000771  0.0000000  2
   1569   1556   1557   6117     1  180.0000771  0.0000000  2
   1570   1556   1557   6117     1  180.0000771  0.0000000  2
   1571   1558   1551   1576     1  0.0000000  0.6508444  3
   1571   1558   1559   1573     1  0.0000000  0.6508444  3
   1571   1558   1559   1574     1  0.0000000  0.6508444  3
   1572   1558   1551   1576     1  0.0000000  0.6508444  3
   1572   1558   1559   1573     1  0.0000000  0.6508444  3
   1572   1558   1559   1574     1  0.0000000  0.6508444  3
   1573   1559   1560   1575     1  0.0000000  0.0000000  2
   1574   1559   1560   1575     1  0.0000000  0.0000000  2
   1577   1578   1580   1593     1  0.0000000  0.6508444  3
   1577   1578   1580   1594     1  0.0000000  0.6508444  3
   1577   1579   1582   1595     1  0.0000000  0.6508444  3
   1577   1579   1582   1596     1  0.0000000  0.6508444  3
   1577   1584   1585   1599     1  0.0000000  0.6508444  3
   1577   1584   1585   1600     1  0.0000000  0.6508444  3
   1578   1577   1579   1591     1  0.0000000  0.6508444  3
   1578   1577   1579   1592     1  0.0000000  0.6508444  3
   1578   1577   1584   1597     1  0.0000000  0.6508444  3
   1578   1577   1584   1598     1  0.0000000  0.6508444  3
   1579   1577   1578   1589     1  0.0000000  0.6508444  3
   1579   1577   1578   1590     1  0.0000000  0.6508444  3
   1579   1577   1584   1597     1  0.0000000  0.6508444  3
   1579   1577   1584   1598     1  0.0000000  0.6508444  3
   1580   1578   1577   1602     1  0.0000000  0.6508444  3
   1580   1581   6191   6192     1  180.0000771  10.4600000  2
   1581   1580   1578   1589     1  0.0000000  0.6508444  3
   1581   1580   1578   1590     1  0.0000000  0.6508444  3
   1581   6191   6193   6194     1  0.0000000  0.0000000  2
   1581   6191   6193   6196     1  0.0000000  0.0000000  2
   1582   1579   1577   1602     1  0.0000000  0.6508444  3
   1582   1583   6265   6266     1  180.0000771  10.4600000  2
   1583   1582   1579   1591     1  0.0000000  0.6508444  3
   1583   1582   1579   1592     1  0.0000000  0.6508444  3
   1583   6265   6267   6268     1  0.0000000  0.0000000  2
   1583   6265   6267   6270     1  0.0000000  0.0000000  2
   1584   1577   1578   1589     1  0.0000000  0.6508444  3
   1584   1577   1578   1590     1  0.0000000  0.6508444  3
   1584   1577   1579   1591     1  0.0000000  0.6508444  3
   1584   1577   1579   1592     1  0.0000000  0.6508444  3
   1584   1585   1586   1601     1  0.0000000  0.0000000  2
   1585   1584   1577   1602     1  0.0000000  0.6508444  3
   1586   1585   1584   1597     1  0.0000000  0.6508444  3
   1586   1585   1584   1598     1  0.0000000  0.6508444  3
   1587   1581   1580   1593     1  0.0000000  3.3472000  1
   1587   1581   1580   1593     1  0.0000000  0.0000000  2
   1587   1581   1580   1593     1  180.0000771  0.3347200  3
   1587   1581   1580   1594     1  0.0000000  3.3472000  1
   1587   1581   1580   1594     1  0.0000000  0.0000000  2
   1587   1581   1580   1594     1  180.0000771  0.3347200  3
   1587   1581   6191   6192     1  0.0000000  8.3680000  1
   1587   1581   6191   6192     1  180.0000771  10.4600000  2
   1588   1583   1582   1595     1  0.0000000  3.3472000  1
   1588   1583   1582   1595     1  0.0000000  0.0000000  2
   1588   1583   1582   1595     1  180.0000771  0.3347200  3
   1588   1583   1582   1596     1  0.0000000  3.3472000  1
   1588   1583   1582   1596     1  0.0000000  0.0000000  2
   1588   1583   1582   1596     1  180.0000771  0.3347200  3
   1588   1583   6265   6266     1  0.0000000  8.3680000  1
   1588   1583   6265   6266     1  180.0000771  10.4600000  2
   1589   1578   1577   1602     1  0.0000000  0.6508444  3
   1589   1578   1580   1593     1  0.0000000  0.6508444  3
   1589   1578   1580   1594     1  0.0000000  0.6508444  3
   1590   1578   1577   1602     1  0.0000000  0.6508444  3
   1590   1578   1580   1593     1  0.0000000  0.6508444  3
   1590   1578   1580   1594     1  0.0000000  0.6508444  3
   1591   1579   1577   1602     1  0.0000000  0.6508444  3
   1591   1579   1582   1595     1  0.0000000  0.6508444  3
   1591   1579   1582   1596     1  0.0000000  0.6508444  3
   1592   1579   1577   1602     1  0.0000000  0.6508444  3
   1592   1579   1582   1595     1  0.0000000  0.6508444  3
   1592   1579   1582   1596     1  0.0000000  0.6508444  3
   1593   1580   1581   6191     1  180.0000771  0.0000000  2
   1594   1580   1581   6191     1  180.0000771  0.0000000  2
   1595   1582   1583   6265     1  180.0000771  0.0000000  2
   1596   1582   1583   6265     1  180.0000771  0.0000000  2
   1597   1584   1577   1602     1  0.0000000  0.6508444  3
   1597   1584   1585   1599     1  0.0000000  0.6508444  3
   1597   1584   1585   1600     1  0.0000000  0.6508444  3
   1598   1584   1577   1602     1  0.0000000  0.6508444  3
   1598   1584   1585   1599     1  0.0000000  0.6508444  3
   1598   1584   1585   1600     1  0.0000000  0.6508444  3
   1599   1585   1586   1601     1  0.0000000  0.0000000  2
   1600   1585   1586   1601     1  0.0000000  0.0000000  2
   1603   1605   1607   1609     1  0.0000000  0.6508444  3
   1603   1605   1607   1610     1  0.0000000  0.6508444  3
   1604   1603   1605   1607     1  0.0000000  0.0000000  2
   1604   1603   1605   1606     1  0.0000000  0.0000000  2
   1604   1603   1605   1608     1  0.0000000  0.0000000  2
   1605   1607   1611   1676     1  0.0000000  0.6508444  3
   1606   1605   1607   1611     1  0.0000000  0.6508444  3
   1606   1605   1607   1609     1  0.0000000  0.6508444  3
   1606   1605   1607   1610     1  0.0000000  0.6508444  3
   1607   1611   1612   1621     1  0.0000000  0.6508444  3
   1607   1611   1612   1622     1  0.0000000  0.6508444  3
   1607   1611   1613   1614     1  0.0000000  0.6508444  3
   1607   1611   1613   1616     1  0.0000000  0.6508444  3
   1608   1605   1607   1611     1  0.0000000  0.6508444  3
   1608   1605   1607   1609     1  0.0000000  0.6508444  3
   1608   1605   1607   1610     1  0.0000000  0.6508444  3
   1609   1607   1611   1612     1  0.0000000  0.6508444  3
   1609   1607   1611   1613     1  0.0000000  0.6508444  3
   1609   1607   1611   1676     1  0.0000000  0.6508444  3
   1610   1607   1611   1612     1  0.0000000  0.6508444  3
   1610   1607   1611   1613     1  0.0000000  0.6508444  3
   1610   1607   1611   1676     1  0.0000000  0.6508444  3
   1611   1612   1623   1624     1  0.0000000  0.6508444  3
   1611   1612   1623   1625     1  0.0000000  0.6508444  3
   1611   1613   1615   1617     1  0.0000000  0.6508444  3
   1611   1613   1615   1618     1  0.0000000  0.6508444  3
   1612   1611   1613   1614     1  0.0000000  0.6508444  3
   1612   1611   1613   1616     1  0.0000000  0.6508444  3
   1613   1611   1612   1621     1  0.0000000  0.6508444  3
   1613   1611   1612   1622     1  0.0000000  0.6508444  3
   1614   1613   1611   1676     1  0.0000000  0.6508444  3
   1614   1613   1615   1619     1  0.0000000  0.6508444  3
   1614   1613   1615   1617     1  0.0000000  0.6508444  3
   1614   1613   1615   1618     1  0.0000000  0.6508444  3
   1615   1613   1611   1676     1  0.0000000  0.6508444  3
   1615   1619   1651   1641     1  180.0000771  6.0668000  2
   1615   1619   1651   1641     1  180.0000771  1.4644000  4
   1616   1613   1611   1676     1  0.0000000  0.6508444  3
   1616   1613   1615   1619     1  0.0000000  0.6508444  3
   1616   1613   1615   1617     1  0.0000000  0.6508444  3
   1616   1613   1615   1618     1  0.0000000  0.6508444  3
   1617   1615   1619   1620     1  0.0000000  3.3472000  1
   1617   1615   1619   1620     1  0.0000000  0.0000000  2
   1617   1615   1619   1620     1  180.0000771  0.3347200  3
   1617   1615   1619   1651     1  180.0000771  0.0000000  2
   1618   1615   1619   1620     1  0.0000000  3.3472000  1
   1618   1615   1619   1620     1  0.0000000  0.0000000  2
   1618   1615   1619   1620     1  180.0000771  0.3347200  3
   1618   1615   1619   1651     1  180.0000771  0.0000000  2
   1619   1651   1632   1634     1  0.0000000  1.2552000  3
   1620   1619   1651   1641     1  180.0000771  6.0668000  2
   1620   1619   1651   1641     1  180.0000771  1.4644000  4
   1621   1612   1611   1676     1  0.0000000  0.6508444  3
   1621   1612   1623   1626     1  0.0000000  0.6508444  3
   1621   1612   1623   1624     1  0.0000000  0.6508444  3
   1621   1612   1623   1625     1  0.0000000  0.6508444  3
   1622   1612   1611   1676     1  0.0000000  0.6508444  3
   1622   1612   1623   1626     1  0.0000000  0.6508444  3
   1622   1612   1623   1624     1  0.0000000  0.6508444  3
   1622   1612   1623   1625     1  0.0000000  0.6508444  3
   1623   1612   1611   1676     1  0.0000000  0.6508444  3
   1623   1626   1675   1665     1  180.0000771  6.0668000  2
   1623   1626   1675   1665     1  180.0000771  1.4644000  4
   1624   1623   1626   1627     1  0.0000000  3.3472000  1
   1624   1623   1626   1627     1  0.0000000  0.0000000  2
   1624   1623   1626   1627     1  180.0000771  0.3347200  3
   1624   1623   1626   1675     1  180.0000771  0.0000000  2
   1625   1623   1626   1627     1  0.0000000  3.3472000  1
   1625   1623   1626   1627     1  0.0000000  0.0000000  2
   1625   1623   1626   1627     1  180.0000771  0.3347200  3
   1625   1623   1626   1675     1  180.0000771  0.0000000  2
   1626   1675   1656   1658     1  0.0000000  1.2552000  3
   1627   1626   1675   1665     1  180.0000771  6.0668000  2
   1627   1626   1675   1665     1  180.0000771  1.4644000  4
   1628   1629   1631   1635     1  0.0000000  0.6508444  3
   1628   1629   1649   1650     1  0.0000000  1.0460000  1
   1628   1629   1649   1650     1  0.0000000  0.6694400  3
   1628   1639   1644   1645     1  0.0000000  1.0460000  1
   1628   1639   1644   1645     1  0.0000000  0.6694400  3
   1628   1646   1633   1636     1  0.0000000  1.6038667  3
   1629   1628   1639   1642     1  0.0000000  0.6508444  3
   1629   1628   1639   1643     1  0.0000000  0.6508444  3
   1629   1631   1632   1634     1  0.0000000  0.6508444  3
   1629   1631   1638   1640     1  0.0000000  1.0460000  1
   1629   1631   1638   1640     1  0.0000000  0.6694400  3
   1630   1628   1629   1631     1  0.0000000  0.6508444  3
   1630   1628   1629   1649     1  0.0000000  1.0460000  1
   1630   1628   1629   1649     1  0.0000000  0.0000000  3
   1630   1628   1629   1648     1  0.0000000  0.6508444  3
   1630   1628   1639   1644     1  0.0000000  1.0460000  1
   1630   1628   1639   1644     1  0.0000000  0.0000000  3
   1630   1628   1639   1642     1  0.0000000  0.6508444  3
   1630   1628   1639   1643     1  0.0000000  0.6508444  3
   1630   1628   1646   1633     1  0.0000000  1.6038667  3
   1631   1629   1649   1650     1  0.0000000  1.0460000  1
   1631   1629   1649   1650     1  0.0000000  0.6694400  3
   1631   1632   1633   1636     1  0.0000000  0.6508444  3
   1631   1632   1651   1641     1  0.0000000  1.2552000  3
   1632   1631   1629   1648     1  0.0000000  0.6508444  3
   1632   1631   1638   1640     1  0.0000000  1.0460000  1
   1632   1631   1638   1640     1  0.0000000  0.6694400  3
   1632   1633   1637   1647     1  0.0000000  1.0460000  1
   1632   1633   1637   1647     1  0.0000000  0.6694400  3
   1633   1632   1631   1635     1  0.0000000  0.6508444  3
   1633   1632   1651   1641     1  0.0000000  1.2552000  3
   1634   1632   1631   1638     1  0.0000000  1.0460000  1
   1634   1632   1631   1638     1  0.0000000  0.0000000  3
   1634   1632   1631   1635     1  0.0000000  0.6508444  3
   1634   1632   1633   1637     1  0.0000000  1.0460000  1
   1634   1632   1633   1637     1  0.0000000  0.0000000  3
   1634   1632   1633   1646     1  0.0000000  1.0460000  1
   1634   1632   1633   1646     1  0.0000000  0.0000000  3
   1634   1632   1633   1636     1  0.0000000  0.6508444  3
   1634   1632   1651   1641     1  0.0000000  1.2552000  3
   1635   1631   1629   1649     1  0.0000000  1.0460000  1
   1635   1631   1629   1649     1  0.0000000  0.0000000  3
   1635   1631   1629   1648     1  0.0000000  0.6508444  3
   1635   1631   1632   1651     1  0.0000000  0.6508444  3
   1635   1631   1638   1640     1  0.0000000  0.6973333  3
   1636   1633   1632   1651     1  0.0000000  0.6508444  3
   1636   1633   1637   1647     1  0.0000000  0.6973333  3
   1638   1631   1629   1648     1  0.0000000  1.0460000  1
   1638   1631   1629   1648     1  0.0000000  0.0000000  3
   1639   1628   1629   1648     1  0.0000000  0.6508444  3
   1642   1639   1628   1646     1  0.0000000  1.0460000  1
   1642   1639   1628   1646     1  0.0000000  0.0000000  3
   1642   1639   1644   1645     1  0.0000000  0.6973333  3
   1643   1639   1628   1646     1  0.0000000  1.0460000  1
   1643   1639   1628   1646     1  0.0000000  0.0000000  3
   1643   1639   1644   1645     1  0.0000000  0.6973333  3
   1646   1628   1629   1648     1  0.0000000  1.0460000  1
   1646   1628   1629   1648     1  0.0000000  0.0000000  3
   1646   1633   1637   1647     1  0.0000000  0.6973333  3
   1648   1629   1649   1650     1  0.0000000  0.6973333  3
   1652   1653   1655   1659     1  0.0000000  0.6508444  3
   1652   1653   1673   1674     1  0.0000000  1.0460000  1
   1652   1653   1673   1674     1  0.0000000  0.6694400  3
   1652   1663   1668   1669     1  0.0000000  1.0460000  1
   1652   1663   1668   1669     1  0.0000000  0.6694400  3
   1652   1670   1657   1660     1  0.0000000  1.6038667  3
   1653   1652   1663   1666     1  0.0000000  0.6508444  3
   1653   1652   1663   1667     1  0.0000000  0.6508444  3
   1653   1655   1656   1658     1  0.0000000  0.6508444  3
   1653   1655   1662   1664     1  0.0000000  1.0460000  1
   1653   1655   1662   1664     1  0.0000000  0.6694400  3
   1654   1652   1653   1655     1  0.0000000  0.6508444  3
   1654   1652   1653   1673     1  0.0000000  1.0460000  1
   1654   1652   1653   1673     1  0.0000000  0.0000000  3
   1654   1652   1653   1672     1  0.0000000  0.6508444  3
   1654   1652   1663   1668     1  0.0000000  1.0460000  1
   1654   1652   1663   1668     1  0.0000000  0.0000000  3
   1654   1652   1663   1666     1  0.0000000  0.6508444  3
   1654   1652   1663   1667     1  0.0000000  0.6508444  3
   1654   1652   1670   1657     1  0.0000000  1.6038667  3
   1655   1653   1673   1674     1  0.0000000  1.0460000  1
   1655   1653   1673   1674     1  0.0000000  0.6694400  3
   1655   1656   1657   1660     1  0.0000000  0.6508444  3
   1655   1656   1675   1665     1  0.0000000  1.2552000  3
   1656   1655   1653   1672     1  0.0000000  0.6508444  3
   1656   1655   1662   1664     1  0.0000000  1.0460000  1
   1656   1655   1662   1664     1  0.0000000  0.6694400  3
   1656   1657   1661   1671     1  0.0000000  1.0460000  1
   1656   1657   1661   1671     1  0.0000000  0.6694400  3
   1657   1656   1655   1659     1  0.0000000  0.6508444  3
   1657   1656   1675   1665     1  0.0000000  1.2552000  3
   1658   1656   1655   1662     1  0.0000000  1.0460000  1
   1658   1656   1655   1662     1  0.0000000  0.0000000  3
   1658   1656   1655   1659     1  0.0000000  0.6508444  3
   1658   1656   1657   1661     1  0.0000000  1.0460000  1
   1658   1656   1657   1661     1  0.0000000  0.0000000  3
   1658   1656   1657   1670     1  0.0000000  1.0460000  1
   1658   1656   1657   1670     1  0.0000000  0.0000000  3
   1658   1656   1657   1660     1  0.0000000  0.6508444  3
   1658   1656   1675   1665     1  0.0000000  1.2552000  3
   1659   1655   1653   1673     1  0.0000000  1.0460000  1
   1659   1655   1653   1673     1  0.0000000  0.0000000  3
   1659   1655   1653   1672     1  0.0000000  0.6508444  3
   1659   1655   1656   1675     1  0.0000000  0.6508444  3
   1659   1655   1662   1664     1  0.0000000  0.6973333  3
   1660   1657   1656   1675     1  0.0000000  0.6508444  3
   1660   1657   1661   1671     1  0.0000000  0.6973333  3
   1662   1655   1653   1672     1  0.0000000  1.0460000  1
   1662   1655   1653   1672     1  0.0000000  0.0000000  3
   1663   1652   1653   1672     1  0.0000000  0.6508444  3
   1666   1663   1652   1670     1  0.0000000  1.0460000  1
   1666   1663   1652   1670     1  0.0000000  0.0000000  3
   1666   1663   1668   1669     1  0.0000000  0.6973333  3
   1667   1663   1652   1670     1  0.0000000  1.0460000  1
   1667   1663   1652   1670     1  0.0000000  0.0000000  3
   1667   1663   1668   1669     1  0.0000000  0.6973333  3
   1670   1652   1653   1672     1  0.0000000  1.0460000  1
   1670   1652   1653   1672     1  0.0000000  0.0000000  3
   1670   1657   1661   1671     1  0.0000000  0.6973333  3
   1672   1653   1673   1674     1  0.0000000  0.6973333  3
   1677   1679   1681   1683     1  0.0000000  0.6508444  3
   1677   1679   1681   1684     1  0.0000000  0.6508444  3
   1678   1677   1679   1681     1  0.0000000  0.0000000  2
   1678   1677   1679   1680     1  0.0000000  0.0000000  2
   1678   1677   1679   1682     1  0.0000000  0.0000000  2
   1679   1681   1685   1750     1  0.0000000  0.6508444  3
   1680   1679   1681   1685     1  0.0000000  0.6508444  3
   1680   1679   1681   1683     1  0.0000000  0.6508444  3
   1680   1679   1681   1684     1  0.0000000  0.6508444  3
   1681   1685   1686   1695     1  0.0000000  0.6508444  3
   1681   1685   1686   1696     1  0.0000000  0.6508444  3
   1681   1685   1687   1688     1  0.0000000  0.6508444  3
   1681   1685   1687   1690     1  0.0000000  0.6508444  3
   1682   1679   1681   1685     1  0.0000000  0.6508444  3
   1682   1679   1681   1683     1  0.0000000  0.6508444  3
   1682   1679   1681   1684     1  0.0000000  0.6508444  3
   1683   1681   1685   1686     1  0.0000000  0.6508444  3
   1683   1681   1685   1687     1  0.0000000  0.6508444  3
   1683   1681   1685   1750     1  0.0000000  0.6508444  3
   1684   1681   1685   1686     1  0.0000000  0.6508444  3
   1684   1681   1685   1687     1  0.0000000  0.6508444  3
   1684   1681   1685   1750     1  0.0000000  0.6508444  3
   1685   1686   1697   1698     1  0.0000000  0.6508444  3
   1685   1686   1697   1699     1  0.0000000  0.6508444  3
   1685   1687   1689   1691     1  0.0000000  0.6508444  3
   1685   1687   1689   1692     1  0.0000000  0.6508444  3
   1686   1685   1687   1688     1  0.0000000  0.6508444  3
   1686   1685   1687   1690     1  0.0000000  0.6508444  3
   1687   1685   1686   1695     1  0.0000000  0.6508444  3
   1687   1685   1686   1696     1  0.0000000  0.6508444  3
   1688   1687   1689   1693     1  0.0000000  0.6508444  3
   1688   1687   1689   1691     1  0.0000000  0.6508444  3
   1688   1687   1689   1692     1  0.0000000  0.6508444  3
   1688   1687   1685   1750     1  0.0000000  0.6508444  3
   1689   1693   1725   1715     1  180.0000771  6.0668000  2
   1689   1693   1725   1715     1  180.0000771  1.4644000  4
   1689   1687   1685   1750     1  0.0000000  0.6508444  3
   1690   1687   1689   1693     1  0.0000000  0.6508444  3
   1690   1687   1689   1691     1  0.0000000  0.6508444  3
   1690   1687   1689   1692     1  0.0000000  0.6508444  3
   1690   1687   1685   1750     1  0.0000000  0.6508444  3
   1691   1689   1693   1694     1  0.0000000  3.3472000  1
   1691   1689   1693   1694     1  0.0000000  0.0000000  2
   1691   1689   1693   1694     1  180.0000771  0.3347200  3
   1691   1689   1693   1725     1  180.0000771  0.0000000  2
   1692   1689   1693   1694     1  0.0000000  3.3472000  1
   1692   1689   1693   1694     1  0.0000000  0.0000000  2
   1692   1689   1693   1694     1  180.0000771  0.3347200  3
   1692   1689   1693   1725     1  180.0000771  0.0000000  2
   1693   1725   1706   1708     1  0.0000000  1.2552000  3
   1694   1693   1725   1715     1  180.0000771  6.0668000  2
   1694   1693   1725   1715     1  180.0000771  1.4644000  4
   1695   1686   1697   1700     1  0.0000000  0.6508444  3
   1695   1686   1697   1698     1  0.0000000  0.6508444  3
   1695   1686   1697   1699     1  0.0000000  0.6508444  3
   1695   1686   1685   1750     1  0.0000000  0.6508444  3
   1696   1686   1697   1700     1  0.0000000  0.6508444  3
   1696   1686   1697   1698     1  0.0000000  0.6508444  3
   1696   1686   1697   1699     1  0.0000000  0.6508444  3
   1696   1686   1685   1750     1  0.0000000  0.6508444  3
   1697   1700   1749   1739     1  180.0000771  6.0668000  2
   1697   1700   1749   1739     1  180.0000771  1.4644000  4
   1697   1686   1685   1750     1  0.0000000  0.6508444  3
   1698   1697   1700   1701     1  0.0000000  3.3472000  1
   1698   1697   1700   1701     1  0.0000000  0.0000000  2
   1698   1697   1700   1701     1  180.0000771  0.3347200  3
   1698   1697   1700   1749     1  180.0000771  0.0000000  2
   1699   1697   1700   1701     1  0.0000000  3.3472000  1
   1699   1697   1700   1701     1  0.0000000  0.0000000  2
   1699   1697   1700   1701     1  180.0000771  0.3347200  3
   1699   1697   1700   1749     1  180.0000771  0.0000000  2
   1700   1749   1730   1732     1  0.0000000  1.2552000  3
   1701   1700   1749   1739     1  180.0000771  6.0668000  2
   1701   1700   1749   1739     1  180.0000771  1.4644000  4
   1702   1703   1705   1709     1  0.0000000  0.6508444  3
   1702   1703   1723   1724     1  0.0000000  1.0460000  1
   1702   1703   1723   1724     1  0.0000000  0.6694400  3
   1702   1713   1718   1719     1  0.0000000  1.0460000  1
   1702   1713   1718   1719     1  0.0000000  0.6694400  3
   1702   1720   1707   1710     1  0.0000000  1.6038667  3
   1703   1705   1706   1708     1  0.0000000  0.6508444  3
   1703   1705   1712   1714     1  0.0000000  1.0460000  1
   1703   1705   1712   1714     1  0.0000000  0.6694400  3
   1703   1702   1713   1716     1  0.0000000  0.6508444  3
   1703   1702   1713   1717     1  0.0000000  0.6508444  3
   1704   1702   1703   1705     1  0.0000000  0.6508444  3
   1704   1702   1703   1723     1  0.0000000  1.0460000  1
   1704   1702   1703   1723     1  0.0000000  0.0000000  3
   1704   1702   1703   1722     1  0.0000000  0.6508444  3
   1704   1702   1713   1718     1  0.0000000  1.0460000  1
   1704   1702   1713   1718     1  0.0000000  0.0000000  3
   1704   1702   1713   1716     1  0.0000000  0.6508444  3
   1704   1702   1713   1717     1  0.0000000  0.6508444  3
   1704   1702   1720   1707     1  0.0000000  1.6038667  3
   1705   1706   1707   1710     1  0.0000000  0.6508444  3
   1705   1706   1725   1715     1  0.0000000  1.2552000  3
   1705   1703   1723   1724     1  0.0000000  1.0460000  1
   1705   1703   1723   1724     1  0.0000000  0.6694400  3
   1706   1707   1711   1721     1  0.0000000  1.0460000  1
   1706   1707   1711   1721     1  0.0000000  0.6694400  3
   1706   1705   1712   1714     1  0.0000000  1.0460000  1
   1706   1705   1712   1714     1  0.0000000  0.6694400  3
   1706   1705   1703   1722     1  0.0000000  0.6508444  3
   1707   1706   1725   1715     1  0.0000000  1.2552000  3
   1707   1706   1705   1709     1  0.0000000  0.6508444  3
   1708   1706   1707   1711     1  0.0000000  1.0460000  1
   1708   1706   1707   1711     1  0.0000000  0.0000000  3
   1708   1706   1707   1720     1  0.0000000  1.0460000  1
   1708   1706   1707   1720     1  0.0000000  0.0000000  3
   1708   1706   1707   1710     1  0.0000000  0.6508444  3
   1708   1706   1725   1715     1  0.0000000  1.2552000  3
   1708   1706   1705   1712     1  0.0000000  1.0460000  1
   1708   1706   1705   1712     1  0.0000000  0.0000000  3
   1708   1706   1705   1709     1  0.0000000  0.6508444  3
   1709   1705   1706   1725     1  0.0000000  0.6508444  3
   1709   1705   1712   1714     1  0.0000000  0.6973333  3
   1709   1705   1703   1723     1  0.0000000  1.0460000  1
   1709   1705   1703   1723     1  0.0000000  0.0000000  3
   1709   1705   1703   1722     1  0.0000000  0.6508444  3
   1710   1707   1711   1721     1  0.0000000  0.6973333  3
   1710   1707   1706   1725     1  0.0000000  0.6508444  3
   1712   1705   1703   1722     1  0.0000000  1.0460000  1
   1712   1705   1703   1722     1  0.0000000  0.0000000  3
   1713   1702   1703   1722     1  0.0000000  0.6508444  3
   1716   1713   1718   1719     1  0.0000000  0.6973333  3
   1716   1713   1702   1720     1  0.0000000  1.0460000  1
   1716   1713   1702   1720     1  0.0000000  0.0000000  3
   1717   1713   1718   1719     1  0.0000000  0.6973333  3
   1717   1713   1702   1720     1  0.0000000  1.0460000  1
   1717   1713   1702   1720     1  0.0000000  0.0000000  3
   1720   1707   1711   1721     1  0.0000000  0.6973333  3
   1720   1702   1703   1722     1  0.0000000  1.0460000  1
   1720   1702   1703   1722     1  0.0000000  0.0000000  3
   1722   1703   1723   1724     1  0.0000000  0.6973333  3
   1726   1727   1729   1733     1  0.0000000  0.6508444  3
   1726   1727   1747   1748     1  0.0000000  1.0460000  1
   1726   1727   1747   1748     1  0.0000000  0.6694400  3
   1726   1737   1742   1743     1  0.0000000  1.0460000  1
   1726   1737   1742   1743     1  0.0000000  0.6694400  3
   1726   1744   1731   1734     1  0.0000000  1.6038667  3
   1727   1729   1730   1732     1  0.0000000  0.6508444  3
   1727   1729   1736   1738     1  0.0000000  1.0460000  1
   1727   1729   1736   1738     1  0.0000000  0.6694400  3
   1727   1726   1737   1740     1  0.0000000  0.6508444  3
   1727   1726   1737   1741     1  0.0000000  0.6508444  3
   1728   1726   1727   1729     1  0.0000000  0.6508444  3
   1728   1726   1727   1747     1  0.0000000  1.0460000  1
   1728   1726   1727   1747     1  0.0000000  0.0000000  3
   1728   1726   1727   1746     1  0.0000000  0.6508444  3
   1728   1726   1737   1742     1  0.0000000  1.0460000  1
   1728   1726   1737   1742     1  0.0000000  0.0000000  3
   1728   1726   1737   1740     1  0.0000000  0.6508444  3
   1728   1726   1737   1741     1  0.0000000  0.6508444  3
   1728   1726   1744   1731     1  0.0000000  1.6038667  3
   1729   1730   1731   1734     1  0.0000000  0.6508444  3
   1729   1730   1749   1739     1  0.0000000  1.2552000  3
   1729   1727   1747   1748     1  0.0000000  1.0460000  1
   1729   1727   1747   1748     1  0.0000000  0.6694400  3
   1730   1731   1735   1745     1  0.0000000  1.0460000  1
   1730   1731   1735   1745     1  0.0000000  0.6694400  3
   1730   1729   1736   1738     1  0.0000000  1.0460000  1
   1730   1729   1736   1738     1  0.0000000  0.6694400  3
   1730   1729   1727   1746     1  0.0000000  0.6508444  3
   1731   1730   1749   1739     1  0.0000000  1.2552000  3
   1731   1730   1729   1733     1  0.0000000  0.6508444  3
   1732   1730   1731   1735     1  0.0000000  1.0460000  1
   1732   1730   1731   1735     1  0.0000000  0.0000000  3
   1732   1730   1731   1744     1  0.0000000  1.0460000  1
   1732   1730   1731   1744     1  0.0000000  0.0000000  3
   1732   1730   1731   1734     1  0.0000000  0.6508444  3
   1732   1730   1749   1739     1  0.0000000  1.2552000  3
   1732   1730   1729   1736     1  0.0000000  1.0460000  1
   1732   1730   1729   1736     1  0.0000000  0.0000000  3
   1732   1730   1729   1733     1  0.0000000  0.6508444  3
   1733   1729   1730   1749     1  0.0000000  0.6508444  3
   1733   1729   1736   1738     1  0.0000000  0.6973333  3
   1733   1729   1727   1747     1  0.0000000  1.0460000  1
   1733   1729   1727   1747     1  0.0000000  0.0000000  3
   1733   1729   1727   1746     1  0.0000000  0.6508444  3
   1734   1731   1735   1745     1  0.0000000  0.6973333  3
   1734   1731   1730   1749     1  0.0000000  0.6508444  3
   1736   1729   1727   1746     1  0.0000000  1.0460000  1
   1736   1729   1727   1746     1  0.0000000  0.0000000  3
   1737   1726   1727   1746     1  0.0000000  0.6508444  3
   1740   1737   1742   1743     1  0.0000000  0.6973333  3
   1740   1737   1726   1744     1  0.0000000  1.0460000  1
   1740   1737   1726   1744     1  0.0000000  0.0000000  3
   1741   1737   1742   1743     1  0.0000000  0.6973333  3
   1741   1737   1726   1744     1  0.0000000  1.0460000  1
   1741   1737   1726   1744     1  0.0000000  0.0000000  3
   1744   1731   1735   1745     1  0.0000000  0.6973333  3
   1744   1726   1727   1746     1  0.0000000  1.0460000  1
   1744   1726   1727   1746     1  0.0000000  0.0000000  3
   1746   1727   1747   1748     1  0.0000000  0.6973333  3
   1751   1753   1755   1757     1  0.0000000  0.6508444  3
   1751   1753   1755   1758     1  0.0000000  0.6508444  3
   1752   1751   1753   1755     1  0.0000000  0.0000000  2
   1752   1751   1753   1754     1  0.0000000  0.0000000  2
   1752   1751   1753   1756     1  0.0000000  0.0000000  2
   1753   1755   1759   1824     1  0.0000000  0.6508444  3
   1754   1753   1755   1759     1  0.0000000  0.6508444  3
   1754   1753   1755   1757     1  0.0000000  0.6508444  3
   1754   1753   1755   1758     1  0.0000000  0.6508444  3
   1755   1759   1760   1769     1  0.0000000  0.6508444  3
   1755   1759   1760   1770     1  0.0000000  0.6508444  3
   1755   1759   1761   1762     1  0.0000000  0.6508444  3
   1755   1759   1761   1764     1  0.0000000  0.6508444  3
   1756   1753   1755   1759     1  0.0000000  0.6508444  3
   1756   1753   1755   1757     1  0.0000000  0.6508444  3
   1756   1753   1755   1758     1  0.0000000  0.6508444  3
   1757   1755   1759   1760     1  0.0000000  0.6508444  3
   1757   1755   1759   1761     1  0.0000000  0.6508444  3
   1757   1755   1759   1824     1  0.0000000  0.6508444  3
   1758   1755   1759   1760     1  0.0000000  0.6508444  3
   1758   1755   1759   1761     1  0.0000000  0.6508444  3
   1758   1755   1759   1824     1  0.0000000  0.6508444  3
   1759   1760   1771   1772     1  0.0000000  0.6508444  3
   1759   1760   1771   1773     1  0.0000000  0.6508444  3
   1759   1761   1763   1765     1  0.0000000  0.6508444  3
   1759   1761   1763   1766     1  0.0000000  0.6508444  3
   1760   1759   1761   1762     1  0.0000000  0.6508444  3
   1760   1759   1761   1764     1  0.0000000  0.6508444  3
   1761   1759   1760   1769     1  0.0000000  0.6508444  3
   1761   1759   1760   1770     1  0.0000000  0.6508444  3
   1762   1761   1759   1824     1  0.0000000  0.6508444  3
   1762   1761   1763   1767     1  0.0000000  0.6508444  3
   1762   1761   1763   1765     1  0.0000000  0.6508444  3
   1762   1761   1763   1766     1  0.0000000  0.6508444  3
   1763   1761   1759   1824     1  0.0000000  0.6508444  3
   1763   1767   1799   1789     1  180.0000771  6.0668000  2
   1763   1767   1799   1789     1  180.0000771  1.4644000  4
   1764   1761   1759   1824     1  0.0000000  0.6508444  3
   1764   1761   1763   1767     1  0.0000000  0.6508444  3
   1764   1761   1763   1765     1  0.0000000  0.6508444  3
   1764   1761   1763   1766     1  0.0000000  0.6508444  3
   1765   1763   1767   1768     1  0.0000000  3.3472000  1
   1765   1763   1767   1768     1  0.0000000  0.0000000  2
   1765   1763   1767   1768     1  180.0000771  0.3347200  3
   1765   1763   1767   1799     1  180.0000771  0.0000000  2
   1766   1763   1767   1768     1  0.0000000  3.3472000  1
   1766   1763   1767   1768     1  0.0000000  0.0000000  2
   1766   1763   1767   1768     1  180.0000771  0.3347200  3
   1766   1763   1767   1799     1  180.0000771  0.0000000  2
   1767   1799   1780   1782     1  0.0000000  1.2552000  3
   1768   1767   1799   1789     1  180.0000771  6.0668000  2
   1768   1767   1799   1789     1  180.0000771  1.4644000  4
   1769   1760   1759   1824     1  0.0000000  0.6508444  3
   1769   1760   1771   1774     1  0.0000000  0.6508444  3
   1769   1760   1771   1772     1  0.0000000  0.6508444  3
   1769   1760   1771   1773     1  0.0000000  0.6508444  3
   1770   1760   1759   1824     1  0.0000000  0.6508444  3
   1770   1760   1771   1774     1  0.0000000  0.6508444  3
   1770   1760   1771   1772     1  0.0000000  0.6508444  3
   1770   1760   1771   1773     1  0.0000000  0.6508444  3
   1771   1760   1759   1824     1  0.0000000  0.6508444  3
   1771   1774   1823   1813     1  180.0000771  6.0668000  2
   1771   1774   1823   1813     1  180.0000771  1.4644000  4
   1772   1771   1774   1775     1  0.0000000  3.3472000  1
   1772   1771   1774   1775     1  0.0000000  0.0000000  2
   1772   1771   1774   1775     1  180.0000771  0.3347200  3
   1772   1771   1774   1823     1  180.0000771  0.0000000  2
   1773   1771   1774   1775     1  0.0000000  3.3472000  1
   1773   1771   1774   1775     1  0.0000000  0.0000000  2
   1773   1771   1774   1775     1  180.0000771  0.3347200  3
   1773   1771   1774   1823     1  180.0000771  0.0000000  2
   1774   1823   1804   1806     1  0.0000000  1.2552000  3
   1775   1774   1823   1813     1  180.0000771  6.0668000  2
   1775   1774   1823   1813     1  180.0000771  1.4644000  4
   1776   1777   1779   1783     1  0.0000000  0.6508444  3
   1776   1777   1797   1798     1  0.0000000  1.0460000  1
   1776   1777   1797   1798     1  0.0000000  0.6694400  3
   1776   1787   1792   1793     1  0.0000000  1.0460000  1
   1776   1787   1792   1793     1  0.0000000  0.6694400  3
   1776   1794   1781   1784     1  0.0000000  1.6038667  3
   1777   1776   1787   1790     1  0.0000000  0.6508444  3
   1777   1776   1787   1791     1  0.0000000  0.6508444  3
   1777   1779   1780   1782     1  0.0000000  0.6508444  3
   1777   1779   1786   1788     1  0.0000000  1.0460000  1
   1777   1779   1786   1788     1  0.0000000  0.6694400  3
   1778   1776   1777   1779     1  0.0000000  0.6508444  3
   1778   1776   1777   1797     1  0.0000000  1.0460000  1
   1778   1776   1777   1797     1  0.0000000  0.0000000  3
   1778   1776   1777   1796     1  0.0000000  0.6508444  3
   1778   1776   1787   1792     1  0.0000000  1.0460000  1
   1778   1776   1787   1792     1  0.0000000  0.0000000  3
   1778   1776   1787   1790     1  0.0000000  0.6508444  3
   1778   1776   1787   1791     1  0.0000000  0.6508444  3
   1778   1776   1794   1781     1  0.0000000  1.6038667  3
   1779   1777   1797   1798     1  0.0000000  1.0460000  1
   1779   1777   1797   1798     1  0.0000000  0.6694400  3
   1779   1780   1781   1784     1  0.0000000  0.6508444  3
   1779   1780   1799   1789     1  0.0000000  1.2552000  3
   1780   1779   1777   1796     1  0.0000000  0.6508444  3
   1780   1779   1786   1788     1  0.0000000  1.0460000  1
   1780   1779   1786   1788     1  0.0000000  0.6694400  3
   1780   1781   1785   1795     1  0.0000000  1.0460000  1
   1780   1781   1785   1795     1  0.0000000  0.6694400  3
   1781   1780   1779   1783     1  0.0000000  0.6508444  3
   1781   1780   1799   1789     1  0.0000000  1.2552000  3
   1782   1780   1779   1786     1  0.0000000  1.0460000  1
   1782   1780   1779   1786     1  0.0000000  0.0000000  3
   1782   1780   1779   1783     1  0.0000000  0.6508444  3
   1782   1780   1781   1785     1  0.0000000  1.0460000  1
   1782   1780   1781   1785     1  0.0000000  0.0000000  3
   1782   1780   1781   1794     1  0.0000000  1.0460000  1
   1782   1780   1781   1794     1  0.0000000  0.0000000  3
   1782   1780   1781   1784     1  0.0000000  0.6508444  3
   1782   1780   1799   1789     1  0.0000000  1.2552000  3
   1783   1779   1777   1797     1  0.0000000  1.0460000  1
   1783   1779   1777   1797     1  0.0000000  0.0000000  3
   1783   1779   1777   1796     1  0.0000000  0.6508444  3
   1783   1779   1780   1799     1  0.0000000  0.6508444  3
   1783   1779   1786   1788     1  0.0000000  0.6973333  3
   1784   1781   1780   1799     1  0.0000000  0.6508444  3
   1784   1781   1785   1795     1  0.0000000  0.6973333  3
   1786   1779   1777   1796     1  0.0000000  1.0460000  1
   1786   1779   1777   1796     1  0.0000000  0.0000000  3
   1787   1776   1777   1796     1  0.0000000  0.6508444  3
   1790   1787   1776   1794     1  0.0000000  1.0460000  1
   1790   1787   1776   1794     1  0.0000000  0.0000000  3
   1790   1787   1792   1793     1  0.0000000  0.6973333  3
   1791   1787   1776   1794     1  0.0000000  1.0460000  1
   1791   1787   1776   1794     1  0.0000000  0.0000000  3
   1791   1787   1792   1793     1  0.0000000  0.6973333  3
   1794   1776   1777   1796     1  0.0000000  1.0460000  1
   1794   1776   1777   1796     1  0.0000000  0.0000000  3
   1794   1781   1785   1795     1  0.0000000  0.6973333  3
   1796   1777   1797   1798     1  0.0000000  0.6973333  3
   1800   1801   1803   1807     1  0.0000000  0.6508444  3
   1800   1801   1821   1822     1  0.0000000  1.0460000  1
   1800   1801   1821   1822     1  0.0000000  0.6694400  3
   1800   1811   1816   1817     1  0.0000000  1.0460000  1
   1800   1811   1816   1817     1  0.0000000  0.6694400  3
   1800   1818   1805   1808     1  0.0000000  1.6038667  3
   1801   1800   1811   1814     1  0.0000000  0.6508444  3
   1801   1800   1811   1815     1  0.0000000  0.6508444  3
   1801   1803   1804   1806     1  0.0000000  0.6508444  3
   1801   1803   1810   1812     1  0.0000000  1.0460000  1
   1801   1803   1810   1812     1  0.0000000  0.6694400  3
   1802   1800   1801   1803     1  0.0000000  0.6508444  3
   1802   1800   1801   1821     1  0.0000000  1.0460000  1
   1802   1800   1801   1821     1  0.0000000  0.0000000  3
   1802   1800   1801   1820     1  0.0000000  0.6508444  3
   1802   1800   1811   1816     1  0.0000000  1.0460000  1
   1802   1800   1811   1816     1  0.0000000  0.0000000  3
   1802   1800   1811   1814     1  0.0000000  0.6508444  3
   1802   1800   1811   1815     1  0.0000000  0.6508444  3
   1802   1800   1818   1805     1  0.0000000  1.6038667  3
   1803   1801   1821   1822     1  0.0000000  1.0460000  1
   1803   1801   1821   1822     1  0.0000000  0.6694400  3
   1803   1804   1805   1808     1  0.0000000  0.6508444  3
   1803   1804   1823   1813     1  0.0000000  1.2552000  3
   1804   1803   1801   1820     1  0.0000000  0.6508444  3
   1804   1803   1810   1812     1  0.0000000  1.0460000  1
   1804   1803   1810   1812     1  0.0000000  0.6694400  3
   1804   1805   1809   1819     1  0.0000000  1.0460000  1
   1804   1805   1809   1819     1  0.0000000  0.6694400  3
   1805   1804   1803   1807     1  0.0000000  0.6508444  3
   1805   1804   1823   1813     1  0.0000000  1.2552000  3
   1806   1804   1803   1810     1  0.0000000  1.0460000  1
   1806   1804   1803   1810     1  0.0000000  0.0000000  3
   1806   1804   1803   1807     1  0.0000000  0.6508444  3
   1806   1804   1805   1809     1  0.0000000  1.0460000  1
   1806   1804   1805   1809     1  0.0000000  0.0000000  3
   1806   1804   1805   1818     1  0.0000000  1.0460000  1
   1806   1804   1805   1818     1  0.0000000  0.0000000  3
   1806   1804   1805   1808     1  0.0000000  0.6508444  3
   1806   1804   1823   1813     1  0.0000000  1.2552000  3
   1807   1803   1801   1821     1  0.0000000  1.0460000  1
   1807   1803   1801   1821     1  0.0000000  0.0000000  3
   1807   1803   1801   1820     1  0.0000000  0.6508444  3
   1807   1803   1804   1823     1  0.0000000  0.6508444  3
   1807   1803   1810   1812     1  0.0000000  0.6973333  3
   1808   1805   1804   1823     1  0.0000000  0.6508444  3
   1808   1805   1809   1819     1  0.0000000  0.6973333  3
   1810   1803   1801   1820     1  0.0000000  1.0460000  1
   1810   1803   1801   1820     1  0.0000000  0.0000000  3
   1811   1800   1801   1820     1  0.0000000  0.6508444  3
   1814   1811   1800   1818     1  0.0000000  1.0460000  1
   1814   1811   1800   1818     1  0.0000000  0.0000000  3
   1814   1811   1816   1817     1  0.0000000  0.6973333  3
   1815   1811   1800   1818     1  0.0000000  1.0460000  1
   1815   1811   1800   1818     1  0.0000000  0.0000000  3
   1815   1811   1816   1817     1  0.0000000  0.6973333  3
   1818   1800   1801   1820     1  0.0000000  1.0460000  1
   1818   1800   1801   1820     1  0.0000000  0.0000000  3
   1818   1805   1809   1819     1  0.0000000  0.6973333  3
   1820   1801   1821   1822     1  0.0000000  0.6973333  3
   1825   1827   1829   1831     1  0.0000000  0.6508444  3
   1825   1827   1829   1832     1  0.0000000  0.6508444  3
   1826   1825   1827   1829     1  0.0000000  0.0000000  2
   1826   1825   1827   1828     1  0.0000000  0.0000000  2
   1826   1825   1827   1830     1  0.0000000  0.0000000  2
   1827   1829   1833   1898     1  0.0000000  0.6508444  3
   1828   1827   1829   1833     1  0.0000000  0.6508444  3
   1828   1827   1829   1831     1  0.0000000  0.6508444  3
   1828   1827   1829   1832     1  0.0000000  0.6508444  3
   1829   1833   1834   1843     1  0.0000000  0.6508444  3
   1829   1833   1834   1844     1  0.0000000  0.6508444  3
   1829   1833   1835   1836     1  0.0000000  0.6508444  3
   1829   1833   1835   1838     1  0.0000000  0.6508444  3
   1830   1827   1829   1833     1  0.0000000  0.6508444  3
   1830   1827   1829   1831     1  0.0000000  0.6508444  3
   1830   1827   1829   1832     1  0.0000000  0.6508444  3
   1831   1829   1833   1834     1  0.0000000  0.6508444  3
   1831   1829   1833   1835     1  0.0000000  0.6508444  3
   1831   1829   1833   1898     1  0.0000000  0.6508444  3
   1832   1829   1833   1834     1  0.0000000  0.6508444  3
   1832   1829   1833   1835     1  0.0000000  0.6508444  3
   1832   1829   1833   1898     1  0.0000000  0.6508444  3
   1833   1834   1845   1846     1  0.0000000  0.6508444  3
   1833   1834   1845   1847     1  0.0000000  0.6508444  3
   1833   1835   1837   1839     1  0.0000000  0.6508444  3
   1833   1835   1837   1840     1  0.0000000  0.6508444  3
   1834   1833   1835   1836     1  0.0000000  0.6508444  3
   1834   1833   1835   1838     1  0.0000000  0.6508444  3
   1835   1833   1834   1843     1  0.0000000  0.6508444  3
   1835   1833   1834   1844     1  0.0000000  0.6508444  3
   1836   1835   1837   1841     1  0.0000000  0.6508444  3
   1836   1835   1837   1839     1  0.0000000  0.6508444  3
   1836   1835   1837   1840     1  0.0000000  0.6508444  3
   1836   1835   1833   1898     1  0.0000000  0.6508444  3
   1837   1841   1873   1863     1  180.0000771  6.0668000  2
   1837   1841   1873   1863     1  180.0000771  1.4644000  4
   1837   1835   1833   1898     1  0.0000000  0.6508444  3
   1838   1835   1837   1841     1  0.0000000  0.6508444  3
   1838   1835   1837   1839     1  0.0000000  0.6508444  3
   1838   1835   1837   1840     1  0.0000000  0.6508444  3
   1838   1835   1833   1898     1  0.0000000  0.6508444  3
   1839   1837   1841   1842     1  0.0000000  3.3472000  1
   1839   1837   1841   1842     1  0.0000000  0.0000000  2
   1839   1837   1841   1842     1  180.0000771  0.3347200  3
   1839   1837   1841   1873     1  180.0000771  0.0000000  2
   1840   1837   1841   1842     1  0.0000000  3.3472000  1
   1840   1837   1841   1842     1  0.0000000  0.0000000  2
   1840   1837   1841   1842     1  180.0000771  0.3347200  3
   1840   1837   1841   1873     1  180.0000771  0.0000000  2
   1841   1873   1854   1856     1  0.0000000  1.2552000  3
   1842   1841   1873   1863     1  180.0000771  6.0668000  2
   1842   1841   1873   1863     1  180.0000771  1.4644000  4
   1843   1834   1845   1848     1  0.0000000  0.6508444  3
   1843   1834   1845   1846     1  0.0000000  0.6508444  3
   1843   1834   1845   1847     1  0.0000000  0.6508444  3
   1843   1834   1833   1898     1  0.0000000  0.6508444  3
   1844   1834   1845   1848     1  0.0000000  0.6508444  3
   1844   1834   1845   1846     1  0.0000000  0.6508444  3
   1844   1834   1845   1847     1  0.0000000  0.6508444  3
   1844   1834   1833   1898     1  0.0000000  0.6508444  3
   1845   1848   1897   1887     1  180.0000771  6.0668000  2
   1845   1848   1897   1887     1  180.0000771  1.4644000  4
   1845   1834   1833   1898     1  0.0000000  0.6508444  3
   1846   1845   1848   1849     1  0.0000000  3.3472000  1
   1846   1845   1848   1849     1  0.0000000  0.0000000  2
   1846   1845   1848   1849     1  180.0000771  0.3347200  3
   1846   1845   1848   1897     1  180.0000771  0.0000000  2
   1847   1845   1848   1849     1  0.0000000  3.3472000  1
   1847   1845   1848   1849     1  0.0000000  0.0000000  2
   1847   1845   1848   1849     1  180.0000771  0.3347200  3
   1847   1845   1848   1897     1  180.0000771  0.0000000  2
   1848   1897   1878   1880     1  0.0000000  1.2552000  3
   1849   1848   1897   1887     1  180.0000771  6.0668000  2
   1849   1848   1897   1887     1  180.0000771  1.4644000  4
   1850   1851   1853   1857     1  0.0000000  0.6508444  3
   1850   1851   1871   1872     1  0.0000000  1.0460000  1
   1850   1851   1871   1872     1  0.0000000  0.6694400  3
   1850   1861   1866   1867     1  0.0000000  1.0460000  1
   1850   1861   1866   1867     1  0.0000000  0.6694400  3
   1850   1868   1855   1858     1  0.0000000  1.6038667  3
   1851   1853   1854   1856     1  0.0000000  0.6508444  3
   1851   1853   1860   1862     1  0.0000000  1.0460000  1
   1851   1853   1860   1862     1  0.0000000  0.6694400  3
   1851   1850   1861   1864     1  0.0000000  0.6508444  3
   1851   1850   1861   1865     1  0.0000000  0.6508444  3
   1852   1850   1851   1853     1  0.0000000  0.6508444  3
   1852   1850   1851   1871     1  0.0000000  1.0460000  1
   1852   1850   1851   1871     1  0.0000000  0.0000000  3
   1852   1850   1851   1870     1  0.0000000  0.6508444  3
   1852   1850   1861   1866     1  0.0000000  1.0460000  1
   1852   1850   1861   1866     1  0.0000000  0.0000000  3
   1852   1850   1861   1864     1  0.0000000  0.6508444  3
   1852   1850   1861   1865     1  0.0000000  0.6508444  3
   1852   1850   1868   1855     1  0.0000000  1.6038667  3
   1853   1854   1855   1858     1  0.0000000  0.6508444  3
   1853   1854   1873   1863     1  0.0000000  1.2552000  3
   1853   1851   1871   1872     1  0.0000000  1.0460000  1
   1853   1851   1871   1872     1  0.0000000  0.6694400  3
   1854   1855   1859   1869     1  0.0000000  1.0460000  1
   1854   1855   1859   1869     1  0.0000000  0.6694400  3
   1854   1853   1860   1862     1  0.0000000  1.0460000  1
   1854   1853   1860   1862     1  0.0000000  0.6694400  3
   1854   1853   1851   1870     1  0.0000000  0.6508444  3
   1855   1854   1873   1863     1  0.0000000  1.2552000  3
   1855   1854   1853   1857     1  0.0000000  0.6508444  3
   1856   1854   1855   1859     1  0.0000000  1.0460000  1
   1856   1854   1855   1859     1  0.0000000  0.0000000  3
   1856   1854   1855   1868     1  0.0000000  1.0460000  1
   1856   1854   1855   1868     1  0.0000000  0.0000000  3
   1856   1854   1855   1858     1  0.0000000  0.6508444  3
   1856   1854   1873   1863     1  0.0000000  1.2552000  3
   1856   1854   1853   1860     1  0.0000000  1.0460000  1
   1856   1854   1853   1860     1  0.0000000  0.0000000  3
   1856   1854   1853   1857     1  0.0000000  0.6508444  3
   1857   1853   1854   1873     1  0.0000000  0.6508444  3
   1857   1853   1860   1862     1  0.0000000  0.6973333  3
   1857   1853   1851   1871     1  0.0000000  1.0460000  1
   1857   1853   1851   1871     1  0.0000000  0.0000000  3
   1857   1853   1851   1870     1  0.0000000  0.6508444  3
   1858   1855   1859   1869     1  0.0000000  0.6973333  3
   1858   1855   1854   1873     1  0.0000000  0.6508444  3
   1860   1853   1851   1870     1  0.0000000  1.0460000  1
   1860   1853   1851   1870     1  0.0000000  0.0000000  3
   1861   1850   1851   1870     1  0.0000000  0.6508444  3
   1864   1861   1866   1867     1  0.0000000  0.6973333  3
   1864   1861   1850   1868     1  0.0000000  1.0460000  1
   1864   1861   1850   1868     1  0.0000000  0.0000000  3
   1865   1861   1866   1867     1  0.0000000  0.6973333  3
   1865   1861   1850   1868     1  0.0000000  1.0460000  1
   1865   1861   1850   1868     1  0.0000000  0.0000000  3
   1868   1855   1859   1869     1  0.0000000  0.6973333  3
   1868   1850   1851   1870     1  0.0000000  1.0460000  1
   1868   1850   1851   1870     1  0.0000000  0.0000000  3
   1870   1851   1871   1872     1  0.0000000  0.6973333  3
   1874   1875   1877   1881     1  0.0000000  0.6508444  3
   1874   1875   1895   1896     1  0.0000000  1.0460000  1
   1874   1875   1895   1896     1  0.0000000  0.6694400  3
   1874   1885   1890   1891     1  0.0000000  1.0460000  1
   1874   1885   1890   1891     1  0.0000000  0.6694400  3
   1874   1892   1879   1882     1  0.0000000  1.6038667  3
   1875   1877   1878   1880     1  0.0000000  0.6508444  3
   1875   1877   1884   1886     1  0.0000000  1.0460000  1
   1875   1877   1884   1886     1  0.0000000  0.6694400  3
   1875   1874   1885   1888     1  0.0000000  0.6508444  3
   1875   1874   1885   1889     1  0.0000000  0.6508444  3
   1876   1874   1875   1877     1  0.0000000  0.6508444  3
   1876   1874   1875   1895     1  0.0000000  1.0460000  1
   1876   1874   1875   1895     1  0.0000000  0.0000000  3
   1876   1874   1875   1894     1  0.0000000  0.6508444  3
   1876   1874   1885   1890     1  0.0000000  1.0460000  1
   1876   1874   1885   1890     1  0.0000000  0.0000000  3
   1876   1874   1885   1888     1  0.0000000  0.6508444  3
   1876   1874   1885   1889     1  0.0000000  0.6508444  3
   1876   1874   1892   1879     1  0.0000000  1.6038667  3
   1877   1878   1879   1882     1  0.0000000  0.6508444  3
   1877   1878   1897   1887     1  0.0000000  1.2552000  3
   1877   1875   1895   1896     1  0.0000000  1.0460000  1
   1877   1875   1895   1896     1  0.0000000  0.6694400  3
   1878   1879   1883   1893     1  0.0000000  1.0460000  1
   1878   1879   1883   1893     1  0.0000000  0.6694400  3
   1878   1877   1884   1886     1  0.0000000  1.0460000  1
   1878   1877   1884   1886     1  0.0000000  0.6694400  3
   1878   1877   1875   1894     1  0.0000000  0.6508444  3
   1879   1878   1897   1887     1  0.0000000  1.2552000  3
   1879   1878   1877   1881     1  0.0000000  0.6508444  3
   1880   1878   1879   1883     1  0.0000000  1.0460000  1
   1880   1878   1879   1883     1  0.0000000  0.0000000  3
   1880   1878   1879   1892     1  0.0000000  1.0460000  1
   1880   1878   1879   1892     1  0.0000000  0.0000000  3
   1880   1878   1879   1882     1  0.0000000  0.6508444  3
   1880   1878   1897   1887     1  0.0000000  1.2552000  3
   1880   1878   1877   1884     1  0.0000000  1.0460000  1
   1880   1878   1877   1884     1  0.0000000  0.0000000  3
   1880   1878   1877   1881     1  0.0000000  0.6508444  3
   1881   1877   1878   1897     1  0.0000000  0.6508444  3
   1881   1877   1884   1886     1  0.0000000  0.6973333  3
   1881   1877   1875   1895     1  0.0000000  1.0460000  1
   1881   1877   1875   1895     1  0.0000000  0.0000000  3
   1881   1877   1875   1894     1  0.0000000  0.6508444  3
   1882   1879   1883   1893     1  0.0000000  0.6973333  3
   1882   1879   1878   1897     1  0.0000000  0.6508444  3
   1884   1877   1875   1894     1  0.0000000  1.0460000  1
   1884   1877   1875   1894     1  0.0000000  0.0000000  3
   1885   1874   1875   1894     1  0.0000000  0.6508444  3
   1888   1885   1890   1891     1  0.0000000  0.6973333  3
   1888   1885   1874   1892     1  0.0000000  1.0460000  1
   1888   1885   1874   1892     1  0.0000000  0.0000000  3
   1889   1885   1890   1891     1  0.0000000  0.6973333  3
   1889   1885   1874   1892     1  0.0000000  1.0460000  1
   1889   1885   1874   1892     1  0.0000000  0.0000000  3
   1892   1879   1883   1893     1  0.0000000  0.6973333  3
   1892   1874   1875   1894     1  0.0000000  1.0460000  1
   1892   1874   1875   1894     1  0.0000000  0.0000000  3
   1894   1875   1895   1896     1  0.0000000  0.6973333  3
   1899   1901   1903   1905     1  0.0000000  0.6508444  3
   1899   1901   1903   1906     1  0.0000000  0.6508444  3
   1900   1899   1901   1903     1  0.0000000  0.0000000  2
   1900   1899   1901   1902     1  0.0000000  0.0000000  2
   1900   1899   1901   1904     1  0.0000000  0.0000000  2
   1901   1903   1907   1972     1  0.0000000  0.6508444  3
   1902   1901   1903   1907     1  0.0000000  0.6508444  3
   1902   1901   1903   1905     1  0.0000000  0.6508444  3
   1902   1901   1903   1906     1  0.0000000  0.6508444  3
   1903   1907   1908   1917     1  0.0000000  0.6508444  3
   1903   1907   1908   1918     1  0.0000000  0.6508444  3
   1903   1907   1909   1910     1  0.0000000  0.6508444  3
   1903   1907   1909   1912     1  0.0000000  0.6508444  3
   1904   1901   1903   1907     1  0.0000000  0.6508444  3
   1904   1901   1903   1905     1  0.0000000  0.6508444  3
   1904   1901   1903   1906     1  0.0000000  0.6508444  3
   1905   1903   1907   1908     1  0.0000000  0.6508444  3
   1905   1903   1907   1909     1  0.0000000  0.6508444  3
   1905   1903   1907   1972     1  0.0000000  0.6508444  3
   1906   1903   1907   1908     1  0.0000000  0.6508444  3
   1906   1903   1907   1909     1  0.0000000  0.6508444  3
   1906   1903   1907   1972     1  0.0000000  0.6508444  3
   1907   1908   1919   1920     1  0.0000000  0.6508444  3
   1907   1908   1919   1921     1  0.0000000  0.6508444  3
   1907   1909   1911   1913     1  0.0000000  0.6508444  3
   1907   1909   1911   1914     1  0.0000000  0.6508444  3
   1908   1907   1909   1910     1  0.0000000  0.6508444  3
   1908   1907   1909   1912     1  0.0000000  0.6508444  3
   1909   1907   1908   1917     1  0.0000000  0.6508444  3
   1909   1907   1908   1918     1  0.0000000  0.6508444  3
   1910   1909   1907   1972     1  0.0000000  0.6508444  3
   1910   1909   1911   1915     1  0.0000000  0.6508444  3
   1910   1909   1911   1913     1  0.0000000  0.6508444  3
   1910   1909   1911   1914     1  0.0000000  0.6508444  3
   1911   1909   1907   1972     1  0.0000000  0.6508444  3
   1911   1915   1947   1937     1  180.0000771  6.0668000  2
   1911   1915   1947   1937     1  180.0000771  1.4644000  4
   1912   1909   1907   1972     1  0.0000000  0.6508444  3
   1912   1909   1911   1915     1  0.0000000  0.6508444  3
   1912   1909   1911   1913     1  0.0000000  0.6508444  3
   1912   1909   1911   1914     1  0.0000000  0.6508444  3
   1913   1911   1915   1916     1  0.0000000  3.3472000  1
   1913   1911   1915   1916     1  0.0000000  0.0000000  2
   1913   1911   1915   1916     1  180.0000771  0.3347200  3
   1913   1911   1915   1947     1  180.0000771  0.0000000  2
   1914   1911   1915   1916     1  0.0000000  3.3472000  1
   1914   1911   1915   1916     1  0.0000000  0.0000000  2
   1914   1911   1915   1916     1  180.0000771  0.3347200  3
   1914   1911   1915   1947     1  180.0000771  0.0000000  2
   1915   1947   1928   1930     1  0.0000000  1.2552000  3
   1916   1915   1947   1937     1  180.0000771  6.0668000  2
   1916   1915   1947   1937     1  180.0000771  1.4644000  4
   1917   1908   1907   1972     1  0.0000000  0.6508444  3
   1917   1908   1919   1922     1  0.0000000  0.6508444  3
   1917   1908   1919   1920     1  0.0000000  0.6508444  3
   1917   1908   1919   1921     1  0.0000000  0.6508444  3
   1918   1908   1907   1972     1  0.0000000  0.6508444  3
   1918   1908   1919   1922     1  0.0000000  0.6508444  3
   1918   1908   1919   1920     1  0.0000000  0.6508444  3
   1918   1908   1919   1921     1  0.0000000  0.6508444  3
   1919   1908   1907   1972     1  0.0000000  0.6508444  3
   1919   1922   1971   1961     1  180.0000771  6.0668000  2
   1919   1922   1971   1961     1  180.0000771  1.4644000  4
   1920   1919   1922   1923     1  0.0000000  3.3472000  1
   1920   1919   1922   1923     1  0.0000000  0.0000000  2
   1920   1919   1922   1923     1  180.0000771  0.3347200  3
   1920   1919   1922   1971     1  180.0000771  0.0000000  2
   1921   1919   1922   1923     1  0.0000000  3.3472000  1
   1921   1919   1922   1923     1  0.0000000  0.0000000  2
   1921   1919   1922   1923     1  180.0000771  0.3347200  3
   1921   1919   1922   1971     1  180.0000771  0.0000000  2
   1922   1971   1952   1954     1  0.0000000  1.2552000  3
   1923   1922   1971   1961     1  180.0000771  6.0668000  2
   1923   1922   1971   1961     1  180.0000771  1.4644000  4
   1924   1925   1927   1931     1  0.0000000  0.6508444  3
   1924   1925   1945   1946     1  0.0000000  1.0460000  1
   1924   1925   1945   1946     1  0.0000000  0.6694400  3
   1924   1935   1940   1941     1  0.0000000  1.0460000  1
   1924   1935   1940   1941     1  0.0000000  0.6694400  3
   1924   1942   1929   1932     1  0.0000000  1.6038667  3
   1925   1924   1935   1938     1  0.0000000  0.6508444  3
   1925   1924   1935   1939     1  0.0000000  0.6508444  3
   1925   1927   1928   1930     1  0.0000000  0.6508444  3
   1925   1927   1934   1936     1  0.0000000  1.0460000  1
   1925   1927   1934   1936     1  0.0000000  0.6694400  3
   1926   1924   1925   1927     1  0.0000000  0.6508444  3
   1926   1924   1925   1945     1  0.0000000  1.0460000  1
   1926   1924   1925   1945     1  0.0000000  0.0000000  3
   1926   1924   1925   1944     1  0.0000000  0.6508444  3
   1926   1924   1935   1940     1  0.0000000  1.0460000  1
   1926   1924   1935   1940     1  0.0000000  0.0000000  3
   1926   1924   1935   1938     1  0.0000000  0.6508444  3
   1926   1924   1935   1939     1  0.0000000  0.6508444  3
   1926   1924   1942   1929     1  0.0000000  1.6038667  3
   1927   1925   1945   1946     1  0.0000000  1.0460000  1
   1927   1925   1945   1946     1  0.0000000  0.6694400  3
   1927   1928   1929   1932     1  0.0000000  0.6508444  3
   1927   1928   1947   1937     1  0.0000000  1.2552000  3
   1928   1927   1925   1944     1  0.0000000  0.6508444  3
   1928   1927   1934   1936     1  0.0000000  1.0460000  1
   1928   1927   1934   1936     1  0.0000000  0.6694400  3
   1928   1929   1933   1943     1  0.0000000  1.0460000  1
   1928   1929   1933   1943     1  0.0000000  0.6694400  3
   1929   1928   1927   1931     1  0.0000000  0.6508444  3
   1929   1928   1947   1937     1  0.0000000  1.2552000  3
   1930   1928   1927   1934     1  0.0000000  1.0460000  1
   1930   1928   1927   1934     1  0.0000000  0.0000000  3
   1930   1928   1927   1931     1  0.0000000  0.6508444  3
   1930   1928   1929   1933     1  0.0000000  1.0460000  1
   1930   1928   1929   1933     1  0.0000000  0.0000000  3
   1930   1928   1929   1942     1  0.0000000  1.0460000  1
   1930   1928   1929   1942     1  0.0000000  0.0000000  3
   1930   1928   1929   1932     1  0.0000000  0.6508444  3
   1930   1928   1947   1937     1  0.0000000  1.2552000  3
   1931   1927   1925   1945     1  0.0000000  1.0460000  1
   1931   1927   1925   1945     1  0.0000000  0.0000000  3
   1931   1927   1925   1944     1  0.0000000  0.6508444  3
   1931   1927   1928   1947     1  0.0000000  0.6508444  3
   1931   1927   1934   1936     1  0.0000000  0.6973333  3
   1932   1929   1928   1947     1  0.0000000  0.6508444  3
   1932   1929   1933   1943     1  0.0000000  0.6973333  3
   1934   1927   1925   1944     1  0.0000000  1.0460000  1
   1934   1927   1925   1944     1  0.0000000  0.0000000  3
   1935   1924   1925   1944     1  0.0000000  0.6508444  3
   1938   1935   1924   1942     1  0.0000000  1.0460000  1
   1938   1935   1924   1942     1  0.0000000  0.0000000  3
   1938   1935   1940   1941     1  0.0000000  0.6973333  3
   1939   1935   1924   1942     1  0.0000000  1.0460000  1
   1939   1935   1924   1942     1  0.0000000  0.0000000  3
   1939   1935   1940   1941     1  0.0000000  0.6973333  3
   1942   1924   1925   1944     1  0.0000000  1.0460000  1
   1942   1924   1925   1944     1  0.0000000  0.0000000  3
   1942   1929   1933   1943     1  0.0000000  0.6973333  3
   1944   1925   1945   1946     1  0.0000000  0.6973333  3
   1948   1949   1951   1955     1  0.0000000  0.6508444  3
   1948   1949   1969   1970     1  0.0000000  1.0460000  1
   1948   1949   1969   1970     1  0.0000000  0.6694400  3
   1948   1959   1964   1965     1  0.0000000  1.0460000  1
   1948   1959   1964   1965     1  0.0000000  0.6694400  3
   1948   1966   1953   1956     1  0.0000000  1.6038667  3
   1949   1948   1959   1962     1  0.0000000  0.6508444  3
   1949   1948   1959   1963     1  0.0000000  0.6508444  3
   1949   1951   1952   1954     1  0.0000000  0.6508444  3
   1949   1951   1958   1960     1  0.0000000  1.0460000  1
   1949   1951   1958   1960     1  0.0000000  0.6694400  3
   1950   1948   1949   1951     1  0.0000000  0.6508444  3
   1950   1948   1949   1969     1  0.0000000  1.0460000  1
   1950   1948   1949   1969     1  0.0000000  0.0000000  3
   1950   1948   1949   1968     1  0.0000000  0.6508444  3
   1950   1948   1959   1964     1  0.0000000  1.0460000  1
   1950   1948   1959   1964     1  0.0000000  0.0000000  3
   1950   1948   1959   1962     1  0.0000000  0.6508444  3
   1950   1948   1959   1963     1  0.0000000  0.6508444  3
   1950   1948   1966   1953     1  0.0000000  1.6038667  3
   1951   1949   1969   1970     1  0.0000000  1.0460000  1
   1951   1949   1969   1970     1  0.0000000  0.6694400  3
   1951   1952   1953   1956     1  0.0000000  0.6508444  3
   1951   1952   1971   1961     1  0.0000000  1.2552000  3
   1952   1951   1949   1968     1  0.0000000  0.6508444  3
   1952   1951   1958   1960     1  0.0000000  1.0460000  1
   1952   1951   1958   1960     1  0.0000000  0.6694400  3
   1952   1953   1957   1967     1  0.0000000  1.0460000  1
   1952   1953   1957   1967     1  0.0000000  0.6694400  3
   1953   1952   1951   1955     1  0.0000000  0.6508444  3
   1953   1952   1971   1961     1  0.0000000  1.2552000  3
   1954   1952   1951   1958     1  0.0000000  1.0460000  1
   1954   1952   1951   1958     1  0.0000000  0.0000000  3
   1954   1952   1951   1955     1  0.0000000  0.6508444  3
   1954   1952   1953   1957     1  0.0000000  1.0460000  1
   1954   1952   1953   1957     1  0.0000000  0.0000000  3
   1954   1952   1953   1966     1  0.0000000  1.0460000  1
   1954   1952   1953   1966     1  0.0000000  0.0000000  3
   1954   1952   1953   1956     1  0.0000000  0.6508444  3
   1954   1952   1971   1961     1  0.0000000  1.2552000  3
   1955   1951   1949   1969     1  0.0000000  1.0460000  1
   1955   1951   1949   1969     1  0.0000000  0.0000000  3
   1955   1951   1949   1968     1  0.0000000  0.6508444  3
   1955   1951   1952   1971     1  0.0000000  0.6508444  3
   1955   1951   1958   1960     1  0.0000000  0.6973333  3
   1956   1953   1952   1971     1  0.0000000  0.6508444  3
   1956   1953   1957   1967     1  0.0000000  0.6973333  3
   1958   1951   1949   1968     1  0.0000000  1.0460000  1
   1958   1951   1949   1968     1  0.0000000  0.0000000  3
   1959   1948   1949   1968     1  0.0000000  0.6508444  3
   1962   1959   1948   1966     1  0.0000000  1.0460000  1
   1962   1959   1948   1966     1  0.0000000  0.0000000  3
   1962   1959   1964   1965     1  0.0000000  0.6973333  3
   1963   1959   1948   1966     1  0.0000000  1.0460000  1
   1963   1959   1948   1966     1  0.0000000  0.0000000  3
   1963   1959   1964   1965     1  0.0000000  0.6973333  3
   1966   1948   1949   1968     1  0.0000000  1.0460000  1
   1966   1948   1949   1968     1  0.0000000  0.0000000  3
   1966   1953   1957   1967     1  0.0000000  0.6973333  3
   1968   1949   1969   1970     1  0.0000000  0.6973333  3
   1973   1975   1977   1979     1  0.0000000  0.6508444  3
   1973   1975   1977   1980     1  0.0000000  0.6508444  3
   1974   1973   1975   1977     1  0.0000000  0.0000000  2
   1974   1973   1975   1976     1  0.0000000  0.0000000  2
   1974   1973   1975   1978     1  0.0000000  0.0000000  2
   1975   1977   1981   2046     1  0.0000000  0.6508444  3
   1976   1975   1977   1981     1  0.0000000  0.6508444  3
   1976   1975   1977   1979     1  0.0000000  0.6508444  3
   1976   1975   1977   1980     1  0.0000000  0.6508444  3
   1977   1981   1982   1991     1  0.0000000  0.6508444  3
   1977   1981   1982   1992     1  0.0000000  0.6508444  3
   1977   1981   1983   1984     1  0.0000000  0.6508444  3
   1977   1981   1983   1986     1  0.0000000  0.6508444  3
   1978   1975   1977   1981     1  0.0000000  0.6508444  3
   1978   1975   1977   1979     1  0.0000000  0.6508444  3
   1978   1975   1977   1980     1  0.0000000  0.6508444  3
   1979   1977   1981   1982     1  0.0000000  0.6508444  3
   1979   1977   1981   1983     1  0.0000000  0.6508444  3
   1979   1977   1981   2046     1  0.0000000  0.6508444  3
   1980   1977   1981   1982     1  0.0000000  0.6508444  3
   1980   1977   1981   1983     1  0.0000000  0.6508444  3
   1980   1977   1981   2046     1  0.0000000  0.6508444  3
   1981   1982   1993   1994     1  0.0000000  0.6508444  3
   1981   1982   1993   1995     1  0.0000000  0.6508444  3
   1981   1983   1985   1987     1  0.0000000  0.6508444  3
   1981   1983   1985   1988     1  0.0000000  0.6508444  3
   1982   1981   1983   1984     1  0.0000000  0.6508444  3
   1982   1981   1983   1986     1  0.0000000  0.6508444  3
   1983   1981   1982   1991     1  0.0000000  0.6508444  3
   1983   1981   1982   1992     1  0.0000000  0.6508444  3
   1984   1983   1985   1989     1  0.0000000  0.6508444  3
   1984   1983   1985   1987     1  0.0000000  0.6508444  3
   1984   1983   1985   1988     1  0.0000000  0.6508444  3
   1984   1983   1981   2046     1  0.0000000  0.6508444  3
   1985   1989   2021   2011     1  180.0000771  6.0668000  2
   1985   1989   2021   2011     1  180.0000771  1.4644000  4
   1985   1983   1981   2046     1  0.0000000  0.6508444  3
   1986   1983   1985   1989     1  0.0000000  0.6508444  3
   1986   1983   1985   1987     1  0.0000000  0.6508444  3
   1986   1983   1985   1988     1  0.0000000  0.6508444  3
   1986   1983   1981   2046     1  0.0000000  0.6508444  3
   1987   1985   1989   1990     1  0.0000000  3.3472000  1
   1987   1985   1989   1990     1  0.0000000  0.0000000  2
   1987   1985   1989   1990     1  180.0000771  0.3347200  3
   1987   1985   1989   2021     1  180.0000771  0.0000000  2
   1988   1985   1989   1990     1  0.0000000  3.3472000  1
   1988   1985   1989   1990     1  0.0000000  0.0000000  2
   1988   1985   1989   1990     1  180.0000771  0.3347200  3
   1988   1985   1989   2021     1  180.0000771  0.0000000  2
   1989   2021   2002   2004     1  0.0000000  1.2552000  3
   1990   1989   2021   2011     1  180.0000771  6.0668000  2
   1990   1989   2021   2011     1  180.0000771  1.4644000  4
   1991   1982   1993   1996     1  0.0000000  0.6508444  3
   1991   1982   1993   1994     1  0.0000000  0.6508444  3
   1991   1982   1993   1995     1  0.0000000  0.6508444  3
   1991   1982   1981   2046     1  0.0000000  0.6508444  3
   1992   1982   1993   1996     1  0.0000000  0.6508444  3
   1992   1982   1993   1994     1  0.0000000  0.6508444  3
   1992   1982   1993   1995     1  0.0000000  0.6508444  3
   1992   1982   1981   2046     1  0.0000000  0.6508444  3
   1993   1996   2045   2035     1  180.0000771  6.0668000  2
   1993   1996   2045   2035     1  180.0000771  1.4644000  4
   1993   1982   1981   2046     1  0.0000000  0.6508444  3
   1994   1993   1996   1997     1  0.0000000  3.3472000  1
   1994   1993   1996   1997     1  0.0000000  0.0000000  2
   1994   1993   1996   1997     1  180.0000771  0.3347200  3
   1994   1993   1996   2045     1  180.0000771  0.0000000  2
   1995   1993   1996   1997     1  0.0000000  3.3472000  1
   1995   1993   1996   1997     1  0.0000000  0.0000000  2
   1995   1993   1996   1997     1  180.0000771  0.3347200  3
   1995   1993   1996   2045     1  180.0000771  0.0000000  2
   1996   2045   2026   2028     1  0.0000000  1.2552000  3
   1997   1996   2045   2035     1  180.0000771  6.0668000  2
   1997   1996   2045   2035     1  180.0000771  1.4644000  4
   1998   1999   2001   2005     1  0.0000000  0.6508444  3
   1998   1999   2019   2020     1  0.0000000  1.0460000  1
   1998   1999   2019   2020     1  0.0000000  0.6694400  3
   1998   2009   2014   2015     1  0.0000000  1.0460000  1
   1998   2009   2014   2015     1  0.0000000  0.6694400  3
   1998   2016   2003   2006     1  0.0000000  1.6038667  3
   1999   2001   2002   2004     1  0.0000000  0.6508444  3
   1999   2001   2008   2010     1  0.0000000  1.0460000  1
   1999   2001   2008   2010     1  0.0000000  0.6694400  3
   1999   1998   2009   2012     1  0.0000000  0.6508444  3
   1999   1998   2009   2013     1  0.0000000  0.6508444  3
   2000   1998   1999   2001     1  0.0000000  0.6508444  3
   2000   1998   1999   2019     1  0.0000000  1.0460000  1
   2000   1998   1999   2019     1  0.0000000  0.0000000  3
   2000   1998   1999   2018     1  0.0000000  0.6508444  3
   2000   1998   2009   2014     1  0.0000000  1.0460000  1
   2000   1998   2009   2014     1  0.0000000  0.0000000  3
   2000   1998   2009   2012     1  0.0000000  0.6508444  3
   2000   1998   2009   2013     1  0.0000000  0.6508444  3
   2000   1998   2016   2003     1  0.0000000  1.6038667  3
   2001   2002   2003   2006     1  0.0000000  0.6508444  3
   2001   2002   2021   2011     1  0.0000000  1.2552000  3
   2001   1999   2019   2020     1  0.0000000  1.0460000  1
   2001   1999   2019   2020     1  0.0000000  0.6694400  3
   2002   2003   2007   2017     1  0.0000000  1.0460000  1
   2002   2003   2007   2017     1  0.0000000  0.6694400  3
   2002   2001   2008   2010     1  0.0000000  1.0460000  1
   2002   2001   2008   2010     1  0.0000000  0.6694400  3
   2002   2001   1999   2018     1  0.0000000  0.6508444  3
   2003   2002   2021   2011     1  0.0000000  1.2552000  3
   2003   2002   2001   2005     1  0.0000000  0.6508444  3
   2004   2002   2003   2007     1  0.0000000  1.0460000  1
   2004   2002   2003   2007     1  0.0000000  0.0000000  3
   2004   2002   2003   2016     1  0.0000000  1.0460000  1
   2004   2002   2003   2016     1  0.0000000  0.0000000  3
   2004   2002   2003   2006     1  0.0000000  0.6508444  3
   2004   2002   2021   2011     1  0.0000000  1.2552000  3
   2004   2002   2001   2008     1  0.0000000  1.0460000  1
   2004   2002   2001   2008     1  0.0000000  0.0000000  3
   2004   2002   2001   2005     1  0.0000000  0.6508444  3
   2005   2001   2002   2021     1  0.0000000  0.6508444  3
   2005   2001   2008   2010     1  0.0000000  0.6973333  3
   2005   2001   1999   2019     1  0.0000000  1.0460000  1
   2005   2001   1999   2019     1  0.0000000  0.0000000  3
   2005   2001   1999   2018     1  0.0000000  0.6508444  3
   2006   2003   2007   2017     1  0.0000000  0.6973333  3
   2006   2003   2002   2021     1  0.0000000  0.6508444  3
   2008   2001   1999   2018     1  0.0000000  1.0460000  1
   2008   2001   1999   2018     1  0.0000000  0.0000000  3
   2009   1998   1999   2018     1  0.0000000  0.6508444  3
   2012   2009   2014   2015     1  0.0000000  0.6973333  3
   2012   2009   1998   2016     1  0.0000000  1.0460000  1
   2012   2009   1998   2016     1  0.0000000  0.0000000  3
   2013   2009   2014   2015     1  0.0000000  0.6973333  3
   2013   2009   1998   2016     1  0.0000000  1.0460000  1
   2013   2009   1998   2016     1  0.0000000  0.0000000  3
   2016   2003   2007   2017     1  0.0000000  0.6973333  3
   2016   1998   1999   2018     1  0.0000000  1.0460000  1
   2016   1998   1999   2018     1  0.0000000  0.0000000  3
   2018   1999   2019   2020     1  0.0000000  0.6973333  3
   2022   2023   2025   2029     1  0.0000000  0.6508444  3
   2022   2023   2043   2044     1  0.0000000  1.0460000  1
   2022   2023   2043   2044     1  0.0000000  0.6694400  3
   2022   2033   2038   2039     1  0.0000000  1.0460000  1
   2022   2033   2038   2039     1  0.0000000  0.6694400  3
   2022   2040   2027   2030     1  0.0000000  1.6038667  3
   2023   2025   2026   2028     1  0.0000000  0.6508444  3
   2023   2025   2032   2034     1  0.0000000  1.0460000  1
   2023   2025   2032   2034     1  0.0000000  0.6694400  3
   2023   2022   2033   2036     1  0.0000000  0.6508444  3
   2023   2022   2033   2037     1  0.0000000  0.6508444  3
   2024   2022   2023   2025     1  0.0000000  0.6508444  3
   2024   2022   2023   2043     1  0.0000000  1.0460000  1
   2024   2022   2023   2043     1  0.0000000  0.0000000  3
   2024   2022   2023   2042     1  0.0000000  0.6508444  3
   2024   2022   2033   2038     1  0.0000000  1.0460000  1
   2024   2022   2033   2038     1  0.0000000  0.0000000  3
   2024   2022   2033   2036     1  0.0000000  0.6508444  3
   2024   2022   2033   2037     1  0.0000000  0.6508444  3
   2024   2022   2040   2027     1  0.0000000  1.6038667  3
   2025   2026   2027   2030     1  0.0000000  0.6508444  3
   2025   2026   2045   2035     1  0.0000000  1.2552000  3
   2025   2023   2043   2044     1  0.0000000  1.0460000  1
   2025   2023   2043   2044     1  0.0000000  0.6694400  3
   2026   2027   2031   2041     1  0.0000000  1.0460000  1
   2026   2027   2031   2041     1  0.0000000  0.6694400  3
   2026   2025   2032   2034     1  0.0000000  1.0460000  1
   2026   2025   2032   2034     1  0.0000000  0.6694400  3
   2026   2025   2023   2042     1  0.0000000  0.6508444  3
   2027   2026   2045   2035     1  0.0000000  1.2552000  3
   2027   2026   2025   2029     1  0.0000000  0.6508444  3
   2028   2026   2027   2031     1  0.0000000  1.0460000  1
   2028   2026   2027   2031     1  0.0000000  0.0000000  3
   2028   2026   2027   2040     1  0.0000000  1.0460000  1
   2028   2026   2027   2040     1  0.0000000  0.0000000  3
   2028   2026   2027   2030     1  0.0000000  0.6508444  3
   2028   2026   2045   2035     1  0.0000000  1.2552000  3
   2028   2026   2025   2032     1  0.0000000  1.0460000  1
   2028   2026   2025   2032     1  0.0000000  0.0000000  3
   2028   2026   2025   2029     1  0.0000000  0.6508444  3
   2029   2025   2026   2045     1  0.0000000  0.6508444  3
   2029   2025   2032   2034     1  0.0000000  0.6973333  3
   2029   2025   2023   2043     1  0.0000000  1.0460000  1
   2029   2025   2023   2043     1  0.0000000  0.0000000  3
   2029   2025   2023   2042     1  0.0000000  0.6508444  3
   2030   2027   2031   2041     1  0.0000000  0.6973333  3
   2030   2027   2026   2045     1  0.0000000  0.6508444  3
   2032   2025   2023   2042     1  0.0000000  1.0460000  1
   2032   2025   2023   2042     1  0.0000000  0.0000000  3
   2033   2022   2023   2042     1  0.0000000  0.6508444  3
   2036   2033   2038   2039     1  0.0000000  0.6973333  3
   2036   2033   2022   2040     1  0.0000000  1.0460000  1
   2036   2033   2022   2040     1  0.0000000  0.0000000  3
   2037   2033   2038   2039     1  0.0000000  0.6973333  3
   2037   2033   2022   2040     1  0.0000000  1.0460000  1
   2037   2033   2022   2040     1  0.0000000  0.0000000  3
   2040   2027   2031   2041     1  0.0000000  0.6973333  3
   2040   2022   2023   2042     1  0.0000000  1.0460000  1
   2040   2022   2023   2042     1  0.0000000  0.0000000  3
   2042   2023   2043   2044     1  0.0000000  0.6973333  3
   2047   2049   2051   2053     1  0.0000000  0.6508444  3
   2047   2049   2051   2054     1  0.0000000  0.6508444  3
   2048   2047   2049   2051     1  0.0000000  0.0000000  2
   2048   2047   2049   2050     1  0.0000000  0.0000000  2
   2048   2047   2049   2052     1  0.0000000  0.0000000  2
   2049   2051   2055   2120     1  0.0000000  0.6508444  3
   2050   2049   2051   2055     1  0.0000000  0.6508444  3
   2050   2049   2051   2053     1  0.0000000  0.6508444  3
   2050   2049   2051   2054     1  0.0000000  0.6508444  3
   2051   2055   2056   2065     1  0.0000000  0.6508444  3
   2051   2055   2056   2066     1  0.0000000  0.6508444  3
   2051   2055   2057   2058     1  0.0000000  0.6508444  3
   2051   2055   2057   2060     1  0.0000000  0.6508444  3
   2052   2049   2051   2055     1  0.0000000  0.6508444  3
   2052   2049   2051   2053     1  0.0000000  0.6508444  3
   2052   2049   2051   2054     1  0.0000000  0.6508444  3
   2053   2051   2055   2056     1  0.0000000  0.6508444  3
   2053   2051   2055   2057     1  0.0000000  0.6508444  3
   2053   2051   2055   2120     1  0.0000000  0.6508444  3
   2054   2051   2055   2056     1  0.0000000  0.6508444  3
   2054   2051   2055   2057     1  0.0000000  0.6508444  3
   2054   2051   2055   2120     1  0.0000000  0.6508444  3
   2055   2056   2067   2068     1  0.0000000  0.6508444  3
   2055   2056   2067   2069     1  0.0000000  0.6508444  3
   2055   2057   2059   2061     1  0.0000000  0.6508444  3
   2055   2057   2059   2062     1  0.0000000  0.6508444  3
   2056   2055   2057   2058     1  0.0000000  0.6508444  3
   2056   2055   2057   2060     1  0.0000000  0.6508444  3
   2057   2055   2056   2065     1  0.0000000  0.6508444  3
   2057   2055   2056   2066     1  0.0000000  0.6508444  3
   2058   2057   2055   2120     1  0.0000000  0.6508444  3
   2058   2057   2059   2063     1  0.0000000  0.6508444  3
   2058   2057   2059   2061     1  0.0000000  0.6508444  3
   2058   2057   2059   2062     1  0.0000000  0.6508444  3
   2059   2057   2055   2120     1  0.0000000  0.6508444  3
   2059   2063   2095   2085     1  180.0000771  6.0668000  2
   2059   2063   2095   2085     1  180.0000771  1.4644000  4
   2060   2057   2055   2120     1  0.0000000  0.6508444  3
   2060   2057   2059   2063     1  0.0000000  0.6508444  3
   2060   2057   2059   2061     1  0.0000000  0.6508444  3
   2060   2057   2059   2062     1  0.0000000  0.6508444  3
   2061   2059   2063   2064     1  0.0000000  3.3472000  1
   2061   2059   2063   2064     1  0.0000000  0.0000000  2
   2061   2059   2063   2064     1  180.0000771  0.3347200  3
   2061   2059   2063   2095     1  180.0000771  0.0000000  2
   2062   2059   2063   2064     1  0.0000000  3.3472000  1
   2062   2059   2063   2064     1  0.0000000  0.0000000  2
   2062   2059   2063   2064     1  180.0000771  0.3347200  3
   2062   2059   2063   2095     1  180.0000771  0.0000000  2
   2063   2095   2076   2078     1  0.0000000  1.2552000  3
   2064   2063   2095   2085     1  180.0000771  6.0668000  2
   2064   2063   2095   2085     1  180.0000771  1.4644000  4
   2065   2056   2055   2120     1  0.0000000  0.6508444  3
   2065   2056   2067   2070     1  0.0000000  0.6508444  3
   2065   2056   2067   2068     1  0.0000000  0.6508444  3
   2065   2056   2067   2069     1  0.0000000  0.6508444  3
   2066   2056   2055   2120     1  0.0000000  0.6508444  3
   2066   2056   2067   2070     1  0.0000000  0.6508444  3
   2066   2056   2067   2068     1  0.0000000  0.6508444  3
   2066   2056   2067   2069     1  0.0000000  0.6508444  3
   2067   2056   2055   2120     1  0.0000000  0.6508444  3
   2067   2070   2119   2109     1  180.0000771  6.0668000  2
   2067   2070   2119   2109     1  180.0000771  1.4644000  4
   2068   2067   2070   2071     1  0.0000000  3.3472000  1
   2068   2067   2070   2071     1  0.0000000  0.0000000  2
   2068   2067   2070   2071     1  180.0000771  0.3347200  3
   2068   2067   2070   2119     1  180.0000771  0.0000000  2
   2069   2067   2070   2071     1  0.0000000  3.3472000  1
   2069   2067   2070   2071     1  0.0000000  0.0000000  2
   2069   2067   2070   2071     1  180.0000771  0.3347200  3
   2069   2067   2070   2119     1  180.0000771  0.0000000  2
   2070   2119   2100   2102     1  0.0000000  1.2552000  3
   2071   2070   2119   2109     1  180.0000771  6.0668000  2
   2071   2070   2119   2109     1  180.0000771  1.4644000  4
   2072   2073   2075   2079     1  0.0000000  0.6508444  3
   2072   2073   2093   2094     1  0.0000000  1.0460000  1
   2072   2073   2093   2094     1  0.0000000  0.6694400  3
   2072   2083   2088   2089     1  0.0000000  1.0460000  1
   2072   2083   2088   2089     1  0.0000000  0.6694400  3
   2072   2090   2077   2080     1  0.0000000  1.6038667  3
   2073   2072   2083   2086     1  0.0000000  0.6508444  3
   2073   2072   2083   2087     1  0.0000000  0.6508444  3
   2073   2075   2076   2078     1  0.0000000  0.6508444  3
   2073   2075   2082   2084     1  0.0000000  1.0460000  1
   2073   2075   2082   2084     1  0.0000000  0.6694400  3
   2074   2072   2073   2075     1  0.0000000  0.6508444  3
   2074   2072   2073   2093     1  0.0000000  1.0460000  1
   2074   2072   2073   2093     1  0.0000000  0.0000000  3
   2074   2072   2073   2092     1  0.0000000  0.6508444  3
   2074   2072   2083   2088     1  0.0000000  1.0460000  1
   2074   2072   2083   2088     1  0.0000000  0.0000000  3
   2074   2072   2083   2086     1  0.0000000  0.6508444  3
   2074   2072   2083   2087     1  0.0000000  0.6508444  3
   2074   2072   2090   2077     1  0.0000000  1.6038667  3
   2075   2073   2093   2094     1  0.0000000  1.0460000  1
   2075   2073   2093   2094     1  0.0000000  0.6694400  3
   2075   2076   2077   2080     1  0.0000000  0.6508444  3
   2075   2076   2095   2085     1  0.0000000  1.2552000  3
   2076   2075   2073   2092     1  0.0000000  0.6508444  3
   2076   2075   2082   2084     1  0.0000000  1.0460000  1
   2076   2075   2082   2084     1  0.0000000  0.6694400  3
   2076   2077   2081   2091     1  0.0000000  1.0460000  1
   2076   2077   2081   2091     1  0.0000000  0.6694400  3
   2077   2076   2075   2079     1  0.0000000  0.6508444  3
   2077   2076   2095   2085     1  0.0000000  1.2552000  3
   2078   2076   2075   2082     1  0.0000000  1.0460000  1
   2078   2076   2075   2082     1  0.0000000  0.0000000  3
   2078   2076   2075   2079     1  0.0000000  0.6508444  3
   2078   2076   2077   2081     1  0.0000000  1.0460000  1
   2078   2076   2077   2081     1  0.0000000  0.0000000  3
   2078   2076   2077   2090     1  0.0000000  1.0460000  1
   2078   2076   2077   2090     1  0.0000000  0.0000000  3
   2078   2076   2077   2080     1  0.0000000  0.6508444  3
   2078   2076   2095   2085     1  0.0000000  1.2552000  3
   2079   2075   2073   2093     1  0.0000000  1.0460000  1
   2079   2075   2073   2093     1  0.0000000  0.0000000  3
   2079   2075   2073   2092     1  0.0000000  0.6508444  3
   2079   2075   2076   2095     1  0.0000000  0.6508444  3
   2079   2075   2082   2084     1  0.0000000  0.6973333  3
   2080   2077   2076   2095     1  0.0000000  0.6508444  3
   2080   2077   2081   2091     1  0.0000000  0.6973333  3
   2082   2075   2073   2092     1  0.0000000  1.0460000  1
   2082   2075   2073   2092     1  0.0000000  0.0000000  3
   2083   2072   2073   2092     1  0.0000000  0.6508444  3
   2086   2083   2072   2090     1  0.0000000  1.0460000  1
   2086   2083   2072   2090     1  0.0000000  0.0000000  3
   2086   2083   2088   2089     1  0.0000000  0.6973333  3
   2087   2083   2072   2090     1  0.0000000  1.0460000  1
   2087   2083   2072   2090     1  0.0000000  0.0000000  3
   2087   2083   2088   2089     1  0.0000000  0.6973333  3
   2090   2072   2073   2092     1  0.0000000  1.0460000  1
   2090   2072   2073   2092     1  0.0000000  0.0000000  3
   2090   2077   2081   2091     1  0.0000000  0.6973333  3
   2092   2073   2093   2094     1  0.0000000  0.6973333  3
   2096   2097   2099   2103     1  0.0000000  0.6508444  3
   2096   2097   2117   2118     1  0.0000000  1.0460000  1
   2096   2097   2117   2118     1  0.0000000  0.6694400  3
   2096   2107   2112   2113     1  0.0000000  1.0460000  1
   2096   2107   2112   2113     1  0.0000000  0.6694400  3
   2096   2114   2101   2104     1  0.0000000  1.6038667  3
   2097   2096   2107   2110     1  0.0000000  0.6508444  3
   2097   2096   2107   2111     1  0.0000000  0.6508444  3
   2097   2099   2100   2102     1  0.0000000  0.6508444  3
   2097   2099   2106   2108     1  0.0000000  1.0460000  1
   2097   2099   2106   2108     1  0.0000000  0.6694400  3
   2098   2096   2097   2099     1  0.0000000  0.6508444  3
   2098   2096   2097   2117     1  0.0000000  1.0460000  1
   2098   2096   2097   2117     1  0.0000000  0.0000000  3
   2098   2096   2097   2116     1  0.0000000  0.6508444  3
   2098   2096   2107   2112     1  0.0000000  1.0460000  1
   2098   2096   2107   2112     1  0.0000000  0.0000000  3
   2098   2096   2107   2110     1  0.0000000  0.6508444  3
   2098   2096   2107   2111     1  0.0000000  0.6508444  3
   2098   2096   2114   2101     1  0.0000000  1.6038667  3
   2099   2097   2117   2118     1  0.0000000  1.0460000  1
   2099   2097   2117   2118     1  0.0000000  0.6694400  3
   2099   2100   2101   2104     1  0.0000000  0.6508444  3
   2099   2100   2119   2109     1  0.0000000  1.2552000  3
   2100   2099   2097   2116     1  0.0000000  0.6508444  3
   2100   2099   2106   2108     1  0.0000000  1.0460000  1
   2100   2099   2106   2108     1  0.0000000  0.6694400  3
   2100   2101   2105   2115     1  0.0000000  1.0460000  1
   2100   2101   2105   2115     1  0.0000000  0.6694400  3
   2101   2100   2099   2103     1  0.0000000  0.6508444  3
   2101   2100   2119   2109     1  0.0000000  1.2552000  3
   2102   2100   2099   2106     1  0.0000000  1.0460000  1
   2102   2100   2099   2106     1  0.0000000  0.0000000  3
   2102   2100   2099   2103     1  0.0000000  0.6508444  3
   2102   2100   2101   2105     1  0.0000000  1.0460000  1
   2102   2100   2101   2105     1  0.0000000  0.0000000  3
   2102   2100   2101   2114     1  0.0000000  1.0460000  1
   2102   2100   2101   2114     1  0.0000000  0.0000000  3
   2102   2100   2101   2104     1  0.0000000  0.6508444  3
   2102   2100   2119   2109     1  0.0000000  1.2552000  3
   2103   2099   2097   2117     1  0.0000000  1.0460000  1
   2103   2099   2097   2117     1  0.0000000  0.0000000  3
   2103   2099   2097   2116     1  0.0000000  0.6508444  3
   2103   2099   2100   2119     1  0.0000000  0.6508444  3
   2103   2099   2106   2108     1  0.0000000  0.6973333  3
   2104   2101   2100   2119     1  0.0000000  0.6508444  3
   2104   2101   2105   2115     1  0.0000000  0.6973333  3
   2106   2099   2097   2116     1  0.0000000  1.0460000  1
   2106   2099   2097   2116     1  0.0000000  0.0000000  3
   2107   2096   2097   2116     1  0.0000000  0.6508444  3
   2110   2107   2096   2114     1  0.0000000  1.0460000  1
   2110   2107   2096   2114     1  0.0000000  0.0000000  3
   2110   2107   2112   2113     1  0.0000000  0.6973333  3
   2111   2107   2096   2114     1  0.0000000  1.0460000  1
   2111   2107   2096   2114     1  0.0000000  0.0000000  3
   2111   2107   2112   2113     1  0.0000000  0.6973333  3
   2114   2096   2097   2116     1  0.0000000  1.0460000  1
   2114   2096   2097   2116     1  0.0000000  0.0000000  3
   2114   2101   2105   2115     1  0.0000000  0.6973333  3
   2116   2097   2117   2118     1  0.0000000  0.6973333  3
   2121   2123   2125   2127     1  0.0000000  0.6508444  3
   2121   2123   2125   2128     1  0.0000000  0.6508444  3
   2122   2121   2123   2125     1  0.0000000  0.0000000  2
   2122   2121   2123   2124     1  0.0000000  0.0000000  2
   2122   2121   2123   2126     1  0.0000000  0.0000000  2
   2123   2125   2129   2194     1  0.0000000  0.6508444  3
   2124   2123   2125   2129     1  0.0000000  0.6508444  3
   2124   2123   2125   2127     1  0.0000000  0.6508444  3
   2124   2123   2125   2128     1  0.0000000  0.6508444  3
   2125   2129   2130   2139     1  0.0000000  0.6508444  3
   2125   2129   2130   2140     1  0.0000000  0.6508444  3
   2125   2129   2131   2132     1  0.0000000  0.6508444  3
   2125   2129   2131   2134     1  0.0000000  0.6508444  3
   2126   2123   2125   2129     1  0.0000000  0.6508444  3
   2126   2123   2125   2127     1  0.0000000  0.6508444  3
   2126   2123   2125   2128     1  0.0000000  0.6508444  3
   2127   2125   2129   2130     1  0.0000000  0.6508444  3
   2127   2125   2129   2131     1  0.0000000  0.6508444  3
   2127   2125   2129   2194     1  0.0000000  0.6508444  3
   2128   2125   2129   2130     1  0.0000000  0.6508444  3
   2128   2125   2129   2131     1  0.0000000  0.6508444  3
   2128   2125   2129   2194     1  0.0000000  0.6508444  3
   2129   2130   2141   2142     1  0.0000000  0.6508444  3
   2129   2130   2141   2143     1  0.0000000  0.6508444  3
   2129   2131   2133   2135     1  0.0000000  0.6508444  3
   2129   2131   2133   2136     1  0.0000000  0.6508444  3
   2130   2129   2131   2132     1  0.0000000  0.6508444  3
   2130   2129   2131   2134     1  0.0000000  0.6508444  3
   2131   2129   2130   2139     1  0.0000000  0.6508444  3
   2131   2129   2130   2140     1  0.0000000  0.6508444  3
   2132   2131   2133   2137     1  0.0000000  0.6508444  3
   2132   2131   2133   2135     1  0.0000000  0.6508444  3
   2132   2131   2133   2136     1  0.0000000  0.6508444  3
   2132   2131   2129   2194     1  0.0000000  0.6508444  3
   2133   2137   2169   2159     1  180.0000771  6.0668000  2
   2133   2137   2169   2159     1  180.0000771  1.4644000  4
   2133   2131   2129   2194     1  0.0000000  0.6508444  3
   2134   2131   2133   2137     1  0.0000000  0.6508444  3
   2134   2131   2133   2135     1  0.0000000  0.6508444  3
   2134   2131   2133   2136     1  0.0000000  0.6508444  3
   2134   2131   2129   2194     1  0.0000000  0.6508444  3
   2135   2133   2137   2138     1  0.0000000  3.3472000  1
   2135   2133   2137   2138     1  0.0000000  0.0000000  2
   2135   2133   2137   2138     1  180.0000771  0.3347200  3
   2135   2133   2137   2169     1  180.0000771  0.0000000  2
   2136   2133   2137   2138     1  0.0000000  3.3472000  1
   2136   2133   2137   2138     1  0.0000000  0.0000000  2
   2136   2133   2137   2138     1  180.0000771  0.3347200  3
   2136   2133   2137   2169     1  180.0000771  0.0000000  2
   2137   2169   2150   2152     1  0.0000000  1.2552000  3
   2138   2137   2169   2159     1  180.0000771  6.0668000  2
   2138   2137   2169   2159     1  180.0000771  1.4644000  4
   2139   2130   2141   2144     1  0.0000000  0.6508444  3
   2139   2130   2141   2142     1  0.0000000  0.6508444  3
   2139   2130   2141   2143     1  0.0000000  0.6508444  3
   2139   2130   2129   2194     1  0.0000000  0.6508444  3
   2140   2130   2141   2144     1  0.0000000  0.6508444  3
   2140   2130   2141   2142     1  0.0000000  0.6508444  3
   2140   2130   2141   2143     1  0.0000000  0.6508444  3
   2140   2130   2129   2194     1  0.0000000  0.6508444  3
   2141   2144   2193   2183     1  180.0000771  6.0668000  2
   2141   2144   2193   2183     1  180.0000771  1.4644000  4
   2141   2130   2129   2194     1  0.0000000  0.6508444  3
   2142   2141   2144   2145     1  0.0000000  3.3472000  1
   2142   2141   2144   2145     1  0.0000000  0.0000000  2
   2142   2141   2144   2145     1  180.0000771  0.3347200  3
   2142   2141   2144   2193     1  180.0000771  0.0000000  2
   2143   2141   2144   2145     1  0.0000000  3.3472000  1
   2143   2141   2144   2145     1  0.0000000  0.0000000  2
   2143   2141   2144   2145     1  180.0000771  0.3347200  3
   2143   2141   2144   2193     1  180.0000771  0.0000000  2
   2144   2193   2174   2176     1  0.0000000  1.2552000  3
   2145   2144   2193   2183     1  180.0000771  6.0668000  2
   2145   2144   2193   2183     1  180.0000771  1.4644000  4
   2146   2147   2149   2153     1  0.0000000  0.6508444  3
   2146   2147   2167   2168     1  0.0000000  1.0460000  1
   2146   2147   2167   2168     1  0.0000000  0.6694400  3
   2146   2157   2162   2163     1  0.0000000  1.0460000  1
   2146   2157   2162   2163     1  0.0000000  0.6694400  3
   2146   2164   2151   2154     1  0.0000000  1.6038667  3
   2147   2149   2150   2152     1  0.0000000  0.6508444  3
   2147   2149   2156   2158     1  0.0000000  1.0460000  1
   2147   2149   2156   2158     1  0.0000000  0.6694400  3
   2147   2146   2157   2160     1  0.0000000  0.6508444  3
   2147   2146   2157   2161     1  0.0000000  0.6508444  3
   2148   2146   2147   2149     1  0.0000000  0.6508444  3
   2148   2146   2147   2167     1  0.0000000  1.0460000  1
   2148   2146   2147   2167     1  0.0000000  0.0000000  3
   2148   2146   2147   2166     1  0.0000000  0.6508444  3
   2148   2146   2157   2162     1  0.0000000  1.0460000  1
   2148   2146   2157   2162     1  0.0000000  0.0000000  3
   2148   2146   2157   2160     1  0.0000000  0.6508444  3
   2148   2146   2157   2161     1  0.0000000  0.6508444  3
   2148   2146   2164   2151     1  0.0000000  1.6038667  3
   2149   2150   2151   2154     1  0.0000000  0.6508444  3
   2149   2150   2169   2159     1  0.0000000  1.2552000  3
   2149   2147   2167   2168     1  0.0000000  1.0460000  1
   2149   2147   2167   2168     1  0.0000000  0.6694400  3
   2150   2151   2155   2165     1  0.0000000  1.0460000  1
   2150   2151   2155   2165     1  0.0000000  0.6694400  3
   2150   2149   2156   2158     1  0.0000000  1.0460000  1
   2150   2149   2156   2158     1  0.0000000  0.6694400  3
   2150   2149   2147   2166     1  0.0000000  0.6508444  3
   2151   2150   2169   2159     1  0.0000000  1.2552000  3
   2151   2150   2149   2153     1  0.0000000  0.6508444  3
   2152   2150   2151   2155     1  0.0000000  1.0460000  1
   2152   2150   2151   2155     1  0.0000000  0.0000000  3
   2152   2150   2151   2164     1  0.0000000  1.0460000  1
   2152   2150   2151   2164     1  0.0000000  0.0000000  3
   2152   2150   2151   2154     1  0.0000000  0.6508444  3
   2152   2150   2169   2159     1  0.0000000  1.2552000  3
   2152   2150   2149   2156     1  0.0000000  1.0460000  1
   2152   2150   2149   2156     1  0.0000000  0.0000000  3
   2152   2150   2149   2153     1  0.0000000  0.6508444  3
   2153   2149   2150   2169     1  0.0000000  0.6508444  3
   2153   2149   2156   2158     1  0.0000000  0.6973333  3
   2153   2149   2147   2167     1  0.0000000  1.0460000  1
   2153   2149   2147   2167     1  0.0000000  0.0000000  3
   2153   2149   2147   2166     1  0.0000000  0.6508444  3
   2154   2151   2155   2165     1  0.0000000  0.6973333  3
   2154   2151   2150   2169     1  0.0000000  0.6508444  3
   2156   2149   2147   2166     1  0.0000000  1.0460000  1
   2156   2149   2147   2166     1  0.0000000  0.0000000  3
   2157   2146   2147   2166     1  0.0000000  0.6508444  3
   2160   2157   2162   2163     1  0.0000000  0.6973333  3
   2160   2157   2146   2164     1  0.0000000  1.0460000  1
   2160   2157   2146   2164     1  0.0000000  0.0000000  3
   2161   2157   2162   2163     1  0.0000000  0.6973333  3
   2161   2157   2146   2164     1  0.0000000  1.0460000  1
   2161   2157   2146   2164     1  0.0000000  0.0000000  3
   2164   2151   2155   2165     1  0.0000000  0.6973333  3
   2164   2146   2147   2166     1  0.0000000  1.0460000  1
   2164   2146   2147   2166     1  0.0000000  0.0000000  3
   2166   2147   2167   2168     1  0.0000000  0.6973333  3
   2170   2171   2173   2177     1  0.0000000  0.6508444  3
   2170   2171   2191   2192     1  0.0000000  1.0460000  1
   2170   2171   2191   2192     1  0.0000000  0.6694400  3
   2170   2181   2186   2187     1  0.0000000  1.0460000  1
   2170   2181   2186   2187     1  0.0000000  0.6694400  3
   2170   2188   2175   2178     1  0.0000000  1.6038667  3
   2171   2173   2174   2176     1  0.0000000  0.6508444  3
   2171   2173   2180   2182     1  0.0000000  1.0460000  1
   2171   2173   2180   2182     1  0.0000000  0.6694400  3
   2171   2170   2181   2184     1  0.0000000  0.6508444  3
   2171   2170   2181   2185     1  0.0000000  0.6508444  3
   2172   2170   2171   2173     1  0.0000000  0.6508444  3
   2172   2170   2171   2191     1  0.0000000  1.0460000  1
   2172   2170   2171   2191     1  0.0000000  0.0000000  3
   2172   2170   2171   2190     1  0.0000000  0.6508444  3
   2172   2170   2181   2186     1  0.0000000  1.0460000  1
   2172   2170   2181   2186     1  0.0000000  0.0000000  3
   2172   2170   2181   2184     1  0.0000000  0.6508444  3
   2172   2170   2181   2185     1  0.0000000  0.6508444  3
   2172   2170   2188   2175     1  0.0000000  1.6038667  3
   2173   2174   2175   2178     1  0.0000000  0.6508444  3
   2173   2174   2193   2183     1  0.0000000  1.2552000  3
   2173   2171   2191   2192     1  0.0000000  1.0460000  1
   2173   2171   2191   2192     1  0.0000000  0.6694400  3
   2174   2175   2179   2189     1  0.0000000  1.0460000  1
   2174   2175   2179   2189     1  0.0000000  0.6694400  3
   2174   2173   2180   2182     1  0.0000000  1.0460000  1
   2174   2173   2180   2182     1  0.0000000  0.6694400  3
   2174   2173   2171   2190     1  0.0000000  0.6508444  3
   2175   2174   2193   2183     1  0.0000000  1.2552000  3
   2175   2174   2173   2177     1  0.0000000  0.6508444  3
   2176   2174   2175   2179     1  0.0000000  1.0460000  1
   2176   2174   2175   2179     1  0.0000000  0.0000000  3
   2176   2174   2175   2188     1  0.0000000  1.0460000  1
   2176   2174   2175   2188     1  0.0000000  0.0000000  3
   2176   2174   2175   2178     1  0.0000000  0.6508444  3
   2176   2174   2193   2183     1  0.0000000  1.2552000  3
   2176   2174   2173   2180     1  0.0000000  1.0460000  1
   2176   2174   2173   2180     1  0.0000000  0.0000000  3
   2176   2174   2173   2177     1  0.0000000  0.6508444  3
   2177   2173   2174   2193     1  0.0000000  0.6508444  3
   2177   2173   2180   2182     1  0.0000000  0.6973333  3
   2177   2173   2171   2191     1  0.0000000  1.0460000  1
   2177   2173   2171   2191     1  0.0000000  0.0000000  3
   2177   2173   2171   2190     1  0.0000000  0.6508444  3
   2178   2175   2179   2189     1  0.0000000  0.6973333  3
   2178   2175   2174   2193     1  0.0000000  0.6508444  3
   2180   2173   2171   2190     1  0.0000000  1.0460000  1
   2180   2173   2171   2190     1  0.0000000  0.0000000  3
   2181   2170   2171   2190     1  0.0000000  0.6508444  3
   2184   2181   2186   2187     1  0.0000000  0.6973333  3
   2184   2181   2170   2188     1  0.0000000  1.0460000  1
   2184   2181   2170   2188     1  0.0000000  0.0000000  3
   2185   2181   2186   2187     1  0.0000000  0.6973333  3
   2185   2181   2170   2188     1  0.0000000  1.0460000  1
   2185   2181   2170   2188     1  0.0000000  0.0000000  3
   2188   2175   2179   2189     1  0.0000000  0.6973333  3
   2188   2170   2171   2190     1  0.0000000  1.0460000  1
   2188   2170   2171   2190     1  0.0000000  0.0000000  3
   2190   2171   2191   2192     1  0.0000000  0.6973333  3
   2195   2197   2199   2201     1  0.0000000  0.6508444  3
   2195   2197   2199   2202     1  0.0000000  0.6508444  3
   2196   2195   2197   2199     1  0.0000000  0.0000000  2
   2196   2195   2197   2198     1  0.0000000  0.0000000  2
   2196   2195   2197   2200     1  0.0000000  0.0000000  2
   2197   2199   2203   2268     1  0.0000000  0.6508444  3
   2198   2197   2199   2203     1  0.0000000  0.6508444  3
   2198   2197   2199   2201     1  0.0000000  0.6508444  3
   2198   2197   2199   2202     1  0.0000000  0.6508444  3
   2199   2203   2204   2213     1  0.0000000  0.6508444  3
   2199   2203   2204   2214     1  0.0000000  0.6508444  3
   2199   2203   2205   2206     1  0.0000000  0.6508444  3
   2199   2203   2205   2208     1  0.0000000  0.6508444  3
   2200   2197   2199   2203     1  0.0000000  0.6508444  3
   2200   2197   2199   2201     1  0.0000000  0.6508444  3
   2200   2197   2199   2202     1  0.0000000  0.6508444  3
   2201   2199   2203   2204     1  0.0000000  0.6508444  3
   2201   2199   2203   2205     1  0.0000000  0.6508444  3
   2201   2199   2203   2268     1  0.0000000  0.6508444  3
   2202   2199   2203   2204     1  0.0000000  0.6508444  3
   2202   2199   2203   2205     1  0.0000000  0.6508444  3
   2202   2199   2203   2268     1  0.0000000  0.6508444  3
   2203   2204   2215   2216     1  0.0000000  0.6508444  3
   2203   2204   2215   2217     1  0.0000000  0.6508444  3
   2203   2205   2207   2209     1  0.0000000  0.6508444  3
   2203   2205   2207   2210     1  0.0000000  0.6508444  3
   2204   2203   2205   2206     1  0.0000000  0.6508444  3
   2204   2203   2205   2208     1  0.0000000  0.6508444  3
   2205   2203   2204   2213     1  0.0000000  0.6508444  3
   2205   2203   2204   2214     1  0.0000000  0.6508444  3
   2206   2205   2203   2268     1  0.0000000  0.6508444  3
   2206   2205   2207   2211     1  0.0000000  0.6508444  3
   2206   2205   2207   2209     1  0.0000000  0.6508444  3
   2206   2205   2207   2210     1  0.0000000  0.6508444  3
   2207   2205   2203   2268     1  0.0000000  0.6508444  3
   2207   2211   2243   2233     1  180.0000771  6.0668000  2
   2207   2211   2243   2233     1  180.0000771  1.4644000  4
   2208   2205   2203   2268     1  0.0000000  0.6508444  3
   2208   2205   2207   2211     1  0.0000000  0.6508444  3
   2208   2205   2207   2209     1  0.0000000  0.6508444  3
   2208   2205   2207   2210     1  0.0000000  0.6508444  3
   2209   2207   2211   2212     1  0.0000000  3.3472000  1
   2209   2207   2211   2212     1  0.0000000  0.0000000  2
   2209   2207   2211   2212     1  180.0000771  0.3347200  3
   2209   2207   2211   2243     1  180.0000771  0.0000000  2
   2210   2207   2211   2212     1  0.0000000  3.3472000  1
   2210   2207   2211   2212     1  0.0000000  0.0000000  2
   2210   2207   2211   2212     1  180.0000771  0.3347200  3
   2210   2207   2211   2243     1  180.0000771  0.0000000  2
   2211   2243   2224   2226     1  0.0000000  1.2552000  3
   2212   2211   2243   2233     1  180.0000771  6.0668000  2
   2212   2211   2243   2233     1  180.0000771  1.4644000  4
   2213   2204   2203   2268     1  0.0000000  0.6508444  3
   2213   2204   2215   2218     1  0.0000000  0.6508444  3
   2213   2204   2215   2216     1  0.0000000  0.6508444  3
   2213   2204   2215   2217     1  0.0000000  0.6508444  3
   2214   2204   2203   2268     1  0.0000000  0.6508444  3
   2214   2204   2215   2218     1  0.0000000  0.6508444  3
   2214   2204   2215   2216     1  0.0000000  0.6508444  3
   2214   2204   2215   2217     1  0.0000000  0.6508444  3
   2215   2204   2203   2268     1  0.0000000  0.6508444  3
   2215   2218   2267   2257     1  180.0000771  6.0668000  2
   2215   2218   2267   2257     1  180.0000771  1.4644000  4
   2216   2215   2218   2219     1  0.0000000  3.3472000  1
   2216   2215   2218   2219     1  0.0000000  0.0000000  2
   2216   2215   2218   2219     1  180.0000771  0.3347200  3
   2216   2215   2218   2267     1  180.0000771  0.0000000  2
   2217   2215   2218   2219     1  0.0000000  3.3472000  1
   2217   2215   2218   2219     1  0.0000000  0.0000000  2
   2217   2215   2218   2219     1  180.0000771  0.3347200  3
   2217   2215   2218   2267     1  180.0000771  0.0000000  2
   2218   2267   2248   2250     1  0.0000000  1.2552000  3
   2219   2218   2267   2257     1  180.0000771  6.0668000  2
   2219   2218   2267   2257     1  180.0000771  1.4644000  4
   2220   2221   2223   2227     1  0.0000000  0.6508444  3
   2220   2221   2241   2242     1  0.0000000  1.0460000  1
   2220   2221   2241   2242     1  0.0000000  0.6694400  3
   2220   2231   2236   2237     1  0.0000000  1.0460000  1
   2220   2231   2236   2237     1  0.0000000  0.6694400  3
   2220   2238   2225   2228     1  0.0000000  1.6038667  3
   2221   2220   2231   2234     1  0.0000000  0.6508444  3
   2221   2220   2231   2235     1  0.0000000  0.6508444  3
   2221   2223   2224   2226     1  0.0000000  0.6508444  3
   2221   2223   2230   2232     1  0.0000000  1.0460000  1
   2221   2223   2230   2232     1  0.0000000  0.6694400  3
   2222   2220   2221   2223     1  0.0000000  0.6508444  3
   2222   2220   2221   2241     1  0.0000000  1.0460000  1
   2222   2220   2221   2241     1  0.0000000  0.0000000  3
   2222   2220   2221   2240     1  0.0000000  0.6508444  3
   2222   2220   2231   2236     1  0.0000000  1.0460000  1
   2222   2220   2231   2236     1  0.0000000  0.0000000  3
   2222   2220   2231   2234     1  0.0000000  0.6508444  3
   2222   2220   2231   2235     1  0.0000000  0.6508444  3
   2222   2220   2238   2225     1  0.0000000  1.6038667  3
   2223   2221   2241   2242     1  0.0000000  1.0460000  1
   2223   2221   2241   2242     1  0.0000000  0.6694400  3
   2223   2224   2225   2228     1  0.0000000  0.6508444  3
   2223   2224   2243   2233     1  0.0000000  1.2552000  3
   2224   2223   2221   2240     1  0.0000000  0.6508444  3
   2224   2223   2230   2232     1  0.0000000  1.0460000  1
   2224   2223   2230   2232     1  0.0000000  0.6694400  3
   2224   2225   2229   2239     1  0.0000000  1.0460000  1
   2224   2225   2229   2239     1  0.0000000  0.6694400  3
   2225   2224   2223   2227     1  0.0000000  0.6508444  3
   2225   2224   2243   2233     1  0.0000000  1.2552000  3
   2226   2224   2223   2230     1  0.0000000  1.0460000  1
   2226   2224   2223   2230     1  0.0000000  0.0000000  3
   2226   2224   2223   2227     1  0.0000000  0.6508444  3
   2226   2224   2225   2229     1  0.0000000  1.0460000  1
   2226   2224   2225   2229     1  0.0000000  0.0000000  3
   2226   2224   2225   2238     1  0.0000000  1.0460000  1
   2226   2224   2225   2238     1  0.0000000  0.0000000  3
   2226   2224   2225   2228     1  0.0000000  0.6508444  3
   2226   2224   2243   2233     1  0.0000000  1.2552000  3
   2227   2223   2221   2241     1  0.0000000  1.0460000  1
   2227   2223   2221   2241     1  0.0000000  0.0000000  3
   2227   2223   2221   2240     1  0.0000000  0.6508444  3
   2227   2223   2224   2243     1  0.0000000  0.6508444  3
   2227   2223   2230   2232     1  0.0000000  0.6973333  3
   2228   2225   2224   2243     1  0.0000000  0.6508444  3
   2228   2225   2229   2239     1  0.0000000  0.6973333  3
   2230   2223   2221   2240     1  0.0000000  1.0460000  1
   2230   2223   2221   2240     1  0.0000000  0.0000000  3
   2231   2220   2221   2240     1  0.0000000  0.6508444  3
   2234   2231   2220   2238     1  0.0000000  1.0460000  1
   2234   2231   2220   2238     1  0.0000000  0.0000000  3
   2234   2231   2236   2237     1  0.0000000  0.6973333  3
   2235   2231   2220   2238     1  0.0000000  1.0460000  1
   2235   2231   2220   2238     1  0.0000000  0.0000000  3
   2235   2231   2236   2237     1  0.0000000  0.6973333  3
   2238   2220   2221   2240     1  0.0000000  1.0460000  1
   2238   2220   2221   2240     1  0.0000000  0.0000000  3
   2238   2225   2229   2239     1  0.0000000  0.6973333  3
   2240   2221   2241   2242     1  0.0000000  0.6973333  3
   2244   2245   2247   2251     1  0.0000000  0.6508444  3
   2244   2245   2265   2266     1  0.0000000  1.0460000  1
   2244   2245   2265   2266     1  0.0000000  0.6694400  3
   2244   2255   2260   2261     1  0.0000000  1.0460000  1
   2244   2255   2260   2261     1  0.0000000  0.6694400  3
   2244   2262   2249   2252     1  0.0000000  1.6038667  3
   2245   2244   2255   2258     1  0.0000000  0.6508444  3
   2245   2244   2255   2259     1  0.0000000  0.6508444  3
   2245   2247   2248   2250     1  0.0000000  0.6508444  3
   2245   2247   2254   2256     1  0.0000000  1.0460000  1
   2245   2247   2254   2256     1  0.0000000  0.6694400  3
   2246   2244   2245   2247     1  0.0000000  0.6508444  3
   2246   2244   2245   2265     1  0.0000000  1.0460000  1
   2246   2244   2245   2265     1  0.0000000  0.0000000  3
   2246   2244   2245   2264     1  0.0000000  0.6508444  3
   2246   2244   2255   2260     1  0.0000000  1.0460000  1
   2246   2244   2255   2260     1  0.0000000  0.0000000  3
   2246   2244   2255   2258     1  0.0000000  0.6508444  3
   2246   2244   2255   2259     1  0.0000000  0.6508444  3
   2246   2244   2262   2249     1  0.0000000  1.6038667  3
   2247   2245   2265   2266     1  0.0000000  1.0460000  1
   2247   2245   2265   2266     1  0.0000000  0.6694400  3
   2247   2248   2249   2252     1  0.0000000  0.6508444  3
   2247   2248   2267   2257     1  0.0000000  1.2552000  3
   2248   2247   2245   2264     1  0.0000000  0.6508444  3
   2248   2247   2254   2256     1  0.0000000  1.0460000  1
   2248   2247   2254   2256     1  0.0000000  0.6694400  3
   2248   2249   2253   2263     1  0.0000000  1.0460000  1
   2248   2249   2253   2263     1  0.0000000  0.6694400  3
   2249   2248   2247   2251     1  0.0000000  0.6508444  3
   2249   2248   2267   2257     1  0.0000000  1.2552000  3
   2250   2248   2247   2254     1  0.0000000  1.0460000  1
   2250   2248   2247   2254     1  0.0000000  0.0000000  3
   2250   2248   2247   2251     1  0.0000000  0.6508444  3
   2250   2248   2249   2253     1  0.0000000  1.0460000  1
   2250   2248   2249   2253     1  0.0000000  0.0000000  3
   2250   2248   2249   2262     1  0.0000000  1.0460000  1
   2250   2248   2249   2262     1  0.0000000  0.0000000  3
   2250   2248   2249   2252     1  0.0000000  0.6508444  3
   2250   2248   2267   2257     1  0.0000000  1.2552000  3
   2251   2247   2245   2265     1  0.0000000  1.0460000  1
   2251   2247   2245   2265     1  0.0000000  0.0000000  3
   2251   2247   2245   2264     1  0.0000000  0.6508444  3
   2251   2247   2248   2267     1  0.0000000  0.6508444  3
   2251   2247   2254   2256     1  0.0000000  0.6973333  3
   2252   2249   2248   2267     1  0.0000000  0.6508444  3
   2252   2249   2253   2263     1  0.0000000  0.6973333  3
   2254   2247   2245   2264     1  0.0000000  1.0460000  1
   2254   2247   2245   2264     1  0.0000000  0.0000000  3
   2255   2244   2245   2264     1  0.0000000  0.6508444  3
   2258   2255   2244   2262     1  0.0000000  1.0460000  1
   2258   2255   2244   2262     1  0.0000000  0.0000000  3
   2258   2255   2260   2261     1  0.0000000  0.6973333  3
   2259   2255   2244   2262     1  0.0000000  1.0460000  1
   2259   2255   2244   2262     1  0.0000000  0.0000000  3
   2259   2255   2260   2261     1  0.0000000  0.6973333  3
   2262   2244   2245   2264     1  0.0000000  1.0460000  1
   2262   2244   2245   2264     1  0.0000000  0.0000000  3
   2262   2249   2253   2263     1  0.0000000  0.6973333  3
   2264   2245   2265   2266     1  0.0000000  0.6973333  3
   2269   2271   2273   2275     1  0.0000000  0.6508444  3
   2269   2271   2273   2276     1  0.0000000  0.6508444  3
   2270   2269   2271   2273     1  0.0000000  0.0000000  2
   2270   2269   2271   2272     1  0.0000000  0.0000000  2
   2270   2269   2271   2274     1  0.0000000  0.0000000  2
   2271   2273   2277   2342     1  0.0000000  0.6508444  3
   2272   2271   2273   2277     1  0.0000000  0.6508444  3
   2272   2271   2273   2275     1  0.0000000  0.6508444  3
   2272   2271   2273   2276     1  0.0000000  0.6508444  3
   2273   2277   2278   2287     1  0.0000000  0.6508444  3
   2273   2277   2278   2288     1  0.0000000  0.6508444  3
   2273   2277   2279   2280     1  0.0000000  0.6508444  3
   2273   2277   2279   2282     1  0.0000000  0.6508444  3
   2274   2271   2273   2277     1  0.0000000  0.6508444  3
   2274   2271   2273   2275     1  0.0000000  0.6508444  3
   2274   2271   2273   2276     1  0.0000000  0.6508444  3
   2275   2273   2277   2278     1  0.0000000  0.6508444  3
   2275   2273   2277   2279     1  0.0000000  0.6508444  3
   2275   2273   2277   2342     1  0.0000000  0.6508444  3
   2276   2273   2277   2278     1  0.0000000  0.6508444  3
   2276   2273   2277   2279     1  0.0000000  0.6508444  3
   2276   2273   2277   2342     1  0.0000000  0.6508444  3
   2277   2278   2289   2290     1  0.0000000  0.6508444  3
   2277   2278   2289   2291     1  0.0000000  0.6508444  3
   2277   2279   2281   2283     1  0.0000000  0.6508444  3
   2277   2279   2281   2284     1  0.0000000  0.6508444  3
   2278   2277   2279   2280     1  0.0000000  0.6508444  3
   2278   2277   2279   2282     1  0.0000000  0.6508444  3
   2279   2277   2278   2287     1  0.0000000  0.6508444  3
   2279   2277   2278   2288     1  0.0000000  0.6508444  3
   2280   2279   2281   2285     1  0.0000000  0.6508444  3
   2280   2279   2281   2283     1  0.0000000  0.6508444  3
   2280   2279   2281   2284     1  0.0000000  0.6508444  3
   2280   2279   2277   2342     1  0.0000000  0.6508444  3
   2281   2285   2317   2307     1  180.0000771  6.0668000  2
   2281   2285   2317   2307     1  180.0000771  1.4644000  4
   2281   2279   2277   2342     1  0.0000000  0.6508444  3
   2282   2279   2281   2285     1  0.0000000  0.6508444  3
   2282   2279   2281   2283     1  0.0000000  0.6508444  3
   2282   2279   2281   2284     1  0.0000000  0.6508444  3
   2282   2279   2277   2342     1  0.0000000  0.6508444  3
   2283   2281   2285   2286     1  0.0000000  3.3472000  1
   2283   2281   2285   2286     1  0.0000000  0.0000000  2
   2283   2281   2285   2286     1  180.0000771  0.3347200  3
   2283   2281   2285   2317     1  180.0000771  0.0000000  2
   2284   2281   2285   2286     1  0.0000000  3.3472000  1
   2284   2281   2285   2286     1  0.0000000  0.0000000  2
   2284   2281   2285   2286     1  180.0000771  0.3347200  3
   2284   2281   2285   2317     1  180.0000771  0.0000000  2
   2285   2317   2298   2300     1  0.0000000  1.2552000  3
   2286   2285   2317   2307     1  180.0000771  6.0668000  2
   2286   2285   2317   2307     1  180.0000771  1.4644000  4
   2287   2278   2289   2292     1  0.0000000  0.6508444  3
   2287   2278   2289   2290     1  0.0000000  0.6508444  3
   2287   2278   2289   2291     1  0.0000000  0.6508444  3
   2287   2278   2277   2342     1  0.0000000  0.6508444  3
   2288   2278   2289   2292     1  0.0000000  0.6508444  3
   2288   2278   2289   2290     1  0.0000000  0.6508444  3
   2288   2278   2289   2291     1  0.0000000  0.6508444  3
   2288   2278   2277   2342     1  0.0000000  0.6508444  3
   2289   2292   2341   2331     1  180.0000771  6.0668000  2
   2289   2292   2341   2331     1  180.0000771  1.4644000  4
   2289   2278   2277   2342     1  0.0000000  0.6508444  3
   2290   2289   2292   2293     1  0.0000000  3.3472000  1
   2290   2289   2292   2293     1  0.0000000  0.0000000  2
   2290   2289   2292   2293     1  180.0000771  0.3347200  3
   2290   2289   2292   2341     1  180.0000771  0.0000000  2
   2291   2289   2292   2293     1  0.0000000  3.3472000  1
   2291   2289   2292   2293     1  0.0000000  0.0000000  2
   2291   2289   2292   2293     1  180.0000771  0.3347200  3
   2291   2289   2292   2341     1  180.0000771  0.0000000  2
   2292   2341   2322   2324     1  0.0000000  1.2552000  3
   2293   2292   2341   2331     1  180.0000771  6.0668000  2
   2293   2292   2341   2331     1  180.0000771  1.4644000  4
   2294   2295   2297   2301     1  0.0000000  0.6508444  3
   2294   2295   2315   2316     1  0.0000000  1.0460000  1
   2294   2295   2315   2316     1  0.0000000  0.6694400  3
   2294   2305   2310   2311     1  0.0000000  1.0460000  1
   2294   2305   2310   2311     1  0.0000000  0.6694400  3
   2294   2312   2299   2302     1  0.0000000  1.6038667  3
   2295   2297   2298   2300     1  0.0000000  0.6508444  3
   2295   2297   2304   2306     1  0.0000000  1.0460000  1
   2295   2297   2304   2306     1  0.0000000  0.6694400  3
   2295   2294   2305   2308     1  0.0000000  0.6508444  3
   2295   2294   2305   2309     1  0.0000000  0.6508444  3
   2296   2294   2295   2297     1  0.0000000  0.6508444  3
   2296   2294   2295   2315     1  0.0000000  1.0460000  1
   2296   2294   2295   2315     1  0.0000000  0.0000000  3
   2296   2294   2295   2314     1  0.0000000  0.6508444  3
   2296   2294   2305   2310     1  0.0000000  1.0460000  1
   2296   2294   2305   2310     1  0.0000000  0.0000000  3
   2296   2294   2305   2308     1  0.0000000  0.6508444  3
   2296   2294   2305   2309     1  0.0000000  0.6508444  3
   2296   2294   2312   2299     1  0.0000000  1.6038667  3
   2297   2298   2299   2302     1  0.0000000  0.6508444  3
   2297   2298   2317   2307     1  0.0000000  1.2552000  3
   2297   2295   2315   2316     1  0.0000000  1.0460000  1
   2297   2295   2315   2316     1  0.0000000  0.6694400  3
   2298   2299   2303   2313     1  0.0000000  1.0460000  1
   2298   2299   2303   2313     1  0.0000000  0.6694400  3
   2298   2297   2304   2306     1  0.0000000  1.0460000  1
   2298   2297   2304   2306     1  0.0000000  0.6694400  3
   2298   2297   2295   2314     1  0.0000000  0.6508444  3
   2299   2298   2317   2307     1  0.0000000  1.2552000  3
   2299   2298   2297   2301     1  0.0000000  0.6508444  3
   2300   2298   2299   2303     1  0.0000000  1.0460000  1
   2300   2298   2299   2303     1  0.0000000  0.0000000  3
   2300   2298   2299   2312     1  0.0000000  1.0460000  1
   2300   2298   2299   2312     1  0.0000000  0.0000000  3
   2300   2298   2299   2302     1  0.0000000  0.6508444  3
   2300   2298   2317   2307     1  0.0000000  1.2552000  3
   2300   2298   2297   2304     1  0.0000000  1.0460000  1
   2300   2298   2297   2304     1  0.0000000  0.0000000  3
   2300   2298   2297   2301     1  0.0000000  0.6508444  3
   2301   2297   2298   2317     1  0.0000000  0.6508444  3
   2301   2297   2304   2306     1  0.0000000  0.6973333  3
   2301   2297   2295   2315     1  0.0000000  1.0460000  1
   2301   2297   2295   2315     1  0.0000000  0.0000000  3
   2301   2297   2295   2314     1  0.0000000  0.6508444  3
   2302   2299   2303   2313     1  0.0000000  0.6973333  3
   2302   2299   2298   2317     1  0.0000000  0.6508444  3
   2304   2297   2295   2314     1  0.0000000  1.0460000  1
   2304   2297   2295   2314     1  0.0000000  0.0000000  3
   2305   2294   2295   2314     1  0.0000000  0.6508444  3
   2308   2305   2310   2311     1  0.0000000  0.6973333  3
   2308   2305   2294   2312     1  0.0000000  1.0460000  1
   2308   2305   2294   2312     1  0.0000000  0.0000000  3
   2309   2305   2310   2311     1  0.0000000  0.6973333  3
   2309   2305   2294   2312     1  0.0000000  1.0460000  1
   2309   2305   2294   2312     1  0.0000000  0.0000000  3
   2312   2299   2303   2313     1  0.0000000  0.6973333  3
   2312   2294   2295   2314     1  0.0000000  1.0460000  1
   2312   2294   2295   2314     1  0.0000000  0.0000000  3
   2314   2295   2315   2316     1  0.0000000  0.6973333  3
   2318   2319   2321   2325     1  0.0000000  0.6508444  3
   2318   2319   2339   2340     1  0.0000000  1.0460000  1
   2318   2319   2339   2340     1  0.0000000  0.6694400  3
   2318   2329   2334   2335     1  0.0000000  1.0460000  1
   2318   2329   2334   2335     1  0.0000000  0.6694400  3
   2318   2336   2323   2326     1  0.0000000  1.6038667  3
   2319   2321   2322   2324     1  0.0000000  0.6508444  3
   2319   2321   2328   2330     1  0.0000000  1.0460000  1
   2319   2321   2328   2330     1  0.0000000  0.6694400  3
   2319   2318   2329   2332     1  0.0000000  0.6508444  3
   2319   2318   2329   2333     1  0.0000000  0.6508444  3
   2320   2318   2319   2321     1  0.0000000  0.6508444  3
   2320   2318   2319   2339     1  0.0000000  1.0460000  1
   2320   2318   2319   2339     1  0.0000000  0.0000000  3
   2320   2318   2319   2338     1  0.0000000  0.6508444  3
   2320   2318   2329   2334     1  0.0000000  1.0460000  1
   2320   2318   2329   2334     1  0.0000000  0.0000000  3
   2320   2318   2329   2332     1  0.0000000  0.6508444  3
   2320   2318   2329   2333     1  0.0000000  0.6508444  3
   2320   2318   2336   2323     1  0.0000000  1.6038667  3
   2321   2322   2323   2326     1  0.0000000  0.6508444  3
   2321   2322   2341   2331     1  0.0000000  1.2552000  3
   2321   2319   2339   2340     1  0.0000000  1.0460000  1
   2321   2319   2339   2340     1  0.0000000  0.6694400  3
   2322   2323   2327   2337     1  0.0000000  1.0460000  1
   2322   2323   2327   2337     1  0.0000000  0.6694400  3
   2322   2321   2328   2330     1  0.0000000  1.0460000  1
   2322   2321   2328   2330     1  0.0000000  0.6694400  3
   2322   2321   2319   2338     1  0.0000000  0.6508444  3
   2323   2322   2341   2331     1  0.0000000  1.2552000  3
   2323   2322   2321   2325     1  0.0000000  0.6508444  3
   2324   2322   2323   2327     1  0.0000000  1.0460000  1
   2324   2322   2323   2327     1  0.0000000  0.0000000  3
   2324   2322   2323   2336     1  0.0000000  1.0460000  1
   2324   2322   2323   2336     1  0.0000000  0.0000000  3
   2324   2322   2323   2326     1  0.0000000  0.6508444  3
   2324   2322   2341   2331     1  0.0000000  1.2552000  3
   2324   2322   2321   2328     1  0.0000000  1.0460000  1
   2324   2322   2321   2328     1  0.0000000  0.0000000  3
   2324   2322   2321   2325     1  0.0000000  0.6508444  3
   2325   2321   2322   2341     1  0.0000000  0.6508444  3
   2325   2321   2328   2330     1  0.0000000  0.6973333  3
   2325   2321   2319   2339     1  0.0000000  1.0460000  1
   2325   2321   2319   2339     1  0.0000000  0.0000000  3
   2325   2321   2319   2338     1  0.0000000  0.6508444  3
   2326   2323   2327   2337     1  0.0000000  0.6973333  3
   2326   2323   2322   2341     1  0.0000000  0.6508444  3
   2328   2321   2319   2338     1  0.0000000  1.0460000  1
   2328   2321   2319   2338     1  0.0000000  0.0000000  3
   2329   2318   2319   2338     1  0.0000000  0.6508444  3
   2332   2329   2334   2335     1  0.0000000  0.6973333  3
   2332   2329   2318   2336     1  0.0000000  1.0460000  1
   2332   2329   2318   2336     1  0.0000000  0.0000000  3
   2333   2329   2334   2335     1  0.0000000  0.6973333  3
   2333   2329   2318   2336     1  0.0000000  1.0460000  1
   2333   2329   2318   2336     1  0.0000000  0.0000000  3
   2336   2323   2327   2337     1  0.0000000  0.6973333  3
   2336   2318   2319   2338     1  0.0000000  1.0460000  1
   2336   2318   2319   2338     1  0.0000000  0.0000000  3
   2338   2319   2339   2340     1  0.0000000  0.6973333  3
   2343   2345   2347   2349     1  0.0000000  0.6508444  3
   2343   2345   2347   2350     1  0.0000000  0.6508444  3
   2344   2343   2345   2347     1  0.0000000  0.0000000  2
   2344   2343   2345   2346     1  0.0000000  0.0000000  2
   2344   2343   2345   2348     1  0.0000000  0.0000000  2
   2345   2347   2351   2416     1  0.0000000  0.6508444  3
   2346   2345   2347   2351     1  0.0000000  0.6508444  3
   2346   2345   2347   2349     1  0.0000000  0.6508444  3
   2346   2345   2347   2350     1  0.0000000  0.6508444  3
   2347   2351   2352   2361     1  0.0000000  0.6508444  3
   2347   2351   2352   2362     1  0.0000000  0.6508444  3
   2347   2351   2353   2354     1  0.0000000  0.6508444  3
   2347   2351   2353   2356     1  0.0000000  0.6508444  3
   2348   2345   2347   2351     1  0.0000000  0.6508444  3
   2348   2345   2347   2349     1  0.0000000  0.6508444  3
   2348   2345   2347   2350     1  0.0000000  0.6508444  3
   2349   2347   2351   2352     1  0.0000000  0.6508444  3
   2349   2347   2351   2353     1  0.0000000  0.6508444  3
   2349   2347   2351   2416     1  0.0000000  0.6508444  3
   2350   2347   2351   2352     1  0.0000000  0.6508444  3
   2350   2347   2351   2353     1  0.0000000  0.6508444  3
   2350   2347   2351   2416     1  0.0000000  0.6508444  3
   2351   2352   2363   2364     1  0.0000000  0.6508444  3
   2351   2352   2363   2365     1  0.0000000  0.6508444  3
   2351   2353   2355   2357     1  0.0000000  0.6508444  3
   2351   2353   2355   2358     1  0.0000000  0.6508444  3
   2352   2351   2353   2354     1  0.0000000  0.6508444  3
   2352   2351   2353   2356     1  0.0000000  0.6508444  3
   2353   2351   2352   2361     1  0.0000000  0.6508444  3
   2353   2351   2352   2362     1  0.0000000  0.6508444  3
   2354   2353   2351   2416     1  0.0000000  0.6508444  3
   2354   2353   2355   2359     1  0.0000000  0.6508444  3
   2354   2353   2355   2357     1  0.0000000  0.6508444  3
   2354   2353   2355   2358     1  0.0000000  0.6508444  3
   2355   2353   2351   2416     1  0.0000000  0.6508444  3
   2355   2359   2391   2381     1  180.0000771  6.0668000  2
   2355   2359   2391   2381     1  180.0000771  1.4644000  4
   2356   2353   2351   2416     1  0.0000000  0.6508444  3
   2356   2353   2355   2359     1  0.0000000  0.6508444  3
   2356   2353   2355   2357     1  0.0000000  0.6508444  3
   2356   2353   2355   2358     1  0.0000000  0.6508444  3
   2357   2355   2359   2360     1  0.0000000  3.3472000  1
   2357   2355   2359   2360     1  0.0000000  0.0000000  2
   2357   2355   2359   2360     1  180.0000771  0.3347200  3
   2357   2355   2359   2391     1  180.0000771  0.0000000  2
   2358   2355   2359   2360     1  0.0000000  3.3472000  1
   2358   2355   2359   2360     1  0.0000000  0.0000000  2
   2358   2355   2359   2360     1  180.0000771  0.3347200  3
   2358   2355   2359   2391     1  180.0000771  0.0000000  2
   2359   2391   2372   2374     1  0.0000000  1.2552000  3
   2360   2359   2391   2381     1  180.0000771  6.0668000  2
   2360   2359   2391   2381     1  180.0000771  1.4644000  4
   2361   2352   2351   2416     1  0.0000000  0.6508444  3
   2361   2352   2363   2366     1  0.0000000  0.6508444  3
   2361   2352   2363   2364     1  0.0000000  0.6508444  3
   2361   2352   2363   2365     1  0.0000000  0.6508444  3
   2362   2352   2351   2416     1  0.0000000  0.6508444  3
   2362   2352   2363   2366     1  0.0000000  0.6508444  3
   2362   2352   2363   2364     1  0.0000000  0.6508444  3
   2362   2352   2363   2365     1  0.0000000  0.6508444  3
   2363   2352   2351   2416     1  0.0000000  0.6508444  3
   2363   2366   2415   2405     1  180.0000771  6.0668000  2
   2363   2366   2415   2405     1  180.0000771  1.4644000  4
   2364   2363   2366   2367     1  0.0000000  3.3472000  1
   2364   2363   2366   2367     1  0.0000000  0.0000000  2
   2364   2363   2366   2367     1  180.0000771  0.3347200  3
   2364   2363   2366   2415     1  180.0000771  0.0000000  2
   2365   2363   2366   2367     1  0.0000000  3.3472000  1
   2365   2363   2366   2367     1  0.0000000  0.0000000  2
   2365   2363   2366   2367     1  180.0000771  0.3347200  3
   2365   2363   2366   2415     1  180.0000771  0.0000000  2
   2366   2415   2396   2398     1  0.0000000  1.2552000  3
   2367   2366   2415   2405     1  180.0000771  6.0668000  2
   2367   2366   2415   2405     1  180.0000771  1.4644000  4
   2368   2369   2371   2375     1  0.0000000  0.6508444  3
   2368   2369   2389   2390     1  0.0000000  1.0460000  1
   2368   2369   2389   2390     1  0.0000000  0.6694400  3
   2368   2379   2384   2385     1  0.0000000  1.0460000  1
   2368   2379   2384   2385     1  0.0000000  0.6694400  3
   2368   2386   2373   2376     1  0.0000000  1.6038667  3
   2369   2368   2379   2382     1  0.0000000  0.6508444  3
   2369   2368   2379   2383     1  0.0000000  0.6508444  3
   2369   2371   2372   2374     1  0.0000000  0.6508444  3
   2369   2371   2378   2380     1  0.0000000  1.0460000  1
   2369   2371   2378   2380     1  0.0000000  0.6694400  3
   2370   2368   2369   2371     1  0.0000000  0.6508444  3
   2370   2368   2369   2389     1  0.0000000  1.0460000  1
   2370   2368   2369   2389     1  0.0000000  0.0000000  3
   2370   2368   2369   2388     1  0.0000000  0.6508444  3
   2370   2368   2379   2384     1  0.0000000  1.0460000  1
   2370   2368   2379   2384     1  0.0000000  0.0000000  3
   2370   2368   2379   2382     1  0.0000000  0.6508444  3
   2370   2368   2379   2383     1  0.0000000  0.6508444  3
   2370   2368   2386   2373     1  0.0000000  1.6038667  3
   2371   2369   2389   2390     1  0.0000000  1.0460000  1
   2371   2369   2389   2390     1  0.0000000  0.6694400  3
   2371   2372   2373   2376     1  0.0000000  0.6508444  3
   2371   2372   2391   2381     1  0.0000000  1.2552000  3
   2372   2371   2369   2388     1  0.0000000  0.6508444  3
   2372   2371   2378   2380     1  0.0000000  1.0460000  1
   2372   2371   2378   2380     1  0.0000000  0.6694400  3
   2372   2373   2377   2387     1  0.0000000  1.0460000  1
   2372   2373   2377   2387     1  0.0000000  0.6694400  3
   2373   2372   2371   2375     1  0.0000000  0.6508444  3
   2373   2372   2391   2381     1  0.0000000  1.2552000  3
   2374   2372   2371   2378     1  0.0000000  1.0460000  1
   2374   2372   2371   2378     1  0.0000000  0.0000000  3
   2374   2372   2371   2375     1  0.0000000  0.6508444  3
   2374   2372   2373   2377     1  0.0000000  1.0460000  1
   2374   2372   2373   2377     1  0.0000000  0.0000000  3
   2374   2372   2373   2386     1  0.0000000  1.0460000  1
   2374   2372   2373   2386     1  0.0000000  0.0000000  3
   2374   2372   2373   2376     1  0.0000000  0.6508444  3
   2374   2372   2391   2381     1  0.0000000  1.2552000  3
   2375   2371   2369   2389     1  0.0000000  1.0460000  1
   2375   2371   2369   2389     1  0.0000000  0.0000000  3
   2375   2371   2369   2388     1  0.0000000  0.6508444  3
   2375   2371   2372   2391     1  0.0000000  0.6508444  3
   2375   2371   2378   2380     1  0.0000000  0.6973333  3
   2376   2373   2372   2391     1  0.0000000  0.6508444  3
   2376   2373   2377   2387     1  0.0000000  0.6973333  3
   2378   2371   2369   2388     1  0.0000000  1.0460000  1
   2378   2371   2369   2388     1  0.0000000  0.0000000  3
   2379   2368   2369   2388     1  0.0000000  0.6508444  3
   2382   2379   2368   2386     1  0.0000000  1.0460000  1
   2382   2379   2368   2386     1  0.0000000  0.0000000  3
   2382   2379   2384   2385     1  0.0000000  0.6973333  3
   2383   2379   2368   2386     1  0.0000000  1.0460000  1
   2383   2379   2368   2386     1  0.0000000  0.0000000  3
   2383   2379   2384   2385     1  0.0000000  0.6973333  3
   2386   2368   2369   2388     1  0.0000000  1.0460000  1
   2386   2368   2369   2388     1  0.0000000  0.0000000  3
   2386   2373   2377   2387     1  0.0000000  0.6973333  3
   2388   2369   2389   2390     1  0.0000000  0.6973333  3
   2392   2393   2395   2399     1  0.0000000  0.6508444  3
   2392   2393   2413   2414     1  0.0000000  1.0460000  1
   2392   2393   2413   2414     1  0.0000000  0.6694400  3
   2392   2403   2408   2409     1  0.0000000  1.0460000  1
   2392   2403   2408   2409     1  0.0000000  0.6694400  3
   2392   2410   2397   2400     1  0.0000000  1.6038667  3
   2393   2392   2403   2406     1  0.0000000  0.6508444  3
   2393   2392   2403   2407     1  0.0000000  0.6508444  3
   2393   2395   2396   2398     1  0.0000000  0.6508444  3
   2393   2395   2402   2404     1  0.0000000  1.0460000  1
   2393   2395   2402   2404     1  0.0000000  0.6694400  3
   2394   2392   2393   2395     1  0.0000000  0.6508444  3
   2394   2392   2393   2413     1  0.0000000  1.0460000  1
   2394   2392   2393   2413     1  0.0000000  0.0000000  3
   2394   2392   2393   2412     1  0.0000000  0.6508444  3
   2394   2392   2403   2408     1  0.0000000  1.0460000  1
   2394   2392   2403   2408     1  0.0000000  0.0000000  3
   2394   2392   2403   2406     1  0.0000000  0.6508444  3
   2394   2392   2403   2407     1  0.0000000  0.6508444  3
   2394   2392   2410   2397     1  0.0000000  1.6038667  3
   2395   2393   2413   2414     1  0.0000000  1.0460000  1
   2395   2393   2413   2414     1  0.0000000  0.6694400  3
   2395   2396   2397   2400     1  0.0000000  0.6508444  3
   2395   2396   2415   2405     1  0.0000000  1.2552000  3
   2396   2395   2393   2412     1  0.0000000  0.6508444  3
   2396   2395   2402   2404     1  0.0000000  1.0460000  1
   2396   2395   2402   2404     1  0.0000000  0.6694400  3
   2396   2397   2401   2411     1  0.0000000  1.0460000  1
   2396   2397   2401   2411     1  0.0000000  0.6694400  3
   2397   2396   2395   2399     1  0.0000000  0.6508444  3
   2397   2396   2415   2405     1  0.0000000  1.2552000  3
   2398   2396   2395   2402     1  0.0000000  1.0460000  1
   2398   2396   2395   2402     1  0.0000000  0.0000000  3
   2398   2396   2395   2399     1  0.0000000  0.6508444  3
   2398   2396   2397   2401     1  0.0000000  1.0460000  1
   2398   2396   2397   2401     1  0.0000000  0.0000000  3
   2398   2396   2397   2410     1  0.0000000  1.0460000  1
   2398   2396   2397   2410     1  0.0000000  0.0000000  3
   2398   2396   2397   2400     1  0.0000000  0.6508444  3
   2398   2396   2415   2405     1  0.0000000  1.2552000  3
   2399   2395   2393   2413     1  0.0000000  1.0460000  1
   2399   2395   2393   2413     1  0.0000000  0.0000000  3
   2399   2395   2393   2412     1  0.0000000  0.6508444  3
   2399   2395   2396   2415     1  0.0000000  0.6508444  3
   2399   2395   2402   2404     1  0.0000000  0.6973333  3
   2400   2397   2396   2415     1  0.0000000  0.6508444  3
   2400   2397   2401   2411     1  0.0000000  0.6973333  3
   2402   2395   2393   2412     1  0.0000000  1.0460000  1
   2402   2395   2393   2412     1  0.0000000  0.0000000  3
   2403   2392   2393   2412     1  0.0000000  0.6508444  3
   2406   2403   2392   2410     1  0.0000000  1.0460000  1
   2406   2403   2392   2410     1  0.0000000  0.0000000  3
   2406   2403   2408   2409     1  0.0000000  0.6973333  3
   2407   2403   2392   2410     1  0.0000000  1.0460000  1
   2407   2403   2392   2410     1  0.0000000  0.0000000  3
   2407   2403   2408   2409     1  0.0000000  0.6973333  3
   2410   2392   2393   2412     1  0.0000000  1.0460000  1
   2410   2392   2393   2412     1  0.0000000  0.0000000  3
   2410   2397   2401   2411     1  0.0000000  0.6973333  3
   2412   2393   2413   2414     1  0.0000000  0.6973333  3
   2417   2419   2421   2423     1  0.0000000  0.6508444  3
   2417   2419   2421   2424     1  0.0000000  0.6508444  3
   2418   2417   2419   2421     1  0.0000000  0.0000000  2
   2418   2417   2419   2420     1  0.0000000  0.0000000  2
   2418   2417   2419   2422     1  0.0000000  0.0000000  2
   2419   2421   2425   2490     1  0.0000000  0.6508444  3
   2420   2419   2421   2425     1  0.0000000  0.6508444  3
   2420   2419   2421   2423     1  0.0000000  0.6508444  3
   2420   2419   2421   2424     1  0.0000000  0.6508444  3
   2421   2425   2426   2435     1  0.0000000  0.6508444  3
   2421   2425   2426   2436     1  0.0000000  0.6508444  3
   2421   2425   2427   2428     1  0.0000000  0.6508444  3
   2421   2425   2427   2430     1  0.0000000  0.6508444  3
   2422   2419   2421   2425     1  0.0000000  0.6508444  3
   2422   2419   2421   2423     1  0.0000000  0.6508444  3
   2422   2419   2421   2424     1  0.0000000  0.6508444  3
   2423   2421   2425   2426     1  0.0000000  0.6508444  3
   2423   2421   2425   2427     1  0.0000000  0.6508444  3
   2423   2421   2425   2490     1  0.0000000  0.6508444  3
   2424   2421   2425   2426     1  0.0000000  0.6508444  3
   2424   2421   2425   2427     1  0.0000000  0.6508444  3
   2424   2421   2425   2490     1  0.0000000  0.6508444  3
   2425   2426   2437   2438     1  0.0000000  0.6508444  3
   2425   2426   2437   2439     1  0.0000000  0.6508444  3
   2425   2427   2429   2431     1  0.0000000  0.6508444  3
   2425   2427   2429   2432     1  0.0000000  0.6508444  3
   2426   2425   2427   2428     1  0.0000000  0.6508444  3
   2426   2425   2427   2430     1  0.0000000  0.6508444  3
   2427   2425   2426   2435     1  0.0000000  0.6508444  3
   2427   2425   2426   2436     1  0.0000000  0.6508444  3
   2428   2427   2429   2433     1  0.0000000  0.6508444  3
   2428   2427   2429   2431     1  0.0000000  0.6508444  3
   2428   2427   2429   2432     1  0.0000000  0.6508444  3
   2428   2427   2425   2490     1  0.0000000  0.6508444  3
   2429   2433   2465   2455     1  180.0000771  6.0668000  2
   2429   2433   2465   2455     1  180.0000771  1.4644000  4
   2429   2427   2425   2490     1  0.0000000  0.6508444  3
   2430   2427   2429   2433     1  0.0000000  0.6508444  3
   2430   2427   2429   2431     1  0.0000000  0.6508444  3
   2430   2427   2429   2432     1  0.0000000  0.6508444  3
   2430   2427   2425   2490     1  0.0000000  0.6508444  3
   2431   2429   2433   2434     1  0.0000000  3.3472000  1
   2431   2429   2433   2434     1  0.0000000  0.0000000  2
   2431   2429   2433   2434     1  180.0000771  0.3347200  3
   2431   2429   2433   2465     1  180.0000771  0.0000000  2
   2432   2429   2433   2434     1  0.0000000  3.3472000  1
   2432   2429   2433   2434     1  0.0000000  0.0000000  2
   2432   2429   2433   2434     1  180.0000771  0.3347200  3
   2432   2429   2433   2465     1  180.0000771  0.0000000  2
   2433   2465   2446   2448     1  0.0000000  1.2552000  3
   2434   2433   2465   2455     1  180.0000771  6.0668000  2
   2434   2433   2465   2455     1  180.0000771  1.4644000  4
   2435   2426   2437   2440     1  0.0000000  0.6508444  3
   2435   2426   2437   2438     1  0.0000000  0.6508444  3
   2435   2426   2437   2439     1  0.0000000  0.6508444  3
   2435   2426   2425   2490     1  0.0000000  0.6508444  3
   2436   2426   2437   2440     1  0.0000000  0.6508444  3
   2436   2426   2437   2438     1  0.0000000  0.6508444  3
   2436   2426   2437   2439     1  0.0000000  0.6508444  3
   2436   2426   2425   2490     1  0.0000000  0.6508444  3
   2437   2440   2489   2479     1  180.0000771  6.0668000  2
   2437   2440   2489   2479     1  180.0000771  1.4644000  4
   2437   2426   2425   2490     1  0.0000000  0.6508444  3
   2438   2437   2440   2441     1  0.0000000  3.3472000  1
   2438   2437   2440   2441     1  0.0000000  0.0000000  2
   2438   2437   2440   2441     1  180.0000771  0.3347200  3
   2438   2437   2440   2489     1  180.0000771  0.0000000  2
   2439   2437   2440   2441     1  0.0000000  3.3472000  1
   2439   2437   2440   2441     1  0.0000000  0.0000000  2
   2439   2437   2440   2441     1  180.0000771  0.3347200  3
   2439   2437   2440   2489     1  180.0000771  0.0000000  2
   2440   2489   2470   2472     1  0.0000000  1.2552000  3
   2441   2440   2489   2479     1  180.0000771  6.0668000  2
   2441   2440   2489   2479     1  180.0000771  1.4644000  4
   2442   2443   2445   2449     1  0.0000000  0.6508444  3
   2442   2443   2463   2464     1  0.0000000  1.0460000  1
   2442   2443   2463   2464     1  0.0000000  0.6694400  3
   2442   2453   2458   2459     1  0.0000000  1.0460000  1
   2442   2453   2458   2459     1  0.0000000  0.6694400  3
   2442   2460   2447   2450     1  0.0000000  1.6038667  3
   2443   2445   2446   2448     1  0.0000000  0.6508444  3
   2443   2445   2452   2454     1  0.0000000  1.0460000  1
   2443   2445   2452   2454     1  0.0000000  0.6694400  3
   2443   2442   2453   2456     1  0.0000000  0.6508444  3
   2443   2442   2453   2457     1  0.0000000  0.6508444  3
   2444   2442   2443   2445     1  0.0000000  0.6508444  3
   2444   2442   2443   2463     1  0.0000000  1.0460000  1
   2444   2442   2443   2463     1  0.0000000  0.0000000  3
   2444   2442   2443   2462     1  0.0000000  0.6508444  3
   2444   2442   2453   2458     1  0.0000000  1.0460000  1
   2444   2442   2453   2458     1  0.0000000  0.0000000  3
   2444   2442   2453   2456     1  0.0000000  0.6508444  3
   2444   2442   2453   2457     1  0.0000000  0.6508444  3
   2444   2442   2460   2447     1  0.0000000  1.6038667  3
   2445   2446   2447   2450     1  0.0000000  0.6508444  3
   2445   2446   2465   2455     1  0.0000000  1.2552000  3
   2445   2443   2463   2464     1  0.0000000  1.0460000  1
   2445   2443   2463   2464     1  0.0000000  0.6694400  3
   2446   2447   2451   2461     1  0.0000000  1.0460000  1
   2446   2447   2451   2461     1  0.0000000  0.6694400  3
   2446   2445   2452   2454     1  0.0000000  1.0460000  1
   2446   2445   2452   2454     1  0.0000000  0.6694400  3
   2446   2445   2443   2462     1  0.0000000  0.6508444  3
   2447   2446   2465   2455     1  0.0000000  1.2552000  3
   2447   2446   2445   2449     1  0.0000000  0.6508444  3
   2448   2446   2447   2451     1  0.0000000  1.0460000  1
   2448   2446   2447   2451     1  0.0000000  0.0000000  3
   2448   2446   2447   2460     1  0.0000000  1.0460000  1
   2448   2446   2447   2460     1  0.0000000  0.0000000  3
   2448   2446   2447   2450     1  0.0000000  0.6508444  3
   2448   2446   2465   2455     1  0.0000000  1.2552000  3
   2448   2446   2445   2452     1  0.0000000  1.0460000  1
   2448   2446   2445   2452     1  0.0000000  0.0000000  3
   2448   2446   2445   2449     1  0.0000000  0.6508444  3
   2449   2445   2446   2465     1  0.0000000  0.6508444  3
   2449   2445   2452   2454     1  0.0000000  0.6973333  3
   2449   2445   2443   2463     1  0.0000000  1.0460000  1
   2449   2445   2443   2463     1  0.0000000  0.0000000  3
   2449   2445   2443   2462     1  0.0000000  0.6508444  3
   2450   2447   2451   2461     1  0.0000000  0.6973333  3
   2450   2447   2446   2465     1  0.0000000  0.6508444  3
   2452   2445   2443   2462     1  0.0000000  1.0460000  1
   2452   2445   2443   2462     1  0.0000000  0.0000000  3
   2453   2442   2443   2462     1  0.0000000  0.6508444  3
   2456   2453   2458   2459     1  0.0000000  0.6973333  3
   2456   2453   2442   2460     1  0.0000000  1.0460000  1
   2456   2453   2442   2460     1  0.0000000  0.0000000  3
   2457   2453   2458   2459     1  0.0000000  0.6973333  3
   2457   2453   2442   2460     1  0.0000000  1.0460000  1
   2457   2453   2442   2460     1  0.0000000  0.0000000  3
   2460   2447   2451   2461     1  0.0000000  0.6973333  3
   2460   2442   2443   2462     1  0.0000000  1.0460000  1
   2460   2442   2443   2462     1  0.0000000  0.0000000  3
   2462   2443   2463   2464     1  0.0000000  0.6973333  3
   2466   2467   2469   2473     1  0.0000000  0.6508444  3
   2466   2467   2487   2488     1  0.0000000  1.0460000  1
   2466   2467   2487   2488     1  0.0000000  0.6694400  3
   2466   2477   2482   2483     1  0.0000000  1.0460000  1
   2466   2477   2482   2483     1  0.0000000  0.6694400  3
   2466   2484   2471   2474     1  0.0000000  1.6038667  3
   2467   2469   2470   2472     1  0.0000000  0.6508444  3
   2467   2469   2476   2478     1  0.0000000  1.0460000  1
   2467   2469   2476   2478     1  0.0000000  0.6694400  3
   2467   2466   2477   2480     1  0.0000000  0.6508444  3
   2467   2466   2477   2481     1  0.0000000  0.6508444  3
   2468   2466   2467   2469     1  0.0000000  0.6508444  3
   2468   2466   2467   2487     1  0.0000000  1.0460000  1
   2468   2466   2467   2487     1  0.0000000  0.0000000  3
   2468   2466   2467   2486     1  0.0000000  0.6508444  3
   2468   2466   2477   2482     1  0.0000000  1.0460000  1
   2468   2466   2477   2482     1  0.0000000  0.0000000  3
   2468   2466   2477   2480     1  0.0000000  0.6508444  3
   2468   2466   2477   2481     1  0.0000000  0.6508444  3
   2468   2466   2484   2471     1  0.0000000  1.6038667  3
   2469   2470   2471   2474     1  0.0000000  0.6508444  3
   2469   2470   2489   2479     1  0.0000000  1.2552000  3
   2469   2467   2487   2488     1  0.0000000  1.0460000  1
   2469   2467   2487   2488     1  0.0000000  0.6694400  3
   2470   2471   2475   2485     1  0.0000000  1.0460000  1
   2470   2471   2475   2485     1  0.0000000  0.6694400  3
   2470   2469   2476   2478     1  0.0000000  1.0460000  1
   2470   2469   2476   2478     1  0.0000000  0.6694400  3
   2470   2469   2467   2486     1  0.0000000  0.6508444  3
   2471   2470   2489   2479     1  0.0000000  1.2552000  3
   2471   2470   2469   2473     1  0.0000000  0.6508444  3
   2472   2470   2471   2475     1  0.0000000  1.0460000  1
   2472   2470   2471   2475     1  0.0000000  0.0000000  3
   2472   2470   2471   2484     1  0.0000000  1.0460000  1
   2472   2470   2471   2484     1  0.0000000  0.0000000  3
   2472   2470   2471   2474     1  0.0000000  0.6508444  3
   2472   2470   2489   2479     1  0.0000000  1.2552000  3
   2472   2470   2469   2476     1  0.0000000  1.0460000  1
   2472   2470   2469   2476     1  0.0000000  0.0000000  3
   2472   2470   2469   2473     1  0.0000000  0.6508444  3
   2473   2469   2470   2489     1  0.0000000  0.6508444  3
   2473   2469   2476   2478     1  0.0000000  0.6973333  3
   2473   2469   2467   2487     1  0.0000000  1.0460000  1
   2473   2469   2467   2487     1  0.0000000  0.0000000  3
   2473   2469   2467   2486     1  0.0000000  0.6508444  3
   2474   2471   2475   2485     1  0.0000000  0.6973333  3
   2474   2471   2470   2489     1  0.0000000  0.6508444  3
   2476   2469   2467   2486     1  0.0000000  1.0460000  1
   2476   2469   2467   2486     1  0.0000000  0.0000000  3
   2477   2466   2467   2486     1  0.0000000  0.6508444  3
   2480   2477   2482   2483     1  0.0000000  0.6973333  3
   2480   2477   2466   2484     1  0.0000000  1.0460000  1
   2480   2477   2466   2484     1  0.0000000  0.0000000  3
   2481   2477   2482   2483     1  0.0000000  0.6973333  3
   2481   2477   2466   2484     1  0.0000000  1.0460000  1
   2481   2477   2466   2484     1  0.0000000  0.0000000  3
   2484   2471   2475   2485     1  0.0000000  0.6973333  3
   2484   2466   2467   2486     1  0.0000000  1.0460000  1
   2484   2466   2467   2486     1  0.0000000  0.0000000  3
   2486   2467   2487   2488     1  0.0000000  0.6973333  3
   2491   2493   2495   2497     1  0.0000000  0.6508444  3
   2491   2493   2495   2498     1  0.0000000  0.6508444  3
   2492   2491   2493   2495     1  0.0000000  0.0000000  2
   2492   2491   2493   2494     1  0.0000000  0.0000000  2
   2492   2491   2493   2496     1  0.0000000  0.0000000  2
   2493   2495   2499   2564     1  0.0000000  0.6508444  3
   2494   2493   2495   2499     1  0.0000000  0.6508444  3
   2494   2493   2495   2497     1  0.0000000  0.6508444  3
   2494   2493   2495   2498     1  0.0000000  0.6508444  3
   2495   2499   2500   2509     1  0.0000000  0.6508444  3
   2495   2499   2500   2510     1  0.0000000  0.6508444  3
   2495   2499   2501   2502     1  0.0000000  0.6508444  3
   2495   2499   2501   2504     1  0.0000000  0.6508444  3
   2496   2493   2495   2499     1  0.0000000  0.6508444  3
   2496   2493   2495   2497     1  0.0000000  0.6508444  3
   2496   2493   2495   2498     1  0.0000000  0.6508444  3
   2497   2495   2499   2500     1  0.0000000  0.6508444  3
   2497   2495   2499   2501     1  0.0000000  0.6508444  3
   2497   2495   2499   2564     1  0.0000000  0.6508444  3
   2498   2495   2499   2500     1  0.0000000  0.6508444  3
   2498   2495   2499   2501     1  0.0000000  0.6508444  3
   2498   2495   2499   2564     1  0.0000000  0.6508444  3
   2499   2500   2511   2512     1  0.0000000  0.6508444  3
   2499   2500   2511   2513     1  0.0000000  0.6508444  3
   2499   2501   2503   2505     1  0.0000000  0.6508444  3
   2499   2501   2503   2506     1  0.0000000  0.6508444  3
   2500   2499   2501   2502     1  0.0000000  0.6508444  3
   2500   2499   2501   2504     1  0.0000000  0.6508444  3
   2501   2499   2500   2509     1  0.0000000  0.6508444  3
   2501   2499   2500   2510     1  0.0000000  0.6508444  3
   2502   2501   2499   2564     1  0.0000000  0.6508444  3
   2502   2501   2503   2507     1  0.0000000  0.6508444  3
   2502   2501   2503   2505     1  0.0000000  0.6508444  3
   2502   2501   2503   2506     1  0.0000000  0.6508444  3
   2503   2501   2499   2564     1  0.0000000  0.6508444  3
   2503   2507   2539   2529     1  180.0000771  6.0668000  2
   2503   2507   2539   2529     1  180.0000771  1.4644000  4
   2504   2501   2499   2564     1  0.0000000  0.6508444  3
   2504   2501   2503   2507     1  0.0000000  0.6508444  3
   2504   2501   2503   2505     1  0.0000000  0.6508444  3
   2504   2501   2503   2506     1  0.0000000  0.6508444  3
   2505   2503   2507   2508     1  0.0000000  3.3472000  1
   2505   2503   2507   2508     1  0.0000000  0.0000000  2
   2505   2503   2507   2508     1  180.0000771  0.3347200  3
   2505   2503   2507   2539     1  180.0000771  0.0000000  2
   2506   2503   2507   2508     1  0.0000000  3.3472000  1
   2506   2503   2507   2508     1  0.0000000  0.0000000  2
   2506   2503   2507   2508     1  180.0000771  0.3347200  3
   2506   2503   2507   2539     1  180.0000771  0.0000000  2
   2507   2539   2520   2522     1  0.0000000  1.2552000  3
   2508   2507   2539   2529     1  180.0000771  6.0668000  2
   2508   2507   2539   2529     1  180.0000771  1.4644000  4
   2509   2500   2499   2564     1  0.0000000  0.6508444  3
   2509   2500   2511   2514     1  0.0000000  0.6508444  3
   2509   2500   2511   2512     1  0.0000000  0.6508444  3
   2509   2500   2511   2513     1  0.0000000  0.6508444  3
   2510   2500   2499   2564     1  0.0000000  0.6508444  3
   2510   2500   2511   2514     1  0.0000000  0.6508444  3
   2510   2500   2511   2512     1  0.0000000  0.6508444  3
   2510   2500   2511   2513     1  0.0000000  0.6508444  3
   2511   2500   2499   2564     1  0.0000000  0.6508444  3
   2511   2514   2563   2553     1  180.0000771  6.0668000  2
   2511   2514   2563   2553     1  180.0000771  1.4644000  4
   2512   2511   2514   2515     1  0.0000000  3.3472000  1
   2512   2511   2514   2515     1  0.0000000  0.0000000  2
   2512   2511   2514   2515     1  180.0000771  0.3347200  3
   2512   2511   2514   2563     1  180.0000771  0.0000000  2
   2513   2511   2514   2515     1  0.0000000  3.3472000  1
   2513   2511   2514   2515     1  0.0000000  0.0000000  2
   2513   2511   2514   2515     1  180.0000771  0.3347200  3
   2513   2511   2514   2563     1  180.0000771  0.0000000  2
   2514   2563   2544   2546     1  0.0000000  1.2552000  3
   2515   2514   2563   2553     1  180.0000771  6.0668000  2
   2515   2514   2563   2553     1  180.0000771  1.4644000  4
   2516   2517   2519   2523     1  0.0000000  0.6508444  3
   2516   2517   2537   2538     1  0.0000000  1.0460000  1
   2516   2517   2537   2538     1  0.0000000  0.6694400  3
   2516   2527   2532   2533     1  0.0000000  1.0460000  1
   2516   2527   2532   2533     1  0.0000000  0.6694400  3
   2516   2534   2521   2524     1  0.0000000  1.6038667  3
   2517   2516   2527   2530     1  0.0000000  0.6508444  3
   2517   2516   2527   2531     1  0.0000000  0.6508444  3
   2517   2519   2520   2522     1  0.0000000  0.6508444  3
   2517   2519   2526   2528     1  0.0000000  1.0460000  1
   2517   2519   2526   2528     1  0.0000000  0.6694400  3
   2518   2516   2517   2519     1  0.0000000  0.6508444  3
   2518   2516   2517   2537     1  0.0000000  1.0460000  1
   2518   2516   2517   2537     1  0.0000000  0.0000000  3
   2518   2516   2517   2536     1  0.0000000  0.6508444  3
   2518   2516   2527   2532     1  0.0000000  1.0460000  1
   2518   2516   2527   2532     1  0.0000000  0.0000000  3
   2518   2516   2527   2530     1  0.0000000  0.6508444  3
   2518   2516   2527   2531     1  0.0000000  0.6508444  3
   2518   2516   2534   2521     1  0.0000000  1.6038667  3
   2519   2517   2537   2538     1  0.0000000  1.0460000  1
   2519   2517   2537   2538     1  0.0000000  0.6694400  3
   2519   2520   2521   2524     1  0.0000000  0.6508444  3
   2519   2520   2539   2529     1  0.0000000  1.2552000  3
   2520   2519   2517   2536     1  0.0000000  0.6508444  3
   2520   2519   2526   2528     1  0.0000000  1.0460000  1
   2520   2519   2526   2528     1  0.0000000  0.6694400  3
   2520   2521   2525   2535     1  0.0000000  1.0460000  1
   2520   2521   2525   2535     1  0.0000000  0.6694400  3
   2521   2520   2519   2523     1  0.0000000  0.6508444  3
   2521   2520   2539   2529     1  0.0000000  1.2552000  3
   2522   2520   2519   2526     1  0.0000000  1.0460000  1
   2522   2520   2519   2526     1  0.0000000  0.0000000  3
   2522   2520   2519   2523     1  0.0000000  0.6508444  3
   2522   2520   2521   2525     1  0.0000000  1.0460000  1
   2522   2520   2521   2525     1  0.0000000  0.0000000  3
   2522   2520   2521   2534     1  0.0000000  1.0460000  1
   2522   2520   2521   2534     1  0.0000000  0.0000000  3
   2522   2520   2521   2524     1  0.0000000  0.6508444  3
   2522   2520   2539   2529     1  0.0000000  1.2552000  3
   2523   2519   2517   2537     1  0.0000000  1.0460000  1
   2523   2519   2517   2537     1  0.0000000  0.0000000  3
   2523   2519   2517   2536     1  0.0000000  0.6508444  3
   2523   2519   2520   2539     1  0.0000000  0.6508444  3
   2523   2519   2526   2528     1  0.0000000  0.6973333  3
   2524   2521   2520   2539     1  0.0000000  0.6508444  3
   2524   2521   2525   2535     1  0.0000000  0.6973333  3
   2526   2519   2517   2536     1  0.0000000  1.0460000  1
   2526   2519   2517   2536     1  0.0000000  0.0000000  3
   2527   2516   2517   2536     1  0.0000000  0.6508444  3
   2530   2527   2516   2534     1  0.0000000  1.0460000  1
   2530   2527   2516   2534     1  0.0000000  0.0000000  3
   2530   2527   2532   2533     1  0.0000000  0.6973333  3
   2531   2527   2516   2534     1  0.0000000  1.0460000  1
   2531   2527   2516   2534     1  0.0000000  0.0000000  3
   2531   2527   2532   2533     1  0.0000000  0.6973333  3
   2534   2516   2517   2536     1  0.0000000  1.0460000  1
   2534   2516   2517   2536     1  0.0000000  0.0000000  3
   2534   2521   2525   2535     1  0.0000000  0.6973333  3
   2536   2517   2537   2538     1  0.0000000  0.6973333  3
   2540   2541   2543   2547     1  0.0000000  0.6508444  3
   2540   2541   2561   2562     1  0.0000000  1.0460000  1
   2540   2541   2561   2562     1  0.0000000  0.6694400  3
   2540   2551   2556   2557     1  0.0000000  1.0460000  1
   2540   2551   2556   2557     1  0.0000000  0.6694400  3
   2540   2558   2545   2548     1  0.0000000  1.6038667  3
   2541   2540   2551   2554     1  0.0000000  0.6508444  3
   2541   2540   2551   2555     1  0.0000000  0.6508444  3
   2541   2543   2544   2546     1  0.0000000  0.6508444  3
   2541   2543   2550   2552     1  0.0000000  1.0460000  1
   2541   2543   2550   2552     1  0.0000000  0.6694400  3
   2542   2540   2541   2543     1  0.0000000  0.6508444  3
   2542   2540   2541   2561     1  0.0000000  1.0460000  1
   2542   2540   2541   2561     1  0.0000000  0.0000000  3
   2542   2540   2541   2560     1  0.0000000  0.6508444  3
   2542   2540   2551   2556     1  0.0000000  1.0460000  1
   2542   2540   2551   2556     1  0.0000000  0.0000000  3
   2542   2540   2551   2554     1  0.0000000  0.6508444  3
   2542   2540   2551   2555     1  0.0000000  0.6508444  3
   2542   2540   2558   2545     1  0.0000000  1.6038667  3
   2543   2541   2561   2562     1  0.0000000  1.0460000  1
   2543   2541   2561   2562     1  0.0000000  0.6694400  3
   2543   2544   2545   2548     1  0.0000000  0.6508444  3
   2543   2544   2563   2553     1  0.0000000  1.2552000  3
   2544   2543   2541   2560     1  0.0000000  0.6508444  3
   2544   2543   2550   2552     1  0.0000000  1.0460000  1
   2544   2543   2550   2552     1  0.0000000  0.6694400  3
   2544   2545   2549   2559     1  0.0000000  1.0460000  1
   2544   2545   2549   2559     1  0.0000000  0.6694400  3
   2545   2544   2543   2547     1  0.0000000  0.6508444  3
   2545   2544   2563   2553     1  0.0000000  1.2552000  3
   2546   2544   2543   2550     1  0.0000000  1.0460000  1
   2546   2544   2543   2550     1  0.0000000  0.0000000  3
   2546   2544   2543   2547     1  0.0000000  0.6508444  3
   2546   2544   2545   2549     1  0.0000000  1.0460000  1
   2546   2544   2545   2549     1  0.0000000  0.0000000  3
   2546   2544   2545   2558     1  0.0000000  1.0460000  1
   2546   2544   2545   2558     1  0.0000000  0.0000000  3
   2546   2544   2545   2548     1  0.0000000  0.6508444  3
   2546   2544   2563   2553     1  0.0000000  1.2552000  3
   2547   2543   2541   2561     1  0.0000000  1.0460000  1
   2547   2543   2541   2561     1  0.0000000  0.0000000  3
   2547   2543   2541   2560     1  0.0000000  0.6508444  3
   2547   2543   2544   2563     1  0.0000000  0.6508444  3
   2547   2543   2550   2552     1  0.0000000  0.6973333  3
   2548   2545   2544   2563     1  0.0000000  0.6508444  3
   2548   2545   2549   2559     1  0.0000000  0.6973333  3
   2550   2543   2541   2560     1  0.0000000  1.0460000  1
   2550   2543   2541   2560     1  0.0000000  0.0000000  3
   2551   2540   2541   2560     1  0.0000000  0.6508444  3
   2554   2551   2540   2558     1  0.0000000  1.0460000  1
   2554   2551   2540   2558     1  0.0000000  0.0000000  3
   2554   2551   2556   2557     1  0.0000000  0.6973333  3
   2555   2551   2540   2558     1  0.0000000  1.0460000  1
   2555   2551   2540   2558     1  0.0000000  0.0000000  3
   2555   2551   2556   2557     1  0.0000000  0.6973333  3
   2558   2540   2541   2560     1  0.0000000  1.0460000  1
   2558   2540   2541   2560     1  0.0000000  0.0000000  3
   2558   2545   2549   2559     1  0.0000000  0.6973333  3
   2560   2541   2561   2562     1  0.0000000  0.6973333  3
   2565   2567   2569   2571     1  0.0000000  0.6508444  3
   2565   2567   2569   2572     1  0.0000000  0.6508444  3
   2566   2565   2567   2569     1  0.0000000  0.0000000  2
   2566   2565   2567   2568     1  0.0000000  0.0000000  2
   2566   2565   2567   2570     1  0.0000000  0.0000000  2
   2567   2569   2573   2638     1  0.0000000  0.6508444  3
   2568   2567   2569   2573     1  0.0000000  0.6508444  3
   2568   2567   2569   2571     1  0.0000000  0.6508444  3
   2568   2567   2569   2572     1  0.0000000  0.6508444  3
   2569   2573   2574   2583     1  0.0000000  0.6508444  3
   2569   2573   2574   2584     1  0.0000000  0.6508444  3
   2569   2573   2575   2576     1  0.0000000  0.6508444  3
   2569   2573   2575   2578     1  0.0000000  0.6508444  3
   2570   2567   2569   2573     1  0.0000000  0.6508444  3
   2570   2567   2569   2571     1  0.0000000  0.6508444  3
   2570   2567   2569   2572     1  0.0000000  0.6508444  3
   2571   2569   2573   2574     1  0.0000000  0.6508444  3
   2571   2569   2573   2575     1  0.0000000  0.6508444  3
   2571   2569   2573   2638     1  0.0000000  0.6508444  3
   2572   2569   2573   2574     1  0.0000000  0.6508444  3
   2572   2569   2573   2575     1  0.0000000  0.6508444  3
   2572   2569   2573   2638     1  0.0000000  0.6508444  3
   2573   2574   2585   2586     1  0.0000000  0.6508444  3
   2573   2574   2585   2587     1  0.0000000  0.6508444  3
   2573   2575   2577   2579     1  0.0000000  0.6508444  3
   2573   2575   2577   2580     1  0.0000000  0.6508444  3
   2574   2573   2575   2576     1  0.0000000  0.6508444  3
   2574   2573   2575   2578     1  0.0000000  0.6508444  3
   2575   2573   2574   2583     1  0.0000000  0.6508444  3
   2575   2573   2574   2584     1  0.0000000  0.6508444  3
   2576   2575   2577   2581     1  0.0000000  0.6508444  3
   2576   2575   2577   2579     1  0.0000000  0.6508444  3
   2576   2575   2577   2580     1  0.0000000  0.6508444  3
   2576   2575   2573   2638     1  0.0000000  0.6508444  3
   2577   2581   2613   2603     1  180.0000771  6.0668000  2
   2577   2581   2613   2603     1  180.0000771  1.4644000  4
   2577   2575   2573   2638     1  0.0000000  0.6508444  3
   2578   2575   2577   2581     1  0.0000000  0.6508444  3
   2578   2575   2577   2579     1  0.0000000  0.6508444  3
   2578   2575   2577   2580     1  0.0000000  0.6508444  3
   2578   2575   2573   2638     1  0.0000000  0.6508444  3
   2579   2577   2581   2582     1  0.0000000  3.3472000  1
   2579   2577   2581   2582     1  0.0000000  0.0000000  2
   2579   2577   2581   2582     1  180.0000771  0.3347200  3
   2579   2577   2581   2613     1  180.0000771  0.0000000  2
   2580   2577   2581   2582     1  0.0000000  3.3472000  1
   2580   2577   2581   2582     1  0.0000000  0.0000000  2
   2580   2577   2581   2582     1  180.0000771  0.3347200  3
   2580   2577   2581   2613     1  180.0000771  0.0000000  2
   2581   2613   2594   2596     1  0.0000000  1.2552000  3
   2582   2581   2613   2603     1  180.0000771  6.0668000  2
   2582   2581   2613   2603     1  180.0000771  1.4644000  4
   2583   2574   2585   2588     1  0.0000000  0.6508444  3
   2583   2574   2585   2586     1  0.0000000  0.6508444  3
   2583   2574   2585   2587     1  0.0000000  0.6508444  3
   2583   2574   2573   2638     1  0.0000000  0.6508444  3
   2584   2574   2585   2588     1  0.0000000  0.6508444  3
   2584   2574   2585   2586     1  0.0000000  0.6508444  3
   2584   2574   2585   2587     1  0.0000000  0.6508444  3
   2584   2574   2573   2638     1  0.0000000  0.6508444  3
   2585   2588   2637   2627     1  180.0000771  6.0668000  2
   2585   2588   2637   2627     1  180.0000771  1.4644000  4
   2585   2574   2573   2638     1  0.0000000  0.6508444  3
   2586   2585   2588   2589     1  0.0000000  3.3472000  1
   2586   2585   2588   2589     1  0.0000000  0.0000000  2
   2586   2585   2588   2589     1  180.0000771  0.3347200  3
   2586   2585   2588   2637     1  180.0000771  0.0000000  2
   2587   2585   2588   2589     1  0.0000000  3.3472000  1
   2587   2585   2588   2589     1  0.0000000  0.0000000  2
   2587   2585   2588   2589     1  180.0000771  0.3347200  3
   2587   2585   2588   2637     1  180.0000771  0.0000000  2
   2588   2637   2618   2620     1  0.0000000  1.2552000  3
   2589   2588   2637   2627     1  180.0000771  6.0668000  2
   2589   2588   2637   2627     1  180.0000771  1.4644000  4
   2590   2591   2593   2597     1  0.0000000  0.6508444  3
   2590   2591   2611   2612     1  0.0000000  1.0460000  1
   2590   2591   2611   2612     1  0.0000000  0.6694400  3
   2590   2601   2606   2607     1  0.0000000  1.0460000  1
   2590   2601   2606   2607     1  0.0000000  0.6694400  3
   2590   2608   2595   2598     1  0.0000000  1.6038667  3
   2591   2593   2594   2596     1  0.0000000  0.6508444  3
   2591   2593   2600   2602     1  0.0000000  1.0460000  1
   2591   2593   2600   2602     1  0.0000000  0.6694400  3
   2591   2590   2601   2604     1  0.0000000  0.6508444  3
   2591   2590   2601   2605     1  0.0000000  0.6508444  3
   2592   2590   2591   2593     1  0.0000000  0.6508444  3
   2592   2590   2591   2611     1  0.0000000  1.0460000  1
   2592   2590   2591   2611     1  0.0000000  0.0000000  3
   2592   2590   2591   2610     1  0.0000000  0.6508444  3
   2592   2590   2601   2606     1  0.0000000  1.0460000  1
   2592   2590   2601   2606     1  0.0000000  0.0000000  3
   2592   2590   2601   2604     1  0.0000000  0.6508444  3
   2592   2590   2601   2605     1  0.0000000  0.6508444  3
   2592   2590   2608   2595     1  0.0000000  1.6038667  3
   2593   2594   2595   2598     1  0.0000000  0.6508444  3
   2593   2594   2613   2603     1  0.0000000  1.2552000  3
   2593   2591   2611   2612     1  0.0000000  1.0460000  1
   2593   2591   2611   2612     1  0.0000000  0.6694400  3
   2594   2595   2599   2609     1  0.0000000  1.0460000  1
   2594   2595   2599   2609     1  0.0000000  0.6694400  3
   2594   2593   2600   2602     1  0.0000000  1.0460000  1
   2594   2593   2600   2602     1  0.0000000  0.6694400  3
   2594   2593   2591   2610     1  0.0000000  0.6508444  3
   2595   2594   2613   2603     1  0.0000000  1.2552000  3
   2595   2594   2593   2597     1  0.0000000  0.6508444  3
   2596   2594   2595   2599     1  0.0000000  1.0460000  1
   2596   2594   2595   2599     1  0.0000000  0.0000000  3
   2596   2594   2595   2608     1  0.0000000  1.0460000  1
   2596   2594   2595   2608     1  0.0000000  0.0000000  3
   2596   2594   2595   2598     1  0.0000000  0.6508444  3
   2596   2594   2613   2603     1  0.0000000  1.2552000  3
   2596   2594   2593   2600     1  0.0000000  1.0460000  1
   2596   2594   2593   2600     1  0.0000000  0.0000000  3
   2596   2594   2593   2597     1  0.0000000  0.6508444  3
   2597   2593   2594   2613     1  0.0000000  0.6508444  3
   2597   2593   2600   2602     1  0.0000000  0.6973333  3
   2597   2593   2591   2611     1  0.0000000  1.0460000  1
   2597   2593   2591   2611     1  0.0000000  0.0000000  3
   2597   2593   2591   2610     1  0.0000000  0.6508444  3
   2598   2595   2599   2609     1  0.0000000  0.6973333  3
   2598   2595   2594   2613     1  0.0000000  0.6508444  3
   2600   2593   2591   2610     1  0.0000000  1.0460000  1
   2600   2593   2591   2610     1  0.0000000  0.0000000  3
   2601   2590   2591   2610     1  0.0000000  0.6508444  3
   2604   2601   2606   2607     1  0.0000000  0.6973333  3
   2604   2601   2590   2608     1  0.0000000  1.0460000  1
   2604   2601   2590   2608     1  0.0000000  0.0000000  3
   2605   2601   2606   2607     1  0.0000000  0.6973333  3
   2605   2601   2590   2608     1  0.0000000  1.0460000  1
   2605   2601   2590   2608     1  0.0000000  0.0000000  3
   2608   2595   2599   2609     1  0.0000000  0.6973333  3
   2608   2590   2591   2610     1  0.0000000  1.0460000  1
   2608   2590   2591   2610     1  0.0000000  0.0000000  3
   2610   2591   2611   2612     1  0.0000000  0.6973333  3
   2614   2615   2617   2621     1  0.0000000  0.6508444  3
   2614   2615   2635   2636     1  0.0000000  1.0460000  1
   2614   2615   2635   2636     1  0.0000000  0.6694400  3
   2614   2625   2630   2631     1  0.0000000  1.0460000  1
   2614   2625   2630   2631     1  0.0000000  0.6694400  3
   2614   2632   2619   2622     1  0.0000000  1.6038667  3
   2615   2617   2618   2620     1  0.0000000  0.6508444  3
   2615   2617   2624   2626     1  0.0000000  1.0460000  1
   2615   2617   2624   2626     1  0.0000000  0.6694400  3
   2615   2614   2625   2628     1  0.0000000  0.6508444  3
   2615   2614   2625   2629     1  0.0000000  0.6508444  3
   2616   2614   2615   2617     1  0.0000000  0.6508444  3
   2616   2614   2615   2635     1  0.0000000  1.0460000  1
   2616   2614   2615   2635     1  0.0000000  0.0000000  3
   2616   2614   2615   2634     1  0.0000000  0.6508444  3
   2616   2614   2625   2630     1  0.0000000  1.0460000  1
   2616   2614   2625   2630     1  0.0000000  0.0000000  3
   2616   2614   2625   2628     1  0.0000000  0.6508444  3
   2616   2614   2625   2629     1  0.0000000  0.6508444  3
   2616   2614   2632   2619     1  0.0000000  1.6038667  3
   2617   2618   2619   2622     1  0.0000000  0.6508444  3
   2617   2618   2637   2627     1  0.0000000  1.2552000  3
   2617   2615   2635   2636     1  0.0000000  1.0460000  1
   2617   2615   2635   2636     1  0.0000000  0.6694400  3
   2618   2619   2623   2633     1  0.0000000  1.0460000  1
   2618   2619   2623   2633     1  0.0000000  0.6694400  3
   2618   2617   2624   2626     1  0.0000000  1.0460000  1
   2618   2617   2624   2626     1  0.0000000  0.6694400  3
   2618   2617   2615   2634     1  0.0000000  0.6508444  3
   2619   2618   2637   2627     1  0.0000000  1.2552000  3
   2619   2618   2617   2621     1  0.0000000  0.6508444  3
   2620   2618   2619   2623     1  0.0000000  1.0460000  1
   2620   2618   2619   2623     1  0.0000000  0.0000000  3
   2620   2618   2619   2632     1  0.0000000  1.0460000  1
   2620   2618   2619   2632     1  0.0000000  0.0000000  3
   2620   2618   2619   2622     1  0.0000000  0.6508444  3
   2620   2618   2637   2627     1  0.0000000  1.2552000  3
   2620   2618   2617   2624     1  0.0000000  1.0460000  1
   2620   2618   2617   2624     1  0.0000000  0.0000000  3
   2620   2618   2617   2621     1  0.0000000  0.6508444  3
   2621   2617   2618   2637     1  0.0000000  0.6508444  3
   2621   2617   2624   2626     1  0.0000000  0.6973333  3
   2621   2617   2615   2635     1  0.0000000  1.0460000  1
   2621   2617   2615   2635     1  0.0000000  0.0000000  3
   2621   2617   2615   2634     1  0.0000000  0.6508444  3
   2622   2619   2623   2633     1  0.0000000  0.6973333  3
   2622   2619   2618   2637     1  0.0000000  0.6508444  3
   2624   2617   2615   2634     1  0.0000000  1.0460000  1
   2624   2617   2615   2634     1  0.0000000  0.0000000  3
   2625   2614   2615   2634     1  0.0000000  0.6508444  3
   2628   2625   2630   2631     1  0.0000000  0.6973333  3
   2628   2625   2614   2632     1  0.0000000  1.0460000  1
   2628   2625   2614   2632     1  0.0000000  0.0000000  3
   2629   2625   2630   2631     1  0.0000000  0.6973333  3
   2629   2625   2614   2632     1  0.0000000  1.0460000  1
   2629   2625   2614   2632     1  0.0000000  0.0000000  3
   2632   2619   2623   2633     1  0.0000000  0.6973333  3
   2632   2614   2615   2634     1  0.0000000  1.0460000  1
   2632   2614   2615   2634     1  0.0000000  0.0000000  3
   2634   2615   2635   2636     1  0.0000000  0.6973333  3
   2639   2641   2643   2645     1  0.0000000  0.6508444  3
   2639   2641   2643   2646     1  0.0000000  0.6508444  3
   2640   2639   2641   2643     1  0.0000000  0.0000000  2
   2640   2639   2641   2642     1  0.0000000  0.0000000  2
   2640   2639   2641   2644     1  0.0000000  0.0000000  2
   2641   2643   2647   2712     1  0.0000000  0.6508444  3
   2642   2641   2643   2647     1  0.0000000  0.6508444  3
   2642   2641   2643   2645     1  0.0000000  0.6508444  3
   2642   2641   2643   2646     1  0.0000000  0.6508444  3
   2643   2647   2648   2657     1  0.0000000  0.6508444  3
   2643   2647   2648   2658     1  0.0000000  0.6508444  3
   2643   2647   2649   2650     1  0.0000000  0.6508444  3
   2643   2647   2649   2652     1  0.0000000  0.6508444  3
   2644   2641   2643   2647     1  0.0000000  0.6508444  3
   2644   2641   2643   2645     1  0.0000000  0.6508444  3
   2644   2641   2643   2646     1  0.0000000  0.6508444  3
   2645   2643   2647   2648     1  0.0000000  0.6508444  3
   2645   2643   2647   2649     1  0.0000000  0.6508444  3
   2645   2643   2647   2712     1  0.0000000  0.6508444  3
   2646   2643   2647   2648     1  0.0000000  0.6508444  3
   2646   2643   2647   2649     1  0.0000000  0.6508444  3
   2646   2643   2647   2712     1  0.0000000  0.6508444  3
   2647   2648   2659   2660     1  0.0000000  0.6508444  3
   2647   2648   2659   2661     1  0.0000000  0.6508444  3
   2647   2649   2651   2653     1  0.0000000  0.6508444  3
   2647   2649   2651   2654     1  0.0000000  0.6508444  3
   2648   2647   2649   2650     1  0.0000000  0.6508444  3
   2648   2647   2649   2652     1  0.0000000  0.6508444  3
   2649   2647   2648   2657     1  0.0000000  0.6508444  3
   2649   2647   2648   2658     1  0.0000000  0.6508444  3
   2650   2649   2647   2712     1  0.0000000  0.6508444  3
   2650   2649   2651   2655     1  0.0000000  0.6508444  3
   2650   2649   2651   2653     1  0.0000000  0.6508444  3
   2650   2649   2651   2654     1  0.0000000  0.6508444  3
   2651   2649   2647   2712     1  0.0000000  0.6508444  3
   2651   2655   2687   2677     1  180.0000771  6.0668000  2
   2651   2655   2687   2677     1  180.0000771  1.4644000  4
   2652   2649   2647   2712     1  0.0000000  0.6508444  3
   2652   2649   2651   2655     1  0.0000000  0.6508444  3
   2652   2649   2651   2653     1  0.0000000  0.6508444  3
   2652   2649   2651   2654     1  0.0000000  0.6508444  3
   2653   2651   2655   2656     1  0.0000000  3.3472000  1
   2653   2651   2655   2656     1  0.0000000  0.0000000  2
   2653   2651   2655   2656     1  180.0000771  0.3347200  3
   2653   2651   2655   2687     1  180.0000771  0.0000000  2
   2654   2651   2655   2656     1  0.0000000  3.3472000  1
   2654   2651   2655   2656     1  0.0000000  0.0000000  2
   2654   2651   2655   2656     1  180.0000771  0.3347200  3
   2654   2651   2655   2687     1  180.0000771  0.0000000  2
   2655   2687   2668   2670     1  0.0000000  1.2552000  3
   2656   2655   2687   2677     1  180.0000771  6.0668000  2
   2656   2655   2687   2677     1  180.0000771  1.4644000  4
   2657   2648   2647   2712     1  0.0000000  0.6508444  3
   2657   2648   2659   2662     1  0.0000000  0.6508444  3
   2657   2648   2659   2660     1  0.0000000  0.6508444  3
   2657   2648   2659   2661     1  0.0000000  0.6508444  3
   2658   2648   2647   2712     1  0.0000000  0.6508444  3
   2658   2648   2659   2662     1  0.0000000  0.6508444  3
   2658   2648   2659   2660     1  0.0000000  0.6508444  3
   2658   2648   2659   2661     1  0.0000000  0.6508444  3
   2659   2648   2647   2712     1  0.0000000  0.6508444  3
   2659   2662   2711   2701     1  180.0000771  6.0668000  2
   2659   2662   2711   2701     1  180.0000771  1.4644000  4
   2660   2659   2662   2663     1  0.0000000  3.3472000  1
   2660   2659   2662   2663     1  0.0000000  0.0000000  2
   2660   2659   2662   2663     1  180.0000771  0.3347200  3
   2660   2659   2662   2711     1  180.0000771  0.0000000  2
   2661   2659   2662   2663     1  0.0000000  3.3472000  1
   2661   2659   2662   2663     1  0.0000000  0.0000000  2
   2661   2659   2662   2663     1  180.0000771  0.3347200  3
   2661   2659   2662   2711     1  180.0000771  0.0000000  2
   2662   2711   2692   2694     1  0.0000000  1.2552000  3
   2663   2662   2711   2701     1  180.0000771  6.0668000  2
   2663   2662   2711   2701     1  180.0000771  1.4644000  4
   2664   2665   2667   2671     1  0.0000000  0.6508444  3
   2664   2665   2685   2686     1  0.0000000  1.0460000  1
   2664   2665   2685   2686     1  0.0000000  0.6694400  3
   2664   2675   2680   2681     1  0.0000000  1.0460000  1
   2664   2675   2680   2681     1  0.0000000  0.6694400  3
   2664   2682   2669   2672     1  0.0000000  1.6038667  3
   2665   2664   2675   2678     1  0.0000000  0.6508444  3
   2665   2664   2675   2679     1  0.0000000  0.6508444  3
   2665   2667   2668   2670     1  0.0000000  0.6508444  3
   2665   2667   2674   2676     1  0.0000000  1.0460000  1
   2665   2667   2674   2676     1  0.0000000  0.6694400  3
   2666   2664   2665   2667     1  0.0000000  0.6508444  3
   2666   2664   2665   2685     1  0.0000000  1.0460000  1
   2666   2664   2665   2685     1  0.0000000  0.0000000  3
   2666   2664   2665   2684     1  0.0000000  0.6508444  3
   2666   2664   2675   2680     1  0.0000000  1.0460000  1
   2666   2664   2675   2680     1  0.0000000  0.0000000  3
   2666   2664   2675   2678     1  0.0000000  0.6508444  3
   2666   2664   2675   2679     1  0.0000000  0.6508444  3
   2666   2664   2682   2669     1  0.0000000  1.6038667  3
   2667   2665   2685   2686     1  0.0000000  1.0460000  1
   2667   2665   2685   2686     1  0.0000000  0.6694400  3
   2667   2668   2669   2672     1  0.0000000  0.6508444  3
   2667   2668   2687   2677     1  0.0000000  1.2552000  3
   2668   2667   2665   2684     1  0.0000000  0.6508444  3
   2668   2667   2674   2676     1  0.0000000  1.0460000  1
   2668   2667   2674   2676     1  0.0000000  0.6694400  3
   2668   2669   2673   2683     1  0.0000000  1.0460000  1
   2668   2669   2673   2683     1  0.0000000  0.6694400  3
   2669   2668   2667   2671     1  0.0000000  0.6508444  3
   2669   2668   2687   2677     1  0.0000000  1.2552000  3
   2670   2668   2667   2674     1  0.0000000  1.0460000  1
   2670   2668   2667   2674     1  0.0000000  0.0000000  3
   2670   2668   2667   2671     1  0.0000000  0.6508444  3
   2670   2668   2669   2673     1  0.0000000  1.0460000  1
   2670   2668   2669   2673     1  0.0000000  0.0000000  3
   2670   2668   2669   2682     1  0.0000000  1.0460000  1
   2670   2668   2669   2682     1  0.0000000  0.0000000  3
   2670   2668   2669   2672     1  0.0000000  0.6508444  3
   2670   2668   2687   2677     1  0.0000000  1.2552000  3
   2671   2667   2665   2685     1  0.0000000  1.0460000  1
   2671   2667   2665   2685     1  0.0000000  0.0000000  3
   2671   2667   2665   2684     1  0.0000000  0.6508444  3
   2671   2667   2668   2687     1  0.0000000  0.6508444  3
   2671   2667   2674   2676     1  0.0000000  0.6973333  3
   2672   2669   2668   2687     1  0.0000000  0.6508444  3
   2672   2669   2673   2683     1  0.0000000  0.6973333  3
   2674   2667   2665   2684     1  0.0000000  1.0460000  1
   2674   2667   2665   2684     1  0.0000000  0.0000000  3
   2675   2664   2665   2684     1  0.0000000  0.6508444  3
   2678   2675   2664   2682     1  0.0000000  1.0460000  1
   2678   2675   2664   2682     1  0.0000000  0.0000000  3
   2678   2675   2680   2681     1  0.0000000  0.6973333  3
   2679   2675   2664   2682     1  0.0000000  1.0460000  1
   2679   2675   2664   2682     1  0.0000000  0.0000000  3
   2679   2675   2680   2681     1  0.0000000  0.6973333  3
   2682   2664   2665   2684     1  0.0000000  1.0460000  1
   2682   2664   2665   2684     1  0.0000000  0.0000000  3
   2682   2669   2673   2683     1  0.0000000  0.6973333  3
   2684   2665   2685   2686     1  0.0000000  0.6973333  3
   2688   2689   2691   2695     1  0.0000000  0.6508444  3
   2688   2689   2709   2710     1  0.0000000  1.0460000  1
   2688   2689   2709   2710     1  0.0000000  0.6694400  3
   2688   2699   2704   2705     1  0.0000000  1.0460000  1
   2688   2699   2704   2705     1  0.0000000  0.6694400  3
   2688   2706   2693   2696     1  0.0000000  1.6038667  3
   2689   2688   2699   2702     1  0.0000000  0.6508444  3
   2689   2688   2699   2703     1  0.0000000  0.6508444  3
   2689   2691   2692   2694     1  0.0000000  0.6508444  3
   2689   2691   2698   2700     1  0.0000000  1.0460000  1
   2689   2691   2698   2700     1  0.0000000  0.6694400  3
   2690   2688   2689   2691     1  0.0000000  0.6508444  3
   2690   2688   2689   2709     1  0.0000000  1.0460000  1
   2690   2688   2689   2709     1  0.0000000  0.0000000  3
   2690   2688   2689   2708     1  0.0000000  0.6508444  3
   2690   2688   2699   2704     1  0.0000000  1.0460000  1
   2690   2688   2699   2704     1  0.0000000  0.0000000  3
   2690   2688   2699   2702     1  0.0000000  0.6508444  3
   2690   2688   2699   2703     1  0.0000000  0.6508444  3
   2690   2688   2706   2693     1  0.0000000  1.6038667  3
   2691   2689   2709   2710     1  0.0000000  1.0460000  1
   2691   2689   2709   2710     1  0.0000000  0.6694400  3
   2691   2692   2693   2696     1  0.0000000  0.6508444  3
   2691   2692   2711   2701     1  0.0000000  1.2552000  3
   2692   2691   2689   2708     1  0.0000000  0.6508444  3
   2692   2691   2698   2700     1  0.0000000  1.0460000  1
   2692   2691   2698   2700     1  0.0000000  0.6694400  3
   2692   2693   2697   2707     1  0.0000000  1.0460000  1
   2692   2693   2697   2707     1  0.0000000  0.6694400  3
   2693   2692   2691   2695     1  0.0000000  0.6508444  3
   2693   2692   2711   2701     1  0.0000000  1.2552000  3
   2694   2692   2691   2698     1  0.0000000  1.0460000  1
   2694   2692   2691   2698     1  0.0000000  0.0000000  3
   2694   2692   2691   2695     1  0.0000000  0.6508444  3
   2694   2692   2693   2697     1  0.0000000  1.0460000  1
   2694   2692   2693   2697     1  0.0000000  0.0000000  3
   2694   2692   2693   2706     1  0.0000000  1.0460000  1
   2694   2692   2693   2706     1  0.0000000  0.0000000  3
   2694   2692   2693   2696     1  0.0000000  0.6508444  3
   2694   2692   2711   2701     1  0.0000000  1.2552000  3
   2695   2691   2689   2709     1  0.0000000  1.0460000  1
   2695   2691   2689   2709     1  0.0000000  0.0000000  3
   2695   2691   2689   2708     1  0.0000000  0.6508444  3
   2695   2691   2692   2711     1  0.0000000  0.6508444  3
   2695   2691   2698   2700     1  0.0000000  0.6973333  3
   2696   2693   2692   2711     1  0.0000000  0.6508444  3
   2696   2693   2697   2707     1  0.0000000  0.6973333  3
   2698   2691   2689   2708     1  0.0000000  1.0460000  1
   2698   2691   2689   2708     1  0.0000000  0.0000000  3
   2699   2688   2689   2708     1  0.0000000  0.6508444  3
   2702   2699   2688   2706     1  0.0000000  1.0460000  1
   2702   2699   2688   2706     1  0.0000000  0.0000000  3
   2702   2699   2704   2705     1  0.0000000  0.6973333  3
   2703   2699   2688   2706     1  0.0000000  1.0460000  1
   2703   2699   2688   2706     1  0.0000000  0.0000000  3
   2703   2699   2704   2705     1  0.0000000  0.6973333  3
   2706   2688   2689   2708     1  0.0000000  1.0460000  1
   2706   2688   2689   2708     1  0.0000000  0.0000000  3
   2706   2693   2697   2707     1  0.0000000  0.6973333  3
   2708   2689   2709   2710     1  0.0000000  0.6973333  3
   2713   2715   2717   2719     1  0.0000000  0.6508444  3
   2713   2715   2717   2720     1  0.0000000  0.6508444  3
   2714   2713   2715   2717     1  0.0000000  0.0000000  2
   2714   2713   2715   2716     1  0.0000000  0.0000000  2
   2714   2713   2715   2718     1  0.0000000  0.0000000  2
   2715   2717   2721   2786     1  0.0000000  0.6508444  3
   2716   2715   2717   2721     1  0.0000000  0.6508444  3
   2716   2715   2717   2719     1  0.0000000  0.6508444  3
   2716   2715   2717   2720     1  0.0000000  0.6508444  3
   2717   2721   2722   2731     1  0.0000000  0.6508444  3
   2717   2721   2722   2732     1  0.0000000  0.6508444  3
   2717   2721   2723   2724     1  0.0000000  0.6508444  3
   2717   2721   2723   2726     1  0.0000000  0.6508444  3
   2718   2715   2717   2721     1  0.0000000  0.6508444  3
   2718   2715   2717   2719     1  0.0000000  0.6508444  3
   2718   2715   2717   2720     1  0.0000000  0.6508444  3
   2719   2717   2721   2722     1  0.0000000  0.6508444  3
   2719   2717   2721   2723     1  0.0000000  0.6508444  3
   2719   2717   2721   2786     1  0.0000000  0.6508444  3
   2720   2717   2721   2722     1  0.0000000  0.6508444  3
   2720   2717   2721   2723     1  0.0000000  0.6508444  3
   2720   2717   2721   2786     1  0.0000000  0.6508444  3
   2721   2722   2733   2734     1  0.0000000  0.6508444  3
   2721   2722   2733   2735     1  0.0000000  0.6508444  3
   2721   2723   2725   2727     1  0.0000000  0.6508444  3
   2721   2723   2725   2728     1  0.0000000  0.6508444  3
   2722   2721   2723   2724     1  0.0000000  0.6508444  3
   2722   2721   2723   2726     1  0.0000000  0.6508444  3
   2723   2721   2722   2731     1  0.0000000  0.6508444  3
   2723   2721   2722   2732     1  0.0000000  0.6508444  3
   2724   2723   2725   2729     1  0.0000000  0.6508444  3
   2724   2723   2725   2727     1  0.0000000  0.6508444  3
   2724   2723   2725   2728     1  0.0000000  0.6508444  3
   2724   2723   2721   2786     1  0.0000000  0.6508444  3
   2725   2729   2761   2751     1  180.0000771  6.0668000  2
   2725   2729   2761   2751     1  180.0000771  1.4644000  4
   2725   2723   2721   2786     1  0.0000000  0.6508444  3
   2726   2723   2725   2729     1  0.0000000  0.6508444  3
   2726   2723   2725   2727     1  0.0000000  0.6508444  3
   2726   2723   2725   2728     1  0.0000000  0.6508444  3
   2726   2723   2721   2786     1  0.0000000  0.6508444  3
   2727   2725   2729   2730     1  0.0000000  3.3472000  1
   2727   2725   2729   2730     1  0.0000000  0.0000000  2
   2727   2725   2729   2730     1  180.0000771  0.3347200  3
   2727   2725   2729   2761     1  180.0000771  0.0000000  2
   2728   2725   2729   2730     1  0.0000000  3.3472000  1
   2728   2725   2729   2730     1  0.0000000  0.0000000  2
   2728   2725   2729   2730     1  180.0000771  0.3347200  3
   2728   2725   2729   2761     1  180.0000771  0.0000000  2
   2729   2761   2742   2744     1  0.0000000  1.2552000  3
   2730   2729   2761   2751     1  180.0000771  6.0668000  2
   2730   2729   2761   2751     1  180.0000771  1.4644000  4
   2731   2722   2733   2736     1  0.0000000  0.6508444  3
   2731   2722   2733   2734     1  0.0000000  0.6508444  3
   2731   2722   2733   2735     1  0.0000000  0.6508444  3
   2731   2722   2721   2786     1  0.0000000  0.6508444  3
   2732   2722   2733   2736     1  0.0000000  0.6508444  3
   2732   2722   2733   2734     1  0.0000000  0.6508444  3
   2732   2722   2733   2735     1  0.0000000  0.6508444  3
   2732   2722   2721   2786     1  0.0000000  0.6508444  3
   2733   2736   2785   2775     1  180.0000771  6.0668000  2
   2733   2736   2785   2775     1  180.0000771  1.4644000  4
   2733   2722   2721   2786     1  0.0000000  0.6508444  3
   2734   2733   2736   2737     1  0.0000000  3.3472000  1
   2734   2733   2736   2737     1  0.0000000  0.0000000  2
   2734   2733   2736   2737     1  180.0000771  0.3347200  3
   2734   2733   2736   2785     1  180.0000771  0.0000000  2
   2735   2733   2736   2737     1  0.0000000  3.3472000  1
   2735   2733   2736   2737     1  0.0000000  0.0000000  2
   2735   2733   2736   2737     1  180.0000771  0.3347200  3
   2735   2733   2736   2785     1  180.0000771  0.0000000  2
   2736   2785   2766   2768     1  0.0000000  1.2552000  3
   2737   2736   2785   2775     1  180.0000771  6.0668000  2
   2737   2736   2785   2775     1  180.0000771  1.4644000  4
   2738   2739   2741   2745     1  0.0000000  0.6508444  3
   2738   2739   2759   2760     1  0.0000000  1.0460000  1
   2738   2739   2759   2760     1  0.0000000  0.6694400  3
   2738   2749   2754   2755     1  0.0000000  1.0460000  1
   2738   2749   2754   2755     1  0.0000000  0.6694400  3
   2738   2756   2743   2746     1  0.0000000  1.6038667  3
   2739   2741   2742   2744     1  0.0000000  0.6508444  3
   2739   2741   2748   2750     1  0.0000000  1.0460000  1
   2739   2741   2748   2750     1  0.0000000  0.6694400  3
   2739   2738   2749   2752     1  0.0000000  0.6508444  3
   2739   2738   2749   2753     1  0.0000000  0.6508444  3
   2740   2738   2739   2741     1  0.0000000  0.6508444  3
   2740   2738   2739   2759     1  0.0000000  1.0460000  1
   2740   2738   2739   2759     1  0.0000000  0.0000000  3
   2740   2738   2739   2758     1  0.0000000  0.6508444  3
   2740   2738   2749   2754     1  0.0000000  1.0460000  1
   2740   2738   2749   2754     1  0.0000000  0.0000000  3
   2740   2738   2749   2752     1  0.0000000  0.6508444  3
   2740   2738   2749   2753     1  0.0000000  0.6508444  3
   2740   2738   2756   2743     1  0.0000000  1.6038667  3
   2741   2742   2743   2746     1  0.0000000  0.6508444  3
   2741   2742   2761   2751     1  0.0000000  1.2552000  3
   2741   2739   2759   2760     1  0.0000000  1.0460000  1
   2741   2739   2759   2760     1  0.0000000  0.6694400  3
   2742   2743   2747   2757     1  0.0000000  1.0460000  1
   2742   2743   2747   2757     1  0.0000000  0.6694400  3
   2742   2741   2748   2750     1  0.0000000  1.0460000  1
   2742   2741   2748   2750     1  0.0000000  0.6694400  3
   2742   2741   2739   2758     1  0.0000000  0.6508444  3
   2743   2742   2761   2751     1  0.0000000  1.2552000  3
   2743   2742   2741   2745     1  0.0000000  0.6508444  3
   2744   2742   2743   2747     1  0.0000000  1.0460000  1
   2744   2742   2743   2747     1  0.0000000  0.0000000  3
   2744   2742   2743   2756     1  0.0000000  1.0460000  1
   2744   2742   2743   2756     1  0.0000000  0.0000000  3
   2744   2742   2743   2746     1  0.0000000  0.6508444  3
   2744   2742   2761   2751     1  0.0000000  1.2552000  3
   2744   2742   2741   2748     1  0.0000000  1.0460000  1
   2744   2742   2741   2748     1  0.0000000  0.0000000  3
   2744   2742   2741   2745     1  0.0000000  0.6508444  3
   2745   2741   2742   2761     1  0.0000000  0.6508444  3
   2745   2741   2748   2750     1  0.0000000  0.6973333  3
   2745   2741   2739   2759     1  0.0000000  1.0460000  1
   2745   2741   2739   2759     1  0.0000000  0.0000000  3
   2745   2741   2739   2758     1  0.0000000  0.6508444  3
   2746   2743   2747   2757     1  0.0000000  0.6973333  3
   2746   2743   2742   2761     1  0.0000000  0.6508444  3
   2748   2741   2739   2758     1  0.0000000  1.0460000  1
   2748   2741   2739   2758     1  0.0000000  0.0000000  3
   2749   2738   2739   2758     1  0.0000000  0.6508444  3
   2752   2749   2754   2755     1  0.0000000  0.6973333  3
   2752   2749   2738   2756     1  0.0000000  1.0460000  1
   2752   2749   2738   2756     1  0.0000000  0.0000000  3
   2753   2749   2754   2755     1  0.0000000  0.6973333  3
   2753   2749   2738   2756     1  0.0000000  1.0460000  1
   2753   2749   2738   2756     1  0.0000000  0.0000000  3
   2756   2743   2747   2757     1  0.0000000  0.6973333  3
   2756   2738   2739   2758     1  0.0000000  1.0460000  1
   2756   2738   2739   2758     1  0.0000000  0.0000000  3
   2758   2739   2759   2760     1  0.0000000  0.6973333  3
   2762   2763   2765   2769     1  0.0000000  0.6508444  3
   2762   2763   2783   2784     1  0.0000000  1.0460000  1
   2762   2763   2783   2784     1  0.0000000  0.6694400  3
   2762   2773   2778   2779     1  0.0000000  1.0460000  1
   2762   2773   2778   2779     1  0.0000000  0.6694400  3
   2762   2780   2767   2770     1  0.0000000  1.6038667  3
   2763   2765   2766   2768     1  0.0000000  0.6508444  3
   2763   2765   2772   2774     1  0.0000000  1.0460000  1
   2763   2765   2772   2774     1  0.0000000  0.6694400  3
   2763   2762   2773   2776     1  0.0000000  0.6508444  3
   2763   2762   2773   2777     1  0.0000000  0.6508444  3
   2764   2762   2763   2765     1  0.0000000  0.6508444  3
   2764   2762   2763   2783     1  0.0000000  1.0460000  1
   2764   2762   2763   2783     1  0.0000000  0.0000000  3
   2764   2762   2763   2782     1  0.0000000  0.6508444  3
   2764   2762   2773   2778     1  0.0000000  1.0460000  1
   2764   2762   2773   2778     1  0.0000000  0.0000000  3
   2764   2762   2773   2776     1  0.0000000  0.6508444  3
   2764   2762   2773   2777     1  0.0000000  0.6508444  3
   2764   2762   2780   2767     1  0.0000000  1.6038667  3
   2765   2766   2767   2770     1  0.0000000  0.6508444  3
   2765   2766   2785   2775     1  0.0000000  1.2552000  3
   2765   2763   2783   2784     1  0.0000000  1.0460000  1
   2765   2763   2783   2784     1  0.0000000  0.6694400  3
   2766   2767   2771   2781     1  0.0000000  1.0460000  1
   2766   2767   2771   2781     1  0.0000000  0.6694400  3
   2766   2765   2772   2774     1  0.0000000  1.0460000  1
   2766   2765   2772   2774     1  0.0000000  0.6694400  3
   2766   2765   2763   2782     1  0.0000000  0.6508444  3
   2767   2766   2785   2775     1  0.0000000  1.2552000  3
   2767   2766   2765   2769     1  0.0000000  0.6508444  3
   2768   2766   2767   2771     1  0.0000000  1.0460000  1
   2768   2766   2767   2771     1  0.0000000  0.0000000  3
   2768   2766   2767   2780     1  0.0000000  1.0460000  1
   2768   2766   2767   2780     1  0.0000000  0.0000000  3
   2768   2766   2767   2770     1  0.0000000  0.6508444  3
   2768   2766   2785   2775     1  0.0000000  1.2552000  3
   2768   2766   2765   2772     1  0.0000000  1.0460000  1
   2768   2766   2765   2772     1  0.0000000  0.0000000  3
   2768   2766   2765   2769     1  0.0000000  0.6508444  3
   2769   2765   2766   2785     1  0.0000000  0.6508444  3
   2769   2765   2772   2774     1  0.0000000  0.6973333  3
   2769   2765   2763   2783     1  0.0000000  1.0460000  1
   2769   2765   2763   2783     1  0.0000000  0.0000000  3
   2769   2765   2763   2782     1  0.0000000  0.6508444  3
   2770   2767   2771   2781     1  0.0000000  0.6973333  3
   2770   2767   2766   2785     1  0.0000000  0.6508444  3
   2772   2765   2763   2782     1  0.0000000  1.0460000  1
   2772   2765   2763   2782     1  0.0000000  0.0000000  3
   2773   2762   2763   2782     1  0.0000000  0.6508444  3
   2776   2773   2778   2779     1  0.0000000  0.6973333  3
   2776   2773   2762   2780     1  0.0000000  1.0460000  1
   2776   2773   2762   2780     1  0.0000000  0.0000000  3
   2777   2773   2778   2779     1  0.0000000  0.6973333  3
   2777   2773   2762   2780     1  0.0000000  1.0460000  1
   2777   2773   2762   2780     1  0.0000000  0.0000000  3
   2780   2767   2771   2781     1  0.0000000  0.6973333  3
   2780   2762   2763   2782     1  0.0000000  1.0460000  1
   2780   2762   2763   2782     1  0.0000000  0.0000000  3
   2782   2763   2783   2784     1  0.0000000  0.6973333  3
   2787   2789   2791   2793     1  0.0000000  0.6508444  3
   2787   2789   2791   2794     1  0.0000000  0.6508444  3
   2788   2787   2789   2791     1  0.0000000  0.0000000  2
   2788   2787   2789   2790     1  0.0000000  0.0000000  2
   2788   2787   2789   2792     1  0.0000000  0.0000000  2
   2789   2791   2795   2860     1  0.0000000  0.6508444  3
   2790   2789   2791   2795     1  0.0000000  0.6508444  3
   2790   2789   2791   2793     1  0.0000000  0.6508444  3
   2790   2789   2791   2794     1  0.0000000  0.6508444  3
   2791   2795   2796   2805     1  0.0000000  0.6508444  3
   2791   2795   2796   2806     1  0.0000000  0.6508444  3
   2791   2795   2797   2798     1  0.0000000  0.6508444  3
   2791   2795   2797   2800     1  0.0000000  0.6508444  3
   2792   2789   2791   2795     1  0.0000000  0.6508444  3
   2792   2789   2791   2793     1  0.0000000  0.6508444  3
   2792   2789   2791   2794     1  0.0000000  0.6508444  3
   2793   2791   2795   2796     1  0.0000000  0.6508444  3
   2793   2791   2795   2797     1  0.0000000  0.6508444  3
   2793   2791   2795   2860     1  0.0000000  0.6508444  3
   2794   2791   2795   2796     1  0.0000000  0.6508444  3
   2794   2791   2795   2797     1  0.0000000  0.6508444  3
   2794   2791   2795   2860     1  0.0000000  0.6508444  3
   2795   2796   2807   2808     1  0.0000000  0.6508444  3
   2795   2796   2807   2809     1  0.0000000  0.6508444  3
   2795   2797   2799   2801     1  0.0000000  0.6508444  3
   2795   2797   2799   2802     1  0.0000000  0.6508444  3
   2796   2795   2797   2798     1  0.0000000  0.6508444  3
   2796   2795   2797   2800     1  0.0000000  0.6508444  3
   2797   2795   2796   2805     1  0.0000000  0.6508444  3
   2797   2795   2796   2806     1  0.0000000  0.6508444  3
   2798   2797   2795   2860     1  0.0000000  0.6508444  3
   2798   2797   2799   2803     1  0.0000000  0.6508444  3
   2798   2797   2799   2801     1  0.0000000  0.6508444  3
   2798   2797   2799   2802     1  0.0000000  0.6508444  3
   2799   2797   2795   2860     1  0.0000000  0.6508444  3
   2799   2803   2835   2825     1  180.0000771  6.0668000  2
   2799   2803   2835   2825     1  180.0000771  1.4644000  4
   2800   2797   2795   2860     1  0.0000000  0.6508444  3
   2800   2797   2799   2803     1  0.0000000  0.6508444  3
   2800   2797   2799   2801     1  0.0000000  0.6508444  3
   2800   2797   2799   2802     1  0.0000000  0.6508444  3
   2801   2799   2803   2804     1  0.0000000  3.3472000  1
   2801   2799   2803   2804     1  0.0000000  0.0000000  2
   2801   2799   2803   2804     1  180.0000771  0.3347200  3
   2801   2799   2803   2835     1  180.0000771  0.0000000  2
   2802   2799   2803   2804     1  0.0000000  3.3472000  1
   2802   2799   2803   2804     1  0.0000000  0.0000000  2
   2802   2799   2803   2804     1  180.0000771  0.3347200  3
   2802   2799   2803   2835     1  180.0000771  0.0000000  2
   2803   2835   2816   2818     1  0.0000000  1.2552000  3
   2804   2803   2835   2825     1  180.0000771  6.0668000  2
   2804   2803   2835   2825     1  180.0000771  1.4644000  4
   2805   2796   2795   2860     1  0.0000000  0.6508444  3
   2805   2796   2807   2810     1  0.0000000  0.6508444  3
   2805   2796   2807   2808     1  0.0000000  0.6508444  3
   2805   2796   2807   2809     1  0.0000000  0.6508444  3
   2806   2796   2795   2860     1  0.0000000  0.6508444  3
   2806   2796   2807   2810     1  0.0000000  0.6508444  3
   2806   2796   2807   2808     1  0.0000000  0.6508444  3
   2806   2796   2807   2809     1  0.0000000  0.6508444  3
   2807   2796   2795   2860     1  0.0000000  0.6508444  3
   2807   2810   2859   2849     1  180.0000771  6.0668000  2
   2807   2810   2859   2849     1  180.0000771  1.4644000  4
   2808   2807   2810   2811     1  0.0000000  3.3472000  1
   2808   2807   2810   2811     1  0.0000000  0.0000000  2
   2808   2807   2810   2811     1  180.0000771  0.3347200  3
   2808   2807   2810   2859     1  180.0000771  0.0000000  2
   2809   2807   2810   2811     1  0.0000000  3.3472000  1
   2809   2807   2810   2811     1  0.0000000  0.0000000  2
   2809   2807   2810   2811     1  180.0000771  0.3347200  3
   2809   2807   2810   2859     1  180.0000771  0.0000000  2
   2810   2859   2840   2842     1  0.0000000  1.2552000  3
   2811   2810   2859   2849     1  180.0000771  6.0668000  2
   2811   2810   2859   2849     1  180.0000771  1.4644000  4
   2812   2813   2815   2819     1  0.0000000  0.6508444  3
   2812   2813   2833   2834     1  0.0000000  1.0460000  1
   2812   2813   2833   2834     1  0.0000000  0.6694400  3
   2812   2823   2828   2829     1  0.0000000  1.0460000  1
   2812   2823   2828   2829     1  0.0000000  0.6694400  3
   2812   2830   2817   2820     1  0.0000000  1.6038667  3
   2813   2812   2823   2826     1  0.0000000  0.6508444  3
   2813   2812   2823   2827     1  0.0000000  0.6508444  3
   2813   2815   2816   2818     1  0.0000000  0.6508444  3
   2813   2815   2822   2824     1  0.0000000  1.0460000  1
   2813   2815   2822   2824     1  0.0000000  0.6694400  3
   2814   2812   2813   2815     1  0.0000000  0.6508444  3
   2814   2812   2813   2833     1  0.0000000  1.0460000  1
   2814   2812   2813   2833     1  0.0000000  0.0000000  3
   2814   2812   2813   2832     1  0.0000000  0.6508444  3
   2814   2812   2823   2828     1  0.0000000  1.0460000  1
   2814   2812   2823   2828     1  0.0000000  0.0000000  3
   2814   2812   2823   2826     1  0.0000000  0.6508444  3
   2814   2812   2823   2827     1  0.0000000  0.6508444  3
   2814   2812   2830   2817     1  0.0000000  1.6038667  3
   2815   2813   2833   2834     1  0.0000000  1.0460000  1
   2815   2813   2833   2834     1  0.0000000  0.6694400  3
   2815   2816   2817   2820     1  0.0000000  0.6508444  3
   2815   2816   2835   2825     1  0.0000000  1.2552000  3
   2816   2815   2813   2832     1  0.0000000  0.6508444  3
   2816   2815   2822   2824     1  0.0000000  1.0460000  1
   2816   2815   2822   2824     1  0.0000000  0.6694400  3
   2816   2817   2821   2831     1  0.0000000  1.0460000  1
   2816   2817   2821   2831     1  0.0000000  0.6694400  3
   2817   2816   2815   2819     1  0.0000000  0.6508444  3
   2817   2816   2835   2825     1  0.0000000  1.2552000  3
   2818   2816   2815   2822     1  0.0000000  1.0460000  1
   2818   2816   2815   2822     1  0.0000000  0.0000000  3
   2818   2816   2815   2819     1  0.0000000  0.6508444  3
   2818   2816   2817   2821     1  0.0000000  1.0460000  1
   2818   2816   2817   2821     1  0.0000000  0.0000000  3
   2818   2816   2817   2830     1  0.0000000  1.0460000  1
   2818   2816   2817   2830     1  0.0000000  0.0000000  3
   2818   2816   2817   2820     1  0.0000000  0.6508444  3
   2818   2816   2835   2825     1  0.0000000  1.2552000  3
   2819   2815   2813   2833     1  0.0000000  1.0460000  1
   2819   2815   2813   2833     1  0.0000000  0.0000000  3
   2819   2815   2813   2832     1  0.0000000  0.6508444  3
   2819   2815   2816   2835     1  0.0000000  0.6508444  3
   2819   2815   2822   2824     1  0.0000000  0.6973333  3
   2820   2817   2816   2835     1  0.0000000  0.6508444  3
   2820   2817   2821   2831     1  0.0000000  0.6973333  3
   2822   2815   2813   2832     1  0.0000000  1.0460000  1
   2822   2815   2813   2832     1  0.0000000  0.0000000  3
   2823   2812   2813   2832     1  0.0000000  0.6508444  3
   2826   2823   2812   2830     1  0.0000000  1.0460000  1
   2826   2823   2812   2830     1  0.0000000  0.0000000  3
   2826   2823   2828   2829     1  0.0000000  0.6973333  3
   2827   2823   2812   2830     1  0.0000000  1.0460000  1
   2827   2823   2812   2830     1  0.0000000  0.0000000  3
   2827   2823   2828   2829     1  0.0000000  0.6973333  3
   2830   2812   2813   2832     1  0.0000000  1.0460000  1
   2830   2812   2813   2832     1  0.0000000  0.0000000  3
   2830   2817   2821   2831     1  0.0000000  0.6973333  3
   2832   2813   2833   2834     1  0.0000000  0.6973333  3
   2836   2837   2839   2843     1  0.0000000  0.6508444  3
   2836   2837   2857   2858     1  0.0000000  1.0460000  1
   2836   2837   2857   2858     1  0.0000000  0.6694400  3
   2836   2847   2852   2853     1  0.0000000  1.0460000  1
   2836   2847   2852   2853     1  0.0000000  0.6694400  3
   2836   2854   2841   2844     1  0.0000000  1.6038667  3
   2837   2836   2847   2850     1  0.0000000  0.6508444  3
   2837   2836   2847   2851     1  0.0000000  0.6508444  3
   2837   2839   2840   2842     1  0.0000000  0.6508444  3
   2837   2839   2846   2848     1  0.0000000  1.0460000  1
   2837   2839   2846   2848     1  0.0000000  0.6694400  3
   2838   2836   2837   2839     1  0.0000000  0.6508444  3
   2838   2836   2837   2857     1  0.0000000  1.0460000  1
   2838   2836   2837   2857     1  0.0000000  0.0000000  3
   2838   2836   2837   2856     1  0.0000000  0.6508444  3
   2838   2836   2847   2852     1  0.0000000  1.0460000  1
   2838   2836   2847   2852     1  0.0000000  0.0000000  3
   2838   2836   2847   2850     1  0.0000000  0.6508444  3
   2838   2836   2847   2851     1  0.0000000  0.6508444  3
   2838   2836   2854   2841     1  0.0000000  1.6038667  3
   2839   2837   2857   2858     1  0.0000000  1.0460000  1
   2839   2837   2857   2858     1  0.0000000  0.6694400  3
   2839   2840   2841   2844     1  0.0000000  0.6508444  3
   2839   2840   2859   2849     1  0.0000000  1.2552000  3
   2840   2839   2837   2856     1  0.0000000  0.6508444  3
   2840   2839   2846   2848     1  0.0000000  1.0460000  1
   2840   2839   2846   2848     1  0.0000000  0.6694400  3
   2840   2841   2845   2855     1  0.0000000  1.0460000  1
   2840   2841   2845   2855     1  0.0000000  0.6694400  3
   2841   2840   2839   2843     1  0.0000000  0.6508444  3
   2841   2840   2859   2849     1  0.0000000  1.2552000  3
   2842   2840   2839   2846     1  0.0000000  1.0460000  1
   2842   2840   2839   2846     1  0.0000000  0.0000000  3
   2842   2840   2839   2843     1  0.0000000  0.6508444  3
   2842   2840   2841   2845     1  0.0000000  1.0460000  1
   2842   2840   2841   2845     1  0.0000000  0.0000000  3
   2842   2840   2841   2854     1  0.0000000  1.0460000  1
   2842   2840   2841   2854     1  0.0000000  0.0000000  3
   2842   2840   2841   2844     1  0.0000000  0.6508444  3
   2842   2840   2859   2849     1  0.0000000  1.2552000  3
   2843   2839   2837   2857     1  0.0000000  1.0460000  1
   2843   2839   2837   2857     1  0.0000000  0.0000000  3
   2843   2839   2837   2856     1  0.0000000  0.6508444  3
   2843   2839   2840   2859     1  0.0000000  0.6508444  3
   2843   2839   2846   2848     1  0.0000000  0.6973333  3
   2844   2841   2840   2859     1  0.0000000  0.6508444  3
   2844   2841   2845   2855     1  0.0000000  0.6973333  3
   2846   2839   2837   2856     1  0.0000000  1.0460000  1
   2846   2839   2837   2856     1  0.0000000  0.0000000  3
   2847   2836   2837   2856     1  0.0000000  0.6508444  3
   2850   2847   2836   2854     1  0.0000000  1.0460000  1
   2850   2847   2836   2854     1  0.0000000  0.0000000  3
   2850   2847   2852   2853     1  0.0000000  0.6973333  3
   2851   2847   2836   2854     1  0.0000000  1.0460000  1
   2851   2847   2836   2854     1  0.0000000  0.0000000  3
   2851   2847   2852   2853     1  0.0000000  0.6973333  3
   2854   2836   2837   2856     1  0.0000000  1.0460000  1
   2854   2836   2837   2856     1  0.0000000  0.0000000  3
   2854   2841   2845   2855     1  0.0000000  0.6973333  3
   2856   2837   2857   2858     1  0.0000000  0.6973333  3
   2861   2863   2865   2867     1  0.0000000  0.6508444  3
   2861   2863   2865   2868     1  0.0000000  0.6508444  3
   2862   2861   2863   2865     1  0.0000000  0.0000000  2
   2862   2861   2863   2864     1  0.0000000  0.0000000  2
   2862   2861   2863   2866     1  0.0000000  0.0000000  2
   2863   2865   2869   2934     1  0.0000000  0.6508444  3
   2864   2863   2865   2869     1  0.0000000  0.6508444  3
   2864   2863   2865   2867     1  0.0000000  0.6508444  3
   2864   2863   2865   2868     1  0.0000000  0.6508444  3
   2865   2869   2870   2879     1  0.0000000  0.6508444  3
   2865   2869   2870   2880     1  0.0000000  0.6508444  3
   2865   2869   2871   2872     1  0.0000000  0.6508444  3
   2865   2869   2871   2874     1  0.0000000  0.6508444  3
   2866   2863   2865   2869     1  0.0000000  0.6508444  3
   2866   2863   2865   2867     1  0.0000000  0.6508444  3
   2866   2863   2865   2868     1  0.0000000  0.6508444  3
   2867   2865   2869   2870     1  0.0000000  0.6508444  3
   2867   2865   2869   2871     1  0.0000000  0.6508444  3
   2867   2865   2869   2934     1  0.0000000  0.6508444  3
   2868   2865   2869   2870     1  0.0000000  0.6508444  3
   2868   2865   2869   2871     1  0.0000000  0.6508444  3
   2868   2865   2869   2934     1  0.0000000  0.6508444  3
   2869   2870   2881   2882     1  0.0000000  0.6508444  3
   2869   2870   2881   2883     1  0.0000000  0.6508444  3
   2869   2871   2873   2875     1  0.0000000  0.6508444  3
   2869   2871   2873   2876     1  0.0000000  0.6508444  3
   2870   2869   2871   2872     1  0.0000000  0.6508444  3
   2870   2869   2871   2874     1  0.0000000  0.6508444  3
   2871   2869   2870   2879     1  0.0000000  0.6508444  3
   2871   2869   2870   2880     1  0.0000000  0.6508444  3
   2872   2871   2873   2877     1  0.0000000  0.6508444  3
   2872   2871   2873   2875     1  0.0000000  0.6508444  3
   2872   2871   2873   2876     1  0.0000000  0.6508444  3
   2872   2871   2869   2934     1  0.0000000  0.6508444  3
   2873   2877   2909   2899     1  180.0000771  6.0668000  2
   2873   2877   2909   2899     1  180.0000771  1.4644000  4
   2873   2871   2869   2934     1  0.0000000  0.6508444  3
   2874   2871   2873   2877     1  0.0000000  0.6508444  3
   2874   2871   2873   2875     1  0.0000000  0.6508444  3
   2874   2871   2873   2876     1  0.0000000  0.6508444  3
   2874   2871   2869   2934     1  0.0000000  0.6508444  3
   2875   2873   2877   2878     1  0.0000000  3.3472000  1
   2875   2873   2877   2878     1  0.0000000  0.0000000  2
   2875   2873   2877   2878     1  180.0000771  0.3347200  3
   2875   2873   2877   2909     1  180.0000771  0.0000000  2
   2876   2873   2877   2878     1  0.0000000  3.3472000  1
   2876   2873   2877   2878     1  0.0000000  0.0000000  2
   2876   2873   2877   2878     1  180.0000771  0.3347200  3
   2876   2873   2877   2909     1  180.0000771  0.0000000  2
   2877   2909   2890   2892     1  0.0000000  1.2552000  3
   2878   2877   2909   2899     1  180.0000771  6.0668000  2
   2878   2877   2909   2899     1  180.0000771  1.4644000  4
   2879   2870   2881   2884     1  0.0000000  0.6508444  3
   2879   2870   2881   2882     1  0.0000000  0.6508444  3
   2879   2870   2881   2883     1  0.0000000  0.6508444  3
   2879   2870   2869   2934     1  0.0000000  0.6508444  3
   2880   2870   2881   2884     1  0.0000000  0.6508444  3
   2880   2870   2881   2882     1  0.0000000  0.6508444  3
   2880   2870   2881   2883     1  0.0000000  0.6508444  3
   2880   2870   2869   2934     1  0.0000000  0.6508444  3
   2881   2884   2933   2923     1  180.0000771  6.0668000  2
   2881   2884   2933   2923     1  180.0000771  1.4644000  4
   2881   2870   2869   2934     1  0.0000000  0.6508444  3
   2882   2881   2884   2885     1  0.0000000  3.3472000  1
   2882   2881   2884   2885     1  0.0000000  0.0000000  2
   2882   2881   2884   2885     1  180.0000771  0.3347200  3
   2882   2881   2884   2933     1  180.0000771  0.0000000  2
   2883   2881   2884   2885     1  0.0000000  3.3472000  1
   2883   2881   2884   2885     1  0.0000000  0.0000000  2
   2883   2881   2884   2885     1  180.0000771  0.3347200  3
   2883   2881   2884   2933     1  180.0000771  0.0000000  2
   2884   2933   2914   2916     1  0.0000000  1.2552000  3
   2885   2884   2933   2923     1  180.0000771  6.0668000  2
   2885   2884   2933   2923     1  180.0000771  1.4644000  4
   2886   2887   2889   2893     1  0.0000000  0.6508444  3
   2886   2887   2907   2908     1  0.0000000  1.0460000  1
   2886   2887   2907   2908     1  0.0000000  0.6694400  3
   2886   2897   2902   2903     1  0.0000000  1.0460000  1
   2886   2897   2902   2903     1  0.0000000  0.6694400  3
   2886   2904   2891   2894     1  0.0000000  1.6038667  3
   2887   2889   2890   2892     1  0.0000000  0.6508444  3
   2887   2889   2896   2898     1  0.0000000  1.0460000  1
   2887   2889   2896   2898     1  0.0000000  0.6694400  3
   2887   2886   2897   2900     1  0.0000000  0.6508444  3
   2887   2886   2897   2901     1  0.0000000  0.6508444  3
   2888   2886   2887   2889     1  0.0000000  0.6508444  3
   2888   2886   2887   2907     1  0.0000000  1.0460000  1
   2888   2886   2887   2907     1  0.0000000  0.0000000  3
   2888   2886   2887   2906     1  0.0000000  0.6508444  3
   2888   2886   2897   2902     1  0.0000000  1.0460000  1
   2888   2886   2897   2902     1  0.0000000  0.0000000  3
   2888   2886   2897   2900     1  0.0000000  0.6508444  3
   2888   2886   2897   2901     1  0.0000000  0.6508444  3
   2888   2886   2904   2891     1  0.0000000  1.6038667  3
   2889   2890   2891   2894     1  0.0000000  0.6508444  3
   2889   2890   2909   2899     1  0.0000000  1.2552000  3
   2889   2887   2907   2908     1  0.0000000  1.0460000  1
   2889   2887   2907   2908     1  0.0000000  0.6694400  3
   2890   2891   2895   2905     1  0.0000000  1.0460000  1
   2890   2891   2895   2905     1  0.0000000  0.6694400  3
   2890   2889   2896   2898     1  0.0000000  1.0460000  1
   2890   2889   2896   2898     1  0.0000000  0.6694400  3
   2890   2889   2887   2906     1  0.0000000  0.6508444  3
   2891   2890   2909   2899     1  0.0000000  1.2552000  3
   2891   2890   2889   2893     1  0.0000000  0.6508444  3
   2892   2890   2891   2895     1  0.0000000  1.0460000  1
   2892   2890   2891   2895     1  0.0000000  0.0000000  3
   2892   2890   2891   2904     1  0.0000000  1.0460000  1
   2892   2890   2891   2904     1  0.0000000  0.0000000  3
   2892   2890   2891   2894     1  0.0000000  0.6508444  3
   2892   2890   2909   2899     1  0.0000000  1.2552000  3
   2892   2890   2889   2896     1  0.0000000  1.0460000  1
   2892   2890   2889   2896     1  0.0000000  0.0000000  3
   2892   2890   2889   2893     1  0.0000000  0.6508444  3
   2893   2889   2890   2909     1  0.0000000  0.6508444  3
   2893   2889   2896   2898     1  0.0000000  0.6973333  3
   2893   2889   2887   2907     1  0.0000000  1.0460000  1
   2893   2889   2887   2907     1  0.0000000  0.0000000  3
   2893   2889   2887   2906     1  0.0000000  0.6508444  3
   2894   2891   2895   2905     1  0.0000000  0.6973333  3
   2894   2891   2890   2909     1  0.0000000  0.6508444  3
   2896   2889   2887   2906     1  0.0000000  1.0460000  1
   2896   2889   2887   2906     1  0.0000000  0.0000000  3
   2897   2886   2887   2906     1  0.0000000  0.6508444  3
   2900   2897   2902   2903     1  0.0000000  0.6973333  3
   2900   2897   2886   2904     1  0.0000000  1.0460000  1
   2900   2897   2886   2904     1  0.0000000  0.0000000  3
   2901   2897   2902   2903     1  0.0000000  0.6973333  3
   2901   2897   2886   2904     1  0.0000000  1.0460000  1
   2901   2897   2886   2904     1  0.0000000  0.0000000  3
   2904   2891   2895   2905     1  0.0000000  0.6973333  3
   2904   2886   2887   2906     1  0.0000000  1.0460000  1
   2904   2886   2887   2906     1  0.0000000  0.0000000  3
   2906   2887   2907   2908     1  0.0000000  0.6973333  3
   2910   2911   2913   2917     1  0.0000000  0.6508444  3
   2910   2911   2931   2932     1  0.0000000  1.0460000  1
   2910   2911   2931   2932     1  0.0000000  0.6694400  3
   2910   2921   2926   2927     1  0.0000000  1.0460000  1
   2910   2921   2926   2927     1  0.0000000  0.6694400  3
   2910   2928   2915   2918     1  0.0000000  1.6038667  3
   2911   2913   2914   2916     1  0.0000000  0.6508444  3
   2911   2913   2920   2922     1  0.0000000  1.0460000  1
   2911   2913   2920   2922     1  0.0000000  0.6694400  3
   2911   2910   2921   2924     1  0.0000000  0.6508444  3
   2911   2910   2921   2925     1  0.0000000  0.6508444  3
   2912   2910   2911   2913     1  0.0000000  0.6508444  3
   2912   2910   2911   2931     1  0.0000000  1.0460000  1
   2912   2910   2911   2931     1  0.0000000  0.0000000  3
   2912   2910   2911   2930     1  0.0000000  0.6508444  3
   2912   2910   2921   2926     1  0.0000000  1.0460000  1
   2912   2910   2921   2926     1  0.0000000  0.0000000  3
   2912   2910   2921   2924     1  0.0000000  0.6508444  3
   2912   2910   2921   2925     1  0.0000000  0.6508444  3
   2912   2910   2928   2915     1  0.0000000  1.6038667  3
   2913   2914   2915   2918     1  0.0000000  0.6508444  3
   2913   2914   2933   2923     1  0.0000000  1.2552000  3
   2913   2911   2931   2932     1  0.0000000  1.0460000  1
   2913   2911   2931   2932     1  0.0000000  0.6694400  3
   2914   2915   2919   2929     1  0.0000000  1.0460000  1
   2914   2915   2919   2929     1  0.0000000  0.6694400  3
   2914   2913   2920   2922     1  0.0000000  1.0460000  1
   2914   2913   2920   2922     1  0.0000000  0.6694400  3
   2914   2913   2911   2930     1  0.0000000  0.6508444  3
   2915   2914   2933   2923     1  0.0000000  1.2552000  3
   2915   2914   2913   2917     1  0.0000000  0.6508444  3
   2916   2914   2915   2919     1  0.0000000  1.0460000  1
   2916   2914   2915   2919     1  0.0000000  0.0000000  3
   2916   2914   2915   2928     1  0.0000000  1.0460000  1
   2916   2914   2915   2928     1  0.0000000  0.0000000  3
   2916   2914   2915   2918     1  0.0000000  0.6508444  3
   2916   2914   2933   2923     1  0.0000000  1.2552000  3
   2916   2914   2913   2920     1  0.0000000  1.0460000  1
   2916   2914   2913   2920     1  0.0000000  0.0000000  3
   2916   2914   2913   2917     1  0.0000000  0.6508444  3
   2917   2913   2914   2933     1  0.0000000  0.6508444  3
   2917   2913   2920   2922     1  0.0000000  0.6973333  3
   2917   2913   2911   2931     1  0.0000000  1.0460000  1
   2917   2913   2911   2931     1  0.0000000  0.0000000  3
   2917   2913   2911   2930     1  0.0000000  0.6508444  3
   2918   2915   2919   2929     1  0.0000000  0.6973333  3
   2918   2915   2914   2933     1  0.0000000  0.6508444  3
   2920   2913   2911   2930     1  0.0000000  1.0460000  1
   2920   2913   2911   2930     1  0.0000000  0.0000000  3
   2921   2910   2911   2930     1  0.0000000  0.6508444  3
   2924   2921   2926   2927     1  0.0000000  0.6973333  3
   2924   2921   2910   2928     1  0.0000000  1.0460000  1
   2924   2921   2910   2928     1  0.0000000  0.0000000  3
   2925   2921   2926   2927     1  0.0000000  0.6973333  3
   2925   2921   2910   2928     1  0.0000000  1.0460000  1
   2925   2921   2910   2928     1  0.0000000  0.0000000  3
   2928   2915   2919   2929     1  0.0000000  0.6973333  3
   2928   2910   2911   2930     1  0.0000000  1.0460000  1
   2928   2910   2911   2930     1  0.0000000  0.0000000  3
   2930   2911   2931   2932     1  0.0000000  0.6973333  3
   2935   2937   2939   2941     1  0.0000000  0.6508444  3
   2935   2937   2939   2942     1  0.0000000  0.6508444  3
   2936   2935   2937   2939     1  0.0000000  0.0000000  2
   2936   2935   2937   2938     1  0.0000000  0.0000000  2
   2936   2935   2937   2940     1  0.0000000  0.0000000  2
   2937   2939   2943   3008     1  0.0000000  0.6508444  3
   2938   2937   2939   2943     1  0.0000000  0.6508444  3
   2938   2937   2939   2941     1  0.0000000  0.6508444  3
   2938   2937   2939   2942     1  0.0000000  0.6508444  3
   2939   2943   2944   2953     1  0.0000000  0.6508444  3
   2939   2943   2944   2954     1  0.0000000  0.6508444  3
   2939   2943   2945   2946     1  0.0000000  0.6508444  3
   2939   2943   2945   2948     1  0.0000000  0.6508444  3
   2940   2937   2939   2943     1  0.0000000  0.6508444  3
   2940   2937   2939   2941     1  0.0000000  0.6508444  3
   2940   2937   2939   2942     1  0.0000000  0.6508444  3
   2941   2939   2943   2944     1  0.0000000  0.6508444  3
   2941   2939   2943   2945     1  0.0000000  0.6508444  3
   2941   2939   2943   3008     1  0.0000000  0.6508444  3
   2942   2939   2943   2944     1  0.0000000  0.6508444  3
   2942   2939   2943   2945     1  0.0000000  0.6508444  3
   2942   2939   2943   3008     1  0.0000000  0.6508444  3
   2943   2944   2955   2956     1  0.0000000  0.6508444  3
   2943   2944   2955   2957     1  0.0000000  0.6508444  3
   2943   2945   2947   2949     1  0.0000000  0.6508444  3
   2943   2945   2947   2950     1  0.0000000  0.6508444  3
   2944   2943   2945   2946     1  0.0000000  0.6508444  3
   2944   2943   2945   2948     1  0.0000000  0.6508444  3
   2945   2943   2944   2953     1  0.0000000  0.6508444  3
   2945   2943   2944   2954     1  0.0000000  0.6508444  3
   2946   2945   2943   3008     1  0.0000000  0.6508444  3
   2946   2945   2947   2951     1  0.0000000  0.6508444  3
   2946   2945   2947   2949     1  0.0000000  0.6508444  3
   2946   2945   2947   2950     1  0.0000000  0.6508444  3
   2947   2945   2943   3008     1  0.0000000  0.6508444  3
   2947   2951   2983   2973     1  180.0000771  6.0668000  2
   2947   2951   2983   2973     1  180.0000771  1.4644000  4
   2948   2945   2943   3008     1  0.0000000  0.6508444  3
   2948   2945   2947   2951     1  0.0000000  0.6508444  3
   2948   2945   2947   2949     1  0.0000000  0.6508444  3
   2948   2945   2947   2950     1  0.0000000  0.6508444  3
   2949   2947   2951   2952     1  0.0000000  3.3472000  1
   2949   2947   2951   2952     1  0.0000000  0.0000000  2
   2949   2947   2951   2952     1  180.0000771  0.3347200  3
   2949   2947   2951   2983     1  180.0000771  0.0000000  2
   2950   2947   2951   2952     1  0.0000000  3.3472000  1
   2950   2947   2951   2952     1  0.0000000  0.0000000  2
   2950   2947   2951   2952     1  180.0000771  0.3347200  3
   2950   2947   2951   2983     1  180.0000771  0.0000000  2
   2951   2983   2964   2966     1  0.0000000  1.2552000  3
   2952   2951   2983   2973     1  180.0000771  6.0668000  2
   2952   2951   2983   2973     1  180.0000771  1.4644000  4
   2953   2944   2943   3008     1  0.0000000  0.6508444  3
   2953   2944   2955   2958     1  0.0000000  0.6508444  3
   2953   2944   2955   2956     1  0.0000000  0.6508444  3
   2953   2944   2955   2957     1  0.0000000  0.6508444  3
   2954   2944   2943   3008     1  0.0000000  0.6508444  3
   2954   2944   2955   2958     1  0.0000000  0.6508444  3
   2954   2944   2955   2956     1  0.0000000  0.6508444  3
   2954   2944   2955   2957     1  0.0000000  0.6508444  3
   2955   2944   2943   3008     1  0.0000000  0.6508444  3
   2955   2958   3007   2997     1  180.0000771  6.0668000  2
   2955   2958   3007   2997     1  180.0000771  1.4644000  4
   2956   2955   2958   2959     1  0.0000000  3.3472000  1
   2956   2955   2958   2959     1  0.0000000  0.0000000  2
   2956   2955   2958   2959     1  180.0000771  0.3347200  3
   2956   2955   2958   3007     1  180.0000771  0.0000000  2
   2957   2955   2958   2959     1  0.0000000  3.3472000  1
   2957   2955   2958   2959     1  0.0000000  0.0000000  2
   2957   2955   2958   2959     1  180.0000771  0.3347200  3
   2957   2955   2958   3007     1  180.0000771  0.0000000  2
   2958   3007   2988   2990     1  0.0000000  1.2552000  3
   2959   2958   3007   2997     1  180.0000771  6.0668000  2
   2959   2958   3007   2997     1  180.0000771  1.4644000  4
   2960   2961   2963   2967     1  0.0000000  0.6508444  3
   2960   2961   2981   2982     1  0.0000000  1.0460000  1
   2960   2961   2981   2982     1  0.0000000  0.6694400  3
   2960   2971   2976   2977     1  0.0000000  1.0460000  1
   2960   2971   2976   2977     1  0.0000000  0.6694400  3
   2960   2978   2965   2968     1  0.0000000  1.6038667  3
   2961   2960   2971   2974     1  0.0000000  0.6508444  3
   2961   2960   2971   2975     1  0.0000000  0.6508444  3
   2961   2963   2964   2966     1  0.0000000  0.6508444  3
   2961   2963   2970   2972     1  0.0000000  1.0460000  1
   2961   2963   2970   2972     1  0.0000000  0.6694400  3
   2962   2960   2961   2963     1  0.0000000  0.6508444  3
   2962   2960   2961   2981     1  0.0000000  1.0460000  1
   2962   2960   2961   2981     1  0.0000000  0.0000000  3
   2962   2960   2961   2980     1  0.0000000  0.6508444  3
   2962   2960   2971   2976     1  0.0000000  1.0460000  1
   2962   2960   2971   2976     1  0.0000000  0.0000000  3
   2962   2960   2971   2974     1  0.0000000  0.6508444  3
   2962   2960   2971   2975     1  0.0000000  0.6508444  3
   2962   2960   2978   2965     1  0.0000000  1.6038667  3
   2963   2961   2981   2982     1  0.0000000  1.0460000  1
   2963   2961   2981   2982     1  0.0000000  0.6694400  3
   2963   2964   2965   2968     1  0.0000000  0.6508444  3
   2963   2964   2983   2973     1  0.0000000  1.2552000  3
   2964   2963   2961   2980     1  0.0000000  0.6508444  3
   2964   2963   2970   2972     1  0.0000000  1.0460000  1
   2964   2963   2970   2972     1  0.0000000  0.6694400  3
   2964   2965   2969   2979     1  0.0000000  1.0460000  1
   2964   2965   2969   2979     1  0.0000000  0.6694400  3
   2965   2964   2963   2967     1  0.0000000  0.6508444  3
   2965   2964   2983   2973     1  0.0000000  1.2552000  3
   2966   2964   2963   2970     1  0.0000000  1.0460000  1
   2966   2964   2963   2970     1  0.0000000  0.0000000  3
   2966   2964   2963   2967     1  0.0000000  0.6508444  3
   2966   2964   2965   2969     1  0.0000000  1.0460000  1
   2966   2964   2965   2969     1  0.0000000  0.0000000  3
   2966   2964   2965   2978     1  0.0000000  1.0460000  1
   2966   2964   2965   2978     1  0.0000000  0.0000000  3
   2966   2964   2965   2968     1  0.0000000  0.6508444  3
   2966   2964   2983   2973     1  0.0000000  1.2552000  3
   2967   2963   2961   2981     1  0.0000000  1.0460000  1
   2967   2963   2961   2981     1  0.0000000  0.0000000  3
   2967   2963   2961   2980     1  0.0000000  0.6508444  3
   2967   2963   2964   2983     1  0.0000000  0.6508444  3
   2967   2963   2970   2972     1  0.0000000  0.6973333  3
   2968   2965   2964   2983     1  0.0000000  0.6508444  3
   2968   2965   2969   2979     1  0.0000000  0.6973333  3
   2970   2963   2961   2980     1  0.0000000  1.0460000  1
   2970   2963   2961   2980     1  0.0000000  0.0000000  3
   2971   2960   2961   2980     1  0.0000000  0.6508444  3
   2974   2971   2960   2978     1  0.0000000  1.0460000  1
   2974   2971   2960   2978     1  0.0000000  0.0000000  3
   2974   2971   2976   2977     1  0.0000000  0.6973333  3
   2975   2971   2960   2978     1  0.0000000  1.0460000  1
   2975   2971   2960   2978     1  0.0000000  0.0000000  3
   2975   2971   2976   2977     1  0.0000000  0.6973333  3
   2978   2960   2961   2980     1  0.0000000  1.0460000  1
   2978   2960   2961   2980     1  0.0000000  0.0000000  3
   2978   2965   2969   2979     1  0.0000000  0.6973333  3
   2980   2961   2981   2982     1  0.0000000  0.6973333  3
   2984   2985   2987   2991     1  0.0000000  0.6508444  3
   2984   2985   3005   3006     1  0.0000000  1.0460000  1
   2984   2985   3005   3006     1  0.0000000  0.6694400  3
   2984   2995   3000   3001     1  0.0000000  1.0460000  1
   2984   2995   3000   3001     1  0.0000000  0.6694400  3
   2984   3002   2989   2992     1  0.0000000  1.6038667  3
   2985   2984   2995   2998     1  0.0000000  0.6508444  3
   2985   2984   2995   2999     1  0.0000000  0.6508444  3
   2985   2987   2988   2990     1  0.0000000  0.6508444  3
   2985   2987   2994   2996     1  0.0000000  1.0460000  1
   2985   2987   2994   2996     1  0.0000000  0.6694400  3
   2986   2984   2985   2987     1  0.0000000  0.6508444  3
   2986   2984   2985   3005     1  0.0000000  1.0460000  1
   2986   2984   2985   3005     1  0.0000000  0.0000000  3
   2986   2984   2985   3004     1  0.0000000  0.6508444  3
   2986   2984   2995   3000     1  0.0000000  1.0460000  1
   2986   2984   2995   3000     1  0.0000000  0.0000000  3
   2986   2984   2995   2998     1  0.0000000  0.6508444  3
   2986   2984   2995   2999     1  0.0000000  0.6508444  3
   2986   2984   3002   2989     1  0.0000000  1.6038667  3
   2987   2985   3005   3006     1  0.0000000  1.0460000  1
   2987   2985   3005   3006     1  0.0000000  0.6694400  3
   2987   2988   2989   2992     1  0.0000000  0.6508444  3
   2987   2988   3007   2997     1  0.0000000  1.2552000  3
   2988   2987   2985   3004     1  0.0000000  0.6508444  3
   2988   2987   2994   2996     1  0.0000000  1.0460000  1
   2988   2987   2994   2996     1  0.0000000  0.6694400  3
   2988   2989   2993   3003     1  0.0000000  1.0460000  1
   2988   2989   2993   3003     1  0.0000000  0.6694400  3
   2989   2988   2987   2991     1  0.0000000  0.6508444  3
   2989   2988   3007   2997     1  0.0000000  1.2552000  3
   2990   2988   2987   2994     1  0.0000000  1.0460000  1
   2990   2988   2987   2994     1  0.0000000  0.0000000  3
   2990   2988   2987   2991     1  0.0000000  0.6508444  3
   2990   2988   2989   2993     1  0.0000000  1.0460000  1
   2990   2988   2989   2993     1  0.0000000  0.0000000  3
   2990   2988   2989   3002     1  0.0000000  1.0460000  1
   2990   2988   2989   3002     1  0.0000000  0.0000000  3
   2990   2988   2989   2992     1  0.0000000  0.6508444  3
   2990   2988   3007   2997     1  0.0000000  1.2552000  3
   2991   2987   2985   3005     1  0.0000000  1.0460000  1
   2991   2987   2985   3005     1  0.0000000  0.0000000  3
   2991   2987   2985   3004     1  0.0000000  0.6508444  3
   2991   2987   2988   3007     1  0.0000000  0.6508444  3
   2991   2987   2994   2996     1  0.0000000  0.6973333  3
   2992   2989   2988   3007     1  0.0000000  0.6508444  3
   2992   2989   2993   3003     1  0.0000000  0.6973333  3
   2994   2987   2985   3004     1  0.0000000  1.0460000  1
   2994   2987   2985   3004     1  0.0000000  0.0000000  3
   2995   2984   2985   3004     1  0.0000000  0.6508444  3
   2998   2995   2984   3002     1  0.0000000  1.0460000  1
   2998   2995   2984   3002     1  0.0000000  0.0000000  3
   2998   2995   3000   3001     1  0.0000000  0.6973333  3
   2999   2995   2984   3002     1  0.0000000  1.0460000  1
   2999   2995   2984   3002     1  0.0000000  0.0000000  3
   2999   2995   3000   3001     1  0.0000000  0.6973333  3
   3002   2984   2985   3004     1  0.0000000  1.0460000  1
   3002   2984   2985   3004     1  0.0000000  0.0000000  3
   3002   2989   2993   3003     1  0.0000000  0.6973333  3
   3004   2985   3005   3006     1  0.0000000  0.6973333  3
   3009   3011   3013   3015     1  0.0000000  0.6508444  3
   3009   3011   3013   3016     1  0.0000000  0.6508444  3
   3010   3009   3011   3013     1  0.0000000  0.0000000  2
   3010   3009   3011   3012     1  0.0000000  0.0000000  2
   3010   3009   3011   3014     1  0.0000000  0.0000000  2
   3011   3013   3017   3082     1  0.0000000  0.6508444  3
   3012   3011   3013   3017     1  0.0000000  0.6508444  3
   3012   3011   3013   3015     1  0.0000000  0.6508444  3
   3012   3011   3013   3016     1  0.0000000  0.6508444  3
   3013   3017   3018   3027     1  0.0000000  0.6508444  3
   3013   3017   3018   3028     1  0.0000000  0.6508444  3
   3013   3017   3019   3020     1  0.0000000  0.6508444  3
   3013   3017   3019   3022     1  0.0000000  0.6508444  3
   3014   3011   3013   3017     1  0.0000000  0.6508444  3
   3014   3011   3013   3015     1  0.0000000  0.6508444  3
   3014   3011   3013   3016     1  0.0000000  0.6508444  3
   3015   3013   3017   3018     1  0.0000000  0.6508444  3
   3015   3013   3017   3019     1  0.0000000  0.6508444  3
   3015   3013   3017   3082     1  0.0000000  0.6508444  3
   3016   3013   3017   3018     1  0.0000000  0.6508444  3
   3016   3013   3017   3019     1  0.0000000  0.6508444  3
   3016   3013   3017   3082     1  0.0000000  0.6508444  3
   3017   3018   3029   3030     1  0.0000000  0.6508444  3
   3017   3018   3029   3031     1  0.0000000  0.6508444  3
   3017   3019   3021   3023     1  0.0000000  0.6508444  3
   3017   3019   3021   3024     1  0.0000000  0.6508444  3
   3018   3017   3019   3020     1  0.0000000  0.6508444  3
   3018   3017   3019   3022     1  0.0000000  0.6508444  3
   3019   3017   3018   3027     1  0.0000000  0.6508444  3
   3019   3017   3018   3028     1  0.0000000  0.6508444  3
   3020   3019   3021   3025     1  0.0000000  0.6508444  3
   3020   3019   3021   3023     1  0.0000000  0.6508444  3
   3020   3019   3021   3024     1  0.0000000  0.6508444  3
   3020   3019   3017   3082     1  0.0000000  0.6508444  3
   3021   3025   3057   3047     1  180.0000771  6.0668000  2
   3021   3025   3057   3047     1  180.0000771  1.4644000  4
   3021   3019   3017   3082     1  0.0000000  0.6508444  3
   3022   3019   3021   3025     1  0.0000000  0.6508444  3
   3022   3019   3021   3023     1  0.0000000  0.6508444  3
   3022   3019   3021   3024     1  0.0000000  0.6508444  3
   3022   3019   3017   3082     1  0.0000000  0.6508444  3
   3023   3021   3025   3026     1  0.0000000  3.3472000  1
   3023   3021   3025   3026     1  0.0000000  0.0000000  2
   3023   3021   3025   3026     1  180.0000771  0.3347200  3
   3023   3021   3025   3057     1  180.0000771  0.0000000  2
   3024   3021   3025   3026     1  0.0000000  3.3472000  1
   3024   3021   3025   3026     1  0.0000000  0.0000000  2
   3024   3021   3025   3026     1  180.0000771  0.3347200  3
   3024   3021   3025   3057     1  180.0000771  0.0000000  2
   3025   3057   3038   3040     1  0.0000000  1.2552000  3
   3026   3025   3057   3047     1  180.0000771  6.0668000  2
   3026   3025   3057   3047     1  180.0000771  1.4644000  4
   3027   3018   3029   3032     1  0.0000000  0.6508444  3
   3027   3018   3029   3030     1  0.0000000  0.6508444  3
   3027   3018   3029   3031     1  0.0000000  0.6508444  3
   3027   3018   3017   3082     1  0.0000000  0.6508444  3
   3028   3018   3029   3032     1  0.0000000  0.6508444  3
   3028   3018   3029   3030     1  0.0000000  0.6508444  3
   3028   3018   3029   3031     1  0.0000000  0.6508444  3
   3028   3018   3017   3082     1  0.0000000  0.6508444  3
   3029   3032   3081   3071     1  180.0000771  6.0668000  2
   3029   3032   3081   3071     1  180.0000771  1.4644000  4
   3029   3018   3017   3082     1  0.0000000  0.6508444  3
   3030   3029   3032   3033     1  0.0000000  3.3472000  1
   3030   3029   3032   3033     1  0.0000000  0.0000000  2
   3030   3029   3032   3033     1  180.0000771  0.3347200  3
   3030   3029   3032   3081     1  180.0000771  0.0000000  2
   3031   3029   3032   3033     1  0.0000000  3.3472000  1
   3031   3029   3032   3033     1  0.0000000  0.0000000  2
   3031   3029   3032   3033     1  180.0000771  0.3347200  3
   3031   3029   3032   3081     1  180.0000771  0.0000000  2
   3032   3081   3062   3064     1  0.0000000  1.2552000  3
   3033   3032   3081   3071     1  180.0000771  6.0668000  2
   3033   3032   3081   3071     1  180.0000771  1.4644000  4
   3034   3035   3037   3041     1  0.0000000  0.6508444  3
   3034   3035   3055   3056     1  0.0000000  1.0460000  1
   3034   3035   3055   3056     1  0.0000000  0.6694400  3
   3034   3045   3050   3051     1  0.0000000  1.0460000  1
   3034   3045   3050   3051     1  0.0000000  0.6694400  3
   3034   3052   3039   3042     1  0.0000000  1.6038667  3
   3035   3037   3038   3040     1  0.0000000  0.6508444  3
   3035   3037   3044   3046     1  0.0000000  1.0460000  1
   3035   3037   3044   3046     1  0.0000000  0.6694400  3
   3035   3034   3045   3048     1  0.0000000  0.6508444  3
   3035   3034   3045   3049     1  0.0000000  0.6508444  3
   3036   3034   3035   3037     1  0.0000000  0.6508444  3
   3036   3034   3035   3055     1  0.0000000  1.0460000  1
   3036   3034   3035   3055     1  0.0000000  0.0000000  3
   3036   3034   3035   3054     1  0.0000000  0.6508444  3
   3036   3034   3045   3050     1  0.0000000  1.0460000  1
   3036   3034   3045   3050     1  0.0000000  0.0000000  3
   3036   3034   3045   3048     1  0.0000000  0.6508444  3
   3036   3034   3045   3049     1  0.0000000  0.6508444  3
   3036   3034   3052   3039     1  0.0000000  1.6038667  3
   3037   3038   3039   3042     1  0.0000000  0.6508444  3
   3037   3038   3057   3047     1  0.0000000  1.2552000  3
   3037   3035   3055   3056     1  0.0000000  1.0460000  1
   3037   3035   3055   3056     1  0.0000000  0.6694400  3
   3038   3039   3043   3053     1  0.0000000  1.0460000  1
   3038   3039   3043   3053     1  0.0000000  0.6694400  3
   3038   3037   3044   3046     1  0.0000000  1.0460000  1
   3038   3037   3044   3046     1  0.0000000  0.6694400  3
   3038   3037   3035   3054     1  0.0000000  0.6508444  3
   3039   3038   3057   3047     1  0.0000000  1.2552000  3
   3039   3038   3037   3041     1  0.0000000  0.6508444  3
   3040   3038   3039   3043     1  0.0000000  1.0460000  1
   3040   3038   3039   3043     1  0.0000000  0.0000000  3
   3040   3038   3039   3052     1  0.0000000  1.0460000  1
   3040   3038   3039   3052     1  0.0000000  0.0000000  3
   3040   3038   3039   3042     1  0.0000000  0.6508444  3
   3040   3038   3057   3047     1  0.0000000  1.2552000  3
   3040   3038   3037   3044     1  0.0000000  1.0460000  1
   3040   3038   3037   3044     1  0.0000000  0.0000000  3
   3040   3038   3037   3041     1  0.0000000  0.6508444  3
   3041   3037   3038   3057     1  0.0000000  0.6508444  3
   3041   3037   3044   3046     1  0.0000000  0.6973333  3
   3041   3037   3035   3055     1  0.0000000  1.0460000  1
   3041   3037   3035   3055     1  0.0000000  0.0000000  3
   3041   3037   3035   3054     1  0.0000000  0.6508444  3
   3042   3039   3043   3053     1  0.0000000  0.6973333  3
   3042   3039   3038   3057     1  0.0000000  0.6508444  3
   3044   3037   3035   3054     1  0.0000000  1.0460000  1
   3044   3037   3035   3054     1  0.0000000  0.0000000  3
   3045   3034   3035   3054     1  0.0000000  0.6508444  3
   3048   3045   3050   3051     1  0.0000000  0.6973333  3
   3048   3045   3034   3052     1  0.0000000  1.0460000  1
   3048   3045   3034   3052     1  0.0000000  0.0000000  3
   3049   3045   3050   3051     1  0.0000000  0.6973333  3
   3049   3045   3034   3052     1  0.0000000  1.0460000  1
   3049   3045   3034   3052     1  0.0000000  0.0000000  3
   3052   3039   3043   3053     1  0.0000000  0.6973333  3
   3052   3034   3035   3054     1  0.0000000  1.0460000  1
   3052   3034   3035   3054     1  0.0000000  0.0000000  3
   3054   3035   3055   3056     1  0.0000000  0.6973333  3
   3058   3059   3061   3065     1  0.0000000  0.6508444  3
   3058   3059   3079   3080     1  0.0000000  1.0460000  1
   3058   3059   3079   3080     1  0.0000000  0.6694400  3
   3058   3069   3074   3075     1  0.0000000  1.0460000  1
   3058   3069   3074   3075     1  0.0000000  0.6694400  3
   3058   3076   3063   3066     1  0.0000000  1.6038667  3
   3059   3061   3062   3064     1  0.0000000  0.6508444  3
   3059   3061   3068   3070     1  0.0000000  1.0460000  1
   3059   3061   3068   3070     1  0.0000000  0.6694400  3
   3059   3058   3069   3072     1  0.0000000  0.6508444  3
   3059   3058   3069   3073     1  0.0000000  0.6508444  3
   3060   3058   3059   3061     1  0.0000000  0.6508444  3
   3060   3058   3059   3079     1  0.0000000  1.0460000  1
   3060   3058   3059   3079     1  0.0000000  0.0000000  3
   3060   3058   3059   3078     1  0.0000000  0.6508444  3
   3060   3058   3069   3074     1  0.0000000  1.0460000  1
   3060   3058   3069   3074     1  0.0000000  0.0000000  3
   3060   3058   3069   3072     1  0.0000000  0.6508444  3
   3060   3058   3069   3073     1  0.0000000  0.6508444  3
   3060   3058   3076   3063     1  0.0000000  1.6038667  3
   3061   3062   3063   3066     1  0.0000000  0.6508444  3
   3061   3062   3081   3071     1  0.0000000  1.2552000  3
   3061   3059   3079   3080     1  0.0000000  1.0460000  1
   3061   3059   3079   3080     1  0.0000000  0.6694400  3
   3062   3063   3067   3077     1  0.0000000  1.0460000  1
   3062   3063   3067   3077     1  0.0000000  0.6694400  3
   3062   3061   3068   3070     1  0.0000000  1.0460000  1
   3062   3061   3068   3070     1  0.0000000  0.6694400  3
   3062   3061   3059   3078     1  0.0000000  0.6508444  3
   3063   3062   3081   3071     1  0.0000000  1.2552000  3
   3063   3062   3061   3065     1  0.0000000  0.6508444  3
   3064   3062   3063   3067     1  0.0000000  1.0460000  1
   3064   3062   3063   3067     1  0.0000000  0.0000000  3
   3064   3062   3063   3076     1  0.0000000  1.0460000  1
   3064   3062   3063   3076     1  0.0000000  0.0000000  3
   3064   3062   3063   3066     1  0.0000000  0.6508444  3
   3064   3062   3081   3071     1  0.0000000  1.2552000  3
   3064   3062   3061   3068     1  0.0000000  1.0460000  1
   3064   3062   3061   3068     1  0.0000000  0.0000000  3
   3064   3062   3061   3065     1  0.0000000  0.6508444  3
   3065   3061   3062   3081     1  0.0000000  0.6508444  3
   3065   3061   3068   3070     1  0.0000000  0.6973333  3
   3065   3061   3059   3079     1  0.0000000  1.0460000  1
   3065   3061   3059   3079     1  0.0000000  0.0000000  3
   3065   3061   3059   3078     1  0.0000000  0.6508444  3
   3066   3063   3067   3077     1  0.0000000  0.6973333  3
   3066   3063   3062   3081     1  0.0000000  0.6508444  3
   3068   3061   3059   3078     1  0.0000000  1.0460000  1
   3068   3061   3059   3078     1  0.0000000  0.0000000  3
   3069   3058   3059   3078     1  0.0000000  0.6508444  3
   3072   3069   3074   3075     1  0.0000000  0.6973333  3
   3072   3069   3058   3076     1  0.0000000  1.0460000  1
   3072   3069   3058   3076     1  0.0000000  0.0000000  3
   3073   3069   3074   3075     1  0.0000000  0.6973333  3
   3073   3069   3058   3076     1  0.0000000  1.0460000  1
   3073   3069   3058   3076     1  0.0000000  0.0000000  3
   3076   3063   3067   3077     1  0.0000000  0.6973333  3
   3076   3058   3059   3078     1  0.0000000  1.0460000  1
   3076   3058   3059   3078     1  0.0000000  0.0000000  3
   3078   3059   3079   3080     1  0.0000000  0.6973333  3
   3083   3085   3087   3089     1  0.0000000  0.6508444  3
   3083   3085   3087   3090     1  0.0000000  0.6508444  3
   3084   3083   3085   3087     1  0.0000000  0.0000000  2
   3084   3083   3085   3086     1  0.0000000  0.0000000  2
   3084   3083   3085   3088     1  0.0000000  0.0000000  2
   3085   3087   3091   3156     1  0.0000000  0.6508444  3
   3086   3085   3087   3091     1  0.0000000  0.6508444  3
   3086   3085   3087   3089     1  0.0000000  0.6508444  3
   3086   3085   3087   3090     1  0.0000000  0.6508444  3
   3087   3091   3092   3101     1  0.0000000  0.6508444  3
   3087   3091   3092   3102     1  0.0000000  0.6508444  3
   3087   3091   3093   3094     1  0.0000000  0.6508444  3
   3087   3091   3093   3096     1  0.0000000  0.6508444  3
   3088   3085   3087   3091     1  0.0000000  0.6508444  3
   3088   3085   3087   3089     1  0.0000000  0.6508444  3
   3088   3085   3087   3090     1  0.0000000  0.6508444  3
   3089   3087   3091   3092     1  0.0000000  0.6508444  3
   3089   3087   3091   3093     1  0.0000000  0.6508444  3
   3089   3087   3091   3156     1  0.0000000  0.6508444  3
   3090   3087   3091   3092     1  0.0000000  0.6508444  3
   3090   3087   3091   3093     1  0.0000000  0.6508444  3
   3090   3087   3091   3156     1  0.0000000  0.6508444  3
   3091   3092   3103   3104     1  0.0000000  0.6508444  3
   3091   3092   3103   3105     1  0.0000000  0.6508444  3
   3091   3093   3095   3097     1  0.0000000  0.6508444  3
   3091   3093   3095   3098     1  0.0000000  0.6508444  3
   3092   3091   3093   3094     1  0.0000000  0.6508444  3
   3092   3091   3093   3096     1  0.0000000  0.6508444  3
   3093   3091   3092   3101     1  0.0000000  0.6508444  3
   3093   3091   3092   3102     1  0.0000000  0.6508444  3
   3094   3093   3091   3156     1  0.0000000  0.6508444  3
   3094   3093   3095   3099     1  0.0000000  0.6508444  3
   3094   3093   3095   3097     1  0.0000000  0.6508444  3
   3094   3093   3095   3098     1  0.0000000  0.6508444  3
   3095   3093   3091   3156     1  0.0000000  0.6508444  3
   3095   3099   3131   3121     1  180.0000771  6.0668000  2
   3095   3099   3131   3121     1  180.0000771  1.4644000  4
   3096   3093   3091   3156     1  0.0000000  0.6508444  3
   3096   3093   3095   3099     1  0.0000000  0.6508444  3
   3096   3093   3095   3097     1  0.0000000  0.6508444  3
   3096   3093   3095   3098     1  0.0000000  0.6508444  3
   3097   3095   3099   3100     1  0.0000000  3.3472000  1
   3097   3095   3099   3100     1  0.0000000  0.0000000  2
   3097   3095   3099   3100     1  180.0000771  0.3347200  3
   3097   3095   3099   3131     1  180.0000771  0.0000000  2
   3098   3095   3099   3100     1  0.0000000  3.3472000  1
   3098   3095   3099   3100     1  0.0000000  0.0000000  2
   3098   3095   3099   3100     1  180.0000771  0.3347200  3
   3098   3095   3099   3131     1  180.0000771  0.0000000  2
   3099   3131   3112   3114     1  0.0000000  1.2552000  3
   3100   3099   3131   3121     1  180.0000771  6.0668000  2
   3100   3099   3131   3121     1  180.0000771  1.4644000  4
   3101   3092   3091   3156     1  0.0000000  0.6508444  3
   3101   3092   3103   3106     1  0.0000000  0.6508444  3
   3101   3092   3103   3104     1  0.0000000  0.6508444  3
   3101   3092   3103   3105     1  0.0000000  0.6508444  3
   3102   3092   3091   3156     1  0.0000000  0.6508444  3
   3102   3092   3103   3106     1  0.0000000  0.6508444  3
   3102   3092   3103   3104     1  0.0000000  0.6508444  3
   3102   3092   3103   3105     1  0.0000000  0.6508444  3
   3103   3092   3091   3156     1  0.0000000  0.6508444  3
   3103   3106   3155   3145     1  180.0000771  6.0668000  2
   3103   3106   3155   3145     1  180.0000771  1.4644000  4
   3104   3103   3106   3107     1  0.0000000  3.3472000  1
   3104   3103   3106   3107     1  0.0000000  0.0000000  2
   3104   3103   3106   3107     1  180.0000771  0.3347200  3
   3104   3103   3106   3155     1  180.0000771  0.0000000  2
   3105   3103   3106   3107     1  0.0000000  3.3472000  1
   3105   3103   3106   3107     1  0.0000000  0.0000000  2
   3105   3103   3106   3107     1  180.0000771  0.3347200  3
   3105   3103   3106   3155     1  180.0000771  0.0000000  2
   3106   3155   3136   3138     1  0.0000000  1.2552000  3
   3107   3106   3155   3145     1  180.0000771  6.0668000  2
   3107   3106   3155   3145     1  180.0000771  1.4644000  4
   3108   3109   3111   3115     1  0.0000000  0.6508444  3
   3108   3109   3129   3130     1  0.0000000  1.0460000  1
   3108   3109   3129   3130     1  0.0000000  0.6694400  3
   3108   3119   3124   3125     1  0.0000000  1.0460000  1
   3108   3119   3124   3125     1  0.0000000  0.6694400  3
   3108   3126   3113   3116     1  0.0000000  1.6038667  3
   3109   3108   3119   3122     1  0.0000000  0.6508444  3
   3109   3108   3119   3123     1  0.0000000  0.6508444  3
   3109   3111   3112   3114     1  0.0000000  0.6508444  3
   3109   3111   3118   3120     1  0.0000000  1.0460000  1
   3109   3111   3118   3120     1  0.0000000  0.6694400  3
   3110   3108   3109   3111     1  0.0000000  0.6508444  3
   3110   3108   3109   3129     1  0.0000000  1.0460000  1
   3110   3108   3109   3129     1  0.0000000  0.0000000  3
   3110   3108   3109   3128     1  0.0000000  0.6508444  3
   3110   3108   3119   3124     1  0.0000000  1.0460000  1
   3110   3108   3119   3124     1  0.0000000  0.0000000  3
   3110   3108   3119   3122     1  0.0000000  0.6508444  3
   3110   3108   3119   3123     1  0.0000000  0.6508444  3
   3110   3108   3126   3113     1  0.0000000  1.6038667  3
   3111   3109   3129   3130     1  0.0000000  1.0460000  1
   3111   3109   3129   3130     1  0.0000000  0.6694400  3
   3111   3112   3113   3116     1  0.0000000  0.6508444  3
   3111   3112   3131   3121     1  0.0000000  1.2552000  3
   3112   3111   3109   3128     1  0.0000000  0.6508444  3
   3112   3111   3118   3120     1  0.0000000  1.0460000  1
   3112   3111   3118   3120     1  0.0000000  0.6694400  3
   3112   3113   3117   3127     1  0.0000000  1.0460000  1
   3112   3113   3117   3127     1  0.0000000  0.6694400  3
   3113   3112   3111   3115     1  0.0000000  0.6508444  3
   3113   3112   3131   3121     1  0.0000000  1.2552000  3
   3114   3112   3111   3118     1  0.0000000  1.0460000  1
   3114   3112   3111   3118     1  0.0000000  0.0000000  3
   3114   3112   3111   3115     1  0.0000000  0.6508444  3
   3114   3112   3113   3117     1  0.0000000  1.0460000  1
   3114   3112   3113   3117     1  0.0000000  0.0000000  3
   3114   3112   3113   3126     1  0.0000000  1.0460000  1
   3114   3112   3113   3126     1  0.0000000  0.0000000  3
   3114   3112   3113   3116     1  0.0000000  0.6508444  3
   3114   3112   3131   3121     1  0.0000000  1.2552000  3
   3115   3111   3109   3129     1  0.0000000  1.0460000  1
   3115   3111   3109   3129     1  0.0000000  0.0000000  3
   3115   3111   3109   3128     1  0.0000000  0.6508444  3
   3115   3111   3112   3131     1  0.0000000  0.6508444  3
   3115   3111   3118   3120     1  0.0000000  0.6973333  3
   3116   3113   3112   3131     1  0.0000000  0.6508444  3
   3116   3113   3117   3127     1  0.0000000  0.6973333  3
   3118   3111   3109   3128     1  0.0000000  1.0460000  1
   3118   3111   3109   3128     1  0.0000000  0.0000000  3
   3119   3108   3109   3128     1  0.0000000  0.6508444  3
   3122   3119   3108   3126     1  0.0000000  1.0460000  1
   3122   3119   3108   3126     1  0.0000000  0.0000000  3
   3122   3119   3124   3125     1  0.0000000  0.6973333  3
   3123   3119   3108   3126     1  0.0000000  1.0460000  1
   3123   3119   3108   3126     1  0.0000000  0.0000000  3
   3123   3119   3124   3125     1  0.0000000  0.6973333  3
   3126   3108   3109   3128     1  0.0000000  1.0460000  1
   3126   3108   3109   3128     1  0.0000000  0.0000000  3
   3126   3113   3117   3127     1  0.0000000  0.6973333  3
   3128   3109   3129   3130     1  0.0000000  0.6973333  3
   3132   3133   3135   3139     1  0.0000000  0.6508444  3
   3132   3133   3153   3154     1  0.0000000  1.0460000  1
   3132   3133   3153   3154     1  0.0000000  0.6694400  3
   3132   3143   3148   3149     1  0.0000000  1.0460000  1
   3132   3143   3148   3149     1  0.0000000  0.6694400  3
   3132   3150   3137   3140     1  0.0000000  1.6038667  3
   3133   3132   3143   3146     1  0.0000000  0.6508444  3
   3133   3132   3143   3147     1  0.0000000  0.6508444  3
   3133   3135   3136   3138     1  0.0000000  0.6508444  3
   3133   3135   3142   3144     1  0.0000000  1.0460000  1
   3133   3135   3142   3144     1  0.0000000  0.6694400  3
   3134   3132   3133   3135     1  0.0000000  0.6508444  3
   3134   3132   3133   3153     1  0.0000000  1.0460000  1
   3134   3132   3133   3153     1  0.0000000  0.0000000  3
   3134   3132   3133   3152     1  0.0000000  0.6508444  3
   3134   3132   3143   3148     1  0.0000000  1.0460000  1
   3134   3132   3143   3148     1  0.0000000  0.0000000  3
   3134   3132   3143   3146     1  0.0000000  0.6508444  3
   3134   3132   3143   3147     1  0.0000000  0.6508444  3
   3134   3132   3150   3137     1  0.0000000  1.6038667  3
   3135   3133   3153   3154     1  0.0000000  1.0460000  1
   3135   3133   3153   3154     1  0.0000000  0.6694400  3
   3135   3136   3137   3140     1  0.0000000  0.6508444  3
   3135   3136   3155   3145     1  0.0000000  1.2552000  3
   3136   3135   3133   3152     1  0.0000000  0.6508444  3
   3136   3135   3142   3144     1  0.0000000  1.0460000  1
   3136   3135   3142   3144     1  0.0000000  0.6694400  3
   3136   3137   3141   3151     1  0.0000000  1.0460000  1
   3136   3137   3141   3151     1  0.0000000  0.6694400  3
   3137   3136   3135   3139     1  0.0000000  0.6508444  3
   3137   3136   3155   3145     1  0.0000000  1.2552000  3
   3138   3136   3135   3142     1  0.0000000  1.0460000  1
   3138   3136   3135   3142     1  0.0000000  0.0000000  3
   3138   3136   3135   3139     1  0.0000000  0.6508444  3
   3138   3136   3137   3141     1  0.0000000  1.0460000  1
   3138   3136   3137   3141     1  0.0000000  0.0000000  3
   3138   3136   3137   3150     1  0.0000000  1.0460000  1
   3138   3136   3137   3150     1  0.0000000  0.0000000  3
   3138   3136   3137   3140     1  0.0000000  0.6508444  3
   3138   3136   3155   3145     1  0.0000000  1.2552000  3
   3139   3135   3133   3153     1  0.0000000  1.0460000  1
   3139   3135   3133   3153     1  0.0000000  0.0000000  3
   3139   3135   3133   3152     1  0.0000000  0.6508444  3
   3139   3135   3136   3155     1  0.0000000  0.6508444  3
   3139   3135   3142   3144     1  0.0000000  0.6973333  3
   3140   3137   3136   3155     1  0.0000000  0.6508444  3
   3140   3137   3141   3151     1  0.0000000  0.6973333  3
   3142   3135   3133   3152     1  0.0000000  1.0460000  1
   3142   3135   3133   3152     1  0.0000000  0.0000000  3
   3143   3132   3133   3152     1  0.0000000  0.6508444  3
   3146   3143   3132   3150     1  0.0000000  1.0460000  1
   3146   3143   3132   3150     1  0.0000000  0.0000000  3
   3146   3143   3148   3149     1  0.0000000  0.6973333  3
   3147   3143   3132   3150     1  0.0000000  1.0460000  1
   3147   3143   3132   3150     1  0.0000000  0.0000000  3
   3147   3143   3148   3149     1  0.0000000  0.6973333  3
   3150   3132   3133   3152     1  0.0000000  1.0460000  1
   3150   3132   3133   3152     1  0.0000000  0.0000000  3
   3150   3137   3141   3151     1  0.0000000  0.6973333  3
   3152   3133   3153   3154     1  0.0000000  0.6973333  3
   3157   3159   3161   3163     1  0.0000000  0.6508444  3
   3157   3159   3161   3164     1  0.0000000  0.6508444  3
   3158   3157   3159   3161     1  0.0000000  0.0000000  2
   3158   3157   3159   3160     1  0.0000000  0.0000000  2
   3158   3157   3159   3162     1  0.0000000  0.0000000  2
   3159   3161   3165   3230     1  0.0000000  0.6508444  3
   3160   3159   3161   3165     1  0.0000000  0.6508444  3
   3160   3159   3161   3163     1  0.0000000  0.6508444  3
   3160   3159   3161   3164     1  0.0000000  0.6508444  3
   3161   3165   3166   3175     1  0.0000000  0.6508444  3
   3161   3165   3166   3176     1  0.0000000  0.6508444  3
   3161   3165   3167   3168     1  0.0000000  0.6508444  3
   3161   3165   3167   3170     1  0.0000000  0.6508444  3
   3162   3159   3161   3165     1  0.0000000  0.6508444  3
   3162   3159   3161   3163     1  0.0000000  0.6508444  3
   3162   3159   3161   3164     1  0.0000000  0.6508444  3
   3163   3161   3165   3166     1  0.0000000  0.6508444  3
   3163   3161   3165   3167     1  0.0000000  0.6508444  3
   3163   3161   3165   3230     1  0.0000000  0.6508444  3
   3164   3161   3165   3166     1  0.0000000  0.6508444  3
   3164   3161   3165   3167     1  0.0000000  0.6508444  3
   3164   3161   3165   3230     1  0.0000000  0.6508444  3
   3165   3166   3177   3178     1  0.0000000  0.6508444  3
   3165   3166   3177   3179     1  0.0000000  0.6508444  3
   3165   3167   3169   3171     1  0.0000000  0.6508444  3
   3165   3167   3169   3172     1  0.0000000  0.6508444  3
   3166   3165   3167   3168     1  0.0000000  0.6508444  3
   3166   3165   3167   3170     1  0.0000000  0.6508444  3
   3167   3165   3166   3175     1  0.0000000  0.6508444  3
   3167   3165   3166   3176     1  0.0000000  0.6508444  3
   3168   3167   3169   3173     1  0.0000000  0.6508444  3
   3168   3167   3169   3171     1  0.0000000  0.6508444  3
   3168   3167   3169   3172     1  0.0000000  0.6508444  3
   3168   3167   3165   3230     1  0.0000000  0.6508444  3
   3169   3173   3205   3195     1  180.0000771  6.0668000  2
   3169   3173   3205   3195     1  180.0000771  1.4644000  4
   3169   3167   3165   3230     1  0.0000000  0.6508444  3
   3170   3167   3169   3173     1  0.0000000  0.6508444  3
   3170   3167   3169   3171     1  0.0000000  0.6508444  3
   3170   3167   3169   3172     1  0.0000000  0.6508444  3
   3170   3167   3165   3230     1  0.0000000  0.6508444  3
   3171   3169   3173   3174     1  0.0000000  3.3472000  1
   3171   3169   3173   3174     1  0.0000000  0.0000000  2
   3171   3169   3173   3174     1  180.0000771  0.3347200  3
   3171   3169   3173   3205     1  180.0000771  0.0000000  2
   3172   3169   3173   3174     1  0.0000000  3.3472000  1
   3172   3169   3173   3174     1  0.0000000  0.0000000  2
   3172   3169   3173   3174     1  180.0000771  0.3347200  3
   3172   3169   3173   3205     1  180.0000771  0.0000000  2
   3173   3205   3186   3188     1  0.0000000  1.2552000  3
   3174   3173   3205   3195     1  180.0000771  6.0668000  2
   3174   3173   3205   3195     1  180.0000771  1.4644000  4
   3175   3166   3177   3180     1  0.0000000  0.6508444  3
   3175   3166   3177   3178     1  0.0000000  0.6508444  3
   3175   3166   3177   3179     1  0.0000000  0.6508444  3
   3175   3166   3165   3230     1  0.0000000  0.6508444  3
   3176   3166   3177   3180     1  0.0000000  0.6508444  3
   3176   3166   3177   3178     1  0.0000000  0.6508444  3
   3176   3166   3177   3179     1  0.0000000  0.6508444  3
   3176   3166   3165   3230     1  0.0000000  0.6508444  3
   3177   3180   3229   3219     1  180.0000771  6.0668000  2
   3177   3180   3229   3219     1  180.0000771  1.4644000  4
   3177   3166   3165   3230     1  0.0000000  0.6508444  3
   3178   3177   3180   3181     1  0.0000000  3.3472000  1
   3178   3177   3180   3181     1  0.0000000  0.0000000  2
   3178   3177   3180   3181     1  180.0000771  0.3347200  3
   3178   3177   3180   3229     1  180.0000771  0.0000000  2
   3179   3177   3180   3181     1  0.0000000  3.3472000  1
   3179   3177   3180   3181     1  0.0000000  0.0000000  2
   3179   3177   3180   3181     1  180.0000771  0.3347200  3
   3179   3177   3180   3229     1  180.0000771  0.0000000  2
   3180   3229   3210   3212     1  0.0000000  1.2552000  3
   3181   3180   3229   3219     1  180.0000771  6.0668000  2
   3181   3180   3229   3219     1  180.0000771  1.4644000  4
   3182   3183   3185   3189     1  0.0000000  0.6508444  3
   3182   3183   3203   3204     1  0.0000000  1.0460000  1
   3182   3183   3203   3204     1  0.0000000  0.6694400  3
   3182   3193   3198   3199     1  0.0000000  1.0460000  1
   3182   3193   3198   3199     1  0.0000000  0.6694400  3
   3182   3200   3187   3190     1  0.0000000  1.6038667  3
   3183   3185   3186   3188     1  0.0000000  0.6508444  3
   3183   3185   3192   3194     1  0.0000000  1.0460000  1
   3183   3185   3192   3194     1  0.0000000  0.6694400  3
   3183   3182   3193   3196     1  0.0000000  0.6508444  3
   3183   3182   3193   3197     1  0.0000000  0.6508444  3
   3184   3182   3183   3185     1  0.0000000  0.6508444  3
   3184   3182   3183   3203     1  0.0000000  1.0460000  1
   3184   3182   3183   3203     1  0.0000000  0.0000000  3
   3184   3182   3183   3202     1  0.0000000  0.6508444  3
   3184   3182   3193   3198     1  0.0000000  1.0460000  1
   3184   3182   3193   3198     1  0.0000000  0.0000000  3
   3184   3182   3193   3196     1  0.0000000  0.6508444  3
   3184   3182   3193   3197     1  0.0000000  0.6508444  3
   3184   3182   3200   3187     1  0.0000000  1.6038667  3
   3185   3186   3187   3190     1  0.0000000  0.6508444  3
   3185   3186   3205   3195     1  0.0000000  1.2552000  3
   3185   3183   3203   3204     1  0.0000000  1.0460000  1
   3185   3183   3203   3204     1  0.0000000  0.6694400  3
   3186   3187   3191   3201     1  0.0000000  1.0460000  1
   3186   3187   3191   3201     1  0.0000000  0.6694400  3
   3186   3185   3192   3194     1  0.0000000  1.0460000  1
   3186   3185   3192   3194     1  0.0000000  0.6694400  3
   3186   3185   3183   3202     1  0.0000000  0.6508444  3
   3187   3186   3205   3195     1  0.0000000  1.2552000  3
   3187   3186   3185   3189     1  0.0000000  0.6508444  3
   3188   3186   3187   3191     1  0.0000000  1.0460000  1
   3188   3186   3187   3191     1  0.0000000  0.0000000  3
   3188   3186   3187   3200     1  0.0000000  1.0460000  1
   3188   3186   3187   3200     1  0.0000000  0.0000000  3
   3188   3186   3187   3190     1  0.0000000  0.6508444  3
   3188   3186   3205   3195     1  0.0000000  1.2552000  3
   3188   3186   3185   3192     1  0.0000000  1.0460000  1
   3188   3186   3185   3192     1  0.0000000  0.0000000  3
   3188   3186   3185   3189     1  0.0000000  0.6508444  3
   3189   3185   3186   3205     1  0.0000000  0.6508444  3
   3189   3185   3192   3194     1  0.0000000  0.6973333  3
   3189   3185   3183   3203     1  0.0000000  1.0460000  1
   3189   3185   3183   3203     1  0.0000000  0.0000000  3
   3189   3185   3183   3202     1  0.0000000  0.6508444  3
   3190   3187   3191   3201     1  0.0000000  0.6973333  3
   3190   3187   3186   3205     1  0.0000000  0.6508444  3
   3192   3185   3183   3202     1  0.0000000  1.0460000  1
   3192   3185   3183   3202     1  0.0000000  0.0000000  3
   3193   3182   3183   3202     1  0.0000000  0.6508444  3
   3196   3193   3198   3199     1  0.0000000  0.6973333  3
   3196   3193   3182   3200     1  0.0000000  1.0460000  1
   3196   3193   3182   3200     1  0.0000000  0.0000000  3
   3197   3193   3198   3199     1  0.0000000  0.6973333  3
   3197   3193   3182   3200     1  0.0000000  1.0460000  1
   3197   3193   3182   3200     1  0.0000000  0.0000000  3
   3200   3187   3191   3201     1  0.0000000  0.6973333  3
   3200   3182   3183   3202     1  0.0000000  1.0460000  1
   3200   3182   3183   3202     1  0.0000000  0.0000000  3
   3202   3183   3203   3204     1  0.0000000  0.6973333  3
   3206   3207   3209   3213     1  0.0000000  0.6508444  3
   3206   3207   3227   3228     1  0.0000000  1.0460000  1
   3206   3207   3227   3228     1  0.0000000  0.6694400  3
   3206   3217   3222   3223     1  0.0000000  1.0460000  1
   3206   3217   3222   3223     1  0.0000000  0.6694400  3
   3206   3224   3211   3214     1  0.0000000  1.6038667  3
   3207   3209   3210   3212     1  0.0000000  0.6508444  3
   3207   3209   3216   3218     1  0.0000000  1.0460000  1
   3207   3209   3216   3218     1  0.0000000  0.6694400  3
   3207   3206   3217   3220     1  0.0000000  0.6508444  3
   3207   3206   3217   3221     1  0.0000000  0.6508444  3
   3208   3206   3207   3209     1  0.0000000  0.6508444  3
   3208   3206   3207   3227     1  0.0000000  1.0460000  1
   3208   3206   3207   3227     1  0.0000000  0.0000000  3
   3208   3206   3207   3226     1  0.0000000  0.6508444  3
   3208   3206   3217   3222     1  0.0000000  1.0460000  1
   3208   3206   3217   3222     1  0.0000000  0.0000000  3
   3208   3206   3217   3220     1  0.0000000  0.6508444  3
   3208   3206   3217   3221     1  0.0000000  0.6508444  3
   3208   3206   3224   3211     1  0.0000000  1.6038667  3
   3209   3210   3211   3214     1  0.0000000  0.6508444  3
   3209   3210   3229   3219     1  0.0000000  1.2552000  3
   3209   3207   3227   3228     1  0.0000000  1.0460000  1
   3209   3207   3227   3228     1  0.0000000  0.6694400  3
   3210   3211   3215   3225     1  0.0000000  1.0460000  1
   3210   3211   3215   3225     1  0.0000000  0.6694400  3
   3210   3209   3216   3218     1  0.0000000  1.0460000  1
   3210   3209   3216   3218     1  0.0000000  0.6694400  3
   3210   3209   3207   3226     1  0.0000000  0.6508444  3
   3211   3210   3229   3219     1  0.0000000  1.2552000  3
   3211   3210   3209   3213     1  0.0000000  0.6508444  3
   3212   3210   3211   3215     1  0.0000000  1.0460000  1
   3212   3210   3211   3215     1  0.0000000  0.0000000  3
   3212   3210   3211   3224     1  0.0000000  1.0460000  1
   3212   3210   3211   3224     1  0.0000000  0.0000000  3
   3212   3210   3211   3214     1  0.0000000  0.6508444  3
   3212   3210   3229   3219     1  0.0000000  1.2552000  3
   3212   3210   3209   3216     1  0.0000000  1.0460000  1
   3212   3210   3209   3216     1  0.0000000  0.0000000  3
   3212   3210   3209   3213     1  0.0000000  0.6508444  3
   3213   3209   3210   3229     1  0.0000000  0.6508444  3
   3213   3209   3216   3218     1  0.0000000  0.6973333  3
   3213   3209   3207   3227     1  0.0000000  1.0460000  1
   3213   3209   3207   3227     1  0.0000000  0.0000000  3
   3213   3209   3207   3226     1  0.0000000  0.6508444  3
   3214   3211   3215   3225     1  0.0000000  0.6973333  3
   3214   3211   3210   3229     1  0.0000000  0.6508444  3
   3216   3209   3207   3226     1  0.0000000  1.0460000  1
   3216   3209   3207   3226     1  0.0000000  0.0000000  3
   3217   3206   3207   3226     1  0.0000000  0.6508444  3
   3220   3217   3222   3223     1  0.0000000  0.6973333  3
   3220   3217   3206   3224     1  0.0000000  1.0460000  1
   3220   3217   3206   3224     1  0.0000000  0.0000000  3
   3221   3217   3222   3223     1  0.0000000  0.6973333  3
   3221   3217   3206   3224     1  0.0000000  1.0460000  1
   3221   3217   3206   3224     1  0.0000000  0.0000000  3
   3224   3211   3215   3225     1  0.0000000  0.6973333  3
   3224   3206   3207   3226     1  0.0000000  1.0460000  1
   3224   3206   3207   3226     1  0.0000000  0.0000000  3
   3226   3207   3227   3228     1  0.0000000  0.6973333  3
   3231   3233   3235   3237     1  0.0000000  0.6508444  3
   3231   3233   3235   3238     1  0.0000000  0.6508444  3
   3232   3231   3233   3235     1  0.0000000  0.0000000  2
   3232   3231   3233   3234     1  0.0000000  0.0000000  2
   3232   3231   3233   3236     1  0.0000000  0.0000000  2
   3233   3235   3239   3304     1  0.0000000  0.6508444  3
   3234   3233   3235   3239     1  0.0000000  0.6508444  3
   3234   3233   3235   3237     1  0.0000000  0.6508444  3
   3234   3233   3235   3238     1  0.0000000  0.6508444  3
   3235   3239   3240   3249     1  0.0000000  0.6508444  3
   3235   3239   3240   3250     1  0.0000000  0.6508444  3
   3235   3239   3241   3242     1  0.0000000  0.6508444  3
   3235   3239   3241   3244     1  0.0000000  0.6508444  3
   3236   3233   3235   3239     1  0.0000000  0.6508444  3
   3236   3233   3235   3237     1  0.0000000  0.6508444  3
   3236   3233   3235   3238     1  0.0000000  0.6508444  3
   3237   3235   3239   3240     1  0.0000000  0.6508444  3
   3237   3235   3239   3241     1  0.0000000  0.6508444  3
   3237   3235   3239   3304     1  0.0000000  0.6508444  3
   3238   3235   3239   3240     1  0.0000000  0.6508444  3
   3238   3235   3239   3241     1  0.0000000  0.6508444  3
   3238   3235   3239   3304     1  0.0000000  0.6508444  3
   3239   3240   3251   3252     1  0.0000000  0.6508444  3
   3239   3240   3251   3253     1  0.0000000  0.6508444  3
   3239   3241   3243   3245     1  0.0000000  0.6508444  3
   3239   3241   3243   3246     1  0.0000000  0.6508444  3
   3240   3239   3241   3242     1  0.0000000  0.6508444  3
   3240   3239   3241   3244     1  0.0000000  0.6508444  3
   3241   3239   3240   3249     1  0.0000000  0.6508444  3
   3241   3239   3240   3250     1  0.0000000  0.6508444  3
   3242   3241   3239   3304     1  0.0000000  0.6508444  3
   3242   3241   3243   3247     1  0.0000000  0.6508444  3
   3242   3241   3243   3245     1  0.0000000  0.6508444  3
   3242   3241   3243   3246     1  0.0000000  0.6508444  3
   3243   3241   3239   3304     1  0.0000000  0.6508444  3
   3243   3247   3279   3269     1  180.0000771  6.0668000  2
   3243   3247   3279   3269     1  180.0000771  1.4644000  4
   3244   3241   3239   3304     1  0.0000000  0.6508444  3
   3244   3241   3243   3247     1  0.0000000  0.6508444  3
   3244   3241   3243   3245     1  0.0000000  0.6508444  3
   3244   3241   3243   3246     1  0.0000000  0.6508444  3
   3245   3243   3247   3248     1  0.0000000  3.3472000  1
   3245   3243   3247   3248     1  0.0000000  0.0000000  2
   3245   3243   3247   3248     1  180.0000771  0.3347200  3
   3245   3243   3247   3279     1  180.0000771  0.0000000  2
   3246   3243   3247   3248     1  0.0000000  3.3472000  1
   3246   3243   3247   3248     1  0.0000000  0.0000000  2
   3246   3243   3247   3248     1  180.0000771  0.3347200  3
   3246   3243   3247   3279     1  180.0000771  0.0000000  2
   3247   3279   3260   3262     1  0.0000000  1.2552000  3
   3248   3247   3279   3269     1  180.0000771  6.0668000  2
   3248   3247   3279   3269     1  180.0000771  1.4644000  4
   3249   3240   3239   3304     1  0.0000000  0.6508444  3
   3249   3240   3251   3254     1  0.0000000  0.6508444  3
   3249   3240   3251   3252     1  0.0000000  0.6508444  3
   3249   3240   3251   3253     1  0.0000000  0.6508444  3
   3250   3240   3239   3304     1  0.0000000  0.6508444  3
   3250   3240   3251   3254     1  0.0000000  0.6508444  3
   3250   3240   3251   3252     1  0.0000000  0.6508444  3
   3250   3240   3251   3253     1  0.0000000  0.6508444  3
   3251   3240   3239   3304     1  0.0000000  0.6508444  3
   3251   3254   3303   3293     1  180.0000771  6.0668000  2
   3251   3254   3303   3293     1  180.0000771  1.4644000  4
   3252   3251   3254   3255     1  0.0000000  3.3472000  1
   3252   3251   3254   3255     1  0.0000000  0.0000000  2
   3252   3251   3254   3255     1  180.0000771  0.3347200  3
   3252   3251   3254   3303     1  180.0000771  0.0000000  2
   3253   3251   3254   3255     1  0.0000000  3.3472000  1
   3253   3251   3254   3255     1  0.0000000  0.0000000  2
   3253   3251   3254   3255     1  180.0000771  0.3347200  3
   3253   3251   3254   3303     1  180.0000771  0.0000000  2
   3254   3303   3284   3286     1  0.0000000  1.2552000  3
   3255   3254   3303   3293     1  180.0000771  6.0668000  2
   3255   3254   3303   3293     1  180.0000771  1.4644000  4
   3256   3257   3259   3263     1  0.0000000  0.6508444  3
   3256   3257   3277   3278     1  0.0000000  1.0460000  1
   3256   3257   3277   3278     1  0.0000000  0.6694400  3
   3256   3267   3272   3273     1  0.0000000  1.0460000  1
   3256   3267   3272   3273     1  0.0000000  0.6694400  3
   3256   3274   3261   3264     1  0.0000000  1.6038667  3
   3257   3256   3267   3270     1  0.0000000  0.6508444  3
   3257   3256   3267   3271     1  0.0000000  0.6508444  3
   3257   3259   3260   3262     1  0.0000000  0.6508444  3
   3257   3259   3266   3268     1  0.0000000  1.0460000  1
   3257   3259   3266   3268     1  0.0000000  0.6694400  3
   3258   3256   3257   3259     1  0.0000000  0.6508444  3
   3258   3256   3257   3277     1  0.0000000  1.0460000  1
   3258   3256   3257   3277     1  0.0000000  0.0000000  3
   3258   3256   3257   3276     1  0.0000000  0.6508444  3
   3258   3256   3267   3272     1  0.0000000  1.0460000  1
   3258   3256   3267   3272     1  0.0000000  0.0000000  3
   3258   3256   3267   3270     1  0.0000000  0.6508444  3
   3258   3256   3267   3271     1  0.0000000  0.6508444  3
   3258   3256   3274   3261     1  0.0000000  1.6038667  3
   3259   3257   3277   3278     1  0.0000000  1.0460000  1
   3259   3257   3277   3278     1  0.0000000  0.6694400  3
   3259   3260   3261   3264     1  0.0000000  0.6508444  3
   3259   3260   3279   3269     1  0.0000000  1.2552000  3
   3260   3259   3257   3276     1  0.0000000  0.6508444  3
   3260   3259   3266   3268     1  0.0000000  1.0460000  1
   3260   3259   3266   3268     1  0.0000000  0.6694400  3
   3260   3261   3265   3275     1  0.0000000  1.0460000  1
   3260   3261   3265   3275     1  0.0000000  0.6694400  3
   3261   3260   3259   3263     1  0.0000000  0.6508444  3
   3261   3260   3279   3269     1  0.0000000  1.2552000  3
   3262   3260   3259   3266     1  0.0000000  1.0460000  1
   3262   3260   3259   3266     1  0.0000000  0.0000000  3
   3262   3260   3259   3263     1  0.0000000  0.6508444  3
   3262   3260   3261   3265     1  0.0000000  1.0460000  1
   3262   3260   3261   3265     1  0.0000000  0.0000000  3
   3262   3260   3261   3274     1  0.0000000  1.0460000  1
   3262   3260   3261   3274     1  0.0000000  0.0000000  3
   3262   3260   3261   3264     1  0.0000000  0.6508444  3
   3262   3260   3279   3269     1  0.0000000  1.2552000  3
   3263   3259   3257   3277     1  0.0000000  1.0460000  1
   3263   3259   3257   3277     1  0.0000000  0.0000000  3
   3263   3259   3257   3276     1  0.0000000  0.6508444  3
   3263   3259   3260   3279     1  0.0000000  0.6508444  3
   3263   3259   3266   3268     1  0.0000000  0.6973333  3
   3264   3261   3260   3279     1  0.0000000  0.6508444  3
   3264   3261   3265   3275     1  0.0000000  0.6973333  3
   3266   3259   3257   3276     1  0.0000000  1.0460000  1
   3266   3259   3257   3276     1  0.0000000  0.0000000  3
   3267   3256   3257   3276     1  0.0000000  0.6508444  3
   3270   3267   3256   3274     1  0.0000000  1.0460000  1
   3270   3267   3256   3274     1  0.0000000  0.0000000  3
   3270   3267   3272   3273     1  0.0000000  0.6973333  3
   3271   3267   3256   3274     1  0.0000000  1.0460000  1
   3271   3267   3256   3274     1  0.0000000  0.0000000  3
   3271   3267   3272   3273     1  0.0000000  0.6973333  3
   3274   3256   3257   3276     1  0.0000000  1.0460000  1
   3274   3256   3257   3276     1  0.0000000  0.0000000  3
   3274   3261   3265   3275     1  0.0000000  0.6973333  3
   3276   3257   3277   3278     1  0.0000000  0.6973333  3
   3280   3281   3283   3287     1  0.0000000  0.6508444  3
   3280   3281   3301   3302     1  0.0000000  1.0460000  1
   3280   3281   3301   3302     1  0.0000000  0.6694400  3
   3280   3291   3296   3297     1  0.0000000  1.0460000  1
   3280   3291   3296   3297     1  0.0000000  0.6694400  3
   3280   3298   3285   3288     1  0.0000000  1.6038667  3
   3281   3280   3291   3294     1  0.0000000  0.6508444  3
   3281   3280   3291   3295     1  0.0000000  0.6508444  3
   3281   3283   3284   3286     1  0.0000000  0.6508444  3
   3281   3283   3290   3292     1  0.0000000  1.0460000  1
   3281   3283   3290   3292     1  0.0000000  0.6694400  3
   3282   3280   3281   3283     1  0.0000000  0.6508444  3
   3282   3280   3281   3301     1  0.0000000  1.0460000  1
   3282   3280   3281   3301     1  0.0000000  0.0000000  3
   3282   3280   3281   3300     1  0.0000000  0.6508444  3
   3282   3280   3291   3296     1  0.0000000  1.0460000  1
   3282   3280   3291   3296     1  0.0000000  0.0000000  3
   3282   3280   3291   3294     1  0.0000000  0.6508444  3
   3282   3280   3291   3295     1  0.0000000  0.6508444  3
   3282   3280   3298   3285     1  0.0000000  1.6038667  3
   3283   3281   3301   3302     1  0.0000000  1.0460000  1
   3283   3281   3301   3302     1  0.0000000  0.6694400  3
   3283   3284   3285   3288     1  0.0000000  0.6508444  3
   3283   3284   3303   3293     1  0.0000000  1.2552000  3
   3284   3283   3281   3300     1  0.0000000  0.6508444  3
   3284   3283   3290   3292     1  0.0000000  1.0460000  1
   3284   3283   3290   3292     1  0.0000000  0.6694400  3
   3284   3285   3289   3299     1  0.0000000  1.0460000  1
   3284   3285   3289   3299     1  0.0000000  0.6694400  3
   3285   3284   3283   3287     1  0.0000000  0.6508444  3
   3285   3284   3303   3293     1  0.0000000  1.2552000  3
   3286   3284   3283   3290     1  0.0000000  1.0460000  1
   3286   3284   3283   3290     1  0.0000000  0.0000000  3
   3286   3284   3283   3287     1  0.0000000  0.6508444  3
   3286   3284   3285   3289     1  0.0000000  1.0460000  1
   3286   3284   3285   3289     1  0.0000000  0.0000000  3
   3286   3284   3285   3298     1  0.0000000  1.0460000  1
   3286   3284   3285   3298     1  0.0000000  0.0000000  3
   3286   3284   3285   3288     1  0.0000000  0.6508444  3
   3286   3284   3303   3293     1  0.0000000  1.2552000  3
   3287   3283   3281   3301     1  0.0000000  1.0460000  1
   3287   3283   3281   3301     1  0.0000000  0.0000000  3
   3287   3283   3281   3300     1  0.0000000  0.6508444  3
   3287   3283   3284   3303     1  0.0000000  0.6508444  3
   3287   3283   3290   3292     1  0.0000000  0.6973333  3
   3288   3285   3284   3303     1  0.0000000  0.6508444  3
   3288   3285   3289   3299     1  0.0000000  0.6973333  3
   3290   3283   3281   3300     1  0.0000000  1.0460000  1
   3290   3283   3281   3300     1  0.0000000  0.0000000  3
   3291   3280   3281   3300     1  0.0000000  0.6508444  3
   3294   3291   3280   3298     1  0.0000000  1.0460000  1
   3294   3291   3280   3298     1  0.0000000  0.0000000  3
   3294   3291   3296   3297     1  0.0000000  0.6973333  3
   3295   3291   3280   3298     1  0.0000000  1.0460000  1
   3295   3291   3280   3298     1  0.0000000  0.0000000  3
   3295   3291   3296   3297     1  0.0000000  0.6973333  3
   3298   3280   3281   3300     1  0.0000000  1.0460000  1
   3298   3280   3281   3300     1  0.0000000  0.0000000  3
   3298   3285   3289   3299     1  0.0000000  0.6973333  3
   3300   3281   3301   3302     1  0.0000000  0.6973333  3
   3305   3307   3309   3311     1  0.0000000  0.6508444  3
   3305   3307   3309   3312     1  0.0000000  0.6508444  3
   3306   3305   3307   3309     1  0.0000000  0.0000000  2
   3306   3305   3307   3308     1  0.0000000  0.0000000  2
   3306   3305   3307   3310     1  0.0000000  0.0000000  2
   3307   3309   3313   3378     1  0.0000000  0.6508444  3
   3308   3307   3309   3313     1  0.0000000  0.6508444  3
   3308   3307   3309   3311     1  0.0000000  0.6508444  3
   3308   3307   3309   3312     1  0.0000000  0.6508444  3
   3309   3313   3314   3323     1  0.0000000  0.6508444  3
   3309   3313   3314   3324     1  0.0000000  0.6508444  3
   3309   3313   3315   3316     1  0.0000000  0.6508444  3
   3309   3313   3315   3318     1  0.0000000  0.6508444  3
   3310   3307   3309   3313     1  0.0000000  0.6508444  3
   3310   3307   3309   3311     1  0.0000000  0.6508444  3
   3310   3307   3309   3312     1  0.0000000  0.6508444  3
   3311   3309   3313   3314     1  0.0000000  0.6508444  3
   3311   3309   3313   3315     1  0.0000000  0.6508444  3
   3311   3309   3313   3378     1  0.0000000  0.6508444  3
   3312   3309   3313   3314     1  0.0000000  0.6508444  3
   3312   3309   3313   3315     1  0.0000000  0.6508444  3
   3312   3309   3313   3378     1  0.0000000  0.6508444  3
   3313   3314   3325   3326     1  0.0000000  0.6508444  3
   3313   3314   3325   3327     1  0.0000000  0.6508444  3
   3313   3315   3317   3319     1  0.0000000  0.6508444  3
   3313   3315   3317   3320     1  0.0000000  0.6508444  3
   3314   3313   3315   3316     1  0.0000000  0.6508444  3
   3314   3313   3315   3318     1  0.0000000  0.6508444  3
   3315   3313   3314   3323     1  0.0000000  0.6508444  3
   3315   3313   3314   3324     1  0.0000000  0.6508444  3
   3316   3315   3317   3321     1  0.0000000  0.6508444  3
   3316   3315   3317   3319     1  0.0000000  0.6508444  3
   3316   3315   3317   3320     1  0.0000000  0.6508444  3
   3316   3315   3313   3378     1  0.0000000  0.6508444  3
   3317   3321   3353   3343     1  180.0000771  6.0668000  2
   3317   3321   3353   3343     1  180.0000771  1.4644000  4
   3317   3315   3313   3378     1  0.0000000  0.6508444  3
   3318   3315   3317   3321     1  0.0000000  0.6508444  3
   3318   3315   3317   3319     1  0.0000000  0.6508444  3
   3318   3315   3317   3320     1  0.0000000  0.6508444  3
   3318   3315   3313   3378     1  0.0000000  0.6508444  3
   3319   3317   3321   3322     1  0.0000000  3.3472000  1
   3319   3317   3321   3322     1  0.0000000  0.0000000  2
   3319   3317   3321   3322     1  180.0000771  0.3347200  3
   3319   3317   3321   3353     1  180.0000771  0.0000000  2
   3320   3317   3321   3322     1  0.0000000  3.3472000  1
   3320   3317   3321   3322     1  0.0000000  0.0000000  2
   3320   3317   3321   3322     1  180.0000771  0.3347200  3
   3320   3317   3321   3353     1  180.0000771  0.0000000  2
   3321   3353   3334   3336     1  0.0000000  1.2552000  3
   3322   3321   3353   3343     1  180.0000771  6.0668000  2
   3322   3321   3353   3343     1  180.0000771  1.4644000  4
   3323   3314   3325   3328     1  0.0000000  0.6508444  3
   3323   3314   3325   3326     1  0.0000000  0.6508444  3
   3323   3314   3325   3327     1  0.0000000  0.6508444  3
   3323   3314   3313   3378     1  0.0000000  0.6508444  3
   3324   3314   3325   3328     1  0.0000000  0.6508444  3
   3324   3314   3325   3326     1  0.0000000  0.6508444  3
   3324   3314   3325   3327     1  0.0000000  0.6508444  3
   3324   3314   3313   3378     1  0.0000000  0.6508444  3
   3325   3328   3377   3367     1  180.0000771  6.0668000  2
   3325   3328   3377   3367     1  180.0000771  1.4644000  4
   3325   3314   3313   3378     1  0.0000000  0.6508444  3
   3326   3325   3328   3329     1  0.0000000  3.3472000  1
   3326   3325   3328   3329     1  0.0000000  0.0000000  2
   3326   3325   3328   3329     1  180.0000771  0.3347200  3
   3326   3325   3328   3377     1  180.0000771  0.0000000  2
   3327   3325   3328   3329     1  0.0000000  3.3472000  1
   3327   3325   3328   3329     1  0.0000000  0.0000000  2
   3327   3325   3328   3329     1  180.0000771  0.3347200  3
   3327   3325   3328   3377     1  180.0000771  0.0000000  2
   3328   3377   3358   3360     1  0.0000000  1.2552000  3
   3329   3328   3377   3367     1  180.0000771  6.0668000  2
   3329   3328   3377   3367     1  180.0000771  1.4644000  4
   3330   3331   3333   3337     1  0.0000000  0.6508444  3
   3330   3331   3351   3352     1  0.0000000  1.0460000  1
   3330   3331   3351   3352     1  0.0000000  0.6694400  3
   3330   3341   3346   3347     1  0.0000000  1.0460000  1
   3330   3341   3346   3347     1  0.0000000  0.6694400  3
   3330   3348   3335   3338     1  0.0000000  1.6038667  3
   3331   3333   3334   3336     1  0.0000000  0.6508444  3
   3331   3333   3340   3342     1  0.0000000  1.0460000  1
   3331   3333   3340   3342     1  0.0000000  0.6694400  3
   3331   3330   3341   3344     1  0.0000000  0.6508444  3
   3331   3330   3341   3345     1  0.0000000  0.6508444  3
   3332   3330   3331   3333     1  0.0000000  0.6508444  3
   3332   3330   3331   3351     1  0.0000000  1.0460000  1
   3332   3330   3331   3351     1  0.0000000  0.0000000  3
   3332   3330   3331   3350     1  0.0000000  0.6508444  3
   3332   3330   3341   3346     1  0.0000000  1.0460000  1
   3332   3330   3341   3346     1  0.0000000  0.0000000  3
   3332   3330   3341   3344     1  0.0000000  0.6508444  3
   3332   3330   3341   3345     1  0.0000000  0.6508444  3
   3332   3330   3348   3335     1  0.0000000  1.6038667  3
   3333   3334   3335   3338     1  0.0000000  0.6508444  3
   3333   3334   3353   3343     1  0.0000000  1.2552000  3
   3333   3331   3351   3352     1  0.0000000  1.0460000  1
   3333   3331   3351   3352     1  0.0000000  0.6694400  3
   3334   3335   3339   3349     1  0.0000000  1.0460000  1
   3334   3335   3339   3349     1  0.0000000  0.6694400  3
   3334   3333   3340   3342     1  0.0000000  1.0460000  1
   3334   3333   3340   3342     1  0.0000000  0.6694400  3
   3334   3333   3331   3350     1  0.0000000  0.6508444  3
   3335   3334   3353   3343     1  0.0000000  1.2552000  3
   3335   3334   3333   3337     1  0.0000000  0.6508444  3
   3336   3334   3335   3339     1  0.0000000  1.0460000  1
   3336   3334   3335   3339     1  0.0000000  0.0000000  3
   3336   3334   3335   3348     1  0.0000000  1.0460000  1
   3336   3334   3335   3348     1  0.0000000  0.0000000  3
   3336   3334   3335   3338     1  0.0000000  0.6508444  3
   3336   3334   3353   3343     1  0.0000000  1.2552000  3
   3336   3334   3333   3340     1  0.0000000  1.0460000  1
   3336   3334   3333   3340     1  0.0000000  0.0000000  3
   3336   3334   3333   3337     1  0.0000000  0.6508444  3
   3337   3333   3334   3353     1  0.0000000  0.6508444  3
   3337   3333   3340   3342     1  0.0000000  0.6973333  3
   3337   3333   3331   3351     1  0.0000000  1.0460000  1
   3337   3333   3331   3351     1  0.0000000  0.0000000  3
   3337   3333   3331   3350     1  0.0000000  0.6508444  3
   3338   3335   3339   3349     1  0.0000000  0.6973333  3
   3338   3335   3334   3353     1  0.0000000  0.6508444  3
   3340   3333   3331   3350     1  0.0000000  1.0460000  1
   3340   3333   3331   3350     1  0.0000000  0.0000000  3
   3341   3330   3331   3350     1  0.0000000  0.6508444  3
   3344   3341   3346   3347     1  0.0000000  0.6973333  3
   3344   3341   3330   3348     1  0.0000000  1.0460000  1
   3344   3341   3330   3348     1  0.0000000  0.0000000  3
   3345   3341   3346   3347     1  0.0000000  0.6973333  3
   3345   3341   3330   3348     1  0.0000000  1.0460000  1
   3345   3341   3330   3348     1  0.0000000  0.0000000  3
   3348   3335   3339   3349     1  0.0000000  0.6973333  3
   3348   3330   3331   3350     1  0.0000000  1.0460000  1
   3348   3330   3331   3350     1  0.0000000  0.0000000  3
   3350   3331   3351   3352     1  0.0000000  0.6973333  3
   3354   3355   3357   3361     1  0.0000000  0.6508444  3
   3354   3355   3375   3376     1  0.0000000  1.0460000  1
   3354   3355   3375   3376     1  0.0000000  0.6694400  3
   3354   3365   3370   3371     1  0.0000000  1.0460000  1
   3354   3365   3370   3371     1  0.0000000  0.6694400  3
   3354   3372   3359   3362     1  0.0000000  1.6038667  3
   3355   3357   3358   3360     1  0.0000000  0.6508444  3
   3355   3357   3364   3366     1  0.0000000  1.0460000  1
   3355   3357   3364   3366     1  0.0000000  0.6694400  3
   3355   3354   3365   3368     1  0.0000000  0.6508444  3
   3355   3354   3365   3369     1  0.0000000  0.6508444  3
   3356   3354   3355   3357     1  0.0000000  0.6508444  3
   3356   3354   3355   3375     1  0.0000000  1.0460000  1
   3356   3354   3355   3375     1  0.0000000  0.0000000  3
   3356   3354   3355   3374     1  0.0000000  0.6508444  3
   3356   3354   3365   3370     1  0.0000000  1.0460000  1
   3356   3354   3365   3370     1  0.0000000  0.0000000  3
   3356   3354   3365   3368     1  0.0000000  0.6508444  3
   3356   3354   3365   3369     1  0.0000000  0.6508444  3
   3356   3354   3372   3359     1  0.0000000  1.6038667  3
   3357   3358   3359   3362     1  0.0000000  0.6508444  3
   3357   3358   3377   3367     1  0.0000000  1.2552000  3
   3357   3355   3375   3376     1  0.0000000  1.0460000  1
   3357   3355   3375   3376     1  0.0000000  0.6694400  3
   3358   3359   3363   3373     1  0.0000000  1.0460000  1
   3358   3359   3363   3373     1  0.0000000  0.6694400  3
   3358   3357   3364   3366     1  0.0000000  1.0460000  1
   3358   3357   3364   3366     1  0.0000000  0.6694400  3
   3358   3357   3355   3374     1  0.0000000  0.6508444  3
   3359   3358   3377   3367     1  0.0000000  1.2552000  3
   3359   3358   3357   3361     1  0.0000000  0.6508444  3
   3360   3358   3359   3363     1  0.0000000  1.0460000  1
   3360   3358   3359   3363     1  0.0000000  0.0000000  3
   3360   3358   3359   3372     1  0.0000000  1.0460000  1
   3360   3358   3359   3372     1  0.0000000  0.0000000  3
   3360   3358   3359   3362     1  0.0000000  0.6508444  3
   3360   3358   3377   3367     1  0.0000000  1.2552000  3
   3360   3358   3357   3364     1  0.0000000  1.0460000  1
   3360   3358   3357   3364     1  0.0000000  0.0000000  3
   3360   3358   3357   3361     1  0.0000000  0.6508444  3
   3361   3357   3358   3377     1  0.0000000  0.6508444  3
   3361   3357   3364   3366     1  0.0000000  0.6973333  3
   3361   3357   3355   3375     1  0.0000000  1.0460000  1
   3361   3357   3355   3375     1  0.0000000  0.0000000  3
   3361   3357   3355   3374     1  0.0000000  0.6508444  3
   3362   3359   3363   3373     1  0.0000000  0.6973333  3
   3362   3359   3358   3377     1  0.0000000  0.6508444  3
   3364   3357   3355   3374     1  0.0000000  1.0460000  1
   3364   3357   3355   3374     1  0.0000000  0.0000000  3
   3365   3354   3355   3374     1  0.0000000  0.6508444  3
   3368   3365   3370   3371     1  0.0000000  0.6973333  3
   3368   3365   3354   3372     1  0.0000000  1.0460000  1
   3368   3365   3354   3372     1  0.0000000  0.0000000  3
   3369   3365   3370   3371     1  0.0000000  0.6973333  3
   3369   3365   3354   3372     1  0.0000000  1.0460000  1
   3369   3365   3354   3372     1  0.0000000  0.0000000  3
   3372   3359   3363   3373     1  0.0000000  0.6973333  3
   3372   3354   3355   3374     1  0.0000000  1.0460000  1
   3372   3354   3355   3374     1  0.0000000  0.0000000  3
   3374   3355   3375   3376     1  0.0000000  0.6973333  3
   3379   3381   3383   3385     1  0.0000000  0.6508444  3
   3379   3381   3383   3386     1  0.0000000  0.6508444  3
   3380   3379   3381   3383     1  0.0000000  0.0000000  2
   3380   3379   3381   3382     1  0.0000000  0.0000000  2
   3380   3379   3381   3384     1  0.0000000  0.0000000  2
   3381   3383   3387   3452     1  0.0000000  0.6508444  3
   3382   3381   3383   3387     1  0.0000000  0.6508444  3
   3382   3381   3383   3385     1  0.0000000  0.6508444  3
   3382   3381   3383   3386     1  0.0000000  0.6508444  3
   3383   3387   3388   3397     1  0.0000000  0.6508444  3
   3383   3387   3388   3398     1  0.0000000  0.6508444  3
   3383   3387   3389   3390     1  0.0000000  0.6508444  3
   3383   3387   3389   3392     1  0.0000000  0.6508444  3
   3384   3381   3383   3387     1  0.0000000  0.6508444  3
   3384   3381   3383   3385     1  0.0000000  0.6508444  3
   3384   3381   3383   3386     1  0.0000000  0.6508444  3
   3385   3383   3387   3388     1  0.0000000  0.6508444  3
   3385   3383   3387   3389     1  0.0000000  0.6508444  3
   3385   3383   3387   3452     1  0.0000000  0.6508444  3
   3386   3383   3387   3388     1  0.0000000  0.6508444  3
   3386   3383   3387   3389     1  0.0000000  0.6508444  3
   3386   3383   3387   3452     1  0.0000000  0.6508444  3
   3387   3388   3399   3400     1  0.0000000  0.6508444  3
   3387   3388   3399   3401     1  0.0000000  0.6508444  3
   3387   3389   3391   3393     1  0.0000000  0.6508444  3
   3387   3389   3391   3394     1  0.0000000  0.6508444  3
   3388   3387   3389   3390     1  0.0000000  0.6508444  3
   3388   3387   3389   3392     1  0.0000000  0.6508444  3
   3389   3387   3388   3397     1  0.0000000  0.6508444  3
   3389   3387   3388   3398     1  0.0000000  0.6508444  3
   3390   3389   3387   3452     1  0.0000000  0.6508444  3
   3390   3389   3391   3395     1  0.0000000  0.6508444  3
   3390   3389   3391   3393     1  0.0000000  0.6508444  3
   3390   3389   3391   3394     1  0.0000000  0.6508444  3
   3391   3389   3387   3452     1  0.0000000  0.6508444  3
   3391   3395   3427   3417     1  180.0000771  6.0668000  2
   3391   3395   3427   3417     1  180.0000771  1.4644000  4
   3392   3389   3387   3452     1  0.0000000  0.6508444  3
   3392   3389   3391   3395     1  0.0000000  0.6508444  3
   3392   3389   3391   3393     1  0.0000000  0.6508444  3
   3392   3389   3391   3394     1  0.0000000  0.6508444  3
   3393   3391   3395   3396     1  0.0000000  3.3472000  1
   3393   3391   3395   3396     1  0.0000000  0.0000000  2
   3393   3391   3395   3396     1  180.0000771  0.3347200  3
   3393   3391   3395   3427     1  180.0000771  0.0000000  2
   3394   3391   3395   3396     1  0.0000000  3.3472000  1
   3394   3391   3395   3396     1  0.0000000  0.0000000  2
   3394   3391   3395   3396     1  180.0000771  0.3347200  3
   3394   3391   3395   3427     1  180.0000771  0.0000000  2
   3395   3427   3408   3410     1  0.0000000  1.2552000  3
   3396   3395   3427   3417     1  180.0000771  6.0668000  2
   3396   3395   3427   3417     1  180.0000771  1.4644000  4
   3397   3388   3387   3452     1  0.0000000  0.6508444  3
   3397   3388   3399   3402     1  0.0000000  0.6508444  3
   3397   3388   3399   3400     1  0.0000000  0.6508444  3
   3397   3388   3399   3401     1  0.0000000  0.6508444  3
   3398   3388   3387   3452     1  0.0000000  0.6508444  3
   3398   3388   3399   3402     1  0.0000000  0.6508444  3
   3398   3388   3399   3400     1  0.0000000  0.6508444  3
   3398   3388   3399   3401     1  0.0000000  0.6508444  3
   3399   3388   3387   3452     1  0.0000000  0.6508444  3
   3399   3402   3451   3441     1  180.0000771  6.0668000  2
   3399   3402   3451   3441     1  180.0000771  1.4644000  4
   3400   3399   3402   3403     1  0.0000000  3.3472000  1
   3400   3399   3402   3403     1  0.0000000  0.0000000  2
   3400   3399   3402   3403     1  180.0000771  0.3347200  3
   3400   3399   3402   3451     1  180.0000771  0.0000000  2
   3401   3399   3402   3403     1  0.0000000  3.3472000  1
   3401   3399   3402   3403     1  0.0000000  0.0000000  2
   3401   3399   3402   3403     1  180.0000771  0.3347200  3
   3401   3399   3402   3451     1  180.0000771  0.0000000  2
   3402   3451   3432   3434     1  0.0000000  1.2552000  3
   3403   3402   3451   3441     1  180.0000771  6.0668000  2
   3403   3402   3451   3441     1  180.0000771  1.4644000  4
   3404   3405   3407   3411     1  0.0000000  0.6508444  3
   3404   3405   3425   3426     1  0.0000000  1.0460000  1
   3404   3405   3425   3426     1  0.0000000  0.6694400  3
   3404   3415   3420   3421     1  0.0000000  1.0460000  1
   3404   3415   3420   3421     1  0.0000000  0.6694400  3
   3404   3422   3409   3412     1  0.0000000  1.6038667  3
   3405   3404   3415   3418     1  0.0000000  0.6508444  3
   3405   3404   3415   3419     1  0.0000000  0.6508444  3
   3405   3407   3408   3410     1  0.0000000  0.6508444  3
   3405   3407   3414   3416     1  0.0000000  1.0460000  1
   3405   3407   3414   3416     1  0.0000000  0.6694400  3
   3406   3404   3405   3407     1  0.0000000  0.6508444  3
   3406   3404   3405   3425     1  0.0000000  1.0460000  1
   3406   3404   3405   3425     1  0.0000000  0.0000000  3
   3406   3404   3405   3424     1  0.0000000  0.6508444  3
   3406   3404   3415   3420     1  0.0000000  1.0460000  1
   3406   3404   3415   3420     1  0.0000000  0.0000000  3
   3406   3404   3415   3418     1  0.0000000  0.6508444  3
   3406   3404   3415   3419     1  0.0000000  0.6508444  3
   3406   3404   3422   3409     1  0.0000000  1.6038667  3
   3407   3405   3425   3426     1  0.0000000  1.0460000  1
   3407   3405   3425   3426     1  0.0000000  0.6694400  3
   3407   3408   3409   3412     1  0.0000000  0.6508444  3
   3407   3408   3427   3417     1  0.0000000  1.2552000  3
   3408   3407   3405   3424     1  0.0000000  0.6508444  3
   3408   3407   3414   3416     1  0.0000000  1.0460000  1
   3408   3407   3414   3416     1  0.0000000  0.6694400  3
   3408   3409   3413   3423     1  0.0000000  1.0460000  1
   3408   3409   3413   3423     1  0.0000000  0.6694400  3
   3409   3408   3407   3411     1  0.0000000  0.6508444  3
   3409   3408   3427   3417     1  0.0000000  1.2552000  3
   3410   3408   3407   3414     1  0.0000000  1.0460000  1
   3410   3408   3407   3414     1  0.0000000  0.0000000  3
   3410   3408   3407   3411     1  0.0000000  0.6508444  3
   3410   3408   3409   3413     1  0.0000000  1.0460000  1
   3410   3408   3409   3413     1  0.0000000  0.0000000  3
   3410   3408   3409   3422     1  0.0000000  1.0460000  1
   3410   3408   3409   3422     1  0.0000000  0.0000000  3
   3410   3408   3409   3412     1  0.0000000  0.6508444  3
   3410   3408   3427   3417     1  0.0000000  1.2552000  3
   3411   3407   3405   3425     1  0.0000000  1.0460000  1
   3411   3407   3405   3425     1  0.0000000  0.0000000  3
   3411   3407   3405   3424     1  0.0000000  0.6508444  3
   3411   3407   3408   3427     1  0.0000000  0.6508444  3
   3411   3407   3414   3416     1  0.0000000  0.6973333  3
   3412   3409   3408   3427     1  0.0000000  0.6508444  3
   3412   3409   3413   3423     1  0.0000000  0.6973333  3
   3414   3407   3405   3424     1  0.0000000  1.0460000  1
   3414   3407   3405   3424     1  0.0000000  0.0000000  3
   3415   3404   3405   3424     1  0.0000000  0.6508444  3
   3418   3415   3404   3422     1  0.0000000  1.0460000  1
   3418   3415   3404   3422     1  0.0000000  0.0000000  3
   3418   3415   3420   3421     1  0.0000000  0.6973333  3
   3419   3415   3404   3422     1  0.0000000  1.0460000  1
   3419   3415   3404   3422     1  0.0000000  0.0000000  3
   3419   3415   3420   3421     1  0.0000000  0.6973333  3
   3422   3404   3405   3424     1  0.0000000  1.0460000  1
   3422   3404   3405   3424     1  0.0000000  0.0000000  3
   3422   3409   3413   3423     1  0.0000000  0.6973333  3
   3424   3405   3425   3426     1  0.0000000  0.6973333  3
   3428   3429   3431   3435     1  0.0000000  0.6508444  3
   3428   3429   3449   3450     1  0.0000000  1.0460000  1
   3428   3429   3449   3450     1  0.0000000  0.6694400  3
   3428   3439   3444   3445     1  0.0000000  1.0460000  1
   3428   3439   3444   3445     1  0.0000000  0.6694400  3
   3428   3446   3433   3436     1  0.0000000  1.6038667  3
   3429   3428   3439   3442     1  0.0000000  0.6508444  3
   3429   3428   3439   3443     1  0.0000000  0.6508444  3
   3429   3431   3432   3434     1  0.0000000  0.6508444  3
   3429   3431   3438   3440     1  0.0000000  1.0460000  1
   3429   3431   3438   3440     1  0.0000000  0.6694400  3
   3430   3428   3429   3431     1  0.0000000  0.6508444  3
   3430   3428   3429   3449     1  0.0000000  1.0460000  1
   3430   3428   3429   3449     1  0.0000000  0.0000000  3
   3430   3428   3429   3448     1  0.0000000  0.6508444  3
   3430   3428   3439   3444     1  0.0000000  1.0460000  1
   3430   3428   3439   3444     1  0.0000000  0.0000000  3
   3430   3428   3439   3442     1  0.0000000  0.6508444  3
   3430   3428   3439   3443     1  0.0000000  0.6508444  3
   3430   3428   3446   3433     1  0.0000000  1.6038667  3
   3431   3429   3449   3450     1  0.0000000  1.0460000  1
   3431   3429   3449   3450     1  0.0000000  0.6694400  3
   3431   3432   3433   3436     1  0.0000000  0.6508444  3
   3431   3432   3451   3441     1  0.0000000  1.2552000  3
   3432   3431   3429   3448     1  0.0000000  0.6508444  3
   3432   3431   3438   3440     1  0.0000000  1.0460000  1
   3432   3431   3438   3440     1  0.0000000  0.6694400  3
   3432   3433   3437   3447     1  0.0000000  1.0460000  1
   3432   3433   3437   3447     1  0.0000000  0.6694400  3
   3433   3432   3431   3435     1  0.0000000  0.6508444  3
   3433   3432   3451   3441     1  0.0000000  1.2552000  3
   3434   3432   3431   3438     1  0.0000000  1.0460000  1
   3434   3432   3431   3438     1  0.0000000  0.0000000  3
   3434   3432   3431   3435     1  0.0000000  0.6508444  3
   3434   3432   3433   3437     1  0.0000000  1.0460000  1
   3434   3432   3433   3437     1  0.0000000  0.0000000  3
   3434   3432   3433   3446     1  0.0000000  1.0460000  1
   3434   3432   3433   3446     1  0.0000000  0.0000000  3
   3434   3432   3433   3436     1  0.0000000  0.6508444  3
   3434   3432   3451   3441     1  0.0000000  1.2552000  3
   3435   3431   3429   3449     1  0.0000000  1.0460000  1
   3435   3431   3429   3449     1  0.0000000  0.0000000  3
   3435   3431   3429   3448     1  0.0000000  0.6508444  3
   3435   3431   3432   3451     1  0.0000000  0.6508444  3
   3435   3431   3438   3440     1  0.0000000  0.6973333  3
   3436   3433   3432   3451     1  0.0000000  0.6508444  3
   3436   3433   3437   3447     1  0.0000000  0.6973333  3
   3438   3431   3429   3448     1  0.0000000  1.0460000  1
   3438   3431   3429   3448     1  0.0000000  0.0000000  3
   3439   3428   3429   3448     1  0.0000000  0.6508444  3
   3442   3439   3428   3446     1  0.0000000  1.0460000  1
   3442   3439   3428   3446     1  0.0000000  0.0000000  3
   3442   3439   3444   3445     1  0.0000000  0.6973333  3
   3443   3439   3428   3446     1  0.0000000  1.0460000  1
   3443   3439   3428   3446     1  0.0000000  0.0000000  3
   3443   3439   3444   3445     1  0.0000000  0.6973333  3
   3446   3428   3429   3448     1  0.0000000  1.0460000  1
   3446   3428   3429   3448     1  0.0000000  0.0000000  3
   3446   3433   3437   3447     1  0.0000000  0.6973333  3
   3448   3429   3449   3450     1  0.0000000  0.6973333  3
   3453   3455   3457   3459     1  0.0000000  0.6508444  3
   3453   3455   3457   3460     1  0.0000000  0.6508444  3
   3454   3453   3455   3457     1  0.0000000  0.0000000  2
   3454   3453   3455   3456     1  0.0000000  0.0000000  2
   3454   3453   3455   3458     1  0.0000000  0.0000000  2
   3455   3457   3461   3526     1  0.0000000  0.6508444  3
   3456   3455   3457   3461     1  0.0000000  0.6508444  3
   3456   3455   3457   3459     1  0.0000000  0.6508444  3
   3456   3455   3457   3460     1  0.0000000  0.6508444  3
   3457   3461   3462   3471     1  0.0000000  0.6508444  3
   3457   3461   3462   3472     1  0.0000000  0.6508444  3
   3457   3461   3463   3464     1  0.0000000  0.6508444  3
   3457   3461   3463   3466     1  0.0000000  0.6508444  3
   3458   3455   3457   3461     1  0.0000000  0.6508444  3
   3458   3455   3457   3459     1  0.0000000  0.6508444  3
   3458   3455   3457   3460     1  0.0000000  0.6508444  3
   3459   3457   3461   3462     1  0.0000000  0.6508444  3
   3459   3457   3461   3463     1  0.0000000  0.6508444  3
   3459   3457   3461   3526     1  0.0000000  0.6508444  3
   3460   3457   3461   3462     1  0.0000000  0.6508444  3
   3460   3457   3461   3463     1  0.0000000  0.6508444  3
   3460   3457   3461   3526     1  0.0000000  0.6508444  3
   3461   3462   3473   3474     1  0.0000000  0.6508444  3
   3461   3462   3473   3475     1  0.0000000  0.6508444  3
   3461   3463   3465   3467     1  0.0000000  0.6508444  3
   3461   3463   3465   3468     1  0.0000000  0.6508444  3
   3462   3461   3463   3464     1  0.0000000  0.6508444  3
   3462   3461   3463   3466     1  0.0000000  0.6508444  3
   3463   3461   3462   3471     1  0.0000000  0.6508444  3
   3463   3461   3462   3472     1  0.0000000  0.6508444  3
   3464   3463   3465   3469     1  0.0000000  0.6508444  3
   3464   3463   3465   3467     1  0.0000000  0.6508444  3
   3464   3463   3465   3468     1  0.0000000  0.6508444  3
   3464   3463   3461   3526     1  0.0000000  0.6508444  3
   3465   3469   3501   3491     1  180.0000771  6.0668000  2
   3465   3469   3501   3491     1  180.0000771  1.4644000  4
   3465   3463   3461   3526     1  0.0000000  0.6508444  3
   3466   3463   3465   3469     1  0.0000000  0.6508444  3
   3466   3463   3465   3467     1  0.0000000  0.6508444  3
   3466   3463   3465   3468     1  0.0000000  0.6508444  3
   3466   3463   3461   3526     1  0.0000000  0.6508444  3
   3467   3465   3469   3470     1  0.0000000  3.3472000  1
   3467   3465   3469   3470     1  0.0000000  0.0000000  2
   3467   3465   3469   3470     1  180.0000771  0.3347200  3
   3467   3465   3469   3501     1  180.0000771  0.0000000  2
   3468   3465   3469   3470     1  0.0000000  3.3472000  1
   3468   3465   3469   3470     1  0.0000000  0.0000000  2
   3468   3465   3469   3470     1  180.0000771  0.3347200  3
   3468   3465   3469   3501     1  180.0000771  0.0000000  2
   3469   3501   3482   3484     1  0.0000000  1.2552000  3
   3470   3469   3501   3491     1  180.0000771  6.0668000  2
   3470   3469   3501   3491     1  180.0000771  1.4644000  4
   3471   3462   3473   3476     1  0.0000000  0.6508444  3
   3471   3462   3473   3474     1  0.0000000  0.6508444  3
   3471   3462   3473   3475     1  0.0000000  0.6508444  3
   3471   3462   3461   3526     1  0.0000000  0.6508444  3
   3472   3462   3473   3476     1  0.0000000  0.6508444  3
   3472   3462   3473   3474     1  0.0000000  0.6508444  3
   3472   3462   3473   3475     1  0.0000000  0.6508444  3
   3472   3462   3461   3526     1  0.0000000  0.6508444  3
   3473   3476   3525   3515     1  180.0000771  6.0668000  2
   3473   3476   3525   3515     1  180.0000771  1.4644000  4
   3473   3462   3461   3526     1  0.0000000  0.6508444  3
   3474   3473   3476   3477     1  0.0000000  3.3472000  1
   3474   3473   3476   3477     1  0.0000000  0.0000000  2
   3474   3473   3476   3477     1  180.0000771  0.3347200  3
   3474   3473   3476   3525     1  180.0000771  0.0000000  2
   3475   3473   3476   3477     1  0.0000000  3.3472000  1
   3475   3473   3476   3477     1  0.0000000  0.0000000  2
   3475   3473   3476   3477     1  180.0000771  0.3347200  3
   3475   3473   3476   3525     1  180.0000771  0.0000000  2
   3476   3525   3506   3508     1  0.0000000  1.2552000  3
   3477   3476   3525   3515     1  180.0000771  6.0668000  2
   3477   3476   3525   3515     1  180.0000771  1.4644000  4
   3478   3479   3481   3485     1  0.0000000  0.6508444  3
   3478   3479   3499   3500     1  0.0000000  1.0460000  1
   3478   3479   3499   3500     1  0.0000000  0.6694400  3
   3478   3489   3494   3495     1  0.0000000  1.0460000  1
   3478   3489   3494   3495     1  0.0000000  0.6694400  3
   3478   3496   3483   3486     1  0.0000000  1.6038667  3
   3479   3481   3482   3484     1  0.0000000  0.6508444  3
   3479   3481   3488   3490     1  0.0000000  1.0460000  1
   3479   3481   3488   3490     1  0.0000000  0.6694400  3
   3479   3478   3489   3492     1  0.0000000  0.6508444  3
   3479   3478   3489   3493     1  0.0000000  0.6508444  3
   3480   3478   3479   3481     1  0.0000000  0.6508444  3
   3480   3478   3479   3499     1  0.0000000  1.0460000  1
   3480   3478   3479   3499     1  0.0000000  0.0000000  3
   3480   3478   3479   3498     1  0.0000000  0.6508444  3
   3480   3478   3489   3494     1  0.0000000  1.0460000  1
   3480   3478   3489   3494     1  0.0000000  0.0000000  3
   3480   3478   3489   3492     1  0.0000000  0.6508444  3
   3480   3478   3489   3493     1  0.0000000  0.6508444  3
   3480   3478   3496   3483     1  0.0000000  1.6038667  3
   3481   3482   3483   3486     1  0.0000000  0.6508444  3
   3481   3482   3501   3491     1  0.0000000  1.2552000  3
   3481   3479   3499   3500     1  0.0000000  1.0460000  1
   3481   3479   3499   3500     1  0.0000000  0.6694400  3
   3482   3483   3487   3497     1  0.0000000  1.0460000  1
   3482   3483   3487   3497     1  0.0000000  0.6694400  3
   3482   3481   3488   3490     1  0.0000000  1.0460000  1
   3482   3481   3488   3490     1  0.0000000  0.6694400  3
   3482   3481   3479   3498     1  0.0000000  0.6508444  3
   3483   3482   3501   3491     1  0.0000000  1.2552000  3
   3483   3482   3481   3485     1  0.0000000  0.6508444  3
   3484   3482   3483   3487     1  0.0000000  1.0460000  1
   3484   3482   3483   3487     1  0.0000000  0.0000000  3
   3484   3482   3483   3496     1  0.0000000  1.0460000  1
   3484   3482   3483   3496     1  0.0000000  0.0000000  3
   3484   3482   3483   3486     1  0.0000000  0.6508444  3
   3484   3482   3501   3491     1  0.0000000  1.2552000  3
   3484   3482   3481   3488     1  0.0000000  1.0460000  1
   3484   3482   3481   3488     1  0.0000000  0.0000000  3
   3484   3482   3481   3485     1  0.0000000  0.6508444  3
   3485   3481   3482   3501     1  0.0000000  0.6508444  3
   3485   3481   3488   3490     1  0.0000000  0.6973333  3
   3485   3481   3479   3499     1  0.0000000  1.0460000  1
   3485   3481   3479   3499     1  0.0000000  0.0000000  3
   3485   3481   3479   3498     1  0.0000000  0.6508444  3
   3486   3483   3487   3497     1  0.0000000  0.6973333  3
   3486   3483   3482   3501     1  0.0000000  0.6508444  3
   3488   3481   3479   3498     1  0.0000000  1.0460000  1
   3488   3481   3479   3498     1  0.0000000  0.0000000  3
   3489   3478   3479   3498     1  0.0000000  0.6508444  3
   3492   3489   3494   3495     1  0.0000000  0.6973333  3
   3492   3489   3478   3496     1  0.0000000  1.0460000  1
   3492   3489   3478   3496     1  0.0000000  0.0000000  3
   3493   3489   3494   3495     1  0.0000000  0.6973333  3
   3493   3489   3478   3496     1  0.0000000  1.0460000  1
   3493   3489   3478   3496     1  0.0000000  0.0000000  3
   3496   3483   3487   3497     1  0.0000000  0.6973333  3
   3496   3478   3479   3498     1  0.0000000  1.0460000  1
   3496   3478   3479   3498     1  0.0000000  0.0000000  3
   3498   3479   3499   3500     1  0.0000000  0.6973333  3
   3502   3503   3505   3509     1  0.0000000  0.6508444  3
   3502   3503   3523   3524     1  0.0000000  1.0460000  1
   3502   3503   3523   3524     1  0.0000000  0.6694400  3
   3502   3513   3518   3519     1  0.0000000  1.0460000  1
   3502   3513   3518   3519     1  0.0000000  0.6694400  3
   3502   3520   3507   3510     1  0.0000000  1.6038667  3
   3503   3505   3506   3508     1  0.0000000  0.6508444  3
   3503   3505   3512   3514     1  0.0000000  1.0460000  1
   3503   3505   3512   3514     1  0.0000000  0.6694400  3
   3503   3502   3513   3516     1  0.0000000  0.6508444  3
   3503   3502   3513   3517     1  0.0000000  0.6508444  3
   3504   3502   3503   3505     1  0.0000000  0.6508444  3
   3504   3502   3503   3523     1  0.0000000  1.0460000  1
   3504   3502   3503   3523     1  0.0000000  0.0000000  3
   3504   3502   3503   3522     1  0.0000000  0.6508444  3
   3504   3502   3513   3518     1  0.0000000  1.0460000  1
   3504   3502   3513   3518     1  0.0000000  0.0000000  3
   3504   3502   3513   3516     1  0.0000000  0.6508444  3
   3504   3502   3513   3517     1  0.0000000  0.6508444  3
   3504   3502   3520   3507     1  0.0000000  1.6038667  3
   3505   3506   3507   3510     1  0.0000000  0.6508444  3
   3505   3506   3525   3515     1  0.0000000  1.2552000  3
   3505   3503   3523   3524     1  0.0000000  1.0460000  1
   3505   3503   3523   3524     1  0.0000000  0.6694400  3
   3506   3507   3511   3521     1  0.0000000  1.0460000  1
   3506   3507   3511   3521     1  0.0000000  0.6694400  3
   3506   3505   3512   3514     1  0.0000000  1.0460000  1
   3506   3505   3512   3514     1  0.0000000  0.6694400  3
   3506   3505   3503   3522     1  0.0000000  0.6508444  3
   3507   3506   3525   3515     1  0.0000000  1.2552000  3
   3507   3506   3505   3509     1  0.0000000  0.6508444  3
   3508   3506   3507   3511     1  0.0000000  1.0460000  1
   3508   3506   3507   3511     1  0.0000000  0.0000000  3
   3508   3506   3507   3520     1  0.0000000  1.0460000  1
   3508   3506   3507   3520     1  0.0000000  0.0000000  3
   3508   3506   3507   3510     1  0.0000000  0.6508444  3
   3508   3506   3525   3515     1  0.0000000  1.2552000  3
   3508   3506   3505   3512     1  0.0000000  1.0460000  1
   3508   3506   3505   3512     1  0.0000000  0.0000000  3
   3508   3506   3505   3509     1  0.0000000  0.6508444  3
   3509   3505   3506   3525     1  0.0000000  0.6508444  3
   3509   3505   3512   3514     1  0.0000000  0.6973333  3
   3509   3505   3503   3523     1  0.0000000  1.0460000  1
   3509   3505   3503   3523     1  0.0000000  0.0000000  3
   3509   3505   3503   3522     1  0.0000000  0.6508444  3
   3510   3507   3511   3521     1  0.0000000  0.6973333  3
   3510   3507   3506   3525     1  0.0000000  0.6508444  3
   3512   3505   3503   3522     1  0.0000000  1.0460000  1
   3512   3505   3503   3522     1  0.0000000  0.0000000  3
   3513   3502   3503   3522     1  0.0000000  0.6508444  3
   3516   3513   3518   3519     1  0.0000000  0.6973333  3
   3516   3513   3502   3520     1  0.0000000  1.0460000  1
   3516   3513   3502   3520     1  0.0000000  0.0000000  3
   3517   3513   3518   3519     1  0.0000000  0.6973333  3
   3517   3513   3502   3520     1  0.0000000  1.0460000  1
   3517   3513   3502   3520     1  0.0000000  0.0000000  3
   3520   3507   3511   3521     1  0.0000000  0.6973333  3
   3520   3502   3503   3522     1  0.0000000  1.0460000  1
   3520   3502   3503   3522     1  0.0000000  0.0000000  3
   3522   3503   3523   3524     1  0.0000000  0.6973333  3
   3527   3529   3531   3533     1  0.0000000  0.6508444  3
   3527   3529   3531   3534     1  0.0000000  0.6508444  3
   3528   3527   3529   3531     1  0.0000000  0.0000000  2
   3528   3527   3529   3530     1  0.0000000  0.0000000  2
   3528   3527   3529   3532     1  0.0000000  0.0000000  2
   3529   3531   3535   3600     1  0.0000000  0.6508444  3
   3530   3529   3531   3535     1  0.0000000  0.6508444  3
   3530   3529   3531   3533     1  0.0000000  0.6508444  3
   3530   3529   3531   3534     1  0.0000000  0.6508444  3
   3531   3535   3536   3545     1  0.0000000  0.6508444  3
   3531   3535   3536   3546     1  0.0000000  0.6508444  3
   3531   3535   3537   3538     1  0.0000000  0.6508444  3
   3531   3535   3537   3540     1  0.0000000  0.6508444  3
   3532   3529   3531   3535     1  0.0000000  0.6508444  3
   3532   3529   3531   3533     1  0.0000000  0.6508444  3
   3532   3529   3531   3534     1  0.0000000  0.6508444  3
   3533   3531   3535   3536     1  0.0000000  0.6508444  3
   3533   3531   3535   3537     1  0.0000000  0.6508444  3
   3533   3531   3535   3600     1  0.0000000  0.6508444  3
   3534   3531   3535   3536     1  0.0000000  0.6508444  3
   3534   3531   3535   3537     1  0.0000000  0.6508444  3
   3534   3531   3535   3600     1  0.0000000  0.6508444  3
   3535   3536   3547   3548     1  0.0000000  0.6508444  3
   3535   3536   3547   3549     1  0.0000000  0.6508444  3
   3535   3537   3539   3541     1  0.0000000  0.6508444  3
   3535   3537   3539   3542     1  0.0000000  0.6508444  3
   3536   3535   3537   3538     1  0.0000000  0.6508444  3
   3536   3535   3537   3540     1  0.0000000  0.6508444  3
   3537   3535   3536   3545     1  0.0000000  0.6508444  3
   3537   3535   3536   3546     1  0.0000000  0.6508444  3
   3538   3537   3535   3600     1  0.0000000  0.6508444  3
   3538   3537   3539   3543     1  0.0000000  0.6508444  3
   3538   3537   3539   3541     1  0.0000000  0.6508444  3
   3538   3537   3539   3542     1  0.0000000  0.6508444  3
   3539   3537   3535   3600     1  0.0000000  0.6508444  3
   3539   3543   3575   3565     1  180.0000771  6.0668000  2
   3539   3543   3575   3565     1  180.0000771  1.4644000  4
   3540   3537   3535   3600     1  0.0000000  0.6508444  3
   3540   3537   3539   3543     1  0.0000000  0.6508444  3
   3540   3537   3539   3541     1  0.0000000  0.6508444  3
   3540   3537   3539   3542     1  0.0000000  0.6508444  3
   3541   3539   3543   3544     1  0.0000000  3.3472000  1
   3541   3539   3543   3544     1  0.0000000  0.0000000  2
   3541   3539   3543   3544     1  180.0000771  0.3347200  3
   3541   3539   3543   3575     1  180.0000771  0.0000000  2
   3542   3539   3543   3544     1  0.0000000  3.3472000  1
   3542   3539   3543   3544     1  0.0000000  0.0000000  2
   3542   3539   3543   3544     1  180.0000771  0.3347200  3
   3542   3539   3543   3575     1  180.0000771  0.0000000  2
   3543   3575   3556   3558     1  0.0000000  1.2552000  3
   3544   3543   3575   3565     1  180.0000771  6.0668000  2
   3544   3543   3575   3565     1  180.0000771  1.4644000  4
   3545   3536   3535   3600     1  0.0000000  0.6508444  3
   3545   3536   3547   3550     1  0.0000000  0.6508444  3
   3545   3536   3547   3548     1  0.0000000  0.6508444  3
   3545   3536   3547   3549     1  0.0000000  0.6508444  3
   3546   3536   3535   3600     1  0.0000000  0.6508444  3
   3546   3536   3547   3550     1  0.0000000  0.6508444  3
   3546   3536   3547   3548     1  0.0000000  0.6508444  3
   3546   3536   3547   3549     1  0.0000000  0.6508444  3
   3547   3536   3535   3600     1  0.0000000  0.6508444  3
   3547   3550   3599   3589     1  180.0000771  6.0668000  2
   3547   3550   3599   3589     1  180.0000771  1.4644000  4
   3548   3547   3550   3551     1  0.0000000  3.3472000  1
   3548   3547   3550   3551     1  0.0000000  0.0000000  2
   3548   3547   3550   3551     1  180.0000771  0.3347200  3
   3548   3547   3550   3599     1  180.0000771  0.0000000  2
   3549   3547   3550   3551     1  0.0000000  3.3472000  1
   3549   3547   3550   3551     1  0.0000000  0.0000000  2
   3549   3547   3550   3551     1  180.0000771  0.3347200  3
   3549   3547   3550   3599     1  180.0000771  0.0000000  2
   3550   3599   3580   3582     1  0.0000000  1.2552000  3
   3551   3550   3599   3589     1  180.0000771  6.0668000  2
   3551   3550   3599   3589     1  180.0000771  1.4644000  4
   3552   3553   3555   3559     1  0.0000000  0.6508444  3
   3552   3553   3573   3574     1  0.0000000  1.0460000  1
   3552   3553   3573   3574     1  0.0000000  0.6694400  3
   3552   3563   3568   3569     1  0.0000000  1.0460000  1
   3552   3563   3568   3569     1  0.0000000  0.6694400  3
   3552   3570   3557   3560     1  0.0000000  1.6038667  3
   3553   3552   3563   3566     1  0.0000000  0.6508444  3
   3553   3552   3563   3567     1  0.0000000  0.6508444  3
   3553   3555   3556   3558     1  0.0000000  0.6508444  3
   3553   3555   3562   3564     1  0.0000000  1.0460000  1
   3553   3555   3562   3564     1  0.0000000  0.6694400  3
   3554   3552   3553   3555     1  0.0000000  0.6508444  3
   3554   3552   3553   3573     1  0.0000000  1.0460000  1
   3554   3552   3553   3573     1  0.0000000  0.0000000  3
   3554   3552   3553   3572     1  0.0000000  0.6508444  3
   3554   3552   3563   3568     1  0.0000000  1.0460000  1
   3554   3552   3563   3568     1  0.0000000  0.0000000  3
   3554   3552   3563   3566     1  0.0000000  0.6508444  3
   3554   3552   3563   3567     1  0.0000000  0.6508444  3
   3554   3552   3570   3557     1  0.0000000  1.6038667  3
   3555   3553   3573   3574     1  0.0000000  1.0460000  1
   3555   3553   3573   3574     1  0.0000000  0.6694400  3
   3555   3556   3557   3560     1  0.0000000  0.6508444  3
   3555   3556   3575   3565     1  0.0000000  1.2552000  3
   3556   3555   3553   3572     1  0.0000000  0.6508444  3
   3556   3555   3562   3564     1  0.0000000  1.0460000  1
   3556   3555   3562   3564     1  0.0000000  0.6694400  3
   3556   3557   3561   3571     1  0.0000000  1.0460000  1
   3556   3557   3561   3571     1  0.0000000  0.6694400  3
   3557   3556   3555   3559     1  0.0000000  0.6508444  3
   3557   3556   3575   3565     1  0.0000000  1.2552000  3
   3558   3556   3555   3562     1  0.0000000  1.0460000  1
   3558   3556   3555   3562     1  0.0000000  0.0000000  3
   3558   3556   3555   3559     1  0.0000000  0.6508444  3
   3558   3556   3557   3561     1  0.0000000  1.0460000  1
   3558   3556   3557   3561     1  0.0000000  0.0000000  3
   3558   3556   3557   3570     1  0.0000000  1.0460000  1
   3558   3556   3557   3570     1  0.0000000  0.0000000  3
   3558   3556   3557   3560     1  0.0000000  0.6508444  3
   3558   3556   3575   3565     1  0.0000000  1.2552000  3
   3559   3555   3553   3573     1  0.0000000  1.0460000  1
   3559   3555   3553   3573     1  0.0000000  0.0000000  3
   3559   3555   3553   3572     1  0.0000000  0.6508444  3
   3559   3555   3556   3575     1  0.0000000  0.6508444  3
   3559   3555   3562   3564     1  0.0000000  0.6973333  3
   3560   3557   3556   3575     1  0.0000000  0.6508444  3
   3560   3557   3561   3571     1  0.0000000  0.6973333  3
   3562   3555   3553   3572     1  0.0000000  1.0460000  1
   3562   3555   3553   3572     1  0.0000000  0.0000000  3
   3563   3552   3553   3572     1  0.0000000  0.6508444  3
   3566   3563   3552   3570     1  0.0000000  1.0460000  1
   3566   3563   3552   3570     1  0.0000000  0.0000000  3
   3566   3563   3568   3569     1  0.0000000  0.6973333  3
   3567   3563   3552   3570     1  0.0000000  1.0460000  1
   3567   3563   3552   3570     1  0.0000000  0.0000000  3
   3567   3563   3568   3569     1  0.0000000  0.6973333  3
   3570   3552   3553   3572     1  0.0000000  1.0460000  1
   3570   3552   3553   3572     1  0.0000000  0.0000000  3
   3570   3557   3561   3571     1  0.0000000  0.6973333  3
   3572   3553   3573   3574     1  0.0000000  0.6973333  3
   3576   3577   3579   3583     1  0.0000000  0.6508444  3
   3576   3577   3597   3598     1  0.0000000  1.0460000  1
   3576   3577   3597   3598     1  0.0000000  0.6694400  3
   3576   3587   3592   3593     1  0.0000000  1.0460000  1
   3576   3587   3592   3593     1  0.0000000  0.6694400  3
   3576   3594   3581   3584     1  0.0000000  1.6038667  3
   3577   3576   3587   3590     1  0.0000000  0.6508444  3
   3577   3576   3587   3591     1  0.0000000  0.6508444  3
   3577   3579   3580   3582     1  0.0000000  0.6508444  3
   3577   3579   3586   3588     1  0.0000000  1.0460000  1
   3577   3579   3586   3588     1  0.0000000  0.6694400  3
   3578   3576   3577   3579     1  0.0000000  0.6508444  3
   3578   3576   3577   3597     1  0.0000000  1.0460000  1
   3578   3576   3577   3597     1  0.0000000  0.0000000  3
   3578   3576   3577   3596     1  0.0000000  0.6508444  3
   3578   3576   3587   3592     1  0.0000000  1.0460000  1
   3578   3576   3587   3592     1  0.0000000  0.0000000  3
   3578   3576   3587   3590     1  0.0000000  0.6508444  3
   3578   3576   3587   3591     1  0.0000000  0.6508444  3
   3578   3576   3594   3581     1  0.0000000  1.6038667  3
   3579   3577   3597   3598     1  0.0000000  1.0460000  1
   3579   3577   3597   3598     1  0.0000000  0.6694400  3
   3579   3580   3581   3584     1  0.0000000  0.6508444  3
   3579   3580   3599   3589     1  0.0000000  1.2552000  3
   3580   3579   3577   3596     1  0.0000000  0.6508444  3
   3580   3579   3586   3588     1  0.0000000  1.0460000  1
   3580   3579   3586   3588     1  0.0000000  0.6694400  3
   3580   3581   3585   3595     1  0.0000000  1.0460000  1
   3580   3581   3585   3595     1  0.0000000  0.6694400  3
   3581   3580   3579   3583     1  0.0000000  0.6508444  3
   3581   3580   3599   3589     1  0.0000000  1.2552000  3
   3582   3580   3579   3586     1  0.0000000  1.0460000  1
   3582   3580   3579   3586     1  0.0000000  0.0000000  3
   3582   3580   3579   3583     1  0.0000000  0.6508444  3
   3582   3580   3581   3585     1  0.0000000  1.0460000  1
   3582   3580   3581   3585     1  0.0000000  0.0000000  3
   3582   3580   3581   3594     1  0.0000000  1.0460000  1
   3582   3580   3581   3594     1  0.0000000  0.0000000  3
   3582   3580   3581   3584     1  0.0000000  0.6508444  3
   3582   3580   3599   3589     1  0.0000000  1.2552000  3
   3583   3579   3577   3597     1  0.0000000  1.0460000  1
   3583   3579   3577   3597     1  0.0000000  0.0000000  3
   3583   3579   3577   3596     1  0.0000000  0.6508444  3
   3583   3579   3580   3599     1  0.0000000  0.6508444  3
   3583   3579   3586   3588     1  0.0000000  0.6973333  3
   3584   3581   3580   3599     1  0.0000000  0.6508444  3
   3584   3581   3585   3595     1  0.0000000  0.6973333  3
   3586   3579   3577   3596     1  0.0000000  1.0460000  1
   3586   3579   3577   3596     1  0.0000000  0.0000000  3
   3587   3576   3577   3596     1  0.0000000  0.6508444  3
   3590   3587   3576   3594     1  0.0000000  1.0460000  1
   3590   3587   3576   3594     1  0.0000000  0.0000000  3
   3590   3587   3592   3593     1  0.0000000  0.6973333  3
   3591   3587   3576   3594     1  0.0000000  1.0460000  1
   3591   3587   3576   3594     1  0.0000000  0.0000000  3
   3591   3587   3592   3593     1  0.0000000  0.6973333  3
   3594   3576   3577   3596     1  0.0000000  1.0460000  1
   3594   3576   3577   3596     1  0.0000000  0.0000000  3
   3594   3581   3585   3595     1  0.0000000  0.6973333  3
   3596   3577   3597   3598     1  0.0000000  0.6973333  3
   3601   3603   3605   3607     1  0.0000000  0.6508444  3
   3601   3603   3605   3608     1  0.0000000  0.6508444  3
   3602   3601   3603   3605     1  0.0000000  0.0000000  2
   3602   3601   3603   3604     1  0.0000000  0.0000000  2
   3602   3601   3603   3606     1  0.0000000  0.0000000  2
   3603   3605   3609   3674     1  0.0000000  0.6508444  3
   3604   3603   3605   3609     1  0.0000000  0.6508444  3
   3604   3603   3605   3607     1  0.0000000  0.6508444  3
   3604   3603   3605   3608     1  0.0000000  0.6508444  3
   3605   3609   3610   3619     1  0.0000000  0.6508444  3
   3605   3609   3610   3620     1  0.0000000  0.6508444  3
   3605   3609   3611   3612     1  0.0000000  0.6508444  3
   3605   3609   3611   3614     1  0.0000000  0.6508444  3
   3606   3603   3605   3609     1  0.0000000  0.6508444  3
   3606   3603   3605   3607     1  0.0000000  0.6508444  3
   3606   3603   3605   3608     1  0.0000000  0.6508444  3
   3607   3605   3609   3610     1  0.0000000  0.6508444  3
   3607   3605   3609   3611     1  0.0000000  0.6508444  3
   3607   3605   3609   3674     1  0.0000000  0.6508444  3
   3608   3605   3609   3610     1  0.0000000  0.6508444  3
   3608   3605   3609   3611     1  0.0000000  0.6508444  3
   3608   3605   3609   3674     1  0.0000000  0.6508444  3
   3609   3610   3621   3622     1  0.0000000  0.6508444  3
   3609   3610   3621   3623     1  0.0000000  0.6508444  3
   3609   3611   3613   3615     1  0.0000000  0.6508444  3
   3609   3611   3613   3616     1  0.0000000  0.6508444  3
   3610   3609   3611   3612     1  0.0000000  0.6508444  3
   3610   3609   3611   3614     1  0.0000000  0.6508444  3
   3611   3609   3610   3619     1  0.0000000  0.6508444  3
   3611   3609   3610   3620     1  0.0000000  0.6508444  3
   3612   3611   3613   3617     1  0.0000000  0.6508444  3
   3612   3611   3613   3615     1  0.0000000  0.6508444  3
   3612   3611   3613   3616     1  0.0000000  0.6508444  3
   3612   3611   3609   3674     1  0.0000000  0.6508444  3
   3613   3617   3649   3639     1  180.0000771  6.0668000  2
   3613   3617   3649   3639     1  180.0000771  1.4644000  4
   3613   3611   3609   3674     1  0.0000000  0.6508444  3
   3614   3611   3613   3617     1  0.0000000  0.6508444  3
   3614   3611   3613   3615     1  0.0000000  0.6508444  3
   3614   3611   3613   3616     1  0.0000000  0.6508444  3
   3614   3611   3609   3674     1  0.0000000  0.6508444  3
   3615   3613   3617   3618     1  0.0000000  3.3472000  1
   3615   3613   3617   3618     1  0.0000000  0.0000000  2
   3615   3613   3617   3618     1  180.0000771  0.3347200  3
   3615   3613   3617   3649     1  180.0000771  0.0000000  2
   3616   3613   3617   3618     1  0.0000000  3.3472000  1
   3616   3613   3617   3618     1  0.0000000  0.0000000  2
   3616   3613   3617   3618     1  180.0000771  0.3347200  3
   3616   3613   3617   3649     1  180.0000771  0.0000000  2
   3617   3649   3630   3632     1  0.0000000  1.2552000  3
   3618   3617   3649   3639     1  180.0000771  6.0668000  2
   3618   3617   3649   3639     1  180.0000771  1.4644000  4
   3619   3610   3621   3624     1  0.0000000  0.6508444  3
   3619   3610   3621   3622     1  0.0000000  0.6508444  3
   3619   3610   3621   3623     1  0.0000000  0.6508444  3
   3619   3610   3609   3674     1  0.0000000  0.6508444  3
   3620   3610   3621   3624     1  0.0000000  0.6508444  3
   3620   3610   3621   3622     1  0.0000000  0.6508444  3
   3620   3610   3621   3623     1  0.0000000  0.6508444  3
   3620   3610   3609   3674     1  0.0000000  0.6508444  3
   3621   3624   3673   3663     1  180.0000771  6.0668000  2
   3621   3624   3673   3663     1  180.0000771  1.4644000  4
   3621   3610   3609   3674     1  0.0000000  0.6508444  3
   3622   3621   3624   3625     1  0.0000000  3.3472000  1
   3622   3621   3624   3625     1  0.0000000  0.0000000  2
   3622   3621   3624   3625     1  180.0000771  0.3347200  3
   3622   3621   3624   3673     1  180.0000771  0.0000000  2
   3623   3621   3624   3625     1  0.0000000  3.3472000  1
   3623   3621   3624   3625     1  0.0000000  0.0000000  2
   3623   3621   3624   3625     1  180.0000771  0.3347200  3
   3623   3621   3624   3673     1  180.0000771  0.0000000  2
   3624   3673   3654   3656     1  0.0000000  1.2552000  3
   3625   3624   3673   3663     1  180.0000771  6.0668000  2
   3625   3624   3673   3663     1  180.0000771  1.4644000  4
   3626   3627   3629   3633     1  0.0000000  0.6508444  3
   3626   3627   3647   3648     1  0.0000000  1.0460000  1
   3626   3627   3647   3648     1  0.0000000  0.6694400  3
   3626   3637   3642   3643     1  0.0000000  1.0460000  1
   3626   3637   3642   3643     1  0.0000000  0.6694400  3
   3626   3644   3631   3634     1  0.0000000  1.6038667  3
   3627   3629   3630   3632     1  0.0000000  0.6508444  3
   3627   3629   3636   3638     1  0.0000000  1.0460000  1
   3627   3629   3636   3638     1  0.0000000  0.6694400  3
   3627   3626   3637   3640     1  0.0000000  0.6508444  3
   3627   3626   3637   3641     1  0.0000000  0.6508444  3
   3628   3626   3627   3629     1  0.0000000  0.6508444  3
   3628   3626   3627   3647     1  0.0000000  1.0460000  1
   3628   3626   3627   3647     1  0.0000000  0.0000000  3
   3628   3626   3627   3646     1  0.0000000  0.6508444  3
   3628   3626   3637   3642     1  0.0000000  1.0460000  1
   3628   3626   3637   3642     1  0.0000000  0.0000000  3
   3628   3626   3637   3640     1  0.0000000  0.6508444  3
   3628   3626   3637   3641     1  0.0000000  0.6508444  3
   3628   3626   3644   3631     1  0.0000000  1.6038667  3
   3629   3630   3631   3634     1  0.0000000  0.6508444  3
   3629   3630   3649   3639     1  0.0000000  1.2552000  3
   3629   3627   3647   3648     1  0.0000000  1.0460000  1
   3629   3627   3647   3648     1  0.0000000  0.6694400  3
   3630   3631   3635   3645     1  0.0000000  1.0460000  1
   3630   3631   3635   3645     1  0.0000000  0.6694400  3
   3630   3629   3636   3638     1  0.0000000  1.0460000  1
   3630   3629   3636   3638     1  0.0000000  0.6694400  3
   3630   3629   3627   3646     1  0.0000000  0.6508444  3
   3631   3630   3649   3639     1  0.0000000  1.2552000  3
   3631   3630   3629   3633     1  0.0000000  0.6508444  3
   3632   3630   3631   3635     1  0.0000000  1.0460000  1
   3632   3630   3631   3635     1  0.0000000  0.0000000  3
   3632   3630   3631   3644     1  0.0000000  1.0460000  1
   3632   3630   3631   3644     1  0.0000000  0.0000000  3
   3632   3630   3631   3634     1  0.0000000  0.6508444  3
   3632   3630   3649   3639     1  0.0000000  1.2552000  3
   3632   3630   3629   3636     1  0.0000000  1.0460000  1
   3632   3630   3629   3636     1  0.0000000  0.0000000  3
   3632   3630   3629   3633     1  0.0000000  0.6508444  3
   3633   3629   3630   3649     1  0.0000000  0.6508444  3
   3633   3629   3636   3638     1  0.0000000  0.6973333  3
   3633   3629   3627   3647     1  0.0000000  1.0460000  1
   3633   3629   3627   3647     1  0.0000000  0.0000000  3
   3633   3629   3627   3646     1  0.0000000  0.6508444  3
   3634   3631   3635   3645     1  0.0000000  0.6973333  3
   3634   3631   3630   3649     1  0.0000000  0.6508444  3
   3636   3629   3627   3646     1  0.0000000  1.0460000  1
   3636   3629   3627   3646     1  0.0000000  0.0000000  3
   3637   3626   3627   3646     1  0.0000000  0.6508444  3
   3640   3637   3642   3643     1  0.0000000  0.6973333  3
   3640   3637   3626   3644     1  0.0000000  1.0460000  1
   3640   3637   3626   3644     1  0.0000000  0.0000000  3
   3641   3637   3642   3643     1  0.0000000  0.6973333  3
   3641   3637   3626   3644     1  0.0000000  1.0460000  1
   3641   3637   3626   3644     1  0.0000000  0.0000000  3
   3644   3631   3635   3645     1  0.0000000  0.6973333  3
   3644   3626   3627   3646     1  0.0000000  1.0460000  1
   3644   3626   3627   3646     1  0.0000000  0.0000000  3
   3646   3627   3647   3648     1  0.0000000  0.6973333  3
   3650   3651   3653   3657     1  0.0000000  0.6508444  3
   3650   3651   3671   3672     1  0.0000000  1.0460000  1
   3650   3651   3671   3672     1  0.0000000  0.6694400  3
   3650   3661   3666   3667     1  0.0000000  1.0460000  1
   3650   3661   3666   3667     1  0.0000000  0.6694400  3
   3650   3668   3655   3658     1  0.0000000  1.6038667  3
   3651   3653   3654   3656     1  0.0000000  0.6508444  3
   3651   3653   3660   3662     1  0.0000000  1.0460000  1
   3651   3653   3660   3662     1  0.0000000  0.6694400  3
   3651   3650   3661   3664     1  0.0000000  0.6508444  3
   3651   3650   3661   3665     1  0.0000000  0.6508444  3
   3652   3650   3651   3653     1  0.0000000  0.6508444  3
   3652   3650   3651   3671     1  0.0000000  1.0460000  1
   3652   3650   3651   3671     1  0.0000000  0.0000000  3
   3652   3650   3651   3670     1  0.0000000  0.6508444  3
   3652   3650   3661   3666     1  0.0000000  1.0460000  1
   3652   3650   3661   3666     1  0.0000000  0.0000000  3
   3652   3650   3661   3664     1  0.0000000  0.6508444  3
   3652   3650   3661   3665     1  0.0000000  0.6508444  3
   3652   3650   3668   3655     1  0.0000000  1.6038667  3
   3653   3654   3655   3658     1  0.0000000  0.6508444  3
   3653   3654   3673   3663     1  0.0000000  1.2552000  3
   3653   3651   3671   3672     1  0.0000000  1.0460000  1
   3653   3651   3671   3672     1  0.0000000  0.6694400  3
   3654   3655   3659   3669     1  0.0000000  1.0460000  1
   3654   3655   3659   3669     1  0.0000000  0.6694400  3
   3654   3653   3660   3662     1  0.0000000  1.0460000  1
   3654   3653   3660   3662     1  0.0000000  0.6694400  3
   3654   3653   3651   3670     1  0.0000000  0.6508444  3
   3655   3654   3673   3663     1  0.0000000  1.2552000  3
   3655   3654   3653   3657     1  0.0000000  0.6508444  3
   3656   3654   3655   3659     1  0.0000000  1.0460000  1
   3656   3654   3655   3659     1  0.0000000  0.0000000  3
   3656   3654   3655   3668     1  0.0000000  1.0460000  1
   3656   3654   3655   3668     1  0.0000000  0.0000000  3
   3656   3654   3655   3658     1  0.0000000  0.6508444  3
   3656   3654   3673   3663     1  0.0000000  1.2552000  3
   3656   3654   3653   3660     1  0.0000000  1.0460000  1
   3656   3654   3653   3660     1  0.0000000  0.0000000  3
   3656   3654   3653   3657     1  0.0000000  0.6508444  3
   3657   3653   3654   3673     1  0.0000000  0.6508444  3
   3657   3653   3660   3662     1  0.0000000  0.6973333  3
   3657   3653   3651   3671     1  0.0000000  1.0460000  1
   3657   3653   3651   3671     1  0.0000000  0.0000000  3
   3657   3653   3651   3670     1  0.0000000  0.6508444  3
   3658   3655   3659   3669     1  0.0000000  0.6973333  3
   3658   3655   3654   3673     1  0.0000000  0.6508444  3
   3660   3653   3651   3670     1  0.0000000  1.0460000  1
   3660   3653   3651   3670     1  0.0000000  0.0000000  3
   3661   3650   3651   3670     1  0.0000000  0.6508444  3
   3664   3661   3666   3667     1  0.0000000  0.6973333  3
   3664   3661   3650   3668     1  0.0000000  1.0460000  1
   3664   3661   3650   3668     1  0.0000000  0.0000000  3
   3665   3661   3666   3667     1  0.0000000  0.6973333  3
   3665   3661   3650   3668     1  0.0000000  1.0460000  1
   3665   3661   3650   3668     1  0.0000000  0.0000000  3
   3668   3655   3659   3669     1  0.0000000  0.6973333  3
   3668   3650   3651   3670     1  0.0000000  1.0460000  1
   3668   3650   3651   3670     1  0.0000000  0.0000000  3
   3670   3651   3671   3672     1  0.0000000  0.6973333  3
   3675   3677   3679   3681     1  0.0000000  0.6508444  3
   3675   3677   3679   3682     1  0.0000000  0.6508444  3
   3676   3675   3677   3679     1  0.0000000  0.0000000  2
   3676   3675   3677   3678     1  0.0000000  0.0000000  2
   3676   3675   3677   3680     1  0.0000000  0.0000000  2
   3677   3679   3683   3748     1  0.0000000  0.6508444  3
   3678   3677   3679   3683     1  0.0000000  0.6508444  3
   3678   3677   3679   3681     1  0.0000000  0.6508444  3
   3678   3677   3679   3682     1  0.0000000  0.6508444  3
   3679   3683   3684   3693     1  0.0000000  0.6508444  3
   3679   3683   3684   3694     1  0.0000000  0.6508444  3
   3679   3683   3685   3686     1  0.0000000  0.6508444  3
   3679   3683   3685   3688     1  0.0000000  0.6508444  3
   3680   3677   3679   3683     1  0.0000000  0.6508444  3
   3680   3677   3679   3681     1  0.0000000  0.6508444  3
   3680   3677   3679   3682     1  0.0000000  0.6508444  3
   3681   3679   3683   3684     1  0.0000000  0.6508444  3
   3681   3679   3683   3685     1  0.0000000  0.6508444  3
   3681   3679   3683   3748     1  0.0000000  0.6508444  3
   3682   3679   3683   3684     1  0.0000000  0.6508444  3
   3682   3679   3683   3685     1  0.0000000  0.6508444  3
   3682   3679   3683   3748     1  0.0000000  0.6508444  3
   3683   3684   3695   3696     1  0.0000000  0.6508444  3
   3683   3684   3695   3697     1  0.0000000  0.6508444  3
   3683   3685   3687   3689     1  0.0000000  0.6508444  3
   3683   3685   3687   3690     1  0.0000000  0.6508444  3
   3684   3683   3685   3686     1  0.0000000  0.6508444  3
   3684   3683   3685   3688     1  0.0000000  0.6508444  3
   3685   3683   3684   3693     1  0.0000000  0.6508444  3
   3685   3683   3684   3694     1  0.0000000  0.6508444  3
   3686   3685   3683   3748     1  0.0000000  0.6508444  3
   3686   3685   3687   3691     1  0.0000000  0.6508444  3
   3686   3685   3687   3689     1  0.0000000  0.6508444  3
   3686   3685   3687   3690     1  0.0000000  0.6508444  3
   3687   3685   3683   3748     1  0.0000000  0.6508444  3
   3687   3691   3723   3713     1  180.0000771  6.0668000  2
   3687   3691   3723   3713     1  180.0000771  1.4644000  4
   3688   3685   3683   3748     1  0.0000000  0.6508444  3
   3688   3685   3687   3691     1  0.0000000  0.6508444  3
   3688   3685   3687   3689     1  0.0000000  0.6508444  3
   3688   3685   3687   3690     1  0.0000000  0.6508444  3
   3689   3687   3691   3692     1  0.0000000  3.3472000  1
   3689   3687   3691   3692     1  0.0000000  0.0000000  2
   3689   3687   3691   3692     1  180.0000771  0.3347200  3
   3689   3687   3691   3723     1  180.0000771  0.0000000  2
   3690   3687   3691   3692     1  0.0000000  3.3472000  1
   3690   3687   3691   3692     1  0.0000000  0.0000000  2
   3690   3687   3691   3692     1  180.0000771  0.3347200  3
   3690   3687   3691   3723     1  180.0000771  0.0000000  2
   3691   3723   3704   3706     1  0.0000000  1.2552000  3
   3692   3691   3723   3713     1  180.0000771  6.0668000  2
   3692   3691   3723   3713     1  180.0000771  1.4644000  4
   3693   3684   3683   3748     1  0.0000000  0.6508444  3
   3693   3684   3695   3698     1  0.0000000  0.6508444  3
   3693   3684   3695   3696     1  0.0000000  0.6508444  3
   3693   3684   3695   3697     1  0.0000000  0.6508444  3
   3694   3684   3683   3748     1  0.0000000  0.6508444  3
   3694   3684   3695   3698     1  0.0000000  0.6508444  3
   3694   3684   3695   3696     1  0.0000000  0.6508444  3
   3694   3684   3695   3697     1  0.0000000  0.6508444  3
   3695   3684   3683   3748     1  0.0000000  0.6508444  3
   3695   3698   3747   3737     1  180.0000771  6.0668000  2
   3695   3698   3747   3737     1  180.0000771  1.4644000  4
   3696   3695   3698   3699     1  0.0000000  3.3472000  1
   3696   3695   3698   3699     1  0.0000000  0.0000000  2
   3696   3695   3698   3699     1  180.0000771  0.3347200  3
   3696   3695   3698   3747     1  180.0000771  0.0000000  2
   3697   3695   3698   3699     1  0.0000000  3.3472000  1
   3697   3695   3698   3699     1  0.0000000  0.0000000  2
   3697   3695   3698   3699     1  180.0000771  0.3347200  3
   3697   3695   3698   3747     1  180.0000771  0.0000000  2
   3698   3747   3728   3730     1  0.0000000  1.2552000  3
   3699   3698   3747   3737     1  180.0000771  6.0668000  2
   3699   3698   3747   3737     1  180.0000771  1.4644000  4
   3700   3701   3703   3707     1  0.0000000  0.6508444  3
   3700   3701   3721   3722     1  0.0000000  1.0460000  1
   3700   3701   3721   3722     1  0.0000000  0.6694400  3
   3700   3711   3716   3717     1  0.0000000  1.0460000  1
   3700   3711   3716   3717     1  0.0000000  0.6694400  3
   3700   3718   3705   3708     1  0.0000000  1.6038667  3
   3701   3700   3711   3714     1  0.0000000  0.6508444  3
   3701   3700   3711   3715     1  0.0000000  0.6508444  3
   3701   3703   3704   3706     1  0.0000000  0.6508444  3
   3701   3703   3710   3712     1  0.0000000  1.0460000  1
   3701   3703   3710   3712     1  0.0000000  0.6694400  3
   3702   3700   3701   3703     1  0.0000000  0.6508444  3
   3702   3700   3701   3721     1  0.0000000  1.0460000  1
   3702   3700   3701   3721     1  0.0000000  0.0000000  3
   3702   3700   3701   3720     1  0.0000000  0.6508444  3
   3702   3700   3711   3716     1  0.0000000  1.0460000  1
   3702   3700   3711   3716     1  0.0000000  0.0000000  3
   3702   3700   3711   3714     1  0.0000000  0.6508444  3
   3702   3700   3711   3715     1  0.0000000  0.6508444  3
   3702   3700   3718   3705     1  0.0000000  1.6038667  3
   3703   3701   3721   3722     1  0.0000000  1.0460000  1
   3703   3701   3721   3722     1  0.0000000  0.6694400  3
   3703   3704   3705   3708     1  0.0000000  0.6508444  3
   3703   3704   3723   3713     1  0.0000000  1.2552000  3
   3704   3703   3701   3720     1  0.0000000  0.6508444  3
   3704   3703   3710   3712     1  0.0000000  1.0460000  1
   3704   3703   3710   3712     1  0.0000000  0.6694400  3
   3704   3705   3709   3719     1  0.0000000  1.0460000  1
   3704   3705   3709   3719     1  0.0000000  0.6694400  3
   3705   3704   3703   3707     1  0.0000000  0.6508444  3
   3705   3704   3723   3713     1  0.0000000  1.2552000  3
   3706   3704   3703   3710     1  0.0000000  1.0460000  1
   3706   3704   3703   3710     1  0.0000000  0.0000000  3
   3706   3704   3703   3707     1  0.0000000  0.6508444  3
   3706   3704   3705   3709     1  0.0000000  1.0460000  1
   3706   3704   3705   3709     1  0.0000000  0.0000000  3
   3706   3704   3705   3718     1  0.0000000  1.0460000  1
   3706   3704   3705   3718     1  0.0000000  0.0000000  3
   3706   3704   3705   3708     1  0.0000000  0.6508444  3
   3706   3704   3723   3713     1  0.0000000  1.2552000  3
   3707   3703   3701   3721     1  0.0000000  1.0460000  1
   3707   3703   3701   3721     1  0.0000000  0.0000000  3
   3707   3703   3701   3720     1  0.0000000  0.6508444  3
   3707   3703   3704   3723     1  0.0000000  0.6508444  3
   3707   3703   3710   3712     1  0.0000000  0.6973333  3
   3708   3705   3704   3723     1  0.0000000  0.6508444  3
   3708   3705   3709   3719     1  0.0000000  0.6973333  3
   3710   3703   3701   3720     1  0.0000000  1.0460000  1
   3710   3703   3701   3720     1  0.0000000  0.0000000  3
   3711   3700   3701   3720     1  0.0000000  0.6508444  3
   3714   3711   3700   3718     1  0.0000000  1.0460000  1
   3714   3711   3700   3718     1  0.0000000  0.0000000  3
   3714   3711   3716   3717     1  0.0000000  0.6973333  3
   3715   3711   3700   3718     1  0.0000000  1.0460000  1
   3715   3711   3700   3718     1  0.0000000  0.0000000  3
   3715   3711   3716   3717     1  0.0000000  0.6973333  3
   3718   3700   3701   3720     1  0.0000000  1.0460000  1
   3718   3700   3701   3720     1  0.0000000  0.0000000  3
   3718   3705   3709   3719     1  0.0000000  0.6973333  3
   3720   3701   3721   3722     1  0.0000000  0.6973333  3
   3724   3725   3727   3731     1  0.0000000  0.6508444  3
   3724   3725   3745   3746     1  0.0000000  1.0460000  1
   3724   3725   3745   3746     1  0.0000000  0.6694400  3
   3724   3735   3740   3741     1  0.0000000  1.0460000  1
   3724   3735   3740   3741     1  0.0000000  0.6694400  3
   3724   3742   3729   3732     1  0.0000000  1.6038667  3
   3725   3724   3735   3738     1  0.0000000  0.6508444  3
   3725   3724   3735   3739     1  0.0000000  0.6508444  3
   3725   3727   3728   3730     1  0.0000000  0.6508444  3
   3725   3727   3734   3736     1  0.0000000  1.0460000  1
   3725   3727   3734   3736     1  0.0000000  0.6694400  3
   3726   3724   3725   3727     1  0.0000000  0.6508444  3
   3726   3724   3725   3745     1  0.0000000  1.0460000  1
   3726   3724   3725   3745     1  0.0000000  0.0000000  3
   3726   3724   3725   3744     1  0.0000000  0.6508444  3
   3726   3724   3735   3740     1  0.0000000  1.0460000  1
   3726   3724   3735   3740     1  0.0000000  0.0000000  3
   3726   3724   3735   3738     1  0.0000000  0.6508444  3
   3726   3724   3735   3739     1  0.0000000  0.6508444  3
   3726   3724   3742   3729     1  0.0000000  1.6038667  3
   3727   3725   3745   3746     1  0.0000000  1.0460000  1
   3727   3725   3745   3746     1  0.0000000  0.6694400  3
   3727   3728   3729   3732     1  0.0000000  0.6508444  3
   3727   3728   3747   3737     1  0.0000000  1.2552000  3
   3728   3727   3725   3744     1  0.0000000  0.6508444  3
   3728   3727   3734   3736     1  0.0000000  1.0460000  1
   3728   3727   3734   3736     1  0.0000000  0.6694400  3
   3728   3729   3733   3743     1  0.0000000  1.0460000  1
   3728   3729   3733   3743     1  0.0000000  0.6694400  3
   3729   3728   3727   3731     1  0.0000000  0.6508444  3
   3729   3728   3747   3737     1  0.0000000  1.2552000  3
   3730   3728   3727   3734     1  0.0000000  1.0460000  1
   3730   3728   3727   3734     1  0.0000000  0.0000000  3
   3730   3728   3727   3731     1  0.0000000  0.6508444  3
   3730   3728   3729   3733     1  0.0000000  1.0460000  1
   3730   3728   3729   3733     1  0.0000000  0.0000000  3
   3730   3728   3729   3742     1  0.0000000  1.0460000  1
   3730   3728   3729   3742     1  0.0000000  0.0000000  3
   3730   3728   3729   3732     1  0.0000000  0.6508444  3
   3730   3728   3747   3737     1  0.0000000  1.2552000  3
   3731   3727   3725   3745     1  0.0000000  1.0460000  1
   3731   3727   3725   3745     1  0.0000000  0.0000000  3
   3731   3727   3725   3744     1  0.0000000  0.6508444  3
   3731   3727   3728   3747     1  0.0000000  0.6508444  3
   3731   3727   3734   3736     1  0.0000000  0.6973333  3
   3732   3729   3728   3747     1  0.0000000  0.6508444  3
   3732   3729   3733   3743     1  0.0000000  0.6973333  3
   3734   3727   3725   3744     1  0.0000000  1.0460000  1
   3734   3727   3725   3744     1  0.0000000  0.0000000  3
   3735   3724   3725   3744     1  0.0000000  0.6508444  3
   3738   3735   3724   3742     1  0.0000000  1.0460000  1
   3738   3735   3724   3742     1  0.0000000  0.0000000  3
   3738   3735   3740   3741     1  0.0000000  0.6973333  3
   3739   3735   3724   3742     1  0.0000000  1.0460000  1
   3739   3735   3724   3742     1  0.0000000  0.0000000  3
   3739   3735   3740   3741     1  0.0000000  0.6973333  3
   3742   3724   3725   3744     1  0.0000000  1.0460000  1
   3742   3724   3725   3744     1  0.0000000  0.0000000  3
   3742   3729   3733   3743     1  0.0000000  0.6973333  3
   3744   3725   3745   3746     1  0.0000000  0.6973333  3
   3749   3751   3753   3755     1  0.0000000  0.6508444  3
   3749   3751   3753   3756     1  0.0000000  0.6508444  3
   3750   3749   3751   3753     1  0.0000000  0.0000000  2
   3750   3749   3751   3752     1  0.0000000  0.0000000  2
   3750   3749   3751   3754     1  0.0000000  0.0000000  2
   3751   3753   3757   3822     1  0.0000000  0.6508444  3
   3752   3751   3753   3757     1  0.0000000  0.6508444  3
   3752   3751   3753   3755     1  0.0000000  0.6508444  3
   3752   3751   3753   3756     1  0.0000000  0.6508444  3
   3753   3757   3758   3767     1  0.0000000  0.6508444  3
   3753   3757   3758   3768     1  0.0000000  0.6508444  3
   3753   3757   3759   3760     1  0.0000000  0.6508444  3
   3753   3757   3759   3762     1  0.0000000  0.6508444  3
   3754   3751   3753   3757     1  0.0000000  0.6508444  3
   3754   3751   3753   3755     1  0.0000000  0.6508444  3
   3754   3751   3753   3756     1  0.0000000  0.6508444  3
   3755   3753   3757   3758     1  0.0000000  0.6508444  3
   3755   3753   3757   3759     1  0.0000000  0.6508444  3
   3755   3753   3757   3822     1  0.0000000  0.6508444  3
   3756   3753   3757   3758     1  0.0000000  0.6508444  3
   3756   3753   3757   3759     1  0.0000000  0.6508444  3
   3756   3753   3757   3822     1  0.0000000  0.6508444  3
   3757   3758   3769   3770     1  0.0000000  0.6508444  3
   3757   3758   3769   3771     1  0.0000000  0.6508444  3
   3757   3759   3761   3763     1  0.0000000  0.6508444  3
   3757   3759   3761   3764     1  0.0000000  0.6508444  3
   3758   3757   3759   3760     1  0.0000000  0.6508444  3
   3758   3757   3759   3762     1  0.0000000  0.6508444  3
   3759   3757   3758   3767     1  0.0000000  0.6508444  3
   3759   3757   3758   3768     1  0.0000000  0.6508444  3
   3760   3759   3761   3765     1  0.0000000  0.6508444  3
   3760   3759   3761   3763     1  0.0000000  0.6508444  3
   3760   3759   3761   3764     1  0.0000000  0.6508444  3
   3760   3759   3757   3822     1  0.0000000  0.6508444  3
   3761   3765   3797   3787     1  180.0000771  6.0668000  2
   3761   3765   3797   3787     1  180.0000771  1.4644000  4
   3761   3759   3757   3822     1  0.0000000  0.6508444  3
   3762   3759   3761   3765     1  0.0000000  0.6508444  3
   3762   3759   3761   3763     1  0.0000000  0.6508444  3
   3762   3759   3761   3764     1  0.0000000  0.6508444  3
   3762   3759   3757   3822     1  0.0000000  0.6508444  3
   3763   3761   3765   3766     1  0.0000000  3.3472000  1
   3763   3761   3765   3766     1  0.0000000  0.0000000  2
   3763   3761   3765   3766     1  180.0000771  0.3347200  3
   3763   3761   3765   3797     1  180.0000771  0.0000000  2
   3764   3761   3765   3766     1  0.0000000  3.3472000  1
   3764   3761   3765   3766     1  0.0000000  0.0000000  2
   3764   3761   3765   3766     1  180.0000771  0.3347200  3
   3764   3761   3765   3797     1  180.0000771  0.0000000  2
   3765   3797   3778   3780     1  0.0000000  1.2552000  3
   3766   3765   3797   3787     1  180.0000771  6.0668000  2
   3766   3765   3797   3787     1  180.0000771  1.4644000  4
   3767   3758   3769   3772     1  0.0000000  0.6508444  3
   3767   3758   3769   3770     1  0.0000000  0.6508444  3
   3767   3758   3769   3771     1  0.0000000  0.6508444  3
   3767   3758   3757   3822     1  0.0000000  0.6508444  3
   3768   3758   3769   3772     1  0.0000000  0.6508444  3
   3768   3758   3769   3770     1  0.0000000  0.6508444  3
   3768   3758   3769   3771     1  0.0000000  0.6508444  3
   3768   3758   3757   3822     1  0.0000000  0.6508444  3
   3769   3772   3821   3811     1  180.0000771  6.0668000  2
   3769   3772   3821   3811     1  180.0000771  1.4644000  4
   3769   3758   3757   3822     1  0.0000000  0.6508444  3
   3770   3769   3772   3773     1  0.0000000  3.3472000  1
   3770   3769   3772   3773     1  0.0000000  0.0000000  2
   3770   3769   3772   3773     1  180.0000771  0.3347200  3
   3770   3769   3772   3821     1  180.0000771  0.0000000  2
   3771   3769   3772   3773     1  0.0000000  3.3472000  1
   3771   3769   3772   3773     1  0.0000000  0.0000000  2
   3771   3769   3772   3773     1  180.0000771  0.3347200  3
   3771   3769   3772   3821     1  180.0000771  0.0000000  2
   3772   3821   3802   3804     1  0.0000000  1.2552000  3
   3773   3772   3821   3811     1  180.0000771  6.0668000  2
   3773   3772   3821   3811     1  180.0000771  1.4644000  4
   3774   3775   3777   3781     1  0.0000000  0.6508444  3
   3774   3775   3795   3796     1  0.0000000  1.0460000  1
   3774   3775   3795   3796     1  0.0000000  0.6694400  3
   3774   3785   3790   3791     1  0.0000000  1.0460000  1
   3774   3785   3790   3791     1  0.0000000  0.6694400  3
   3774   3792   3779   3782     1  0.0000000  1.6038667  3
   3775   3777   3778   3780     1  0.0000000  0.6508444  3
   3775   3777   3784   3786     1  0.0000000  1.0460000  1
   3775   3777   3784   3786     1  0.0000000  0.6694400  3
   3775   3774   3785   3788     1  0.0000000  0.6508444  3
   3775   3774   3785   3789     1  0.0000000  0.6508444  3
   3776   3774   3775   3777     1  0.0000000  0.6508444  3
   3776   3774   3775   3795     1  0.0000000  1.0460000  1
   3776   3774   3775   3795     1  0.0000000  0.0000000  3
   3776   3774   3775   3794     1  0.0000000  0.6508444  3
   3776   3774   3785   3790     1  0.0000000  1.0460000  1
   3776   3774   3785   3790     1  0.0000000  0.0000000  3
   3776   3774   3785   3788     1  0.0000000  0.6508444  3
   3776   3774   3785   3789     1  0.0000000  0.6508444  3
   3776   3774   3792   3779     1  0.0000000  1.6038667  3
   3777   3778   3779   3782     1  0.0000000  0.6508444  3
   3777   3778   3797   3787     1  0.0000000  1.2552000  3
   3777   3775   3795   3796     1  0.0000000  1.0460000  1
   3777   3775   3795   3796     1  0.0000000  0.6694400  3
   3778   3779   3783   3793     1  0.0000000  1.0460000  1
   3778   3779   3783   3793     1  0.0000000  0.6694400  3
   3778   3777   3784   3786     1  0.0000000  1.0460000  1
   3778   3777   3784   3786     1  0.0000000  0.6694400  3
   3778   3777   3775   3794     1  0.0000000  0.6508444  3
   3779   3778   3797   3787     1  0.0000000  1.2552000  3
   3779   3778   3777   3781     1  0.0000000  0.6508444  3
   3780   3778   3779   3783     1  0.0000000  1.0460000  1
   3780   3778   3779   3783     1  0.0000000  0.0000000  3
   3780   3778   3779   3792     1  0.0000000  1.0460000  1
   3780   3778   3779   3792     1  0.0000000  0.0000000  3
   3780   3778   3779   3782     1  0.0000000  0.6508444  3
   3780   3778   3797   3787     1  0.0000000  1.2552000  3
   3780   3778   3777   3784     1  0.0000000  1.0460000  1
   3780   3778   3777   3784     1  0.0000000  0.0000000  3
   3780   3778   3777   3781     1  0.0000000  0.6508444  3
   3781   3777   3778   3797     1  0.0000000  0.6508444  3
   3781   3777   3784   3786     1  0.0000000  0.6973333  3
   3781   3777   3775   3795     1  0.0000000  1.0460000  1
   3781   3777   3775   3795     1  0.0000000  0.0000000  3
   3781   3777   3775   3794     1  0.0000000  0.6508444  3
   3782   3779   3783   3793     1  0.0000000  0.6973333  3
   3782   3779   3778   3797     1  0.0000000  0.6508444  3
   3784   3777   3775   3794     1  0.0000000  1.0460000  1
   3784   3777   3775   3794     1  0.0000000  0.0000000  3
   3785   3774   3775   3794     1  0.0000000  0.6508444  3
   3788   3785   3790   3791     1  0.0000000  0.6973333  3
   3788   3785   3774   3792     1  0.0000000  1.0460000  1
   3788   3785   3774   3792     1  0.0000000  0.0000000  3
   3789   3785   3790   3791     1  0.0000000  0.6973333  3
   3789   3785   3774   3792     1  0.0000000  1.0460000  1
   3789   3785   3774   3792     1  0.0000000  0.0000000  3
   3792   3779   3783   3793     1  0.0000000  0.6973333  3
   3792   3774   3775   3794     1  0.0000000  1.0460000  1
   3792   3774   3775   3794     1  0.0000000  0.0000000  3
   3794   3775   3795   3796     1  0.0000000  0.6973333  3
   3798   3799   3801   3805     1  0.0000000  0.6508444  3
   3798   3799   3819   3820     1  0.0000000  1.0460000  1
   3798   3799   3819   3820     1  0.0000000  0.6694400  3
   3798   3809   3814   3815     1  0.0000000  1.0460000  1
   3798   3809   3814   3815     1  0.0000000  0.6694400  3
   3798   3816   3803   3806     1  0.0000000  1.6038667  3
   3799   3801   3802   3804     1  0.0000000  0.6508444  3
   3799   3801   3808   3810     1  0.0000000  1.0460000  1
   3799   3801   3808   3810     1  0.0000000  0.6694400  3
   3799   3798   3809   3812     1  0.0000000  0.6508444  3
   3799   3798   3809   3813     1  0.0000000  0.6508444  3
   3800   3798   3799   3801     1  0.0000000  0.6508444  3
   3800   3798   3799   3819     1  0.0000000  1.0460000  1
   3800   3798   3799   3819     1  0.0000000  0.0000000  3
   3800   3798   3799   3818     1  0.0000000  0.6508444  3
   3800   3798   3809   3814     1  0.0000000  1.0460000  1
   3800   3798   3809   3814     1  0.0000000  0.0000000  3
   3800   3798   3809   3812     1  0.0000000  0.6508444  3
   3800   3798   3809   3813     1  0.0000000  0.6508444  3
   3800   3798   3816   3803     1  0.0000000  1.6038667  3
   3801   3802   3803   3806     1  0.0000000  0.6508444  3
   3801   3802   3821   3811     1  0.0000000  1.2552000  3
   3801   3799   3819   3820     1  0.0000000  1.0460000  1
   3801   3799   3819   3820     1  0.0000000  0.6694400  3
   3802   3803   3807   3817     1  0.0000000  1.0460000  1
   3802   3803   3807   3817     1  0.0000000  0.6694400  3
   3802   3801   3808   3810     1  0.0000000  1.0460000  1
   3802   3801   3808   3810     1  0.0000000  0.6694400  3
   3802   3801   3799   3818     1  0.0000000  0.6508444  3
   3803   3802   3821   3811     1  0.0000000  1.2552000  3
   3803   3802   3801   3805     1  0.0000000  0.6508444  3
   3804   3802   3803   3807     1  0.0000000  1.0460000  1
   3804   3802   3803   3807     1  0.0000000  0.0000000  3
   3804   3802   3803   3816     1  0.0000000  1.0460000  1
   3804   3802   3803   3816     1  0.0000000  0.0000000  3
   3804   3802   3803   3806     1  0.0000000  0.6508444  3
   3804   3802   3821   3811     1  0.0000000  1.2552000  3
   3804   3802   3801   3808     1  0.0000000  1.0460000  1
   3804   3802   3801   3808     1  0.0000000  0.0000000  3
   3804   3802   3801   3805     1  0.0000000  0.6508444  3
   3805   3801   3802   3821     1  0.0000000  0.6508444  3
   3805   3801   3808   3810     1  0.0000000  0.6973333  3
   3805   3801   3799   3819     1  0.0000000  1.0460000  1
   3805   3801   3799   3819     1  0.0000000  0.0000000  3
   3805   3801   3799   3818     1  0.0000000  0.6508444  3
   3806   3803   3807   3817     1  0.0000000  0.6973333  3
   3806   3803   3802   3821     1  0.0000000  0.6508444  3
   3808   3801   3799   3818     1  0.0000000  1.0460000  1
   3808   3801   3799   3818     1  0.0000000  0.0000000  3
   3809   3798   3799   3818     1  0.0000000  0.6508444  3
   3812   3809   3814   3815     1  0.0000000  0.6973333  3
   3812   3809   3798   3816     1  0.0000000  1.0460000  1
   3812   3809   3798   3816     1  0.0000000  0.0000000  3
   3813   3809   3814   3815     1  0.0000000  0.6973333  3
   3813   3809   3798   3816     1  0.0000000  1.0460000  1
   3813   3809   3798   3816     1  0.0000000  0.0000000  3
   3816   3803   3807   3817     1  0.0000000  0.6973333  3
   3816   3798   3799   3818     1  0.0000000  1.0460000  1
   3816   3798   3799   3818     1  0.0000000  0.0000000  3
   3818   3799   3819   3820     1  0.0000000  0.6973333  3
   3823   3825   3827   3829     1  0.0000000  0.6508444  3
   3823   3825   3827   3830     1  0.0000000  0.6508444  3
   3824   3823   3825   3827     1  0.0000000  0.0000000  2
   3824   3823   3825   3826     1  0.0000000  0.0000000  2
   3824   3823   3825   3828     1  0.0000000  0.0000000  2
   3825   3827   3831   3896     1  0.0000000  0.6508444  3
   3826   3825   3827   3831     1  0.0000000  0.6508444  3
   3826   3825   3827   3829     1  0.0000000  0.6508444  3
   3826   3825   3827   3830     1  0.0000000  0.6508444  3
   3827   3831   3832   3841     1  0.0000000  0.6508444  3
   3827   3831   3832   3842     1  0.0000000  0.6508444  3
   3827   3831   3833   3834     1  0.0000000  0.6508444  3
   3827   3831   3833   3836     1  0.0000000  0.6508444  3
   3828   3825   3827   3831     1  0.0000000  0.6508444  3
   3828   3825   3827   3829     1  0.0000000  0.6508444  3
   3828   3825   3827   3830     1  0.0000000  0.6508444  3
   3829   3827   3831   3832     1  0.0000000  0.6508444  3
   3829   3827   3831   3833     1  0.0000000  0.6508444  3
   3829   3827   3831   3896     1  0.0000000  0.6508444  3
   3830   3827   3831   3832     1  0.0000000  0.6508444  3
   3830   3827   3831   3833     1  0.0000000  0.6508444  3
   3830   3827   3831   3896     1  0.0000000  0.6508444  3
   3831   3832   3843   3844     1  0.0000000  0.6508444  3
   3831   3832   3843   3845     1  0.0000000  0.6508444  3
   3831   3833   3835   3837     1  0.0000000  0.6508444  3
   3831   3833   3835   3838     1  0.0000000  0.6508444  3
   3832   3831   3833   3834     1  0.0000000  0.6508444  3
   3832   3831   3833   3836     1  0.0000000  0.6508444  3
   3833   3831   3832   3841     1  0.0000000  0.6508444  3
   3833   3831   3832   3842     1  0.0000000  0.6508444  3
   3834   3833   3831   3896     1  0.0000000  0.6508444  3
   3834   3833   3835   3839     1  0.0000000  0.6508444  3
   3834   3833   3835   3837     1  0.0000000  0.6508444  3
   3834   3833   3835   3838     1  0.0000000  0.6508444  3
   3835   3833   3831   3896     1  0.0000000  0.6508444  3
   3835   3839   3871   3861     1  180.0000771  6.0668000  2
   3835   3839   3871   3861     1  180.0000771  1.4644000  4
   3836   3833   3831   3896     1  0.0000000  0.6508444  3
   3836   3833   3835   3839     1  0.0000000  0.6508444  3
   3836   3833   3835   3837     1  0.0000000  0.6508444  3
   3836   3833   3835   3838     1  0.0000000  0.6508444  3
   3837   3835   3839   3840     1  0.0000000  3.3472000  1
   3837   3835   3839   3840     1  0.0000000  0.0000000  2
   3837   3835   3839   3840     1  180.0000771  0.3347200  3
   3837   3835   3839   3871     1  180.0000771  0.0000000  2
   3838   3835   3839   3840     1  0.0000000  3.3472000  1
   3838   3835   3839   3840     1  0.0000000  0.0000000  2
   3838   3835   3839   3840     1  180.0000771  0.3347200  3
   3838   3835   3839   3871     1  180.0000771  0.0000000  2
   3839   3871   3852   3854     1  0.0000000  1.2552000  3
   3840   3839   3871   3861     1  180.0000771  6.0668000  2
   3840   3839   3871   3861     1  180.0000771  1.4644000  4
   3841   3832   3831   3896     1  0.0000000  0.6508444  3
   3841   3832   3843   3846     1  0.0000000  0.6508444  3
   3841   3832   3843   3844     1  0.0000000  0.6508444  3
   3841   3832   3843   3845     1  0.0000000  0.6508444  3
   3842   3832   3831   3896     1  0.0000000  0.6508444  3
   3842   3832   3843   3846     1  0.0000000  0.6508444  3
   3842   3832   3843   3844     1  0.0000000  0.6508444  3
   3842   3832   3843   3845     1  0.0000000  0.6508444  3
   3843   3832   3831   3896     1  0.0000000  0.6508444  3
   3843   3846   3895   3885     1  180.0000771  6.0668000  2
   3843   3846   3895   3885     1  180.0000771  1.4644000  4
   3844   3843   3846   3847     1  0.0000000  3.3472000  1
   3844   3843   3846   3847     1  0.0000000  0.0000000  2
   3844   3843   3846   3847     1  180.0000771  0.3347200  3
   3844   3843   3846   3895     1  180.0000771  0.0000000  2
   3845   3843   3846   3847     1  0.0000000  3.3472000  1
   3845   3843   3846   3847     1  0.0000000  0.0000000  2
   3845   3843   3846   3847     1  180.0000771  0.3347200  3
   3845   3843   3846   3895     1  180.0000771  0.0000000  2
   3846   3895   3876   3878     1  0.0000000  1.2552000  3
   3847   3846   3895   3885     1  180.0000771  6.0668000  2
   3847   3846   3895   3885     1  180.0000771  1.4644000  4
   3848   3849   3851   3855     1  0.0000000  0.6508444  3
   3848   3849   3869   3870     1  0.0000000  1.0460000  1
   3848   3849   3869   3870     1  0.0000000  0.6694400  3
   3848   3859   3864   3865     1  0.0000000  1.0460000  1
   3848   3859   3864   3865     1  0.0000000  0.6694400  3
   3848   3866   3853   3856     1  0.0000000  1.6038667  3
   3849   3848   3859   3862     1  0.0000000  0.6508444  3
   3849   3848   3859   3863     1  0.0000000  0.6508444  3
   3849   3851   3852   3854     1  0.0000000  0.6508444  3
   3849   3851   3858   3860     1  0.0000000  1.0460000  1
   3849   3851   3858   3860     1  0.0000000  0.6694400  3
   3850   3848   3849   3851     1  0.0000000  0.6508444  3
   3850   3848   3849   3869     1  0.0000000  1.0460000  1
   3850   3848   3849   3869     1  0.0000000  0.0000000  3
   3850   3848   3849   3868     1  0.0000000  0.6508444  3
   3850   3848   3859   3864     1  0.0000000  1.0460000  1
   3850   3848   3859   3864     1  0.0000000  0.0000000  3
   3850   3848   3859   3862     1  0.0000000  0.6508444  3
   3850   3848   3859   3863     1  0.0000000  0.6508444  3
   3850   3848   3866   3853     1  0.0000000  1.6038667  3
   3851   3849   3869   3870     1  0.0000000  1.0460000  1
   3851   3849   3869   3870     1  0.0000000  0.6694400  3
   3851   3852   3853   3856     1  0.0000000  0.6508444  3
   3851   3852   3871   3861     1  0.0000000  1.2552000  3
   3852   3851   3849   3868     1  0.0000000  0.6508444  3
   3852   3851   3858   3860     1  0.0000000  1.0460000  1
   3852   3851   3858   3860     1  0.0000000  0.6694400  3
   3852   3853   3857   3867     1  0.0000000  1.0460000  1
   3852   3853   3857   3867     1  0.0000000  0.6694400  3
   3853   3852   3851   3855     1  0.0000000  0.6508444  3
   3853   3852   3871   3861     1  0.0000000  1.2552000  3
   3854   3852   3851   3858     1  0.0000000  1.0460000  1
   3854   3852   3851   3858     1  0.0000000  0.0000000  3
   3854   3852   3851   3855     1  0.0000000  0.6508444  3
   3854   3852   3853   3857     1  0.0000000  1.0460000  1
   3854   3852   3853   3857     1  0.0000000  0.0000000  3
   3854   3852   3853   3866     1  0.0000000  1.0460000  1
   3854   3852   3853   3866     1  0.0000000  0.0000000  3
   3854   3852   3853   3856     1  0.0000000  0.6508444  3
   3854   3852   3871   3861     1  0.0000000  1.2552000  3
   3855   3851   3849   3869     1  0.0000000  1.0460000  1
   3855   3851   3849   3869     1  0.0000000  0.0000000  3
   3855   3851   3849   3868     1  0.0000000  0.6508444  3
   3855   3851   3852   3871     1  0.0000000  0.6508444  3
   3855   3851   3858   3860     1  0.0000000  0.6973333  3
   3856   3853   3852   3871     1  0.0000000  0.6508444  3
   3856   3853   3857   3867     1  0.0000000  0.6973333  3
   3858   3851   3849   3868     1  0.0000000  1.0460000  1
   3858   3851   3849   3868     1  0.0000000  0.0000000  3
   3859   3848   3849   3868     1  0.0000000  0.6508444  3
   3862   3859   3848   3866     1  0.0000000  1.0460000  1
   3862   3859   3848   3866     1  0.0000000  0.0000000  3
   3862   3859   3864   3865     1  0.0000000  0.6973333  3
   3863   3859   3848   3866     1  0.0000000  1.0460000  1
   3863   3859   3848   3866     1  0.0000000  0.0000000  3
   3863   3859   3864   3865     1  0.0000000  0.6973333  3
   3866   3848   3849   3868     1  0.0000000  1.0460000  1
   3866   3848   3849   3868     1  0.0000000  0.0000000  3
   3866   3853   3857   3867     1  0.0000000  0.6973333  3
   3868   3849   3869   3870     1  0.0000000  0.6973333  3
   3872   3873   3875   3879     1  0.0000000  0.6508444  3
   3872   3873   3893   3894     1  0.0000000  1.0460000  1
   3872   3873   3893   3894     1  0.0000000  0.6694400  3
   3872   3883   3888   3889     1  0.0000000  1.0460000  1
   3872   3883   3888   3889     1  0.0000000  0.6694400  3
   3872   3890   3877   3880     1  0.0000000  1.6038667  3
   3873   3872   3883   3886     1  0.0000000  0.6508444  3
   3873   3872   3883   3887     1  0.0000000  0.6508444  3
   3873   3875   3876   3878     1  0.0000000  0.6508444  3
   3873   3875   3882   3884     1  0.0000000  1.0460000  1
   3873   3875   3882   3884     1  0.0000000  0.6694400  3
   3874   3872   3873   3875     1  0.0000000  0.6508444  3
   3874   3872   3873   3893     1  0.0000000  1.0460000  1
   3874   3872   3873   3893     1  0.0000000  0.0000000  3
   3874   3872   3873   3892     1  0.0000000  0.6508444  3
   3874   3872   3883   3888     1  0.0000000  1.0460000  1
   3874   3872   3883   3888     1  0.0000000  0.0000000  3
   3874   3872   3883   3886     1  0.0000000  0.6508444  3
   3874   3872   3883   3887     1  0.0000000  0.6508444  3
   3874   3872   3890   3877     1  0.0000000  1.6038667  3
   3875   3873   3893   3894     1  0.0000000  1.0460000  1
   3875   3873   3893   3894     1  0.0000000  0.6694400  3
   3875   3876   3877   3880     1  0.0000000  0.6508444  3
   3875   3876   3895   3885     1  0.0000000  1.2552000  3
   3876   3875   3873   3892     1  0.0000000  0.6508444  3
   3876   3875   3882   3884     1  0.0000000  1.0460000  1
   3876   3875   3882   3884     1  0.0000000  0.6694400  3
   3876   3877   3881   3891     1  0.0000000  1.0460000  1
   3876   3877   3881   3891     1  0.0000000  0.6694400  3
   3877   3876   3875   3879     1  0.0000000  0.6508444  3
   3877   3876   3895   3885     1  0.0000000  1.2552000  3
   3878   3876   3875   3882     1  0.0000000  1.0460000  1
   3878   3876   3875   3882     1  0.0000000  0.0000000  3
   3878   3876   3875   3879     1  0.0000000  0.6508444  3
   3878   3876   3877   3881     1  0.0000000  1.0460000  1
   3878   3876   3877   3881     1  0.0000000  0.0000000  3
   3878   3876   3877   3890     1  0.0000000  1.0460000  1
   3878   3876   3877   3890     1  0.0000000  0.0000000  3
   3878   3876   3877   3880     1  0.0000000  0.6508444  3
   3878   3876   3895   3885     1  0.0000000  1.2552000  3
   3879   3875   3873   3893     1  0.0000000  1.0460000  1
   3879   3875   3873   3893     1  0.0000000  0.0000000  3
   3879   3875   3873   3892     1  0.0000000  0.6508444  3
   3879   3875   3876   3895     1  0.0000000  0.6508444  3
   3879   3875   3882   3884     1  0.0000000  0.6973333  3
   3880   3877   3876   3895     1  0.0000000  0.6508444  3
   3880   3877   3881   3891     1  0.0000000  0.6973333  3
   3882   3875   3873   3892     1  0.0000000  1.0460000  1
   3882   3875   3873   3892     1  0.0000000  0.0000000  3
   3883   3872   3873   3892     1  0.0000000  0.6508444  3
   3886   3883   3872   3890     1  0.0000000  1.0460000  1
   3886   3883   3872   3890     1  0.0000000  0.0000000  3
   3886   3883   3888   3889     1  0.0000000  0.6973333  3
   3887   3883   3872   3890     1  0.0000000  1.0460000  1
   3887   3883   3872   3890     1  0.0000000  0.0000000  3
   3887   3883   3888   3889     1  0.0000000  0.6973333  3
   3890   3872   3873   3892     1  0.0000000  1.0460000  1
   3890   3872   3873   3892     1  0.0000000  0.0000000  3
   3890   3877   3881   3891     1  0.0000000  0.6973333  3
   3892   3873   3893   3894     1  0.0000000  0.6973333  3
   3897   3899   3901   3903     1  0.0000000  0.6508444  3
   3897   3899   3901   3904     1  0.0000000  0.6508444  3
   3898   3897   3899   3901     1  0.0000000  0.0000000  2
   3898   3897   3899   3900     1  0.0000000  0.0000000  2
   3898   3897   3899   3902     1  0.0000000  0.0000000  2
   3899   3901   3905   3970     1  0.0000000  0.6508444  3
   3900   3899   3901   3905     1  0.0000000  0.6508444  3
   3900   3899   3901   3903     1  0.0000000  0.6508444  3
   3900   3899   3901   3904     1  0.0000000  0.6508444  3
   3901   3905   3906   3915     1  0.0000000  0.6508444  3
   3901   3905   3906   3916     1  0.0000000  0.6508444  3
   3901   3905   3907   3908     1  0.0000000  0.6508444  3
   3901   3905   3907   3910     1  0.0000000  0.6508444  3
   3902   3899   3901   3905     1  0.0000000  0.6508444  3
   3902   3899   3901   3903     1  0.0000000  0.6508444  3
   3902   3899   3901   3904     1  0.0000000  0.6508444  3
   3903   3901   3905   3906     1  0.0000000  0.6508444  3
   3903   3901   3905   3907     1  0.0000000  0.6508444  3
   3903   3901   3905   3970     1  0.0000000  0.6508444  3
   3904   3901   3905   3906     1  0.0000000  0.6508444  3
   3904   3901   3905   3907     1  0.0000000  0.6508444  3
   3904   3901   3905   3970     1  0.0000000  0.6508444  3
   3905   3906   3917   3918     1  0.0000000  0.6508444  3
   3905   3906   3917   3919     1  0.0000000  0.6508444  3
   3905   3907   3909   3911     1  0.0000000  0.6508444  3
   3905   3907   3909   3912     1  0.0000000  0.6508444  3
   3906   3905   3907   3908     1  0.0000000  0.6508444  3
   3906   3905   3907   3910     1  0.0000000  0.6508444  3
   3907   3905   3906   3915     1  0.0000000  0.6508444  3
   3907   3905   3906   3916     1  0.0000000  0.6508444  3
   3908   3907   3909   3913     1  0.0000000  0.6508444  3
   3908   3907   3909   3911     1  0.0000000  0.6508444  3
   3908   3907   3909   3912     1  0.0000000  0.6508444  3
   3908   3907   3905   3970     1  0.0000000  0.6508444  3
   3909   3913   3945   3935     1  180.0000771  6.0668000  2
   3909   3913   3945   3935     1  180.0000771  1.4644000  4
   3909   3907   3905   3970     1  0.0000000  0.6508444  3
   3910   3907   3909   3913     1  0.0000000  0.6508444  3
   3910   3907   3909   3911     1  0.0000000  0.6508444  3
   3910   3907   3909   3912     1  0.0000000  0.6508444  3
   3910   3907   3905   3970     1  0.0000000  0.6508444  3
   3911   3909   3913   3914     1  0.0000000  3.3472000  1
   3911   3909   3913   3914     1  0.0000000  0.0000000  2
   3911   3909   3913   3914     1  180.0000771  0.3347200  3
   3911   3909   3913   3945     1  180.0000771  0.0000000  2
   3912   3909   3913   3914     1  0.0000000  3.3472000  1
   3912   3909   3913   3914     1  0.0000000  0.0000000  2
   3912   3909   3913   3914     1  180.0000771  0.3347200  3
   3912   3909   3913   3945     1  180.0000771  0.0000000  2
   3913   3945   3926   3928     1  0.0000000  1.2552000  3
   3914   3913   3945   3935     1  180.0000771  6.0668000  2
   3914   3913   3945   3935     1  180.0000771  1.4644000  4
   3915   3906   3917   3920     1  0.0000000  0.6508444  3
   3915   3906   3917   3918     1  0.0000000  0.6508444  3
   3915   3906   3917   3919     1  0.0000000  0.6508444  3
   3915   3906   3905   3970     1  0.0000000  0.6508444  3
   3916   3906   3917   3920     1  0.0000000  0.6508444  3
   3916   3906   3917   3918     1  0.0000000  0.6508444  3
   3916   3906   3917   3919     1  0.0000000  0.6508444  3
   3916   3906   3905   3970     1  0.0000000  0.6508444  3
   3917   3920   3969   3959     1  180.0000771  6.0668000  2
   3917   3920   3969   3959     1  180.0000771  1.4644000  4
   3917   3906   3905   3970     1  0.0000000  0.6508444  3
   3918   3917   3920   3921     1  0.0000000  3.3472000  1
   3918   3917   3920   3921     1  0.0000000  0.0000000  2
   3918   3917   3920   3921     1  180.0000771  0.3347200  3
   3918   3917   3920   3969     1  180.0000771  0.0000000  2
   3919   3917   3920   3921     1  0.0000000  3.3472000  1
   3919   3917   3920   3921     1  0.0000000  0.0000000  2
   3919   3917   3920   3921     1  180.0000771  0.3347200  3
   3919   3917   3920   3969     1  180.0000771  0.0000000  2
   3920   3969   3950   3952     1  0.0000000  1.2552000  3
   3921   3920   3969   3959     1  180.0000771  6.0668000  2
   3921   3920   3969   3959     1  180.0000771  1.4644000  4
   3922   3923   3925   3929     1  0.0000000  0.6508444  3
   3922   3923   3943   3944     1  0.0000000  1.0460000  1
   3922   3923   3943   3944     1  0.0000000  0.6694400  3
   3922   3933   3938   3939     1  0.0000000  1.0460000  1
   3922   3933   3938   3939     1  0.0000000  0.6694400  3
   3922   3940   3927   3930     1  0.0000000  1.6038667  3
   3923   3925   3926   3928     1  0.0000000  0.6508444  3
   3923   3925   3932   3934     1  0.0000000  1.0460000  1
   3923   3925   3932   3934     1  0.0000000  0.6694400  3
   3923   3922   3933   3936     1  0.0000000  0.6508444  3
   3923   3922   3933   3937     1  0.0000000  0.6508444  3
   3924   3922   3923   3925     1  0.0000000  0.6508444  3
   3924   3922   3923   3943     1  0.0000000  1.0460000  1
   3924   3922   3923   3943     1  0.0000000  0.0000000  3
   3924   3922   3923   3942     1  0.0000000  0.6508444  3
   3924   3922   3933   3938     1  0.0000000  1.0460000  1
   3924   3922   3933   3938     1  0.0000000  0.0000000  3
   3924   3922   3933   3936     1  0.0000000  0.6508444  3
   3924   3922   3933   3937     1  0.0000000  0.6508444  3
   3924   3922   3940   3927     1  0.0000000  1.6038667  3
   3925   3926   3927   3930     1  0.0000000  0.6508444  3
   3925   3926   3945   3935     1  0.0000000  1.2552000  3
   3925   3923   3943   3944     1  0.0000000  1.0460000  1
   3925   3923   3943   3944     1  0.0000000  0.6694400  3
   3926   3927   3931   3941     1  0.0000000  1.0460000  1
   3926   3927   3931   3941     1  0.0000000  0.6694400  3
   3926   3925   3932   3934     1  0.0000000  1.0460000  1
   3926   3925   3932   3934     1  0.0000000  0.6694400  3
   3926   3925   3923   3942     1  0.0000000  0.6508444  3
   3927   3926   3945   3935     1  0.0000000  1.2552000  3
   3927   3926   3925   3929     1  0.0000000  0.6508444  3
   3928   3926   3927   3931     1  0.0000000  1.0460000  1
   3928   3926   3927   3931     1  0.0000000  0.0000000  3
   3928   3926   3927   3940     1  0.0000000  1.0460000  1
   3928   3926   3927   3940     1  0.0000000  0.0000000  3
   3928   3926   3927   3930     1  0.0000000  0.6508444  3
   3928   3926   3945   3935     1  0.0000000  1.2552000  3
   3928   3926   3925   3932     1  0.0000000  1.0460000  1
   3928   3926   3925   3932     1  0.0000000  0.0000000  3
   3928   3926   3925   3929     1  0.0000000  0.6508444  3
   3929   3925   3926   3945     1  0.0000000  0.6508444  3
   3929   3925   3932   3934     1  0.0000000  0.6973333  3
   3929   3925   3923   3943     1  0.0000000  1.0460000  1
   3929   3925   3923   3943     1  0.0000000  0.0000000  3
   3929   3925   3923   3942     1  0.0000000  0.6508444  3
   3930   3927   3931   3941     1  0.0000000  0.6973333  3
   3930   3927   3926   3945     1  0.0000000  0.6508444  3
   3932   3925   3923   3942     1  0.0000000  1.0460000  1
   3932   3925   3923   3942     1  0.0000000  0.0000000  3
   3933   3922   3923   3942     1  0.0000000  0.6508444  3
   3936   3933   3938   3939     1  0.0000000  0.6973333  3
   3936   3933   3922   3940     1  0.0000000  1.0460000  1
   3936   3933   3922   3940     1  0.0000000  0.0000000  3
   3937   3933   3938   3939     1  0.0000000  0.6973333  3
   3937   3933   3922   3940     1  0.0000000  1.0460000  1
   3937   3933   3922   3940     1  0.0000000  0.0000000  3
   3940   3927   3931   3941     1  0.0000000  0.6973333  3
   3940   3922   3923   3942     1  0.0000000  1.0460000  1
   3940   3922   3923   3942     1  0.0000000  0.0000000  3
   3942   3923   3943   3944     1  0.0000000  0.6973333  3
   3946   3947   3949   3953     1  0.0000000  0.6508444  3
   3946   3947   3967   3968     1  0.0000000  1.0460000  1
   3946   3947   3967   3968     1  0.0000000  0.6694400  3
   3946   3957   3962   3963     1  0.0000000  1.0460000  1
   3946   3957   3962   3963     1  0.0000000  0.6694400  3
   3946   3964   3951   3954     1  0.0000000  1.6038667  3
   3947   3949   3950   3952     1  0.0000000  0.6508444  3
   3947   3949   3956   3958     1  0.0000000  1.0460000  1
   3947   3949   3956   3958     1  0.0000000  0.6694400  3
   3947   3946   3957   3960     1  0.0000000  0.6508444  3
   3947   3946   3957   3961     1  0.0000000  0.6508444  3
   3948   3946   3947   3949     1  0.0000000  0.6508444  3
   3948   3946   3947   3967     1  0.0000000  1.0460000  1
   3948   3946   3947   3967     1  0.0000000  0.0000000  3
   3948   3946   3947   3966     1  0.0000000  0.6508444  3
   3948   3946   3957   3962     1  0.0000000  1.0460000  1
   3948   3946   3957   3962     1  0.0000000  0.0000000  3
   3948   3946   3957   3960     1  0.0000000  0.6508444  3
   3948   3946   3957   3961     1  0.0000000  0.6508444  3
   3948   3946   3964   3951     1  0.0000000  1.6038667  3
   3949   3950   3951   3954     1  0.0000000  0.6508444  3
   3949   3950   3969   3959     1  0.0000000  1.2552000  3
   3949   3947   3967   3968     1  0.0000000  1.0460000  1
   3949   3947   3967   3968     1  0.0000000  0.6694400  3
   3950   3951   3955   3965     1  0.0000000  1.0460000  1
   3950   3951   3955   3965     1  0.0000000  0.6694400  3
   3950   3949   3956   3958     1  0.0000000  1.0460000  1
   3950   3949   3956   3958     1  0.0000000  0.6694400  3
   3950   3949   3947   3966     1  0.0000000  0.6508444  3
   3951   3950   3969   3959     1  0.0000000  1.2552000  3
   3951   3950   3949   3953     1  0.0000000  0.6508444  3
   3952   3950   3951   3955     1  0.0000000  1.0460000  1
   3952   3950   3951   3955     1  0.0000000  0.0000000  3
   3952   3950   3951   3964     1  0.0000000  1.0460000  1
   3952   3950   3951   3964     1  0.0000000  0.0000000  3
   3952   3950   3951   3954     1  0.0000000  0.6508444  3
   3952   3950   3969   3959     1  0.0000000  1.2552000  3
   3952   3950   3949   3956     1  0.0000000  1.0460000  1
   3952   3950   3949   3956     1  0.0000000  0.0000000  3
   3952   3950   3949   3953     1  0.0000000  0.6508444  3
   3953   3949   3950   3969     1  0.0000000  0.6508444  3
   3953   3949   3956   3958     1  0.0000000  0.6973333  3
   3953   3949   3947   3967     1  0.0000000  1.0460000  1
   3953   3949   3947   3967     1  0.0000000  0.0000000  3
   3953   3949   3947   3966     1  0.0000000  0.6508444  3
   3954   3951   3955   3965     1  0.0000000  0.6973333  3
   3954   3951   3950   3969     1  0.0000000  0.6508444  3
   3956   3949   3947   3966     1  0.0000000  1.0460000  1
   3956   3949   3947   3966     1  0.0000000  0.0000000  3
   3957   3946   3947   3966     1  0.0000000  0.6508444  3
   3960   3957   3962   3963     1  0.0000000  0.6973333  3
   3960   3957   3946   3964     1  0.0000000  1.0460000  1
   3960   3957   3946   3964     1  0.0000000  0.0000000  3
   3961   3957   3962   3963     1  0.0000000  0.6973333  3
   3961   3957   3946   3964     1  0.0000000  1.0460000  1
   3961   3957   3946   3964     1  0.0000000  0.0000000  3
   3964   3951   3955   3965     1  0.0000000  0.6973333  3
   3964   3946   3947   3966     1  0.0000000  1.0460000  1
   3964   3946   3947   3966     1  0.0000000  0.0000000  3
   3966   3947   3967   3968     1  0.0000000  0.6973333  3
   3971   3973   3975   3977     1  0.0000000  0.6508444  3
   3971   3973   3975   3978     1  0.0000000  0.6508444  3
   3972   3971   3973   3975     1  0.0000000  0.0000000  2
   3972   3971   3973   3974     1  0.0000000  0.0000000  2
   3972   3971   3973   3976     1  0.0000000  0.0000000  2
   3973   3975   3979   4044     1  0.0000000  0.6508444  3
   3974   3973   3975   3979     1  0.0000000  0.6508444  3
   3974   3973   3975   3977     1  0.0000000  0.6508444  3
   3974   3973   3975   3978     1  0.0000000  0.6508444  3
   3975   3979   3980   3989     1  0.0000000  0.6508444  3
   3975   3979   3980   3990     1  0.0000000  0.6508444  3
   3975   3979   3981   3982     1  0.0000000  0.6508444  3
   3975   3979   3981   3984     1  0.0000000  0.6508444  3
   3976   3973   3975   3979     1  0.0000000  0.6508444  3
   3976   3973   3975   3977     1  0.0000000  0.6508444  3
   3976   3973   3975   3978     1  0.0000000  0.6508444  3
   3977   3975   3979   3980     1  0.0000000  0.6508444  3
   3977   3975   3979   3981     1  0.0000000  0.6508444  3
   3977   3975   3979   4044     1  0.0000000  0.6508444  3
   3978   3975   3979   3980     1  0.0000000  0.6508444  3
   3978   3975   3979   3981     1  0.0000000  0.6508444  3
   3978   3975   3979   4044     1  0.0000000  0.6508444  3
   3979   3980   3991   3992     1  0.0000000  0.6508444  3
   3979   3980   3991   3993     1  0.0000000  0.6508444  3
   3979   3981   3983   3985     1  0.0000000  0.6508444  3
   3979   3981   3983   3986     1  0.0000000  0.6508444  3
   3980   3979   3981   3982     1  0.0000000  0.6508444  3
   3980   3979   3981   3984     1  0.0000000  0.6508444  3
   3981   3979   3980   3989     1  0.0000000  0.6508444  3
   3981   3979   3980   3990     1  0.0000000  0.6508444  3
   3982   3981   3979   4044     1  0.0000000  0.6508444  3
   3982   3981   3983   3987     1  0.0000000  0.6508444  3
   3982   3981   3983   3985     1  0.0000000  0.6508444  3
   3982   3981   3983   3986     1  0.0000000  0.6508444  3
   3983   3981   3979   4044     1  0.0000000  0.6508444  3
   3983   3987   4019   4009     1  180.0000771  6.0668000  2
   3983   3987   4019   4009     1  180.0000771  1.4644000  4
   3984   3981   3979   4044     1  0.0000000  0.6508444  3
   3984   3981   3983   3987     1  0.0000000  0.6508444  3
   3984   3981   3983   3985     1  0.0000000  0.6508444  3
   3984   3981   3983   3986     1  0.0000000  0.6508444  3
   3985   3983   3987   3988     1  0.0000000  3.3472000  1
   3985   3983   3987   3988     1  0.0000000  0.0000000  2
   3985   3983   3987   3988     1  180.0000771  0.3347200  3
   3985   3983   3987   4019     1  180.0000771  0.0000000  2
   3986   3983   3987   3988     1  0.0000000  3.3472000  1
   3986   3983   3987   3988     1  0.0000000  0.0000000  2
   3986   3983   3987   3988     1  180.0000771  0.3347200  3
   3986   3983   3987   4019     1  180.0000771  0.0000000  2
   3987   4019   4000   4002     1  0.0000000  1.2552000  3
   3988   3987   4019   4009     1  180.0000771  6.0668000  2
   3988   3987   4019   4009     1  180.0000771  1.4644000  4
   3989   3980   3979   4044     1  0.0000000  0.6508444  3
   3989   3980   3991   3994     1  0.0000000  0.6508444  3
   3989   3980   3991   3992     1  0.0000000  0.6508444  3
   3989   3980   3991   3993     1  0.0000000  0.6508444  3
   3990   3980   3979   4044     1  0.0000000  0.6508444  3
   3990   3980   3991   3994     1  0.0000000  0.6508444  3
   3990   3980   3991   3992     1  0.0000000  0.6508444  3
   3990   3980   3991   3993     1  0.0000000  0.6508444  3
   3991   3980   3979   4044     1  0.0000000  0.6508444  3
   3991   3994   4043   4033     1  180.0000771  6.0668000  2
   3991   3994   4043   4033     1  180.0000771  1.4644000  4
   3992   3991   3994   3995     1  0.0000000  3.3472000  1
   3992   3991   3994   3995     1  0.0000000  0.0000000  2
   3992   3991   3994   3995     1  180.0000771  0.3347200  3
   3992   3991   3994   4043     1  180.0000771  0.0000000  2
   3993   3991   3994   3995     1  0.0000000  3.3472000  1
   3993   3991   3994   3995     1  0.0000000  0.0000000  2
   3993   3991   3994   3995     1  180.0000771  0.3347200  3
   3993   3991   3994   4043     1  180.0000771  0.0000000  2
   3994   4043   4024   4026     1  0.0000000  1.2552000  3
   3995   3994   4043   4033     1  180.0000771  6.0668000  2
   3995   3994   4043   4033     1  180.0000771  1.4644000  4
   3996   3997   3999   4003     1  0.0000000  0.6508444  3
   3996   3997   4017   4018     1  0.0000000  1.0460000  1
   3996   3997   4017   4018     1  0.0000000  0.6694400  3
   3996   4007   4012   4013     1  0.0000000  1.0460000  1
   3996   4007   4012   4013     1  0.0000000  0.6694400  3
   3996   4014   4001   4004     1  0.0000000  1.6038667  3
   3997   3996   4007   4010     1  0.0000000  0.6508444  3
   3997   3996   4007   4011     1  0.0000000  0.6508444  3
   3997   3999   4000   4002     1  0.0000000  0.6508444  3
   3997   3999   4006   4008     1  0.0000000  1.0460000  1
   3997   3999   4006   4008     1  0.0000000  0.6694400  3
   3998   3996   3997   3999     1  0.0000000  0.6508444  3
   3998   3996   3997   4017     1  0.0000000  1.0460000  1
   3998   3996   3997   4017     1  0.0000000  0.0000000  3
   3998   3996   3997   4016     1  0.0000000  0.6508444  3
   3998   3996   4007   4012     1  0.0000000  1.0460000  1
   3998   3996   4007   4012     1  0.0000000  0.0000000  3
   3998   3996   4007   4010     1  0.0000000  0.6508444  3
   3998   3996   4007   4011     1  0.0000000  0.6508444  3
   3998   3996   4014   4001     1  0.0000000  1.6038667  3
   3999   3997   4017   4018     1  0.0000000  1.0460000  1
   3999   3997   4017   4018     1  0.0000000  0.6694400  3
   3999   4000   4001   4004     1  0.0000000  0.6508444  3
   3999   4000   4019   4009     1  0.0000000  1.2552000  3
   4000   3999   3997   4016     1  0.0000000  0.6508444  3
   4000   3999   4006   4008     1  0.0000000  1.0460000  1
   4000   3999   4006   4008     1  0.0000000  0.6694400  3
   4000   4001   4005   4015     1  0.0000000  1.0460000  1
   4000   4001   4005   4015     1  0.0000000  0.6694400  3
   4001   4000   3999   4003     1  0.0000000  0.6508444  3
   4001   4000   4019   4009     1  0.0000000  1.2552000  3
   4002   4000   3999   4006     1  0.0000000  1.0460000  1
   4002   4000   3999   4006     1  0.0000000  0.0000000  3
   4002   4000   3999   4003     1  0.0000000  0.6508444  3
   4002   4000   4001   4005     1  0.0000000  1.0460000  1
   4002   4000   4001   4005     1  0.0000000  0.0000000  3
   4002   4000   4001   4014     1  0.0000000  1.0460000  1
   4002   4000   4001   4014     1  0.0000000  0.0000000  3
   4002   4000   4001   4004     1  0.0000000  0.6508444  3
   4002   4000   4019   4009     1  0.0000000  1.2552000  3
   4003   3999   3997   4017     1  0.0000000  1.0460000  1
   4003   3999   3997   4017     1  0.0000000  0.0000000  3
   4003   3999   3997   4016     1  0.0000000  0.6508444  3
   4003   3999   4000   4019     1  0.0000000  0.6508444  3
   4003   3999   4006   4008     1  0.0000000  0.6973333  3
   4004   4001   4000   4019     1  0.0000000  0.6508444  3
   4004   4001   4005   4015     1  0.0000000  0.6973333  3
   4006   3999   3997   4016     1  0.0000000  1.0460000  1
   4006   3999   3997   4016     1  0.0000000  0.0000000  3
   4007   3996   3997   4016     1  0.0000000  0.6508444  3
   4010   4007   3996   4014     1  0.0000000  1.0460000  1
   4010   4007   3996   4014     1  0.0000000  0.0000000  3
   4010   4007   4012   4013     1  0.0000000  0.6973333  3
   4011   4007   3996   4014     1  0.0000000  1.0460000  1
   4011   4007   3996   4014     1  0.0000000  0.0000000  3
   4011   4007   4012   4013     1  0.0000000  0.6973333  3
   4014   3996   3997   4016     1  0.0000000  1.0460000  1
   4014   3996   3997   4016     1  0.0000000  0.0000000  3
   4014   4001   4005   4015     1  0.0000000  0.6973333  3
   4016   3997   4017   4018     1  0.0000000  0.6973333  3
   4020   4021   4023   4027     1  0.0000000  0.6508444  3
   4020   4021   4041   4042     1  0.0000000  1.0460000  1
   4020   4021   4041   4042     1  0.0000000  0.6694400  3
   4020   4031   4036   4037     1  0.0000000  1.0460000  1
   4020   4031   4036   4037     1  0.0000000  0.6694400  3
   4020   4038   4025   4028     1  0.0000000  1.6038667  3
   4021   4020   4031   4034     1  0.0000000  0.6508444  3
   4021   4020   4031   4035     1  0.0000000  0.6508444  3
   4021   4023   4024   4026     1  0.0000000  0.6508444  3
   4021   4023   4030   4032     1  0.0000000  1.0460000  1
   4021   4023   4030   4032     1  0.0000000  0.6694400  3
   4022   4020   4021   4023     1  0.0000000  0.6508444  3
   4022   4020   4021   4041     1  0.0000000  1.0460000  1
   4022   4020   4021   4041     1  0.0000000  0.0000000  3
   4022   4020   4021   4040     1  0.0000000  0.6508444  3
   4022   4020   4031   4036     1  0.0000000  1.0460000  1
   4022   4020   4031   4036     1  0.0000000  0.0000000  3
   4022   4020   4031   4034     1  0.0000000  0.6508444  3
   4022   4020   4031   4035     1  0.0000000  0.6508444  3
   4022   4020   4038   4025     1  0.0000000  1.6038667  3
   4023   4021   4041   4042     1  0.0000000  1.0460000  1
   4023   4021   4041   4042     1  0.0000000  0.6694400  3
   4023   4024   4025   4028     1  0.0000000  0.6508444  3
   4023   4024   4043   4033     1  0.0000000  1.2552000  3
   4024   4023   4021   4040     1  0.0000000  0.6508444  3
   4024   4023   4030   4032     1  0.0000000  1.0460000  1
   4024   4023   4030   4032     1  0.0000000  0.6694400  3
   4024   4025   4029   4039     1  0.0000000  1.0460000  1
   4024   4025   4029   4039     1  0.0000000  0.6694400  3
   4025   4024   4023   4027     1  0.0000000  0.6508444  3
   4025   4024   4043   4033     1  0.0000000  1.2552000  3
   4026   4024   4023   4030     1  0.0000000  1.0460000  1
   4026   4024   4023   4030     1  0.0000000  0.0000000  3
   4026   4024   4023   4027     1  0.0000000  0.6508444  3
   4026   4024   4025   4029     1  0.0000000  1.0460000  1
   4026   4024   4025   4029     1  0.0000000  0.0000000  3
   4026   4024   4025   4038     1  0.0000000  1.0460000  1
   4026   4024   4025   4038     1  0.0000000  0.0000000  3
   4026   4024   4025   4028     1  0.0000000  0.6508444  3
   4026   4024   4043   4033     1  0.0000000  1.2552000  3
   4027   4023   4021   4041     1  0.0000000  1.0460000  1
   4027   4023   4021   4041     1  0.0000000  0.0000000  3
   4027   4023   4021   4040     1  0.0000000  0.6508444  3
   4027   4023   4024   4043     1  0.0000000  0.6508444  3
   4027   4023   4030   4032     1  0.0000000  0.6973333  3
   4028   4025   4024   4043     1  0.0000000  0.6508444  3
   4028   4025   4029   4039     1  0.0000000  0.6973333  3
   4030   4023   4021   4040     1  0.0000000  1.0460000  1
   4030   4023   4021   4040     1  0.0000000  0.0000000  3
   4031   4020   4021   4040     1  0.0000000  0.6508444  3
   4034   4031   4020   4038     1  0.0000000  1.0460000  1
   4034   4031   4020   4038     1  0.0000000  0.0000000  3
   4034   4031   4036   4037     1  0.0000000  0.6973333  3
   4035   4031   4020   4038     1  0.0000000  1.0460000  1
   4035   4031   4020   4038     1  0.0000000  0.0000000  3
   4035   4031   4036   4037     1  0.0000000  0.6973333  3
   4038   4020   4021   4040     1  0.0000000  1.0460000  1
   4038   4020   4021   4040     1  0.0000000  0.0000000  3
   4038   4025   4029   4039     1  0.0000000  0.6973333  3
   4040   4021   4041   4042     1  0.0000000  0.6973333  3
   4045   4047   4049   4051     1  0.0000000  0.6508444  3
   4045   4047   4049   4052     1  0.0000000  0.6508444  3
   4046   4045   4047   4049     1  0.0000000  0.0000000  2
   4046   4045   4047   4048     1  0.0000000  0.0000000  2
   4046   4045   4047   4050     1  0.0000000  0.0000000  2
   4047   4049   4053   4118     1  0.0000000  0.6508444  3
   4048   4047   4049   4053     1  0.0000000  0.6508444  3
   4048   4047   4049   4051     1  0.0000000  0.6508444  3
   4048   4047   4049   4052     1  0.0000000  0.6508444  3
   4049   4053   4054   4063     1  0.0000000  0.6508444  3
   4049   4053   4054   4064     1  0.0000000  0.6508444  3
   4049   4053   4055   4056     1  0.0000000  0.6508444  3
   4049   4053   4055   4058     1  0.0000000  0.6508444  3
   4050   4047   4049   4053     1  0.0000000  0.6508444  3
   4050   4047   4049   4051     1  0.0000000  0.6508444  3
   4050   4047   4049   4052     1  0.0000000  0.6508444  3
   4051   4049   4053   4054     1  0.0000000  0.6508444  3
   4051   4049   4053   4055     1  0.0000000  0.6508444  3
   4051   4049   4053   4118     1  0.0000000  0.6508444  3
   4052   4049   4053   4054     1  0.0000000  0.6508444  3
   4052   4049   4053   4055     1  0.0000000  0.6508444  3
   4052   4049   4053   4118     1  0.0000000  0.6508444  3
   4053   4054   4065   4066     1  0.0000000  0.6508444  3
   4053   4054   4065   4067     1  0.0000000  0.6508444  3
   4053   4055   4057   4059     1  0.0000000  0.6508444  3
   4053   4055   4057   4060     1  0.0000000  0.6508444  3
   4054   4053   4055   4056     1  0.0000000  0.6508444  3
   4054   4053   4055   4058     1  0.0000000  0.6508444  3
   4055   4053   4054   4063     1  0.0000000  0.6508444  3
   4055   4053   4054   4064     1  0.0000000  0.6508444  3
   4056   4055   4057   4061     1  0.0000000  0.6508444  3
   4056   4055   4057   4059     1  0.0000000  0.6508444  3
   4056   4055   4057   4060     1  0.0000000  0.6508444  3
   4056   4055   4053   4118     1  0.0000000  0.6508444  3
   4057   4061   4093   4083     1  180.0000771  6.0668000  2
   4057   4061   4093   4083     1  180.0000771  1.4644000  4
   4057   4055   4053   4118     1  0.0000000  0.6508444  3
   4058   4055   4057   4061     1  0.0000000  0.6508444  3
   4058   4055   4057   4059     1  0.0000000  0.6508444  3
   4058   4055   4057   4060     1  0.0000000  0.6508444  3
   4058   4055   4053   4118     1  0.0000000  0.6508444  3
   4059   4057   4061   4062     1  0.0000000  3.3472000  1
   4059   4057   4061   4062     1  0.0000000  0.0000000  2
   4059   4057   4061   4062     1  180.0000771  0.3347200  3
   4059   4057   4061   4093     1  180.0000771  0.0000000  2
   4060   4057   4061   4062     1  0.0000000  3.3472000  1
   4060   4057   4061   4062     1  0.0000000  0.0000000  2
   4060   4057   4061   4062     1  180.0000771  0.3347200  3
   4060   4057   4061   4093     1  180.0000771  0.0000000  2
   4061   4093   4074   4076     1  0.0000000  1.2552000  3
   4062   4061   4093   4083     1  180.0000771  6.0668000  2
   4062   4061   4093   4083     1  180.0000771  1.4644000  4
   4063   4054   4065   4068     1  0.0000000  0.6508444  3
   4063   4054   4065   4066     1  0.0000000  0.6508444  3
   4063   4054   4065   4067     1  0.0000000  0.6508444  3
   4063   4054   4053   4118     1  0.0000000  0.6508444  3
   4064   4054   4065   4068     1  0.0000000  0.6508444  3
   4064   4054   4065   4066     1  0.0000000  0.6508444  3
   4064   4054   4065   4067     1  0.0000000  0.6508444  3
   4064   4054   4053   4118     1  0.0000000  0.6508444  3
   4065   4068   4117   4107     1  180.0000771  6.0668000  2
   4065   4068   4117   4107     1  180.0000771  1.4644000  4
   4065   4054   4053   4118     1  0.0000000  0.6508444  3
   4066   4065   4068   4069     1  0.0000000  3.3472000  1
   4066   4065   4068   4069     1  0.0000000  0.0000000  2
   4066   4065   4068   4069     1  180.0000771  0.3347200  3
   4066   4065   4068   4117     1  180.0000771  0.0000000  2
   4067   4065   4068   4069     1  0.0000000  3.3472000  1
   4067   4065   4068   4069     1  0.0000000  0.0000000  2
   4067   4065   4068   4069     1  180.0000771  0.3347200  3
   4067   4065   4068   4117     1  180.0000771  0.0000000  2
   4068   4117   4098   4100     1  0.0000000  1.2552000  3
   4069   4068   4117   4107     1  180.0000771  6.0668000  2
   4069   4068   4117   4107     1  180.0000771  1.4644000  4
   4070   4071   4073   4077     1  0.0000000  0.6508444  3
   4070   4071   4091   4092     1  0.0000000  1.0460000  1
   4070   4071   4091   4092     1  0.0000000  0.6694400  3
   4070   4081   4086   4087     1  0.0000000  1.0460000  1
   4070   4081   4086   4087     1  0.0000000  0.6694400  3
   4070   4088   4075   4078     1  0.0000000  1.6038667  3
   4071   4073   4074   4076     1  0.0000000  0.6508444  3
   4071   4073   4080   4082     1  0.0000000  1.0460000  1
   4071   4073   4080   4082     1  0.0000000  0.6694400  3
   4071   4070   4081   4084     1  0.0000000  0.6508444  3
   4071   4070   4081   4085     1  0.0000000  0.6508444  3
   4072   4070   4071   4073     1  0.0000000  0.6508444  3
   4072   4070   4071   4091     1  0.0000000  1.0460000  1
   4072   4070   4071   4091     1  0.0000000  0.0000000  3
   4072   4070   4071   4090     1  0.0000000  0.6508444  3
   4072   4070   4081   4086     1  0.0000000  1.0460000  1
   4072   4070   4081   4086     1  0.0000000  0.0000000  3
   4072   4070   4081   4084     1  0.0000000  0.6508444  3
   4072   4070   4081   4085     1  0.0000000  0.6508444  3
   4072   4070   4088   4075     1  0.0000000  1.6038667  3
   4073   4074   4075   4078     1  0.0000000  0.6508444  3
   4073   4074   4093   4083     1  0.0000000  1.2552000  3
   4073   4071   4091   4092     1  0.0000000  1.0460000  1
   4073   4071   4091   4092     1  0.0000000  0.6694400  3
   4074   4075   4079   4089     1  0.0000000  1.0460000  1
   4074   4075   4079   4089     1  0.0000000  0.6694400  3
   4074   4073   4080   4082     1  0.0000000  1.0460000  1
   4074   4073   4080   4082     1  0.0000000  0.6694400  3
   4074   4073   4071   4090     1  0.0000000  0.6508444  3
   4075   4074   4093   4083     1  0.0000000  1.2552000  3
   4075   4074   4073   4077     1  0.0000000  0.6508444  3
   4076   4074   4075   4079     1  0.0000000  1.0460000  1
   4076   4074   4075   4079     1  0.0000000  0.0000000  3
   4076   4074   4075   4088     1  0.0000000  1.0460000  1
   4076   4074   4075   4088     1  0.0000000  0.0000000  3
   4076   4074   4075   4078     1  0.0000000  0.6508444  3
   4076   4074   4093   4083     1  0.0000000  1.2552000  3
   4076   4074   4073   4080     1  0.0000000  1.0460000  1
   4076   4074   4073   4080     1  0.0000000  0.0000000  3
   4076   4074   4073   4077     1  0.0000000  0.6508444  3
   4077   4073   4074   4093     1  0.0000000  0.6508444  3
   4077   4073   4080   4082     1  0.0000000  0.6973333  3
   4077   4073   4071   4091     1  0.0000000  1.0460000  1
   4077   4073   4071   4091     1  0.0000000  0.0000000  3
   4077   4073   4071   4090     1  0.0000000  0.6508444  3
   4078   4075   4079   4089     1  0.0000000  0.6973333  3
   4078   4075   4074   4093     1  0.0000000  0.6508444  3
   4080   4073   4071   4090     1  0.0000000  1.0460000  1
   4080   4073   4071   4090     1  0.0000000  0.0000000  3
   4081   4070   4071   4090     1  0.0000000  0.6508444  3
   4084   4081   4086   4087     1  0.0000000  0.6973333  3
   4084   4081   4070   4088     1  0.0000000  1.0460000  1
   4084   4081   4070   4088     1  0.0000000  0.0000000  3
   4085   4081   4086   4087     1  0.0000000  0.6973333  3
   4085   4081   4070   4088     1  0.0000000  1.0460000  1
   4085   4081   4070   4088     1  0.0000000  0.0000000  3
   4088   4075   4079   4089     1  0.0000000  0.6973333  3
   4088   4070   4071   4090     1  0.0000000  1.0460000  1
   4088   4070   4071   4090     1  0.0000000  0.0000000  3
   4090   4071   4091   4092     1  0.0000000  0.6973333  3
   4094   4095   4097   4101     1  0.0000000  0.6508444  3
   4094   4095   4115   4116     1  0.0000000  1.0460000  1
   4094   4095   4115   4116     1  0.0000000  0.6694400  3
   4094   4105   4110   4111     1  0.0000000  1.0460000  1
   4094   4105   4110   4111     1  0.0000000  0.6694400  3
   4094   4112   4099   4102     1  0.0000000  1.6038667  3
   4095   4097   4098   4100     1  0.0000000  0.6508444  3
   4095   4097   4104   4106     1  0.0000000  1.0460000  1
   4095   4097   4104   4106     1  0.0000000  0.6694400  3
   4095   4094   4105   4108     1  0.0000000  0.6508444  3
   4095   4094   4105   4109     1  0.0000000  0.6508444  3
   4096   4094   4095   4097     1  0.0000000  0.6508444  3
   4096   4094   4095   4115     1  0.0000000  1.0460000  1
   4096   4094   4095   4115     1  0.0000000  0.0000000  3
   4096   4094   4095   4114     1  0.0000000  0.6508444  3
   4096   4094   4105   4110     1  0.0000000  1.0460000  1
   4096   4094   4105   4110     1  0.0000000  0.0000000  3
   4096   4094   4105   4108     1  0.0000000  0.6508444  3
   4096   4094   4105   4109     1  0.0000000  0.6508444  3
   4096   4094   4112   4099     1  0.0000000  1.6038667  3
   4097   4098   4099   4102     1  0.0000000  0.6508444  3
   4097   4098   4117   4107     1  0.0000000  1.2552000  3
   4097   4095   4115   4116     1  0.0000000  1.0460000  1
   4097   4095   4115   4116     1  0.0000000  0.6694400  3
   4098   4099   4103   4113     1  0.0000000  1.0460000  1
   4098   4099   4103   4113     1  0.0000000  0.6694400  3
   4098   4097   4104   4106     1  0.0000000  1.0460000  1
   4098   4097   4104   4106     1  0.0000000  0.6694400  3
   4098   4097   4095   4114     1  0.0000000  0.6508444  3
   4099   4098   4117   4107     1  0.0000000  1.2552000  3
   4099   4098   4097   4101     1  0.0000000  0.6508444  3
   4100   4098   4099   4103     1  0.0000000  1.0460000  1
   4100   4098   4099   4103     1  0.0000000  0.0000000  3
   4100   4098   4099   4112     1  0.0000000  1.0460000  1
   4100   4098   4099   4112     1  0.0000000  0.0000000  3
   4100   4098   4099   4102     1  0.0000000  0.6508444  3
   4100   4098   4117   4107     1  0.0000000  1.2552000  3
   4100   4098   4097   4104     1  0.0000000  1.0460000  1
   4100   4098   4097   4104     1  0.0000000  0.0000000  3
   4100   4098   4097   4101     1  0.0000000  0.6508444  3
   4101   4097   4098   4117     1  0.0000000  0.6508444  3
   4101   4097   4104   4106     1  0.0000000  0.6973333  3
   4101   4097   4095   4115     1  0.0000000  1.0460000  1
   4101   4097   4095   4115     1  0.0000000  0.0000000  3
   4101   4097   4095   4114     1  0.0000000  0.6508444  3
   4102   4099   4103   4113     1  0.0000000  0.6973333  3
   4102   4099   4098   4117     1  0.0000000  0.6508444  3
   4104   4097   4095   4114     1  0.0000000  1.0460000  1
   4104   4097   4095   4114     1  0.0000000  0.0000000  3
   4105   4094   4095   4114     1  0.0000000  0.6508444  3
   4108   4105   4110   4111     1  0.0000000  0.6973333  3
   4108   4105   4094   4112     1  0.0000000  1.0460000  1
   4108   4105   4094   4112     1  0.0000000  0.0000000  3
   4109   4105   4110   4111     1  0.0000000  0.6973333  3
   4109   4105   4094   4112     1  0.0000000  1.0460000  1
   4109   4105   4094   4112     1  0.0000000  0.0000000  3
   4112   4099   4103   4113     1  0.0000000  0.6973333  3
   4112   4094   4095   4114     1  0.0000000  1.0460000  1
   4112   4094   4095   4114     1  0.0000000  0.0000000  3
   4114   4095   4115   4116     1  0.0000000  0.6973333  3
   4119   4121   4123   4125     1  0.0000000  0.6508444  3
   4119   4121   4123   4126     1  0.0000000  0.6508444  3
   4120   4119   4121   4123     1  0.0000000  0.0000000  2
   4120   4119   4121   4122     1  0.0000000  0.0000000  2
   4120   4119   4121   4124     1  0.0000000  0.0000000  2
   4121   4123   4127   4192     1  0.0000000  0.6508444  3
   4122   4121   4123   4127     1  0.0000000  0.6508444  3
   4122   4121   4123   4125     1  0.0000000  0.6508444  3
   4122   4121   4123   4126     1  0.0000000  0.6508444  3
   4123   4127   4128   4137     1  0.0000000  0.6508444  3
   4123   4127   4128   4138     1  0.0000000  0.6508444  3
   4123   4127   4129   4130     1  0.0000000  0.6508444  3
   4123   4127   4129   4132     1  0.0000000  0.6508444  3
   4124   4121   4123   4127     1  0.0000000  0.6508444  3
   4124   4121   4123   4125     1  0.0000000  0.6508444  3
   4124   4121   4123   4126     1  0.0000000  0.6508444  3
   4125   4123   4127   4128     1  0.0000000  0.6508444  3
   4125   4123   4127   4129     1  0.0000000  0.6508444  3
   4125   4123   4127   4192     1  0.0000000  0.6508444  3
   4126   4123   4127   4128     1  0.0000000  0.6508444  3
   4126   4123   4127   4129     1  0.0000000  0.6508444  3
   4126   4123   4127   4192     1  0.0000000  0.6508444  3
   4127   4128   4139   4140     1  0.0000000  0.6508444  3
   4127   4128   4139   4141     1  0.0000000  0.6508444  3
   4127   4129   4131   4133     1  0.0000000  0.6508444  3
   4127   4129   4131   4134     1  0.0000000  0.6508444  3
   4128   4127   4129   4130     1  0.0000000  0.6508444  3
   4128   4127   4129   4132     1  0.0000000  0.6508444  3
   4129   4127   4128   4137     1  0.0000000  0.6508444  3
   4129   4127   4128   4138     1  0.0000000  0.6508444  3
   4130   4129   4127   4192     1  0.0000000  0.6508444  3
   4130   4129   4131   4135     1  0.0000000  0.6508444  3
   4130   4129   4131   4133     1  0.0000000  0.6508444  3
   4130   4129   4131   4134     1  0.0000000  0.6508444  3
   4131   4129   4127   4192     1  0.0000000  0.6508444  3
   4131   4135   4167   4157     1  180.0000771  6.0668000  2
   4131   4135   4167   4157     1  180.0000771  1.4644000  4
   4132   4129   4127   4192     1  0.0000000  0.6508444  3
   4132   4129   4131   4135     1  0.0000000  0.6508444  3
   4132   4129   4131   4133     1  0.0000000  0.6508444  3
   4132   4129   4131   4134     1  0.0000000  0.6508444  3
   4133   4131   4135   4136     1  0.0000000  3.3472000  1
   4133   4131   4135   4136     1  0.0000000  0.0000000  2
   4133   4131   4135   4136     1  180.0000771  0.3347200  3
   4133   4131   4135   4167     1  180.0000771  0.0000000  2
   4134   4131   4135   4136     1  0.0000000  3.3472000  1
   4134   4131   4135   4136     1  0.0000000  0.0000000  2
   4134   4131   4135   4136     1  180.0000771  0.3347200  3
   4134   4131   4135   4167     1  180.0000771  0.0000000  2
   4135   4167   4148   4150     1  0.0000000  1.2552000  3
   4136   4135   4167   4157     1  180.0000771  6.0668000  2
   4136   4135   4167   4157     1  180.0000771  1.4644000  4
   4137   4128   4127   4192     1  0.0000000  0.6508444  3
   4137   4128   4139   4142     1  0.0000000  0.6508444  3
   4137   4128   4139   4140     1  0.0000000  0.6508444  3
   4137   4128   4139   4141     1  0.0000000  0.6508444  3
   4138   4128   4127   4192     1  0.0000000  0.6508444  3
   4138   4128   4139   4142     1  0.0000000  0.6508444  3
   4138   4128   4139   4140     1  0.0000000  0.6508444  3
   4138   4128   4139   4141     1  0.0000000  0.6508444  3
   4139   4128   4127   4192     1  0.0000000  0.6508444  3
   4139   4142   4191   4181     1  180.0000771  6.0668000  2
   4139   4142   4191   4181     1  180.0000771  1.4644000  4
   4140   4139   4142   4143     1  0.0000000  3.3472000  1
   4140   4139   4142   4143     1  0.0000000  0.0000000  2
   4140   4139   4142   4143     1  180.0000771  0.3347200  3
   4140   4139   4142   4191     1  180.0000771  0.0000000  2
   4141   4139   4142   4143     1  0.0000000  3.3472000  1
   4141   4139   4142   4143     1  0.0000000  0.0000000  2
   4141   4139   4142   4143     1  180.0000771  0.3347200  3
   4141   4139   4142   4191     1  180.0000771  0.0000000  2
   4142   4191   4172   4174     1  0.0000000  1.2552000  3
   4143   4142   4191   4181     1  180.0000771  6.0668000  2
   4143   4142   4191   4181     1  180.0000771  1.4644000  4
   4144   4145   4147   4151     1  0.0000000  0.6508444  3
   4144   4145   4165   4166     1  0.0000000  1.0460000  1
   4144   4145   4165   4166     1  0.0000000  0.6694400  3
   4144   4155   4160   4161     1  0.0000000  1.0460000  1
   4144   4155   4160   4161     1  0.0000000  0.6694400  3
   4144   4162   4149   4152     1  0.0000000  1.6038667  3
   4145   4144   4155   4158     1  0.0000000  0.6508444  3
   4145   4144   4155   4159     1  0.0000000  0.6508444  3
   4145   4147   4148   4150     1  0.0000000  0.6508444  3
   4145   4147   4154   4156     1  0.0000000  1.0460000  1
   4145   4147   4154   4156     1  0.0000000  0.6694400  3
   4146   4144   4145   4147     1  0.0000000  0.6508444  3
   4146   4144   4145   4165     1  0.0000000  1.0460000  1
   4146   4144   4145   4165     1  0.0000000  0.0000000  3
   4146   4144   4145   4164     1  0.0000000  0.6508444  3
   4146   4144   4155   4160     1  0.0000000  1.0460000  1
   4146   4144   4155   4160     1  0.0000000  0.0000000  3
   4146   4144   4155   4158     1  0.0000000  0.6508444  3
   4146   4144   4155   4159     1  0.0000000  0.6508444  3
   4146   4144   4162   4149     1  0.0000000  1.6038667  3
   4147   4145   4165   4166     1  0.0000000  1.0460000  1
   4147   4145   4165   4166     1  0.0000000  0.6694400  3
   4147   4148   4149   4152     1  0.0000000  0.6508444  3
   4147   4148   4167   4157     1  0.0000000  1.2552000  3
   4148   4147   4145   4164     1  0.0000000  0.6508444  3
   4148   4147   4154   4156     1  0.0000000  1.0460000  1
   4148   4147   4154   4156     1  0.0000000  0.6694400  3
   4148   4149   4153   4163     1  0.0000000  1.0460000  1
   4148   4149   4153   4163     1  0.0000000  0.6694400  3
   4149   4148   4147   4151     1  0.0000000  0.6508444  3
   4149   4148   4167   4157     1  0.0000000  1.2552000  3
   4150   4148   4147   4154     1  0.0000000  1.0460000  1
   4150   4148   4147   4154     1  0.0000000  0.0000000  3
   4150   4148   4147   4151     1  0.0000000  0.6508444  3
   4150   4148   4149   4153     1  0.0000000  1.0460000  1
   4150   4148   4149   4153     1  0.0000000  0.0000000  3
   4150   4148   4149   4162     1  0.0000000  1.0460000  1
   4150   4148   4149   4162     1  0.0000000  0.0000000  3
   4150   4148   4149   4152     1  0.0000000  0.6508444  3
   4150   4148   4167   4157     1  0.0000000  1.2552000  3
   4151   4147   4145   4165     1  0.0000000  1.0460000  1
   4151   4147   4145   4165     1  0.0000000  0.0000000  3
   4151   4147   4145   4164     1  0.0000000  0.6508444  3
   4151   4147   4148   4167     1  0.0000000  0.6508444  3
   4151   4147   4154   4156     1  0.0000000  0.6973333  3
   4152   4149   4148   4167     1  0.0000000  0.6508444  3
   4152   4149   4153   4163     1  0.0000000  0.6973333  3
   4154   4147   4145   4164     1  0.0000000  1.0460000  1
   4154   4147   4145   4164     1  0.0000000  0.0000000  3
   4155   4144   4145   4164     1  0.0000000  0.6508444  3
   4158   4155   4144   4162     1  0.0000000  1.0460000  1
   4158   4155   4144   4162     1  0.0000000  0.0000000  3
   4158   4155   4160   4161     1  0.0000000  0.6973333  3
   4159   4155   4144   4162     1  0.0000000  1.0460000  1
   4159   4155   4144   4162     1  0.0000000  0.0000000  3
   4159   4155   4160   4161     1  0.0000000  0.6973333  3
   4162   4144   4145   4164     1  0.0000000  1.0460000  1
   4162   4144   4145   4164     1  0.0000000  0.0000000  3
   4162   4149   4153   4163     1  0.0000000  0.6973333  3
   4164   4145   4165   4166     1  0.0000000  0.6973333  3
   4168   4169   4171   4175     1  0.0000000  0.6508444  3
   4168   4169   4189   4190     1  0.0000000  1.0460000  1
   4168   4169   4189   4190     1  0.0000000  0.6694400  3
   4168   4179   4184   4185     1  0.0000000  1.0460000  1
   4168   4179   4184   4185     1  0.0000000  0.6694400  3
   4168   4186   4173   4176     1  0.0000000  1.6038667  3
   4169   4168   4179   4182     1  0.0000000  0.6508444  3
   4169   4168   4179   4183     1  0.0000000  0.6508444  3
   4169   4171   4172   4174     1  0.0000000  0.6508444  3
   4169   4171   4178   4180     1  0.0000000  1.0460000  1
   4169   4171   4178   4180     1  0.0000000  0.6694400  3
   4170   4168   4169   4171     1  0.0000000  0.6508444  3
   4170   4168   4169   4189     1  0.0000000  1.0460000  1
   4170   4168   4169   4189     1  0.0000000  0.0000000  3
   4170   4168   4169   4188     1  0.0000000  0.6508444  3
   4170   4168   4179   4184     1  0.0000000  1.0460000  1
   4170   4168   4179   4184     1  0.0000000  0.0000000  3
   4170   4168   4179   4182     1  0.0000000  0.6508444  3
   4170   4168   4179   4183     1  0.0000000  0.6508444  3
   4170   4168   4186   4173     1  0.0000000  1.6038667  3
   4171   4169   4189   4190     1  0.0000000  1.0460000  1
   4171   4169   4189   4190     1  0.0000000  0.6694400  3
   4171   4172   4173   4176     1  0.0000000  0.6508444  3
   4171   4172   4191   4181     1  0.0000000  1.2552000  3
   4172   4171   4169   4188     1  0.0000000  0.6508444  3
   4172   4171   4178   4180     1  0.0000000  1.0460000  1
   4172   4171   4178   4180     1  0.0000000  0.6694400  3
   4172   4173   4177   4187     1  0.0000000  1.0460000  1
   4172   4173   4177   4187     1  0.0000000  0.6694400  3
   4173   4172   4171   4175     1  0.0000000  0.6508444  3
   4173   4172   4191   4181     1  0.0000000  1.2552000  3
   4174   4172   4171   4178     1  0.0000000  1.0460000  1
   4174   4172   4171   4178     1  0.0000000  0.0000000  3
   4174   4172   4171   4175     1  0.0000000  0.6508444  3
   4174   4172   4173   4177     1  0.0000000  1.0460000  1
   4174   4172   4173   4177     1  0.0000000  0.0000000  3
   4174   4172   4173   4186     1  0.0000000  1.0460000  1
   4174   4172   4173   4186     1  0.0000000  0.0000000  3
   4174   4172   4173   4176     1  0.0000000  0.6508444  3
   4174   4172   4191   4181     1  0.0000000  1.2552000  3
   4175   4171   4169   4189     1  0.0000000  1.0460000  1
   4175   4171   4169   4189     1  0.0000000  0.0000000  3
   4175   4171   4169   4188     1  0.0000000  0.6508444  3
   4175   4171   4172   4191     1  0.0000000  0.6508444  3
   4175   4171   4178   4180     1  0.0000000  0.6973333  3
   4176   4173   4172   4191     1  0.0000000  0.6508444  3
   4176   4173   4177   4187     1  0.0000000  0.6973333  3
   4178   4171   4169   4188     1  0.0000000  1.0460000  1
   4178   4171   4169   4188     1  0.0000000  0.0000000  3
   4179   4168   4169   4188     1  0.0000000  0.6508444  3
   4182   4179   4168   4186     1  0.0000000  1.0460000  1
   4182   4179   4168   4186     1  0.0000000  0.0000000  3
   4182   4179   4184   4185     1  0.0000000  0.6973333  3
   4183   4179   4168   4186     1  0.0000000  1.0460000  1
   4183   4179   4168   4186     1  0.0000000  0.0000000  3
   4183   4179   4184   4185     1  0.0000000  0.6973333  3
   4186   4168   4169   4188     1  0.0000000  1.0460000  1
   4186   4168   4169   4188     1  0.0000000  0.0000000  3
   4186   4173   4177   4187     1  0.0000000  0.6973333  3
   4188   4169   4189   4190     1  0.0000000  0.6973333  3
   4193   4195   4197   4199     1  0.0000000  0.6508444  3
   4193   4195   4197   4200     1  0.0000000  0.6508444  3
   4194   4193   4195   4197     1  0.0000000  0.0000000  2
   4194   4193   4195   4196     1  0.0000000  0.0000000  2
   4194   4193   4195   4198     1  0.0000000  0.0000000  2
   4195   4197   4201   4266     1  0.0000000  0.6508444  3
   4196   4195   4197   4201     1  0.0000000  0.6508444  3
   4196   4195   4197   4199     1  0.0000000  0.6508444  3
   4196   4195   4197   4200     1  0.0000000  0.6508444  3
   4197   4201   4202   4211     1  0.0000000  0.6508444  3
   4197   4201   4202   4212     1  0.0000000  0.6508444  3
   4197   4201   4203   4204     1  0.0000000  0.6508444  3
   4197   4201   4203   4206     1  0.0000000  0.6508444  3
   4198   4195   4197   4201     1  0.0000000  0.6508444  3
   4198   4195   4197   4199     1  0.0000000  0.6508444  3
   4198   4195   4197   4200     1  0.0000000  0.6508444  3
   4199   4197   4201   4202     1  0.0000000  0.6508444  3
   4199   4197   4201   4203     1  0.0000000  0.6508444  3
   4199   4197   4201   4266     1  0.0000000  0.6508444  3
   4200   4197   4201   4202     1  0.0000000  0.6508444  3
   4200   4197   4201   4203     1  0.0000000  0.6508444  3
   4200   4197   4201   4266     1  0.0000000  0.6508444  3
   4201   4202   4213   4214     1  0.0000000  0.6508444  3
   4201   4202   4213   4215     1  0.0000000  0.6508444  3
   4201   4203   4205   4207     1  0.0000000  0.6508444  3
   4201   4203   4205   4208     1  0.0000000  0.6508444  3
   4202   4201   4203   4204     1  0.0000000  0.6508444  3
   4202   4201   4203   4206     1  0.0000000  0.6508444  3
   4203   4201   4202   4211     1  0.0000000  0.6508444  3
   4203   4201   4202   4212     1  0.0000000  0.6508444  3
   4204   4203   4205   4209     1  0.0000000  0.6508444  3
   4204   4203   4205   4207     1  0.0000000  0.6508444  3
   4204   4203   4205   4208     1  0.0000000  0.6508444  3
   4204   4203   4201   4266     1  0.0000000  0.6508444  3
   4205   4209   4241   4231     1  180.0000771  6.0668000  2
   4205   4209   4241   4231     1  180.0000771  1.4644000  4
   4205   4203   4201   4266     1  0.0000000  0.6508444  3
   4206   4203   4205   4209     1  0.0000000  0.6508444  3
   4206   4203   4205   4207     1  0.0000000  0.6508444  3
   4206   4203   4205   4208     1  0.0000000  0.6508444  3
   4206   4203   4201   4266     1  0.0000000  0.6508444  3
   4207   4205   4209   4210     1  0.0000000  3.3472000  1
   4207   4205   4209   4210     1  0.0000000  0.0000000  2
   4207   4205   4209   4210     1  180.0000771  0.3347200  3
   4207   4205   4209   4241     1  180.0000771  0.0000000  2
   4208   4205   4209   4210     1  0.0000000  3.3472000  1
   4208   4205   4209   4210     1  0.0000000  0.0000000  2
   4208   4205   4209   4210     1  180.0000771  0.3347200  3
   4208   4205   4209   4241     1  180.0000771  0.0000000  2
   4209   4241   4222   4224     1  0.0000000  1.2552000  3
   4210   4209   4241   4231     1  180.0000771  6.0668000  2
   4210   4209   4241   4231     1  180.0000771  1.4644000  4
   4211   4202   4213   4216     1  0.0000000  0.6508444  3
   4211   4202   4213   4214     1  0.0000000  0.6508444  3
   4211   4202   4213   4215     1  0.0000000  0.6508444  3
   4211   4202   4201   4266     1  0.0000000  0.6508444  3
   4212   4202   4213   4216     1  0.0000000  0.6508444  3
   4212   4202   4213   4214     1  0.0000000  0.6508444  3
   4212   4202   4213   4215     1  0.0000000  0.6508444  3
   4212   4202   4201   4266     1  0.0000000  0.6508444  3
   4213   4216   4265   4255     1  180.0000771  6.0668000  2
   4213   4216   4265   4255     1  180.0000771  1.4644000  4
   4213   4202   4201   4266     1  0.0000000  0.6508444  3
   4214   4213   4216   4217     1  0.0000000  3.3472000  1
   4214   4213   4216   4217     1  0.0000000  0.0000000  2
   4214   4213   4216   4217     1  180.0000771  0.3347200  3
   4214   4213   4216   4265     1  180.0000771  0.0000000  2
   4215   4213   4216   4217     1  0.0000000  3.3472000  1
   4215   4213   4216   4217     1  0.0000000  0.0000000  2
   4215   4213   4216   4217     1  180.0000771  0.3347200  3
   4215   4213   4216   4265     1  180.0000771  0.0000000  2
   4216   4265   4246   4248     1  0.0000000  1.2552000  3
   4217   4216   4265   4255     1  180.0000771  6.0668000  2
   4217   4216   4265   4255     1  180.0000771  1.4644000  4
   4218   4219   4221   4225     1  0.0000000  0.6508444  3
   4218   4219   4239   4240     1  0.0000000  1.0460000  1
   4218   4219   4239   4240     1  0.0000000  0.6694400  3
   4218   4229   4234   4235     1  0.0000000  1.0460000  1
   4218   4229   4234   4235     1  0.0000000  0.6694400  3
   4218   4236   4223   4226     1  0.0000000  1.6038667  3
   4219   4221   4222   4224     1  0.0000000  0.6508444  3
   4219   4221   4228   4230     1  0.0000000  1.0460000  1
   4219   4221   4228   4230     1  0.0000000  0.6694400  3
   4219   4218   4229   4232     1  0.0000000  0.6508444  3
   4219   4218   4229   4233     1  0.0000000  0.6508444  3
   4220   4218   4219   4221     1  0.0000000  0.6508444  3
   4220   4218   4219   4239     1  0.0000000  1.0460000  1
   4220   4218   4219   4239     1  0.0000000  0.0000000  3
   4220   4218   4219   4238     1  0.0000000  0.6508444  3
   4220   4218   4229   4234     1  0.0000000  1.0460000  1
   4220   4218   4229   4234     1  0.0000000  0.0000000  3
   4220   4218   4229   4232     1  0.0000000  0.6508444  3
   4220   4218   4229   4233     1  0.0000000  0.6508444  3
   4220   4218   4236   4223     1  0.0000000  1.6038667  3
   4221   4222   4223   4226     1  0.0000000  0.6508444  3
   4221   4222   4241   4231     1  0.0000000  1.2552000  3
   4221   4219   4239   4240     1  0.0000000  1.0460000  1
   4221   4219   4239   4240     1  0.0000000  0.6694400  3
   4222   4223   4227   4237     1  0.0000000  1.0460000  1
   4222   4223   4227   4237     1  0.0000000  0.6694400  3
   4222   4221   4228   4230     1  0.0000000  1.0460000  1
   4222   4221   4228   4230     1  0.0000000  0.6694400  3
   4222   4221   4219   4238     1  0.0000000  0.6508444  3
   4223   4222   4241   4231     1  0.0000000  1.2552000  3
   4223   4222   4221   4225     1  0.0000000  0.6508444  3
   4224   4222   4223   4227     1  0.0000000  1.0460000  1
   4224   4222   4223   4227     1  0.0000000  0.0000000  3
   4224   4222   4223   4236     1  0.0000000  1.0460000  1
   4224   4222   4223   4236     1  0.0000000  0.0000000  3
   4224   4222   4223   4226     1  0.0000000  0.6508444  3
   4224   4222   4241   4231     1  0.0000000  1.2552000  3
   4224   4222   4221   4228     1  0.0000000  1.0460000  1
   4224   4222   4221   4228     1  0.0000000  0.0000000  3
   4224   4222   4221   4225     1  0.0000000  0.6508444  3
   4225   4221   4222   4241     1  0.0000000  0.6508444  3
   4225   4221   4228   4230     1  0.0000000  0.6973333  3
   4225   4221   4219   4239     1  0.0000000  1.0460000  1
   4225   4221   4219   4239     1  0.0000000  0.0000000  3
   4225   4221   4219   4238     1  0.0000000  0.6508444  3
   4226   4223   4227   4237     1  0.0000000  0.6973333  3
   4226   4223   4222   4241     1  0.0000000  0.6508444  3
   4228   4221   4219   4238     1  0.0000000  1.0460000  1
   4228   4221   4219   4238     1  0.0000000  0.0000000  3
   4229   4218   4219   4238     1  0.0000000  0.6508444  3
   4232   4229   4234   4235     1  0.0000000  0.6973333  3
   4232   4229   4218   4236     1  0.0000000  1.0460000  1
   4232   4229   4218   4236     1  0.0000000  0.0000000  3
   4233   4229   4234   4235     1  0.0000000  0.6973333  3
   4233   4229   4218   4236     1  0.0000000  1.0460000  1
   4233   4229   4218   4236     1  0.0000000  0.0000000  3
   4236   4223   4227   4237     1  0.0000000  0.6973333  3
   4236   4218   4219   4238     1  0.0000000  1.0460000  1
   4236   4218   4219   4238     1  0.0000000  0.0000000  3
   4238   4219   4239   4240     1  0.0000000  0.6973333  3
   4242   4243   4245   4249     1  0.0000000  0.6508444  3
   4242   4243   4263   4264     1  0.0000000  1.0460000  1
   4242   4243   4263   4264     1  0.0000000  0.6694400  3
   4242   4253   4258   4259     1  0.0000000  1.0460000  1
   4242   4253   4258   4259     1  0.0000000  0.6694400  3
   4242   4260   4247   4250     1  0.0000000  1.6038667  3
   4243   4245   4246   4248     1  0.0000000  0.6508444  3
   4243   4245   4252   4254     1  0.0000000  1.0460000  1
   4243   4245   4252   4254     1  0.0000000  0.6694400  3
   4243   4242   4253   4256     1  0.0000000  0.6508444  3
   4243   4242   4253   4257     1  0.0000000  0.6508444  3
   4244   4242   4243   4245     1  0.0000000  0.6508444  3
   4244   4242   4243   4263     1  0.0000000  1.0460000  1
   4244   4242   4243   4263     1  0.0000000  0.0000000  3
   4244   4242   4243   4262     1  0.0000000  0.6508444  3
   4244   4242   4253   4258     1  0.0000000  1.0460000  1
   4244   4242   4253   4258     1  0.0000000  0.0000000  3
   4244   4242   4253   4256     1  0.0000000  0.6508444  3
   4244   4242   4253   4257     1  0.0000000  0.6508444  3
   4244   4242   4260   4247     1  0.0000000  1.6038667  3
   4245   4246   4247   4250     1  0.0000000  0.6508444  3
   4245   4246   4265   4255     1  0.0000000  1.2552000  3
   4245   4243   4263   4264     1  0.0000000  1.0460000  1
   4245   4243   4263   4264     1  0.0000000  0.6694400  3
   4246   4247   4251   4261     1  0.0000000  1.0460000  1
   4246   4247   4251   4261     1  0.0000000  0.6694400  3
   4246   4245   4252   4254     1  0.0000000  1.0460000  1
   4246   4245   4252   4254     1  0.0000000  0.6694400  3
   4246   4245   4243   4262     1  0.0000000  0.6508444  3
   4247   4246   4265   4255     1  0.0000000  1.2552000  3
   4247   4246   4245   4249     1  0.0000000  0.6508444  3
   4248   4246   4247   4251     1  0.0000000  1.0460000  1
   4248   4246   4247   4251     1  0.0000000  0.0000000  3
   4248   4246   4247   4260     1  0.0000000  1.0460000  1
   4248   4246   4247   4260     1  0.0000000  0.0000000  3
   4248   4246   4247   4250     1  0.0000000  0.6508444  3
   4248   4246   4265   4255     1  0.0000000  1.2552000  3
   4248   4246   4245   4252     1  0.0000000  1.0460000  1
   4248   4246   4245   4252     1  0.0000000  0.0000000  3
   4248   4246   4245   4249     1  0.0000000  0.6508444  3
   4249   4245   4246   4265     1  0.0000000  0.6508444  3
   4249   4245   4252   4254     1  0.0000000  0.6973333  3
   4249   4245   4243   4263     1  0.0000000  1.0460000  1
   4249   4245   4243   4263     1  0.0000000  0.0000000  3
   4249   4245   4243   4262     1  0.0000000  0.6508444  3
   4250   4247   4251   4261     1  0.0000000  0.6973333  3
   4250   4247   4246   4265     1  0.0000000  0.6508444  3
   4252   4245   4243   4262     1  0.0000000  1.0460000  1
   4252   4245   4243   4262     1  0.0000000  0.0000000  3
   4253   4242   4243   4262     1  0.0000000  0.6508444  3
   4256   4253   4258   4259     1  0.0000000  0.6973333  3
   4256   4253   4242   4260     1  0.0000000  1.0460000  1
   4256   4253   4242   4260     1  0.0000000  0.0000000  3
   4257   4253   4258   4259     1  0.0000000  0.6973333  3
   4257   4253   4242   4260     1  0.0000000  1.0460000  1
   4257   4253   4242   4260     1  0.0000000  0.0000000  3
   4260   4247   4251   4261     1  0.0000000  0.6973333  3
   4260   4242   4243   4262     1  0.0000000  1.0460000  1
   4260   4242   4243   4262     1  0.0000000  0.0000000  3
   4262   4243   4263   4264     1  0.0000000  0.6973333  3
   4267   4269   4271   4273     1  0.0000000  0.6508444  3
   4267   4269   4271   4274     1  0.0000000  0.6508444  3
   4268   4267   4269   4271     1  0.0000000  0.0000000  2
   4268   4267   4269   4270     1  0.0000000  0.0000000  2
   4268   4267   4269   4272     1  0.0000000  0.0000000  2
   4269   4271   4275   4340     1  0.0000000  0.6508444  3
   4270   4269   4271   4275     1  0.0000000  0.6508444  3
   4270   4269   4271   4273     1  0.0000000  0.6508444  3
   4270   4269   4271   4274     1  0.0000000  0.6508444  3
   4271   4275   4276   4285     1  0.0000000  0.6508444  3
   4271   4275   4276   4286     1  0.0000000  0.6508444  3
   4271   4275   4277   4278     1  0.0000000  0.6508444  3
   4271   4275   4277   4280     1  0.0000000  0.6508444  3
   4272   4269   4271   4275     1  0.0000000  0.6508444  3
   4272   4269   4271   4273     1  0.0000000  0.6508444  3
   4272   4269   4271   4274     1  0.0000000  0.6508444  3
   4273   4271   4275   4276     1  0.0000000  0.6508444  3
   4273   4271   4275   4277     1  0.0000000  0.6508444  3
   4273   4271   4275   4340     1  0.0000000  0.6508444  3
   4274   4271   4275   4276     1  0.0000000  0.6508444  3
   4274   4271   4275   4277     1  0.0000000  0.6508444  3
   4274   4271   4275   4340     1  0.0000000  0.6508444  3
   4275   4276   4287   4288     1  0.0000000  0.6508444  3
   4275   4276   4287   4289     1  0.0000000  0.6508444  3
   4275   4277   4279   4281     1  0.0000000  0.6508444  3
   4275   4277   4279   4282     1  0.0000000  0.6508444  3
   4276   4275   4277   4278     1  0.0000000  0.6508444  3
   4276   4275   4277   4280     1  0.0000000  0.6508444  3
   4277   4275   4276   4285     1  0.0000000  0.6508444  3
   4277   4275   4276   4286     1  0.0000000  0.6508444  3
   4278   4277   4275   4340     1  0.0000000  0.6508444  3
   4278   4277   4279   4283     1  0.0000000  0.6508444  3
   4278   4277   4279   4281     1  0.0000000  0.6508444  3
   4278   4277   4279   4282     1  0.0000000  0.6508444  3
   4279   4277   4275   4340     1  0.0000000  0.6508444  3
   4279   4283   4315   4305     1  180.0000771  6.0668000  2
   4279   4283   4315   4305     1  180.0000771  1.4644000  4
   4280   4277   4275   4340     1  0.0000000  0.6508444  3
   4280   4277   4279   4283     1  0.0000000  0.6508444  3
   4280   4277   4279   4281     1  0.0000000  0.6508444  3
   4280   4277   4279   4282     1  0.0000000  0.6508444  3
   4281   4279   4283   4284     1  0.0000000  3.3472000  1
   4281   4279   4283   4284     1  0.0000000  0.0000000  2
   4281   4279   4283   4284     1  180.0000771  0.3347200  3
   4281   4279   4283   4315     1  180.0000771  0.0000000  2
   4282   4279   4283   4284     1  0.0000000  3.3472000  1
   4282   4279   4283   4284     1  0.0000000  0.0000000  2
   4282   4279   4283   4284     1  180.0000771  0.3347200  3
   4282   4279   4283   4315     1  180.0000771  0.0000000  2
   4283   4315   4296   4298     1  0.0000000  1.2552000  3
   4284   4283   4315   4305     1  180.0000771  6.0668000  2
   4284   4283   4315   4305     1  180.0000771  1.4644000  4
   4285   4276   4275   4340     1  0.0000000  0.6508444  3
   4285   4276   4287   4290     1  0.0000000  0.6508444  3
   4285   4276   4287   4288     1  0.0000000  0.6508444  3
   4285   4276   4287   4289     1  0.0000000  0.6508444  3
   4286   4276   4275   4340     1  0.0000000  0.6508444  3
   4286   4276   4287   4290     1  0.0000000  0.6508444  3
   4286   4276   4287   4288     1  0.0000000  0.6508444  3
   4286   4276   4287   4289     1  0.0000000  0.6508444  3
   4287   4276   4275   4340     1  0.0000000  0.6508444  3
   4287   4290   4339   4329     1  180.0000771  6.0668000  2
   4287   4290   4339   4329     1  180.0000771  1.4644000  4
   4288   4287   4290   4291     1  0.0000000  3.3472000  1
   4288   4287   4290   4291     1  0.0000000  0.0000000  2
   4288   4287   4290   4291     1  180.0000771  0.3347200  3
   4288   4287   4290   4339     1  180.0000771  0.0000000  2
   4289   4287   4290   4291     1  0.0000000  3.3472000  1
   4289   4287   4290   4291     1  0.0000000  0.0000000  2
   4289   4287   4290   4291     1  180.0000771  0.3347200  3
   4289   4287   4290   4339     1  180.0000771  0.0000000  2
   4290   4339   4320   4322     1  0.0000000  1.2552000  3
   4291   4290   4339   4329     1  180.0000771  6.0668000  2
   4291   4290   4339   4329     1  180.0000771  1.4644000  4
   4292   4293   4295   4299     1  0.0000000  0.6508444  3
   4292   4293   4313   4314     1  0.0000000  1.0460000  1
   4292   4293   4313   4314     1  0.0000000  0.6694400  3
   4292   4303   4308   4309     1  0.0000000  1.0460000  1
   4292   4303   4308   4309     1  0.0000000  0.6694400  3
   4292   4310   4297   4300     1  0.0000000  1.6038667  3
   4293   4292   4303   4306     1  0.0000000  0.6508444  3
   4293   4292   4303   4307     1  0.0000000  0.6508444  3
   4293   4295   4296   4298     1  0.0000000  0.6508444  3
   4293   4295   4302   4304     1  0.0000000  1.0460000  1
   4293   4295   4302   4304     1  0.0000000  0.6694400  3
   4294   4292   4293   4295     1  0.0000000  0.6508444  3
   4294   4292   4293   4313     1  0.0000000  1.0460000  1
   4294   4292   4293   4313     1  0.0000000  0.0000000  3
   4294   4292   4293   4312     1  0.0000000  0.6508444  3
   4294   4292   4303   4308     1  0.0000000  1.0460000  1
   4294   4292   4303   4308     1  0.0000000  0.0000000  3
   4294   4292   4303   4306     1  0.0000000  0.6508444  3
   4294   4292   4303   4307     1  0.0000000  0.6508444  3
   4294   4292   4310   4297     1  0.0000000  1.6038667  3
   4295   4293   4313   4314     1  0.0000000  1.0460000  1
   4295   4293   4313   4314     1  0.0000000  0.6694400  3
   4295   4296   4297   4300     1  0.0000000  0.6508444  3
   4295   4296   4315   4305     1  0.0000000  1.2552000  3
   4296   4295   4293   4312     1  0.0000000  0.6508444  3
   4296   4295   4302   4304     1  0.0000000  1.0460000  1
   4296   4295   4302   4304     1  0.0000000  0.6694400  3
   4296   4297   4301   4311     1  0.0000000  1.0460000  1
   4296   4297   4301   4311     1  0.0000000  0.6694400  3
   4297   4296   4295   4299     1  0.0000000  0.6508444  3
   4297   4296   4315   4305     1  0.0000000  1.2552000  3
   4298   4296   4295   4302     1  0.0000000  1.0460000  1
   4298   4296   4295   4302     1  0.0000000  0.0000000  3
   4298   4296   4295   4299     1  0.0000000  0.6508444  3
   4298   4296   4297   4301     1  0.0000000  1.0460000  1
   4298   4296   4297   4301     1  0.0000000  0.0000000  3
   4298   4296   4297   4310     1  0.0000000  1.0460000  1
   4298   4296   4297   4310     1  0.0000000  0.0000000  3
   4298   4296   4297   4300     1  0.0000000  0.6508444  3
   4298   4296   4315   4305     1  0.0000000  1.2552000  3
   4299   4295   4293   4313     1  0.0000000  1.0460000  1
   4299   4295   4293   4313     1  0.0000000  0.0000000  3
   4299   4295   4293   4312     1  0.0000000  0.6508444  3
   4299   4295   4296   4315     1  0.0000000  0.6508444  3
   4299   4295   4302   4304     1  0.0000000  0.6973333  3
   4300   4297   4296   4315     1  0.0000000  0.6508444  3
   4300   4297   4301   4311     1  0.0000000  0.6973333  3
   4302   4295   4293   4312     1  0.0000000  1.0460000  1
   4302   4295   4293   4312     1  0.0000000  0.0000000  3
   4303   4292   4293   4312     1  0.0000000  0.6508444  3
   4306   4303   4292   4310     1  0.0000000  1.0460000  1
   4306   4303   4292   4310     1  0.0000000  0.0000000  3
   4306   4303   4308   4309     1  0.0000000  0.6973333  3
   4307   4303   4292   4310     1  0.0000000  1.0460000  1
   4307   4303   4292   4310     1  0.0000000  0.0000000  3
   4307   4303   4308   4309     1  0.0000000  0.6973333  3
   4310   4292   4293   4312     1  0.0000000  1.0460000  1
   4310   4292   4293   4312     1  0.0000000  0.0000000  3
   4310   4297   4301   4311     1  0.0000000  0.6973333  3
   4312   4293   4313   4314     1  0.0000000  0.6973333  3
   4316   4317   4319   4323     1  0.0000000  0.6508444  3
   4316   4317   4337   4338     1  0.0000000  1.0460000  1
   4316   4317   4337   4338     1  0.0000000  0.6694400  3
   4316   4327   4332   4333     1  0.0000000  1.0460000  1
   4316   4327   4332   4333     1  0.0000000  0.6694400  3
   4316   4334   4321   4324     1  0.0000000  1.6038667  3
   4317   4316   4327   4330     1  0.0000000  0.6508444  3
   4317   4316   4327   4331     1  0.0000000  0.6508444  3
   4317   4319   4320   4322     1  0.0000000  0.6508444  3
   4317   4319   4326   4328     1  0.0000000  1.0460000  1
   4317   4319   4326   4328     1  0.0000000  0.6694400  3
   4318   4316   4317   4319     1  0.0000000  0.6508444  3
   4318   4316   4317   4337     1  0.0000000  1.0460000  1
   4318   4316   4317   4337     1  0.0000000  0.0000000  3
   4318   4316   4317   4336     1  0.0000000  0.6508444  3
   4318   4316   4327   4332     1  0.0000000  1.0460000  1
   4318   4316   4327   4332     1  0.0000000  0.0000000  3
   4318   4316   4327   4330     1  0.0000000  0.6508444  3
   4318   4316   4327   4331     1  0.0000000  0.6508444  3
   4318   4316   4334   4321     1  0.0000000  1.6038667  3
   4319   4317   4337   4338     1  0.0000000  1.0460000  1
   4319   4317   4337   4338     1  0.0000000  0.6694400  3
   4319   4320   4321   4324     1  0.0000000  0.6508444  3
   4319   4320   4339   4329     1  0.0000000  1.2552000  3
   4320   4319   4317   4336     1  0.0000000  0.6508444  3
   4320   4319   4326   4328     1  0.0000000  1.0460000  1
   4320   4319   4326   4328     1  0.0000000  0.6694400  3
   4320   4321   4325   4335     1  0.0000000  1.0460000  1
   4320   4321   4325   4335     1  0.0000000  0.6694400  3
   4321   4320   4319   4323     1  0.0000000  0.6508444  3
   4321   4320   4339   4329     1  0.0000000  1.2552000  3
   4322   4320   4319   4326     1  0.0000000  1.0460000  1
   4322   4320   4319   4326     1  0.0000000  0.0000000  3
   4322   4320   4319   4323     1  0.0000000  0.6508444  3
   4322   4320   4321   4325     1  0.0000000  1.0460000  1
   4322   4320   4321   4325     1  0.0000000  0.0000000  3
   4322   4320   4321   4334     1  0.0000000  1.0460000  1
   4322   4320   4321   4334     1  0.0000000  0.0000000  3
   4322   4320   4321   4324     1  0.0000000  0.6508444  3
   4322   4320   4339   4329     1  0.0000000  1.2552000  3
   4323   4319   4317   4337     1  0.0000000  1.0460000  1
   4323   4319   4317   4337     1  0.0000000  0.0000000  3
   4323   4319   4317   4336     1  0.0000000  0.6508444  3
   4323   4319   4320   4339     1  0.0000000  0.6508444  3
   4323   4319   4326   4328     1  0.0000000  0.6973333  3
   4324   4321   4320   4339     1  0.0000000  0.6508444  3
   4324   4321   4325   4335     1  0.0000000  0.6973333  3
   4326   4319   4317   4336     1  0.0000000  1.0460000  1
   4326   4319   4317   4336     1  0.0000000  0.0000000  3
   4327   4316   4317   4336     1  0.0000000  0.6508444  3
   4330   4327   4316   4334     1  0.0000000  1.0460000  1
   4330   4327   4316   4334     1  0.0000000  0.0000000  3
   4330   4327   4332   4333     1  0.0000000  0.6973333  3
   4331   4327   4316   4334     1  0.0000000  1.0460000  1
   4331   4327   4316   4334     1  0.0000000  0.0000000  3
   4331   4327   4332   4333     1  0.0000000  0.6973333  3
   4334   4316   4317   4336     1  0.0000000  1.0460000  1
   4334   4316   4317   4336     1  0.0000000  0.0000000  3
   4334   4321   4325   4335     1  0.0000000  0.6973333  3
   4336   4317   4337   4338     1  0.0000000  0.6973333  3
   4341   4343   4345   4347     1  0.0000000  0.6508444  3
   4341   4343   4345   4348     1  0.0000000  0.6508444  3
   4342   4341   4343   4345     1  0.0000000  0.0000000  2
   4342   4341   4343   4344     1  0.0000000  0.0000000  2
   4342   4341   4343   4346     1  0.0000000  0.0000000  2
   4343   4345   4349   4414     1  0.0000000  0.6508444  3
   4344   4343   4345   4349     1  0.0000000  0.6508444  3
   4344   4343   4345   4347     1  0.0000000  0.6508444  3
   4344   4343   4345   4348     1  0.0000000  0.6508444  3
   4345   4349   4350   4359     1  0.0000000  0.6508444  3
   4345   4349   4350   4360     1  0.0000000  0.6508444  3
   4345   4349   4351   4352     1  0.0000000  0.6508444  3
   4345   4349   4351   4354     1  0.0000000  0.6508444  3
   4346   4343   4345   4349     1  0.0000000  0.6508444  3
   4346   4343   4345   4347     1  0.0000000  0.6508444  3
   4346   4343   4345   4348     1  0.0000000  0.6508444  3
   4347   4345   4349   4350     1  0.0000000  0.6508444  3
   4347   4345   4349   4351     1  0.0000000  0.6508444  3
   4347   4345   4349   4414     1  0.0000000  0.6508444  3
   4348   4345   4349   4350     1  0.0000000  0.6508444  3
   4348   4345   4349   4351     1  0.0000000  0.6508444  3
   4348   4345   4349   4414     1  0.0000000  0.6508444  3
   4349   4350   4361   4362     1  0.0000000  0.6508444  3
   4349   4350   4361   4363     1  0.0000000  0.6508444  3
   4349   4351   4353   4355     1  0.0000000  0.6508444  3
   4349   4351   4353   4356     1  0.0000000  0.6508444  3
   4350   4349   4351   4352     1  0.0000000  0.6508444  3
   4350   4349   4351   4354     1  0.0000000  0.6508444  3
   4351   4349   4350   4359     1  0.0000000  0.6508444  3
   4351   4349   4350   4360     1  0.0000000  0.6508444  3
   4352   4351   4353   4357     1  0.0000000  0.6508444  3
   4352   4351   4353   4355     1  0.0000000  0.6508444  3
   4352   4351   4353   4356     1  0.0000000  0.6508444  3
   4352   4351   4349   4414     1  0.0000000  0.6508444  3
   4353   4357   4389   4379     1  180.0000771  6.0668000  2
   4353   4357   4389   4379     1  180.0000771  1.4644000  4
   4353   4351   4349   4414     1  0.0000000  0.6508444  3
   4354   4351   4353   4357     1  0.0000000  0.6508444  3
   4354   4351   4353   4355     1  0.0000000  0.6508444  3
   4354   4351   4353   4356     1  0.0000000  0.6508444  3
   4354   4351   4349   4414     1  0.0000000  0.6508444  3
   4355   4353   4357   4358     1  0.0000000  3.3472000  1
   4355   4353   4357   4358     1  0.0000000  0.0000000  2
   4355   4353   4357   4358     1  180.0000771  0.3347200  3
   4355   4353   4357   4389     1  180.0000771  0.0000000  2
   4356   4353   4357   4358     1  0.0000000  3.3472000  1
   4356   4353   4357   4358     1  0.0000000  0.0000000  2
   4356   4353   4357   4358     1  180.0000771  0.3347200  3
   4356   4353   4357   4389     1  180.0000771  0.0000000  2
   4357   4389   4370   4372     1  0.0000000  1.2552000  3
   4358   4357   4389   4379     1  180.0000771  6.0668000  2
   4358   4357   4389   4379     1  180.0000771  1.4644000  4
   4359   4350   4361   4364     1  0.0000000  0.6508444  3
   4359   4350   4361   4362     1  0.0000000  0.6508444  3
   4359   4350   4361   4363     1  0.0000000  0.6508444  3
   4359   4350   4349   4414     1  0.0000000  0.6508444  3
   4360   4350   4361   4364     1  0.0000000  0.6508444  3
   4360   4350   4361   4362     1  0.0000000  0.6508444  3
   4360   4350   4361   4363     1  0.0000000  0.6508444  3
   4360   4350   4349   4414     1  0.0000000  0.6508444  3
   4361   4364   4413   4403     1  180.0000771  6.0668000  2
   4361   4364   4413   4403     1  180.0000771  1.4644000  4
   4361   4350   4349   4414     1  0.0000000  0.6508444  3
   4362   4361   4364   4365     1  0.0000000  3.3472000  1
   4362   4361   4364   4365     1  0.0000000  0.0000000  2
   4362   4361   4364   4365     1  180.0000771  0.3347200  3
   4362   4361   4364   4413     1  180.0000771  0.0000000  2
   4363   4361   4364   4365     1  0.0000000  3.3472000  1
   4363   4361   4364   4365     1  0.0000000  0.0000000  2
   4363   4361   4364   4365     1  180.0000771  0.3347200  3
   4363   4361   4364   4413     1  180.0000771  0.0000000  2
   4364   4413   4394   4396     1  0.0000000  1.2552000  3
   4365   4364   4413   4403     1  180.0000771  6.0668000  2
   4365   4364   4413   4403     1  180.0000771  1.4644000  4
   4366   4367   4369   4373     1  0.0000000  0.6508444  3
   4366   4367   4387   4388     1  0.0000000  1.0460000  1
   4366   4367   4387   4388     1  0.0000000  0.6694400  3
   4366   4377   4382   4383     1  0.0000000  1.0460000  1
   4366   4377   4382   4383     1  0.0000000  0.6694400  3
   4366   4384   4371   4374     1  0.0000000  1.6038667  3
   4367   4369   4370   4372     1  0.0000000  0.6508444  3
   4367   4369   4376   4378     1  0.0000000  1.0460000  1
   4367   4369   4376   4378     1  0.0000000  0.6694400  3
   4367   4366   4377   4380     1  0.0000000  0.6508444  3
   4367   4366   4377   4381     1  0.0000000  0.6508444  3
   4368   4366   4367   4369     1  0.0000000  0.6508444  3
   4368   4366   4367   4387     1  0.0000000  1.0460000  1
   4368   4366   4367   4387     1  0.0000000  0.0000000  3
   4368   4366   4367   4386     1  0.0000000  0.6508444  3
   4368   4366   4377   4382     1  0.0000000  1.0460000  1
   4368   4366   4377   4382     1  0.0000000  0.0000000  3
   4368   4366   4377   4380     1  0.0000000  0.6508444  3
   4368   4366   4377   4381     1  0.0000000  0.6508444  3
   4368   4366   4384   4371     1  0.0000000  1.6038667  3
   4369   4370   4371   4374     1  0.0000000  0.6508444  3
   4369   4370   4389   4379     1  0.0000000  1.2552000  3
   4369   4367   4387   4388     1  0.0000000  1.0460000  1
   4369   4367   4387   4388     1  0.0000000  0.6694400  3
   4370   4371   4375   4385     1  0.0000000  1.0460000  1
   4370   4371   4375   4385     1  0.0000000  0.6694400  3
   4370   4369   4376   4378     1  0.0000000  1.0460000  1
   4370   4369   4376   4378     1  0.0000000  0.6694400  3
   4370   4369   4367   4386     1  0.0000000  0.6508444  3
   4371   4370   4389   4379     1  0.0000000  1.2552000  3
   4371   4370   4369   4373     1  0.0000000  0.6508444  3
   4372   4370   4371   4375     1  0.0000000  1.0460000  1
   4372   4370   4371   4375     1  0.0000000  0.0000000  3
   4372   4370   4371   4384     1  0.0000000  1.0460000  1
   4372   4370   4371   4384     1  0.0000000  0.0000000  3
   4372   4370   4371   4374     1  0.0000000  0.6508444  3
   4372   4370   4389   4379     1  0.0000000  1.2552000  3
   4372   4370   4369   4376     1  0.0000000  1.0460000  1
   4372   4370   4369   4376     1  0.0000000  0.0000000  3
   4372   4370   4369   4373     1  0.0000000  0.6508444  3
   4373   4369   4370   4389     1  0.0000000  0.6508444  3
   4373   4369   4376   4378     1  0.0000000  0.6973333  3
   4373   4369   4367   4387     1  0.0000000  1.0460000  1
   4373   4369   4367   4387     1  0.0000000  0.0000000  3
   4373   4369   4367   4386     1  0.0000000  0.6508444  3
   4374   4371   4375   4385     1  0.0000000  0.6973333  3
   4374   4371   4370   4389     1  0.0000000  0.6508444  3
   4376   4369   4367   4386     1  0.0000000  1.0460000  1
   4376   4369   4367   4386     1  0.0000000  0.0000000  3
   4377   4366   4367   4386     1  0.0000000  0.6508444  3
   4380   4377   4382   4383     1  0.0000000  0.6973333  3
   4380   4377   4366   4384     1  0.0000000  1.0460000  1
   4380   4377   4366   4384     1  0.0000000  0.0000000  3
   4381   4377   4382   4383     1  0.0000000  0.6973333  3
   4381   4377   4366   4384     1  0.0000000  1.0460000  1
   4381   4377   4366   4384     1  0.0000000  0.0000000  3
   4384   4371   4375   4385     1  0.0000000  0.6973333  3
   4384   4366   4367   4386     1  0.0000000  1.0460000  1
   4384   4366   4367   4386     1  0.0000000  0.0000000  3
   4386   4367   4387   4388     1  0.0000000  0.6973333  3
   4390   4391   4393   4397     1  0.0000000  0.6508444  3
   4390   4391   4411   4412     1  0.0000000  1.0460000  1
   4390   4391   4411   4412     1  0.0000000  0.6694400  3
   4390   4401   4406   4407     1  0.0000000  1.0460000  1
   4390   4401   4406   4407     1  0.0000000  0.6694400  3
   4390   4408   4395   4398     1  0.0000000  1.6038667  3
   4391   4393   4394   4396     1  0.0000000  0.6508444  3
   4391   4393   4400   4402     1  0.0000000  1.0460000  1
   4391   4393   4400   4402     1  0.0000000  0.6694400  3
   4391   4390   4401   4404     1  0.0000000  0.6508444  3
   4391   4390   4401   4405     1  0.0000000  0.6508444  3
   4392   4390   4391   4393     1  0.0000000  0.6508444  3
   4392   4390   4391   4411     1  0.0000000  1.0460000  1
   4392   4390   4391   4411     1  0.0000000  0.0000000  3
   4392   4390   4391   4410     1  0.0000000  0.6508444  3
   4392   4390   4401   4406     1  0.0000000  1.0460000  1
   4392   4390   4401   4406     1  0.0000000  0.0000000  3
   4392   4390   4401   4404     1  0.0000000  0.6508444  3
   4392   4390   4401   4405     1  0.0000000  0.6508444  3
   4392   4390   4408   4395     1  0.0000000  1.6038667  3
   4393   4394   4395   4398     1  0.0000000  0.6508444  3
   4393   4394   4413   4403     1  0.0000000  1.2552000  3
   4393   4391   4411   4412     1  0.0000000  1.0460000  1
   4393   4391   4411   4412     1  0.0000000  0.6694400  3
   4394   4395   4399   4409     1  0.0000000  1.0460000  1
   4394   4395   4399   4409     1  0.0000000  0.6694400  3
   4394   4393   4400   4402     1  0.0000000  1.0460000  1
   4394   4393   4400   4402     1  0.0000000  0.6694400  3
   4394   4393   4391   4410     1  0.0000000  0.6508444  3
   4395   4394   4413   4403     1  0.0000000  1.2552000  3
   4395   4394   4393   4397     1  0.0000000  0.6508444  3
   4396   4394   4395   4399     1  0.0000000  1.0460000  1
   4396   4394   4395   4399     1  0.0000000  0.0000000  3
   4396   4394   4395   4408     1  0.0000000  1.0460000  1
   4396   4394   4395   4408     1  0.0000000  0.0000000  3
   4396   4394   4395   4398     1  0.0000000  0.6508444  3
   4396   4394   4413   4403     1  0.0000000  1.2552000  3
   4396   4394   4393   4400     1  0.0000000  1.0460000  1
   4396   4394   4393   4400     1  0.0000000  0.0000000  3
   4396   4394   4393   4397     1  0.0000000  0.6508444  3
   4397   4393   4394   4413     1  0.0000000  0.6508444  3
   4397   4393   4400   4402     1  0.0000000  0.6973333  3
   4397   4393   4391   4411     1  0.0000000  1.0460000  1
   4397   4393   4391   4411     1  0.0000000  0.0000000  3
   4397   4393   4391   4410     1  0.0000000  0.6508444  3
   4398   4395   4399   4409     1  0.0000000  0.6973333  3
   4398   4395   4394   4413     1  0.0000000  0.6508444  3
   4400   4393   4391   4410     1  0.0000000  1.0460000  1
   4400   4393   4391   4410     1  0.0000000  0.0000000  3
   4401   4390   4391   4410     1  0.0000000  0.6508444  3
   4404   4401   4406   4407     1  0.0000000  0.6973333  3
   4404   4401   4390   4408     1  0.0000000  1.0460000  1
   4404   4401   4390   4408     1  0.0000000  0.0000000  3
   4405   4401   4406   4407     1  0.0000000  0.6973333  3
   4405   4401   4390   4408     1  0.0000000  1.0460000  1
   4405   4401   4390   4408     1  0.0000000  0.0000000  3
   4408   4395   4399   4409     1  0.0000000  0.6973333  3
   4408   4390   4391   4410     1  0.0000000  1.0460000  1
   4408   4390   4391   4410     1  0.0000000  0.0000000  3
   4410   4391   4411   4412     1  0.0000000  0.6973333  3
   4415   4417   4419   4421     1  0.0000000  0.6508444  3
   4415   4417   4419   4422     1  0.0000000  0.6508444  3
   4416   4415   4417   4419     1  0.0000000  0.0000000  2
   4416   4415   4417   4418     1  0.0000000  0.0000000  2
   4416   4415   4417   4420     1  0.0000000  0.0000000  2
   4417   4419   4423   4488     1  0.0000000  0.6508444  3
   4418   4417   4419   4423     1  0.0000000  0.6508444  3
   4418   4417   4419   4421     1  0.0000000  0.6508444  3
   4418   4417   4419   4422     1  0.0000000  0.6508444  3
   4419   4423   4424   4433     1  0.0000000  0.6508444  3
   4419   4423   4424   4434     1  0.0000000  0.6508444  3
   4419   4423   4425   4426     1  0.0000000  0.6508444  3
   4419   4423   4425   4428     1  0.0000000  0.6508444  3
   4420   4417   4419   4423     1  0.0000000  0.6508444  3
   4420   4417   4419   4421     1  0.0000000  0.6508444  3
   4420   4417   4419   4422     1  0.0000000  0.6508444  3
   4421   4419   4423   4424     1  0.0000000  0.6508444  3
   4421   4419   4423   4425     1  0.0000000  0.6508444  3
   4421   4419   4423   4488     1  0.0000000  0.6508444  3
   4422   4419   4423   4424     1  0.0000000  0.6508444  3
   4422   4419   4423   4425     1  0.0000000  0.6508444  3
   4422   4419   4423   4488     1  0.0000000  0.6508444  3
   4423   4424   4435   4436     1  0.0000000  0.6508444  3
   4423   4424   4435   4437     1  0.0000000  0.6508444  3
   4423   4425   4427   4429     1  0.0000000  0.6508444  3
   4423   4425   4427   4430     1  0.0000000  0.6508444  3
   4424   4423   4425   4426     1  0.0000000  0.6508444  3
   4424   4423   4425   4428     1  0.0000000  0.6508444  3
   4425   4423   4424   4433     1  0.0000000  0.6508444  3
   4425   4423   4424   4434     1  0.0000000  0.6508444  3
   4426   4425   4423   4488     1  0.0000000  0.6508444  3
   4426   4425   4427   4431     1  0.0000000  0.6508444  3
   4426   4425   4427   4429     1  0.0000000  0.6508444  3
   4426   4425   4427   4430     1  0.0000000  0.6508444  3
   4427   4425   4423   4488     1  0.0000000  0.6508444  3
   4427   4431   4463   4453     1  180.0000771  6.0668000  2
   4427   4431   4463   4453     1  180.0000771  1.4644000  4
   4428   4425   4423   4488     1  0.0000000  0.6508444  3
   4428   4425   4427   4431     1  0.0000000  0.6508444  3
   4428   4425   4427   4429     1  0.0000000  0.6508444  3
   4428   4425   4427   4430     1  0.0000000  0.6508444  3
   4429   4427   4431   4432     1  0.0000000  3.3472000  1
   4429   4427   4431   4432     1  0.0000000  0.0000000  2
   4429   4427   4431   4432     1  180.0000771  0.3347200  3
   4429   4427   4431   4463     1  180.0000771  0.0000000  2
   4430   4427   4431   4432     1  0.0000000  3.3472000  1
   4430   4427   4431   4432     1  0.0000000  0.0000000  2
   4430   4427   4431   4432     1  180.0000771  0.3347200  3
   4430   4427   4431   4463     1  180.0000771  0.0000000  2
   4431   4463   4444   4446     1  0.0000000  1.2552000  3
   4432   4431   4463   4453     1  180.0000771  6.0668000  2
   4432   4431   4463   4453     1  180.0000771  1.4644000  4
   4433   4424   4423   4488     1  0.0000000  0.6508444  3
   4433   4424   4435   4438     1  0.0000000  0.6508444  3
   4433   4424   4435   4436     1  0.0000000  0.6508444  3
   4433   4424   4435   4437     1  0.0000000  0.6508444  3
   4434   4424   4423   4488     1  0.0000000  0.6508444  3
   4434   4424   4435   4438     1  0.0000000  0.6508444  3
   4434   4424   4435   4436     1  0.0000000  0.6508444  3
   4434   4424   4435   4437     1  0.0000000  0.6508444  3
   4435   4424   4423   4488     1  0.0000000  0.6508444  3
   4435   4438   4487   4477     1  180.0000771  6.0668000  2
   4435   4438   4487   4477     1  180.0000771  1.4644000  4
   4436   4435   4438   4439     1  0.0000000  3.3472000  1
   4436   4435   4438   4439     1  0.0000000  0.0000000  2
   4436   4435   4438   4439     1  180.0000771  0.3347200  3
   4436   4435   4438   4487     1  180.0000771  0.0000000  2
   4437   4435   4438   4439     1  0.0000000  3.3472000  1
   4437   4435   4438   4439     1  0.0000000  0.0000000  2
   4437   4435   4438   4439     1  180.0000771  0.3347200  3
   4437   4435   4438   4487     1  180.0000771  0.0000000  2
   4438   4487   4468   4470     1  0.0000000  1.2552000  3
   4439   4438   4487   4477     1  180.0000771  6.0668000  2
   4439   4438   4487   4477     1  180.0000771  1.4644000  4
   4440   4441   4443   4447     1  0.0000000  0.6508444  3
   4440   4441   4461   4462     1  0.0000000  1.0460000  1
   4440   4441   4461   4462     1  0.0000000  0.6694400  3
   4440   4451   4456   4457     1  0.0000000  1.0460000  1
   4440   4451   4456   4457     1  0.0000000  0.6694400  3
   4440   4458   4445   4448     1  0.0000000  1.6038667  3
   4441   4440   4451   4454     1  0.0000000  0.6508444  3
   4441   4440   4451   4455     1  0.0000000  0.6508444  3
   4441   4443   4444   4446     1  0.0000000  0.6508444  3
   4441   4443   4450   4452     1  0.0000000  1.0460000  1
   4441   4443   4450   4452     1  0.0000000  0.6694400  3
   4442   4440   4441   4443     1  0.0000000  0.6508444  3
   4442   4440   4441   4461     1  0.0000000  1.0460000  1
   4442   4440   4441   4461     1  0.0000000  0.0000000  3
   4442   4440   4441   4460     1  0.0000000  0.6508444  3
   4442   4440   4451   4456     1  0.0000000  1.0460000  1
   4442   4440   4451   4456     1  0.0000000  0.0000000  3
   4442   4440   4451   4454     1  0.0000000  0.6508444  3
   4442   4440   4451   4455     1  0.0000000  0.6508444  3
   4442   4440   4458   4445     1  0.0000000  1.6038667  3
   4443   4441   4461   4462     1  0.0000000  1.0460000  1
   4443   4441   4461   4462     1  0.0000000  0.6694400  3
   4443   4444   4445   4448     1  0.0000000  0.6508444  3
   4443   4444   4463   4453     1  0.0000000  1.2552000  3
   4444   4443   4441   4460     1  0.0000000  0.6508444  3
   4444   4443   4450   4452     1  0.0000000  1.0460000  1
   4444   4443   4450   4452     1  0.0000000  0.6694400  3
   4444   4445   4449   4459     1  0.0000000  1.0460000  1
   4444   4445   4449   4459     1  0.0000000  0.6694400  3
   4445   4444   4443   4447     1  0.0000000  0.6508444  3
   4445   4444   4463   4453     1  0.0000000  1.2552000  3
   4446   4444   4443   4450     1  0.0000000  1.0460000  1
   4446   4444   4443   4450     1  0.0000000  0.0000000  3
   4446   4444   4443   4447     1  0.0000000  0.6508444  3
   4446   4444   4445   4449     1  0.0000000  1.0460000  1
   4446   4444   4445   4449     1  0.0000000  0.0000000  3
   4446   4444   4445   4458     1  0.0000000  1.0460000  1
   4446   4444   4445   4458     1  0.0000000  0.0000000  3
   4446   4444   4445   4448     1  0.0000000  0.6508444  3
   4446   4444   4463   4453     1  0.0000000  1.2552000  3
   4447   4443   4441   4461     1  0.0000000  1.0460000  1
   4447   4443   4441   4461     1  0.0000000  0.0000000  3
   4447   4443   4441   4460     1  0.0000000  0.6508444  3
   4447   4443   4444   4463     1  0.0000000  0.6508444  3
   4447   4443   4450   4452     1  0.0000000  0.6973333  3
   4448   4445   4444   4463     1  0.0000000  0.6508444  3
   4448   4445   4449   4459     1  0.0000000  0.6973333  3
   4450   4443   4441   4460     1  0.0000000  1.0460000  1
   4450   4443   4441   4460     1  0.0000000  0.0000000  3
   4451   4440   4441   4460     1  0.0000000  0.6508444  3
   4454   4451   4440   4458     1  0.0000000  1.0460000  1
   4454   4451   4440   4458     1  0.0000000  0.0000000  3
   4454   4451   4456   4457     1  0.0000000  0.6973333  3
   4455   4451   4440   4458     1  0.0000000  1.0460000  1
   4455   4451   4440   4458     1  0.0000000  0.0000000  3
   4455   4451   4456   4457     1  0.0000000  0.6973333  3
   4458   4440   4441   4460     1  0.0000000  1.0460000  1
   4458   4440   4441   4460     1  0.0000000  0.0000000  3
   4458   4445   4449   4459     1  0.0000000  0.6973333  3
   4460   4441   4461   4462     1  0.0000000  0.6973333  3
   4464   4465   4467   4471     1  0.0000000  0.6508444  3
   4464   4465   4485   4486     1  0.0000000  1.0460000  1
   4464   4465   4485   4486     1  0.0000000  0.6694400  3
   4464   4475   4480   4481     1  0.0000000  1.0460000  1
   4464   4475   4480   4481     1  0.0000000  0.6694400  3
   4464   4482   4469   4472     1  0.0000000  1.6038667  3
   4465   4464   4475   4478     1  0.0000000  0.6508444  3
   4465   4464   4475   4479     1  0.0000000  0.6508444  3
   4465   4467   4468   4470     1  0.0000000  0.6508444  3
   4465   4467   4474   4476     1  0.0000000  1.0460000  1
   4465   4467   4474   4476     1  0.0000000  0.6694400  3
   4466   4464   4465   4467     1  0.0000000  0.6508444  3
   4466   4464   4465   4485     1  0.0000000  1.0460000  1
   4466   4464   4465   4485     1  0.0000000  0.0000000  3
   4466   4464   4465   4484     1  0.0000000  0.6508444  3
   4466   4464   4475   4480     1  0.0000000  1.0460000  1
   4466   4464   4475   4480     1  0.0000000  0.0000000  3
   4466   4464   4475   4478     1  0.0000000  0.6508444  3
   4466   4464   4475   4479     1  0.0000000  0.6508444  3
   4466   4464   4482   4469     1  0.0000000  1.6038667  3
   4467   4465   4485   4486     1  0.0000000  1.0460000  1
   4467   4465   4485   4486     1  0.0000000  0.6694400  3
   4467   4468   4469   4472     1  0.0000000  0.6508444  3
   4467   4468   4487   4477     1  0.0000000  1.2552000  3
   4468   4467   4465   4484     1  0.0000000  0.6508444  3
   4468   4467   4474   4476     1  0.0000000  1.0460000  1
   4468   4467   4474   4476     1  0.0000000  0.6694400  3
   4468   4469   4473   4483     1  0.0000000  1.0460000  1
   4468   4469   4473   4483     1  0.0000000  0.6694400  3
   4469   4468   4467   4471     1  0.0000000  0.6508444  3
   4469   4468   4487   4477     1  0.0000000  1.2552000  3
   4470   4468   4467   4474     1  0.0000000  1.0460000  1
   4470   4468   4467   4474     1  0.0000000  0.0000000  3
   4470   4468   4467   4471     1  0.0000000  0.6508444  3
   4470   4468   4469   4473     1  0.0000000  1.0460000  1
   4470   4468   4469   4473     1  0.0000000  0.0000000  3
   4470   4468   4469   4482     1  0.0000000  1.0460000  1
   4470   4468   4469   4482     1  0.0000000  0.0000000  3
   4470   4468   4469   4472     1  0.0000000  0.6508444  3
   4470   4468   4487   4477     1  0.0000000  1.2552000  3
   4471   4467   4465   4485     1  0.0000000  1.0460000  1
   4471   4467   4465   4485     1  0.0000000  0.0000000  3
   4471   4467   4465   4484     1  0.0000000  0.6508444  3
   4471   4467   4468   4487     1  0.0000000  0.6508444  3
   4471   4467   4474   4476     1  0.0000000  0.6973333  3
   4472   4469   4468   4487     1  0.0000000  0.6508444  3
   4472   4469   4473   4483     1  0.0000000  0.6973333  3
   4474   4467   4465   4484     1  0.0000000  1.0460000  1
   4474   4467   4465   4484     1  0.0000000  0.0000000  3
   4475   4464   4465   4484     1  0.0000000  0.6508444  3
   4478   4475   4464   4482     1  0.0000000  1.0460000  1
   4478   4475   4464   4482     1  0.0000000  0.0000000  3
   4478   4475   4480   4481     1  0.0000000  0.6973333  3
   4479   4475   4464   4482     1  0.0000000  1.0460000  1
   4479   4475   4464   4482     1  0.0000000  0.0000000  3
   4479   4475   4480   4481     1  0.0000000  0.6973333  3
   4482   4464   4465   4484     1  0.0000000  1.0460000  1
   4482   4464   4465   4484     1  0.0000000  0.0000000  3
   4482   4469   4473   4483     1  0.0000000  0.6973333  3
   4484   4465   4485   4486     1  0.0000000  0.6973333  3
   4489   4491   4493   4495     1  0.0000000  0.6508444  3
   4489   4491   4493   4496     1  0.0000000  0.6508444  3
   4490   4489   4491   4493     1  0.0000000  0.0000000  2
   4490   4489   4491   4492     1  0.0000000  0.0000000  2
   4490   4489   4491   4494     1  0.0000000  0.0000000  2
   4491   4493   4497   4562     1  0.0000000  0.6508444  3
   4492   4491   4493   4497     1  0.0000000  0.6508444  3
   4492   4491   4493   4495     1  0.0000000  0.6508444  3
   4492   4491   4493   4496     1  0.0000000  0.6508444  3
   4493   4497   4498   4507     1  0.0000000  0.6508444  3
   4493   4497   4498   4508     1  0.0000000  0.6508444  3
   4493   4497   4499   4500     1  0.0000000  0.6508444  3
   4493   4497   4499   4502     1  0.0000000  0.6508444  3
   4494   4491   4493   4497     1  0.0000000  0.6508444  3
   4494   4491   4493   4495     1  0.0000000  0.6508444  3
   4494   4491   4493   4496     1  0.0000000  0.6508444  3
   4495   4493   4497   4498     1  0.0000000  0.6508444  3
   4495   4493   4497   4499     1  0.0000000  0.6508444  3
   4495   4493   4497   4562     1  0.0000000  0.6508444  3
   4496   4493   4497   4498     1  0.0000000  0.6508444  3
   4496   4493   4497   4499     1  0.0000000  0.6508444  3
   4496   4493   4497   4562     1  0.0000000  0.6508444  3
   4497   4498   4509   4510     1  0.0000000  0.6508444  3
   4497   4498   4509   4511     1  0.0000000  0.6508444  3
   4497   4499   4501   4503     1  0.0000000  0.6508444  3
   4497   4499   4501   4504     1  0.0000000  0.6508444  3
   4498   4497   4499   4500     1  0.0000000  0.6508444  3
   4498   4497   4499   4502     1  0.0000000  0.6508444  3
   4499   4497   4498   4507     1  0.0000000  0.6508444  3
   4499   4497   4498   4508     1  0.0000000  0.6508444  3
   4500   4499   4501   4505     1  0.0000000  0.6508444  3
   4500   4499   4501   4503     1  0.0000000  0.6508444  3
   4500   4499   4501   4504     1  0.0000000  0.6508444  3
   4500   4499   4497   4562     1  0.0000000  0.6508444  3
   4501   4505   4537   4527     1  180.0000771  6.0668000  2
   4501   4505   4537   4527     1  180.0000771  1.4644000  4
   4501   4499   4497   4562     1  0.0000000  0.6508444  3
   4502   4499   4501   4505     1  0.0000000  0.6508444  3
   4502   4499   4501   4503     1  0.0000000  0.6508444  3
   4502   4499   4501   4504     1  0.0000000  0.6508444  3
   4502   4499   4497   4562     1  0.0000000  0.6508444  3
   4503   4501   4505   4506     1  0.0000000  3.3472000  1
   4503   4501   4505   4506     1  0.0000000  0.0000000  2
   4503   4501   4505   4506     1  180.0000771  0.3347200  3
   4503   4501   4505   4537     1  180.0000771  0.0000000  2
   4504   4501   4505   4506     1  0.0000000  3.3472000  1
   4504   4501   4505   4506     1  0.0000000  0.0000000  2
   4504   4501   4505   4506     1  180.0000771  0.3347200  3
   4504   4501   4505   4537     1  180.0000771  0.0000000  2
   4505   4537   4518   4520     1  0.0000000  1.2552000  3
   4506   4505   4537   4527     1  180.0000771  6.0668000  2
   4506   4505   4537   4527     1  180.0000771  1.4644000  4
   4507   4498   4509   4512     1  0.0000000  0.6508444  3
   4507   4498   4509   4510     1  0.0000000  0.6508444  3
   4507   4498   4509   4511     1  0.0000000  0.6508444  3
   4507   4498   4497   4562     1  0.0000000  0.6508444  3
   4508   4498   4509   4512     1  0.0000000  0.6508444  3
   4508   4498   4509   4510     1  0.0000000  0.6508444  3
   4508   4498   4509   4511     1  0.0000000  0.6508444  3
   4508   4498   4497   4562     1  0.0000000  0.6508444  3
   4509   4512   4561   4551     1  180.0000771  6.0668000  2
   4509   4512   4561   4551     1  180.0000771  1.4644000  4
   4509   4498   4497   4562     1  0.0000000  0.6508444  3
   4510   4509   4512   4513     1  0.0000000  3.3472000  1
   4510   4509   4512   4513     1  0.0000000  0.0000000  2
   4510   4509   4512   4513     1  180.0000771  0.3347200  3
   4510   4509   4512   4561     1  180.0000771  0.0000000  2
   4511   4509   4512   4513     1  0.0000000  3.3472000  1
   4511   4509   4512   4513     1  0.0000000  0.0000000  2
   4511   4509   4512   4513     1  180.0000771  0.3347200  3
   4511   4509   4512   4561     1  180.0000771  0.0000000  2
   4512   4561   4542   4544     1  0.0000000  1.2552000  3
   4513   4512   4561   4551     1  180.0000771  6.0668000  2
   4513   4512   4561   4551     1  180.0000771  1.4644000  4
   4514   4515   4517   4521     1  0.0000000  0.6508444  3
   4514   4515   4535   4536     1  0.0000000  1.0460000  1
   4514   4515   4535   4536     1  0.0000000  0.6694400  3
   4514   4525   4530   4531     1  0.0000000  1.0460000  1
   4514   4525   4530   4531     1  0.0000000  0.6694400  3
   4514   4532   4519   4522     1  0.0000000  1.6038667  3
   4515   4517   4518   4520     1  0.0000000  0.6508444  3
   4515   4517   4524   4526     1  0.0000000  1.0460000  1
   4515   4517   4524   4526     1  0.0000000  0.6694400  3
   4515   4514   4525   4528     1  0.0000000  0.6508444  3
   4515   4514   4525   4529     1  0.0000000  0.6508444  3
   4516   4514   4515   4517     1  0.0000000  0.6508444  3
   4516   4514   4515   4535     1  0.0000000  1.0460000  1
   4516   4514   4515   4535     1  0.0000000  0.0000000  3
   4516   4514   4515   4534     1  0.0000000  0.6508444  3
   4516   4514   4525   4530     1  0.0000000  1.0460000  1
   4516   4514   4525   4530     1  0.0000000  0.0000000  3
   4516   4514   4525   4528     1  0.0000000  0.6508444  3
   4516   4514   4525   4529     1  0.0000000  0.6508444  3
   4516   4514   4532   4519     1  0.0000000  1.6038667  3
   4517   4518   4519   4522     1  0.0000000  0.6508444  3
   4517   4518   4537   4527     1  0.0000000  1.2552000  3
   4517   4515   4535   4536     1  0.0000000  1.0460000  1
   4517   4515   4535   4536     1  0.0000000  0.6694400  3
   4518   4519   4523   4533     1  0.0000000  1.0460000  1
   4518   4519   4523   4533     1  0.0000000  0.6694400  3
   4518   4517   4524   4526     1  0.0000000  1.0460000  1
   4518   4517   4524   4526     1  0.0000000  0.6694400  3
   4518   4517   4515   4534     1  0.0000000  0.6508444  3
   4519   4518   4537   4527     1  0.0000000  1.2552000  3
   4519   4518   4517   4521     1  0.0000000  0.6508444  3
   4520   4518   4519   4523     1  0.0000000  1.0460000  1
   4520   4518   4519   4523     1  0.0000000  0.0000000  3
   4520   4518   4519   4532     1  0.0000000  1.0460000  1
   4520   4518   4519   4532     1  0.0000000  0.0000000  3
   4520   4518   4519   4522     1  0.0000000  0.6508444  3
   4520   4518   4537   4527     1  0.0000000  1.2552000  3
   4520   4518   4517   4524     1  0.0000000  1.0460000  1
   4520   4518   4517   4524     1  0.0000000  0.0000000  3
   4520   4518   4517   4521     1  0.0000000  0.6508444  3
   4521   4517   4518   4537     1  0.0000000  0.6508444  3
   4521   4517   4524   4526     1  0.0000000  0.6973333  3
   4521   4517   4515   4535     1  0.0000000  1.0460000  1
   4521   4517   4515   4535     1  0.0000000  0.0000000  3
   4521   4517   4515   4534     1  0.0000000  0.6508444  3
   4522   4519   4523   4533     1  0.0000000  0.6973333  3
   4522   4519   4518   4537     1  0.0000000  0.6508444  3
   4524   4517   4515   4534     1  0.0000000  1.0460000  1
   4524   4517   4515   4534     1  0.0000000  0.0000000  3
   4525   4514   4515   4534     1  0.0000000  0.6508444  3
   4528   4525   4530   4531     1  0.0000000  0.6973333  3
   4528   4525   4514   4532     1  0.0000000  1.0460000  1
   4528   4525   4514   4532     1  0.0000000  0.0000000  3
   4529   4525   4530   4531     1  0.0000000  0.6973333  3
   4529   4525   4514   4532     1  0.0000000  1.0460000  1
   4529   4525   4514   4532     1  0.0000000  0.0000000  3
   4532   4519   4523   4533     1  0.0000000  0.6973333  3
   4532   4514   4515   4534     1  0.0000000  1.0460000  1
   4532   4514   4515   4534     1  0.0000000  0.0000000  3
   4534   4515   4535   4536     1  0.0000000  0.6973333  3
   4538   4539   4541   4545     1  0.0000000  0.6508444  3
   4538   4539   4559   4560     1  0.0000000  1.0460000  1
   4538   4539   4559   4560     1  0.0000000  0.6694400  3
   4538   4549   4554   4555     1  0.0000000  1.0460000  1
   4538   4549   4554   4555     1  0.0000000  0.6694400  3
   4538   4556   4543   4546     1  0.0000000  1.6038667  3
   4539   4541   4542   4544     1  0.0000000  0.6508444  3
   4539   4541   4548   4550     1  0.0000000  1.0460000  1
   4539   4541   4548   4550     1  0.0000000  0.6694400  3
   4539   4538   4549   4552     1  0.0000000  0.6508444  3
   4539   4538   4549   4553     1  0.0000000  0.6508444  3
   4540   4538   4539   4541     1  0.0000000  0.6508444  3
   4540   4538   4539   4559     1  0.0000000  1.0460000  1
   4540   4538   4539   4559     1  0.0000000  0.0000000  3
   4540   4538   4539   4558     1  0.0000000  0.6508444  3
   4540   4538   4549   4554     1  0.0000000  1.0460000  1
   4540   4538   4549   4554     1  0.0000000  0.0000000  3
   4540   4538   4549   4552     1  0.0000000  0.6508444  3
   4540   4538   4549   4553     1  0.0000000  0.6508444  3
   4540   4538   4556   4543     1  0.0000000  1.6038667  3
   4541   4542   4543   4546     1  0.0000000  0.6508444  3
   4541   4542   4561   4551     1  0.0000000  1.2552000  3
   4541   4539   4559   4560     1  0.0000000  1.0460000  1
   4541   4539   4559   4560     1  0.0000000  0.6694400  3
   4542   4543   4547   4557     1  0.0000000  1.0460000  1
   4542   4543   4547   4557     1  0.0000000  0.6694400  3
   4542   4541   4548   4550     1  0.0000000  1.0460000  1
   4542   4541   4548   4550     1  0.0000000  0.6694400  3
   4542   4541   4539   4558     1  0.0000000  0.6508444  3
   4543   4542   4561   4551     1  0.0000000  1.2552000  3
   4543   4542   4541   4545     1  0.0000000  0.6508444  3
   4544   4542   4543   4547     1  0.0000000  1.0460000  1
   4544   4542   4543   4547     1  0.0000000  0.0000000  3
   4544   4542   4543   4556     1  0.0000000  1.0460000  1
   4544   4542   4543   4556     1  0.0000000  0.0000000  3
   4544   4542   4543   4546     1  0.0000000  0.6508444  3
   4544   4542   4561   4551     1  0.0000000  1.2552000  3
   4544   4542   4541   4548     1  0.0000000  1.0460000  1
   4544   4542   4541   4548     1  0.0000000  0.0000000  3
   4544   4542   4541   4545     1  0.0000000  0.6508444  3
   4545   4541   4542   4561     1  0.0000000  0.6508444  3
   4545   4541   4548   4550     1  0.0000000  0.6973333  3
   4545   4541   4539   4559     1  0.0000000  1.0460000  1
   4545   4541   4539   4559     1  0.0000000  0.0000000  3
   4545   4541   4539   4558     1  0.0000000  0.6508444  3
   4546   4543   4547   4557     1  0.0000000  0.6973333  3
   4546   4543   4542   4561     1  0.0000000  0.6508444  3
   4548   4541   4539   4558     1  0.0000000  1.0460000  1
   4548   4541   4539   4558     1  0.0000000  0.0000000  3
   4549   4538   4539   4558     1  0.0000000  0.6508444  3
   4552   4549   4554   4555     1  0.0000000  0.6973333  3
   4552   4549   4538   4556     1  0.0000000  1.0460000  1
   4552   4549   4538   4556     1  0.0000000  0.0000000  3
   4553   4549   4554   4555     1  0.0000000  0.6973333  3
   4553   4549   4538   4556     1  0.0000000  1.0460000  1
   4553   4549   4538   4556     1  0.0000000  0.0000000  3
   4556   4543   4547   4557     1  0.0000000  0.6973333  3
   4556   4538   4539   4558     1  0.0000000  1.0460000  1
   4556   4538   4539   4558     1  0.0000000  0.0000000  3
   4558   4539   4559   4560     1  0.0000000  0.6973333  3
   4563   4565   4567   4569     1  0.0000000  0.6508444  3
   4563   4565   4567   4570     1  0.0000000  0.6508444  3
   4564   4563   4565   4567     1  0.0000000  0.0000000  2
   4564   4563   4565   4566     1  0.0000000  0.0000000  2
   4564   4563   4565   4568     1  0.0000000  0.0000000  2
   4565   4567   4571   4636     1  0.0000000  0.6508444  3
   4566   4565   4567   4571     1  0.0000000  0.6508444  3
   4566   4565   4567   4569     1  0.0000000  0.6508444  3
   4566   4565   4567   4570     1  0.0000000  0.6508444  3
   4567   4571   4572   4581     1  0.0000000  0.6508444  3
   4567   4571   4572   4582     1  0.0000000  0.6508444  3
   4567   4571   4573   4574     1  0.0000000  0.6508444  3
   4567   4571   4573   4576     1  0.0000000  0.6508444  3
   4568   4565   4567   4571     1  0.0000000  0.6508444  3
   4568   4565   4567   4569     1  0.0000000  0.6508444  3
   4568   4565   4567   4570     1  0.0000000  0.6508444  3
   4569   4567   4571   4572     1  0.0000000  0.6508444  3
   4569   4567   4571   4573     1  0.0000000  0.6508444  3
   4569   4567   4571   4636     1  0.0000000  0.6508444  3
   4570   4567   4571   4572     1  0.0000000  0.6508444  3
   4570   4567   4571   4573     1  0.0000000  0.6508444  3
   4570   4567   4571   4636     1  0.0000000  0.6508444  3
   4571   4572   4583   4584     1  0.0000000  0.6508444  3
   4571   4572   4583   4585     1  0.0000000  0.6508444  3
   4571   4573   4575   4577     1  0.0000000  0.6508444  3
   4571   4573   4575   4578     1  0.0000000  0.6508444  3
   4572   4571   4573   4574     1  0.0000000  0.6508444  3
   4572   4571   4573   4576     1  0.0000000  0.6508444  3
   4573   4571   4572   4581     1  0.0000000  0.6508444  3
   4573   4571   4572   4582     1  0.0000000  0.6508444  3
   4574   4573   4571   4636     1  0.0000000  0.6508444  3
   4574   4573   4575   4579     1  0.0000000  0.6508444  3
   4574   4573   4575   4577     1  0.0000000  0.6508444  3
   4574   4573   4575   4578     1  0.0000000  0.6508444  3
   4575   4573   4571   4636     1  0.0000000  0.6508444  3
   4575   4579   4611   4601     1  180.0000771  6.0668000  2
   4575   4579   4611   4601     1  180.0000771  1.4644000  4
   4576   4573   4571   4636     1  0.0000000  0.6508444  3
   4576   4573   4575   4579     1  0.0000000  0.6508444  3
   4576   4573   4575   4577     1  0.0000000  0.6508444  3
   4576   4573   4575   4578     1  0.0000000  0.6508444  3
   4577   4575   4579   4580     1  0.0000000  3.3472000  1
   4577   4575   4579   4580     1  0.0000000  0.0000000  2
   4577   4575   4579   4580     1  180.0000771  0.3347200  3
   4577   4575   4579   4611     1  180.0000771  0.0000000  2
   4578   4575   4579   4580     1  0.0000000  3.3472000  1
   4578   4575   4579   4580     1  0.0000000  0.0000000  2
   4578   4575   4579   4580     1  180.0000771  0.3347200  3
   4578   4575   4579   4611     1  180.0000771  0.0000000  2
   4579   4611   4592   4594     1  0.0000000  1.2552000  3
   4580   4579   4611   4601     1  180.0000771  6.0668000  2
   4580   4579   4611   4601     1  180.0000771  1.4644000  4
   4581   4572   4571   4636     1  0.0000000  0.6508444  3
   4581   4572   4583   4586     1  0.0000000  0.6508444  3
   4581   4572   4583   4584     1  0.0000000  0.6508444  3
   4581   4572   4583   4585     1  0.0000000  0.6508444  3
   4582   4572   4571   4636     1  0.0000000  0.6508444  3
   4582   4572   4583   4586     1  0.0000000  0.6508444  3
   4582   4572   4583   4584     1  0.0000000  0.6508444  3
   4582   4572   4583   4585     1  0.0000000  0.6508444  3
   4583   4572   4571   4636     1  0.0000000  0.6508444  3
   4583   4586   4635   4625     1  180.0000771  6.0668000  2
   4583   4586   4635   4625     1  180.0000771  1.4644000  4
   4584   4583   4586   4587     1  0.0000000  3.3472000  1
   4584   4583   4586   4587     1  0.0000000  0.0000000  2
   4584   4583   4586   4587     1  180.0000771  0.3347200  3
   4584   4583   4586   4635     1  180.0000771  0.0000000  2
   4585   4583   4586   4587     1  0.0000000  3.3472000  1
   4585   4583   4586   4587     1  0.0000000  0.0000000  2
   4585   4583   4586   4587     1  180.0000771  0.3347200  3
   4585   4583   4586   4635     1  180.0000771  0.0000000  2
   4586   4635   4616   4618     1  0.0000000  1.2552000  3
   4587   4586   4635   4625     1  180.0000771  6.0668000  2
   4587   4586   4635   4625     1  180.0000771  1.4644000  4
   4588   4589   4591   4595     1  0.0000000  0.6508444  3
   4588   4589   4609   4610     1  0.0000000  1.0460000  1
   4588   4589   4609   4610     1  0.0000000  0.6694400  3
   4588   4599   4604   4605     1  0.0000000  1.0460000  1
   4588   4599   4604   4605     1  0.0000000  0.6694400  3
   4588   4606   4593   4596     1  0.0000000  1.6038667  3
   4589   4588   4599   4602     1  0.0000000  0.6508444  3
   4589   4588   4599   4603     1  0.0000000  0.6508444  3
   4589   4591   4592   4594     1  0.0000000  0.6508444  3
   4589   4591   4598   4600     1  0.0000000  1.0460000  1
   4589   4591   4598   4600     1  0.0000000  0.6694400  3
   4590   4588   4589   4591     1  0.0000000  0.6508444  3
   4590   4588   4589   4609     1  0.0000000  1.0460000  1
   4590   4588   4589   4609     1  0.0000000  0.0000000  3
   4590   4588   4589   4608     1  0.0000000  0.6508444  3
   4590   4588   4599   4604     1  0.0000000  1.0460000  1
   4590   4588   4599   4604     1  0.0000000  0.0000000  3
   4590   4588   4599   4602     1  0.0000000  0.6508444  3
   4590   4588   4599   4603     1  0.0000000  0.6508444  3
   4590   4588   4606   4593     1  0.0000000  1.6038667  3
   4591   4589   4609   4610     1  0.0000000  1.0460000  1
   4591   4589   4609   4610     1  0.0000000  0.6694400  3
   4591   4592   4593   4596     1  0.0000000  0.6508444  3
   4591   4592   4611   4601     1  0.0000000  1.2552000  3
   4592   4591   4589   4608     1  0.0000000  0.6508444  3
   4592   4591   4598   4600     1  0.0000000  1.0460000  1
   4592   4591   4598   4600     1  0.0000000  0.6694400  3
   4592   4593   4597   4607     1  0.0000000  1.0460000  1
   4592   4593   4597   4607     1  0.0000000  0.6694400  3
   4593   4592   4591   4595     1  0.0000000  0.6508444  3
   4593   4592   4611   4601     1  0.0000000  1.2552000  3
   4594   4592   4591   4598     1  0.0000000  1.0460000  1
   4594   4592   4591   4598     1  0.0000000  0.0000000  3
   4594   4592   4591   4595     1  0.0000000  0.6508444  3
   4594   4592   4593   4597     1  0.0000000  1.0460000  1
   4594   4592   4593   4597     1  0.0000000  0.0000000  3
   4594   4592   4593   4606     1  0.0000000  1.0460000  1
   4594   4592   4593   4606     1  0.0000000  0.0000000  3
   4594   4592   4593   4596     1  0.0000000  0.6508444  3
   4594   4592   4611   4601     1  0.0000000  1.2552000  3
   4595   4591   4589   4609     1  0.0000000  1.0460000  1
   4595   4591   4589   4609     1  0.0000000  0.0000000  3
   4595   4591   4589   4608     1  0.0000000  0.6508444  3
   4595   4591   4592   4611     1  0.0000000  0.6508444  3
   4595   4591   4598   4600     1  0.0000000  0.6973333  3
   4596   4593   4592   4611     1  0.0000000  0.6508444  3
   4596   4593   4597   4607     1  0.0000000  0.6973333  3
   4598   4591   4589   4608     1  0.0000000  1.0460000  1
   4598   4591   4589   4608     1  0.0000000  0.0000000  3
   4599   4588   4589   4608     1  0.0000000  0.6508444  3
   4602   4599   4588   4606     1  0.0000000  1.0460000  1
   4602   4599   4588   4606     1  0.0000000  0.0000000  3
   4602   4599   4604   4605     1  0.0000000  0.6973333  3
   4603   4599   4588   4606     1  0.0000000  1.0460000  1
   4603   4599   4588   4606     1  0.0000000  0.0000000  3
   4603   4599   4604   4605     1  0.0000000  0.6973333  3
   4606   4588   4589   4608     1  0.0000000  1.0460000  1
   4606   4588   4589   4608     1  0.0000000  0.0000000  3
   4606   4593   4597   4607     1  0.0000000  0.6973333  3
   4608   4589   4609   4610     1  0.0000000  0.6973333  3
   4612   4613   4615   4619     1  0.0000000  0.6508444  3
   4612   4613   4633   4634     1  0.0000000  1.0460000  1
   4612   4613   4633   4634     1  0.0000000  0.6694400  3
   4612   4623   4628   4629     1  0.0000000  1.0460000  1
   4612   4623   4628   4629     1  0.0000000  0.6694400  3
   4612   4630   4617   4620     1  0.0000000  1.6038667  3
   4613   4612   4623   4626     1  0.0000000  0.6508444  3
   4613   4612   4623   4627     1  0.0000000  0.6508444  3
   4613   4615   4616   4618     1  0.0000000  0.6508444  3
   4613   4615   4622   4624     1  0.0000000  1.0460000  1
   4613   4615   4622   4624     1  0.0000000  0.6694400  3
   4614   4612   4613   4615     1  0.0000000  0.6508444  3
   4614   4612   4613   4633     1  0.0000000  1.0460000  1
   4614   4612   4613   4633     1  0.0000000  0.0000000  3
   4614   4612   4613   4632     1  0.0000000  0.6508444  3
   4614   4612   4623   4628     1  0.0000000  1.0460000  1
   4614   4612   4623   4628     1  0.0000000  0.0000000  3
   4614   4612   4623   4626     1  0.0000000  0.6508444  3
   4614   4612   4623   4627     1  0.0000000  0.6508444  3
   4614   4612   4630   4617     1  0.0000000  1.6038667  3
   4615   4613   4633   4634     1  0.0000000  1.0460000  1
   4615   4613   4633   4634     1  0.0000000  0.6694400  3
   4615   4616   4617   4620     1  0.0000000  0.6508444  3
   4615   4616   4635   4625     1  0.0000000  1.2552000  3
   4616   4615   4613   4632     1  0.0000000  0.6508444  3
   4616   4615   4622   4624     1  0.0000000  1.0460000  1
   4616   4615   4622   4624     1  0.0000000  0.6694400  3
   4616   4617   4621   4631     1  0.0000000  1.0460000  1
   4616   4617   4621   4631     1  0.0000000  0.6694400  3
   4617   4616   4615   4619     1  0.0000000  0.6508444  3
   4617   4616   4635   4625     1  0.0000000  1.2552000  3
   4618   4616   4615   4622     1  0.0000000  1.0460000  1
   4618   4616   4615   4622     1  0.0000000  0.0000000  3
   4618   4616   4615   4619     1  0.0000000  0.6508444  3
   4618   4616   4617   4621     1  0.0000000  1.0460000  1
   4618   4616   4617   4621     1  0.0000000  0.0000000  3
   4618   4616   4617   4630     1  0.0000000  1.0460000  1
   4618   4616   4617   4630     1  0.0000000  0.0000000  3
   4618   4616   4617   4620     1  0.0000000  0.6508444  3
   4618   4616   4635   4625     1  0.0000000  1.2552000  3
   4619   4615   4613   4633     1  0.0000000  1.0460000  1
   4619   4615   4613   4633     1  0.0000000  0.0000000  3
   4619   4615   4613   4632     1  0.0000000  0.6508444  3
   4619   4615   4616   4635     1  0.0000000  0.6508444  3
   4619   4615   4622   4624     1  0.0000000  0.6973333  3
   4620   4617   4616   4635     1  0.0000000  0.6508444  3
   4620   4617   4621   4631     1  0.0000000  0.6973333  3
   4622   4615   4613   4632     1  0.0000000  1.0460000  1
   4622   4615   4613   4632     1  0.0000000  0.0000000  3
   4623   4612   4613   4632     1  0.0000000  0.6508444  3
   4626   4623   4612   4630     1  0.0000000  1.0460000  1
   4626   4623   4612   4630     1  0.0000000  0.0000000  3
   4626   4623   4628   4629     1  0.0000000  0.6973333  3
   4627   4623   4612   4630     1  0.0000000  1.0460000  1
   4627   4623   4612   4630     1  0.0000000  0.0000000  3
   4627   4623   4628   4629     1  0.0000000  0.6973333  3
   4630   4612   4613   4632     1  0.0000000  1.0460000  1
   4630   4612   4613   4632     1  0.0000000  0.0000000  3
   4630   4617   4621   4631     1  0.0000000  0.6973333  3
   4632   4613   4633   4634     1  0.0000000  0.6973333  3
   4637   4639   4641   4643     1  0.0000000  0.6508444  3
   4637   4639   4641   4644     1  0.0000000  0.6508444  3
   4638   4637   4639   4641     1  0.0000000  0.0000000  2
   4638   4637   4639   4640     1  0.0000000  0.0000000  2
   4638   4637   4639   4642     1  0.0000000  0.0000000  2
   4639   4641   4645   4710     1  0.0000000  0.6508444  3
   4640   4639   4641   4645     1  0.0000000  0.6508444  3
   4640   4639   4641   4643     1  0.0000000  0.6508444  3
   4640   4639   4641   4644     1  0.0000000  0.6508444  3
   4641   4645   4646   4655     1  0.0000000  0.6508444  3
   4641   4645   4646   4656     1  0.0000000  0.6508444  3
   4641   4645   4647   4648     1  0.0000000  0.6508444  3
   4641   4645   4647   4650     1  0.0000000  0.6508444  3
   4642   4639   4641   4645     1  0.0000000  0.6508444  3
   4642   4639   4641   4643     1  0.0000000  0.6508444  3
   4642   4639   4641   4644     1  0.0000000  0.6508444  3
   4643   4641   4645   4646     1  0.0000000  0.6508444  3
   4643   4641   4645   4647     1  0.0000000  0.6508444  3
   4643   4641   4645   4710     1  0.0000000  0.6508444  3
   4644   4641   4645   4646     1  0.0000000  0.6508444  3
   4644   4641   4645   4647     1  0.0000000  0.6508444  3
   4644   4641   4645   4710     1  0.0000000  0.6508444  3
   4645   4646   4657   4658     1  0.0000000  0.6508444  3
   4645   4646   4657   4659     1  0.0000000  0.6508444  3
   4645   4647   4649   4651     1  0.0000000  0.6508444  3
   4645   4647   4649   4652     1  0.0000000  0.6508444  3
   4646   4645   4647   4648     1  0.0000000  0.6508444  3
   4646   4645   4647   4650     1  0.0000000  0.6508444  3
   4647   4645   4646   4655     1  0.0000000  0.6508444  3
   4647   4645   4646   4656     1  0.0000000  0.6508444  3
   4648   4647   4649   4653     1  0.0000000  0.6508444  3
   4648   4647   4649   4651     1  0.0000000  0.6508444  3
   4648   4647   4649   4652     1  0.0000000  0.6508444  3
   4648   4647   4645   4710     1  0.0000000  0.6508444  3
   4649   4653   4685   4675     1  180.0000771  6.0668000  2
   4649   4653   4685   4675     1  180.0000771  1.4644000  4
   4649   4647   4645   4710     1  0.0000000  0.6508444  3
   4650   4647   4649   4653     1  0.0000000  0.6508444  3
   4650   4647   4649   4651     1  0.0000000  0.6508444  3
   4650   4647   4649   4652     1  0.0000000  0.6508444  3
   4650   4647   4645   4710     1  0.0000000  0.6508444  3
   4651   4649   4653   4654     1  0.0000000  3.3472000  1
   4651   4649   4653   4654     1  0.0000000  0.0000000  2
   4651   4649   4653   4654     1  180.0000771  0.3347200  3
   4651   4649   4653   4685     1  180.0000771  0.0000000  2
   4652   4649   4653   4654     1  0.0000000  3.3472000  1
   4652   4649   4653   4654     1  0.0000000  0.0000000  2
   4652   4649   4653   4654     1  180.0000771  0.3347200  3
   4652   4649   4653   4685     1  180.0000771  0.0000000  2
   4653   4685   4666   4668     1  0.0000000  1.2552000  3
   4654   4653   4685   4675     1  180.0000771  6.0668000  2
   4654   4653   4685   4675     1  180.0000771  1.4644000  4
   4655   4646   4657   4660     1  0.0000000  0.6508444  3
   4655   4646   4657   4658     1  0.0000000  0.6508444  3
   4655   4646   4657   4659     1  0.0000000  0.6508444  3
   4655   4646   4645   4710     1  0.0000000  0.6508444  3
   4656   4646   4657   4660     1  0.0000000  0.6508444  3
   4656   4646   4657   4658     1  0.0000000  0.6508444  3
   4656   4646   4657   4659     1  0.0000000  0.6508444  3
   4656   4646   4645   4710     1  0.0000000  0.6508444  3
   4657   4660   4709   4699     1  180.0000771  6.0668000  2
   4657   4660   4709   4699     1  180.0000771  1.4644000  4
   4657   4646   4645   4710     1  0.0000000  0.6508444  3
   4658   4657   4660   4661     1  0.0000000  3.3472000  1
   4658   4657   4660   4661     1  0.0000000  0.0000000  2
   4658   4657   4660   4661     1  180.0000771  0.3347200  3
   4658   4657   4660   4709     1  180.0000771  0.0000000  2
   4659   4657   4660   4661     1  0.0000000  3.3472000  1
   4659   4657   4660   4661     1  0.0000000  0.0000000  2
   4659   4657   4660   4661     1  180.0000771  0.3347200  3
   4659   4657   4660   4709     1  180.0000771  0.0000000  2
   4660   4709   4690   4692     1  0.0000000  1.2552000  3
   4661   4660   4709   4699     1  180.0000771  6.0668000  2
   4661   4660   4709   4699     1  180.0000771  1.4644000  4
   4662   4663   4665   4669     1  0.0000000  0.6508444  3
   4662   4663   4683   4684     1  0.0000000  1.0460000  1
   4662   4663   4683   4684     1  0.0000000  0.6694400  3
   4662   4673   4678   4679     1  0.0000000  1.0460000  1
   4662   4673   4678   4679     1  0.0000000  0.6694400  3
   4662   4680   4667   4670     1  0.0000000  1.6038667  3
   4663   4665   4666   4668     1  0.0000000  0.6508444  3
   4663   4665   4672   4674     1  0.0000000  1.0460000  1
   4663   4665   4672   4674     1  0.0000000  0.6694400  3
   4663   4662   4673   4676     1  0.0000000  0.6508444  3
   4663   4662   4673   4677     1  0.0000000  0.6508444  3
   4664   4662   4663   4665     1  0.0000000  0.6508444  3
   4664   4662   4663   4683     1  0.0000000  1.0460000  1
   4664   4662   4663   4683     1  0.0000000  0.0000000  3
   4664   4662   4663   4682     1  0.0000000  0.6508444  3
   4664   4662   4673   4678     1  0.0000000  1.0460000  1
   4664   4662   4673   4678     1  0.0000000  0.0000000  3
   4664   4662   4673   4676     1  0.0000000  0.6508444  3
   4664   4662   4673   4677     1  0.0000000  0.6508444  3
   4664   4662   4680   4667     1  0.0000000  1.6038667  3
   4665   4666   4667   4670     1  0.0000000  0.6508444  3
   4665   4666   4685   4675     1  0.0000000  1.2552000  3
   4665   4663   4683   4684     1  0.0000000  1.0460000  1
   4665   4663   4683   4684     1  0.0000000  0.6694400  3
   4666   4667   4671   4681     1  0.0000000  1.0460000  1
   4666   4667   4671   4681     1  0.0000000  0.6694400  3
   4666   4665   4672   4674     1  0.0000000  1.0460000  1
   4666   4665   4672   4674     1  0.0000000  0.6694400  3
   4666   4665   4663   4682     1  0.0000000  0.6508444  3
   4667   4666   4685   4675     1  0.0000000  1.2552000  3
   4667   4666   4665   4669     1  0.0000000  0.6508444  3
   4668   4666   4667   4671     1  0.0000000  1.0460000  1
   4668   4666   4667   4671     1  0.0000000  0.0000000  3
   4668   4666   4667   4680     1  0.0000000  1.0460000  1
   4668   4666   4667   4680     1  0.0000000  0.0000000  3
   4668   4666   4667   4670     1  0.0000000  0.6508444  3
   4668   4666   4685   4675     1  0.0000000  1.2552000  3
   4668   4666   4665   4672     1  0.0000000  1.0460000  1
   4668   4666   4665   4672     1  0.0000000  0.0000000  3
   4668   4666   4665   4669     1  0.0000000  0.6508444  3
   4669   4665   4666   4685     1  0.0000000  0.6508444  3
   4669   4665   4672   4674     1  0.0000000  0.6973333  3
   4669   4665   4663   4683     1  0.0000000  1.0460000  1
   4669   4665   4663   4683     1  0.0000000  0.0000000  3
   4669   4665   4663   4682     1  0.0000000  0.6508444  3
   4670   4667   4671   4681     1  0.0000000  0.6973333  3
   4670   4667   4666   4685     1  0.0000000  0.6508444  3
   4672   4665   4663   4682     1  0.0000000  1.0460000  1
   4672   4665   4663   4682     1  0.0000000  0.0000000  3
   4673   4662   4663   4682     1  0.0000000  0.6508444  3
   4676   4673   4678   4679     1  0.0000000  0.6973333  3
   4676   4673   4662   4680     1  0.0000000  1.0460000  1
   4676   4673   4662   4680     1  0.0000000  0.0000000  3
   4677   4673   4678   4679     1  0.0000000  0.6973333  3
   4677   4673   4662   4680     1  0.0000000  1.0460000  1
   4677   4673   4662   4680     1  0.0000000  0.0000000  3
   4680   4667   4671   4681     1  0.0000000  0.6973333  3
   4680   4662   4663   4682     1  0.0000000  1.0460000  1
   4680   4662   4663   4682     1  0.0000000  0.0000000  3
   4682   4663   4683   4684     1  0.0000000  0.6973333  3
   4686   4687   4689   4693     1  0.0000000  0.6508444  3
   4686   4687   4707   4708     1  0.0000000  1.0460000  1
   4686   4687   4707   4708     1  0.0000000  0.6694400  3
   4686   4697   4702   4703     1  0.0000000  1.0460000  1
   4686   4697   4702   4703     1  0.0000000  0.6694400  3
   4686   4704   4691   4694     1  0.0000000  1.6038667  3
   4687   4689   4690   4692     1  0.0000000  0.6508444  3
   4687   4689   4696   4698     1  0.0000000  1.0460000  1
   4687   4689   4696   4698     1  0.0000000  0.6694400  3
   4687   4686   4697   4700     1  0.0000000  0.6508444  3
   4687   4686   4697   4701     1  0.0000000  0.6508444  3
   4688   4686   4687   4689     1  0.0000000  0.6508444  3
   4688   4686   4687   4707     1  0.0000000  1.0460000  1
   4688   4686   4687   4707     1  0.0000000  0.0000000  3
   4688   4686   4687   4706     1  0.0000000  0.6508444  3
   4688   4686   4697   4702     1  0.0000000  1.0460000  1
   4688   4686   4697   4702     1  0.0000000  0.0000000  3
   4688   4686   4697   4700     1  0.0000000  0.6508444  3
   4688   4686   4697   4701     1  0.0000000  0.6508444  3
   4688   4686   4704   4691     1  0.0000000  1.6038667  3
   4689   4690   4691   4694     1  0.0000000  0.6508444  3
   4689   4690   4709   4699     1  0.0000000  1.2552000  3
   4689   4687   4707   4708     1  0.0000000  1.0460000  1
   4689   4687   4707   4708     1  0.0000000  0.6694400  3
   4690   4691   4695   4705     1  0.0000000  1.0460000  1
   4690   4691   4695   4705     1  0.0000000  0.6694400  3
   4690   4689   4696   4698     1  0.0000000  1.0460000  1
   4690   4689   4696   4698     1  0.0000000  0.6694400  3
   4690   4689   4687   4706     1  0.0000000  0.6508444  3
   4691   4690   4709   4699     1  0.0000000  1.2552000  3
   4691   4690   4689   4693     1  0.0000000  0.6508444  3
   4692   4690   4691   4695     1  0.0000000  1.0460000  1
   4692   4690   4691   4695     1  0.0000000  0.0000000  3
   4692   4690   4691   4704     1  0.0000000  1.0460000  1
   4692   4690   4691   4704     1  0.0000000  0.0000000  3
   4692   4690   4691   4694     1  0.0000000  0.6508444  3
   4692   4690   4709   4699     1  0.0000000  1.2552000  3
   4692   4690   4689   4696     1  0.0000000  1.0460000  1
   4692   4690   4689   4696     1  0.0000000  0.0000000  3
   4692   4690   4689   4693     1  0.0000000  0.6508444  3
   4693   4689   4690   4709     1  0.0000000  0.6508444  3
   4693   4689   4696   4698     1  0.0000000  0.6973333  3
   4693   4689   4687   4707     1  0.0000000  1.0460000  1
   4693   4689   4687   4707     1  0.0000000  0.0000000  3
   4693   4689   4687   4706     1  0.0000000  0.6508444  3
   4694   4691   4695   4705     1  0.0000000  0.6973333  3
   4694   4691   4690   4709     1  0.0000000  0.6508444  3
   4696   4689   4687   4706     1  0.0000000  1.0460000  1
   4696   4689   4687   4706     1  0.0000000  0.0000000  3
   4697   4686   4687   4706     1  0.0000000  0.6508444  3
   4700   4697   4702   4703     1  0.0000000  0.6973333  3
   4700   4697   4686   4704     1  0.0000000  1.0460000  1
   4700   4697   4686   4704     1  0.0000000  0.0000000  3
   4701   4697   4702   4703     1  0.0000000  0.6973333  3
   4701   4697   4686   4704     1  0.0000000  1.0460000  1
   4701   4697   4686   4704     1  0.0000000  0.0000000  3
   4704   4691   4695   4705     1  0.0000000  0.6973333  3
   4704   4686   4687   4706     1  0.0000000  1.0460000  1
   4704   4686   4687   4706     1  0.0000000  0.0000000  3
   4706   4687   4707   4708     1  0.0000000  0.6973333  3
   4711   4713   4715   4717     1  0.0000000  0.6508444  3
   4711   4713   4715   4718     1  0.0000000  0.6508444  3
   4712   4711   4713   4715     1  0.0000000  0.0000000  2
   4712   4711   4713   4714     1  0.0000000  0.0000000  2
   4712   4711   4713   4716     1  0.0000000  0.0000000  2
   4713   4715   4719   4784     1  0.0000000  0.6508444  3
   4714   4713   4715   4719     1  0.0000000  0.6508444  3
   4714   4713   4715   4717     1  0.0000000  0.6508444  3
   4714   4713   4715   4718     1  0.0000000  0.6508444  3
   4715   4719   4720   4729     1  0.0000000  0.6508444  3
   4715   4719   4720   4730     1  0.0000000  0.6508444  3
   4715   4719   4721   4722     1  0.0000000  0.6508444  3
   4715   4719   4721   4724     1  0.0000000  0.6508444  3
   4716   4713   4715   4719     1  0.0000000  0.6508444  3
   4716   4713   4715   4717     1  0.0000000  0.6508444  3
   4716   4713   4715   4718     1  0.0000000  0.6508444  3
   4717   4715   4719   4720     1  0.0000000  0.6508444  3
   4717   4715   4719   4721     1  0.0000000  0.6508444  3
   4717   4715   4719   4784     1  0.0000000  0.6508444  3
   4718   4715   4719   4720     1  0.0000000  0.6508444  3
   4718   4715   4719   4721     1  0.0000000  0.6508444  3
   4718   4715   4719   4784     1  0.0000000  0.6508444  3
   4719   4720   4731   4732     1  0.0000000  0.6508444  3
   4719   4720   4731   4733     1  0.0000000  0.6508444  3
   4719   4721   4723   4725     1  0.0000000  0.6508444  3
   4719   4721   4723   4726     1  0.0000000  0.6508444  3
   4720   4719   4721   4722     1  0.0000000  0.6508444  3
   4720   4719   4721   4724     1  0.0000000  0.6508444  3
   4721   4719   4720   4729     1  0.0000000  0.6508444  3
   4721   4719   4720   4730     1  0.0000000  0.6508444  3
   4722   4721   4719   4784     1  0.0000000  0.6508444  3
   4722   4721   4723   4727     1  0.0000000  0.6508444  3
   4722   4721   4723   4725     1  0.0000000  0.6508444  3
   4722   4721   4723   4726     1  0.0000000  0.6508444  3
   4723   4721   4719   4784     1  0.0000000  0.6508444  3
   4723   4727   4759   4749     1  180.0000771  6.0668000  2
   4723   4727   4759   4749     1  180.0000771  1.4644000  4
   4724   4721   4719   4784     1  0.0000000  0.6508444  3
   4724   4721   4723   4727     1  0.0000000  0.6508444  3
   4724   4721   4723   4725     1  0.0000000  0.6508444  3
   4724   4721   4723   4726     1  0.0000000  0.6508444  3
   4725   4723   4727   4728     1  0.0000000  3.3472000  1
   4725   4723   4727   4728     1  0.0000000  0.0000000  2
   4725   4723   4727   4728     1  180.0000771  0.3347200  3
   4725   4723   4727   4759     1  180.0000771  0.0000000  2
   4726   4723   4727   4728     1  0.0000000  3.3472000  1
   4726   4723   4727   4728     1  0.0000000  0.0000000  2
   4726   4723   4727   4728     1  180.0000771  0.3347200  3
   4726   4723   4727   4759     1  180.0000771  0.0000000  2
   4727   4759   4740   4742     1  0.0000000  1.2552000  3
   4728   4727   4759   4749     1  180.0000771  6.0668000  2
   4728   4727   4759   4749     1  180.0000771  1.4644000  4
   4729   4720   4719   4784     1  0.0000000  0.6508444  3
   4729   4720   4731   4734     1  0.0000000  0.6508444  3
   4729   4720   4731   4732     1  0.0000000  0.6508444  3
   4729   4720   4731   4733     1  0.0000000  0.6508444  3
   4730   4720   4719   4784     1  0.0000000  0.6508444  3
   4730   4720   4731   4734     1  0.0000000  0.6508444  3
   4730   4720   4731   4732     1  0.0000000  0.6508444  3
   4730   4720   4731   4733     1  0.0000000  0.6508444  3
   4731   4720   4719   4784     1  0.0000000  0.6508444  3
   4731   4734   4783   4773     1  180.0000771  6.0668000  2
   4731   4734   4783   4773     1  180.0000771  1.4644000  4
   4732   4731   4734   4735     1  0.0000000  3.3472000  1
   4732   4731   4734   4735     1  0.0000000  0.0000000  2
   4732   4731   4734   4735     1  180.0000771  0.3347200  3
   4732   4731   4734   4783     1  180.0000771  0.0000000  2
   4733   4731   4734   4735     1  0.0000000  3.3472000  1
   4733   4731   4734   4735     1  0.0000000  0.0000000  2
   4733   4731   4734   4735     1  180.0000771  0.3347200  3
   4733   4731   4734   4783     1  180.0000771  0.0000000  2
   4734   4783   4764   4766     1  0.0000000  1.2552000  3
   4735   4734   4783   4773     1  180.0000771  6.0668000  2
   4735   4734   4783   4773     1  180.0000771  1.4644000  4
   4736   4737   4739   4743     1  0.0000000  0.6508444  3
   4736   4737   4757   4758     1  0.0000000  1.0460000  1
   4736   4737   4757   4758     1  0.0000000  0.6694400  3
   4736   4747   4752   4753     1  0.0000000  1.0460000  1
   4736   4747   4752   4753     1  0.0000000  0.6694400  3
   4736   4754   4741   4744     1  0.0000000  1.6038667  3
   4737   4736   4747   4750     1  0.0000000  0.6508444  3
   4737   4736   4747   4751     1  0.0000000  0.6508444  3
   4737   4739   4740   4742     1  0.0000000  0.6508444  3
   4737   4739   4746   4748     1  0.0000000  1.0460000  1
   4737   4739   4746   4748     1  0.0000000  0.6694400  3
   4738   4736   4737   4739     1  0.0000000  0.6508444  3
   4738   4736   4737   4757     1  0.0000000  1.0460000  1
   4738   4736   4737   4757     1  0.0000000  0.0000000  3
   4738   4736   4737   4756     1  0.0000000  0.6508444  3
   4738   4736   4747   4752     1  0.0000000  1.0460000  1
   4738   4736   4747   4752     1  0.0000000  0.0000000  3
   4738   4736   4747   4750     1  0.0000000  0.6508444  3
   4738   4736   4747   4751     1  0.0000000  0.6508444  3
   4738   4736   4754   4741     1  0.0000000  1.6038667  3
   4739   4737   4757   4758     1  0.0000000  1.0460000  1
   4739   4737   4757   4758     1  0.0000000  0.6694400  3
   4739   4740   4741   4744     1  0.0000000  0.6508444  3
   4739   4740   4759   4749     1  0.0000000  1.2552000  3
   4740   4739   4737   4756     1  0.0000000  0.6508444  3
   4740   4739   4746   4748     1  0.0000000  1.0460000  1
   4740   4739   4746   4748     1  0.0000000  0.6694400  3
   4740   4741   4745   4755     1  0.0000000  1.0460000  1
   4740   4741   4745   4755     1  0.0000000  0.6694400  3
   4741   4740   4739   4743     1  0.0000000  0.6508444  3
   4741   4740   4759   4749     1  0.0000000  1.2552000  3
   4742   4740   4739   4746     1  0.0000000  1.0460000  1
   4742   4740   4739   4746     1  0.0000000  0.0000000  3
   4742   4740   4739   4743     1  0.0000000  0.6508444  3
   4742   4740   4741   4745     1  0.0000000  1.0460000  1
   4742   4740   4741   4745     1  0.0000000  0.0000000  3
   4742   4740   4741   4754     1  0.0000000  1.0460000  1
   4742   4740   4741   4754     1  0.0000000  0.0000000  3
   4742   4740   4741   4744     1  0.0000000  0.6508444  3
   4742   4740   4759   4749     1  0.0000000  1.2552000  3
   4743   4739   4737   4757     1  0.0000000  1.0460000  1
   4743   4739   4737   4757     1  0.0000000  0.0000000  3
   4743   4739   4737   4756     1  0.0000000  0.6508444  3
   4743   4739   4740   4759     1  0.0000000  0.6508444  3
   4743   4739   4746   4748     1  0.0000000  0.6973333  3
   4744   4741   4740   4759     1  0.0000000  0.6508444  3
   4744   4741   4745   4755     1  0.0000000  0.6973333  3
   4746   4739   4737   4756     1  0.0000000  1.0460000  1
   4746   4739   4737   4756     1  0.0000000  0.0000000  3
   4747   4736   4737   4756     1  0.0000000  0.6508444  3
   4750   4747   4736   4754     1  0.0000000  1.0460000  1
   4750   4747   4736   4754     1  0.0000000  0.0000000  3
   4750   4747   4752   4753     1  0.0000000  0.6973333  3
   4751   4747   4736   4754     1  0.0000000  1.0460000  1
   4751   4747   4736   4754     1  0.0000000  0.0000000  3
   4751   4747   4752   4753     1  0.0000000  0.6973333  3
   4754   4736   4737   4756     1  0.0000000  1.0460000  1
   4754   4736   4737   4756     1  0.0000000  0.0000000  3
   4754   4741   4745   4755     1  0.0000000  0.6973333  3
   4756   4737   4757   4758     1  0.0000000  0.6973333  3
   4760   4761   4763   4767     1  0.0000000  0.6508444  3
   4760   4761   4781   4782     1  0.0000000  1.0460000  1
   4760   4761   4781   4782     1  0.0000000  0.6694400  3
   4760   4771   4776   4777     1  0.0000000  1.0460000  1
   4760   4771   4776   4777     1  0.0000000  0.6694400  3
   4760   4778   4765   4768     1  0.0000000  1.6038667  3
   4761   4760   4771   4774     1  0.0000000  0.6508444  3
   4761   4760   4771   4775     1  0.0000000  0.6508444  3
   4761   4763   4764   4766     1  0.0000000  0.6508444  3
   4761   4763   4770   4772     1  0.0000000  1.0460000  1
   4761   4763   4770   4772     1  0.0000000  0.6694400  3
   4762   4760   4761   4763     1  0.0000000  0.6508444  3
   4762   4760   4761   4781     1  0.0000000  1.0460000  1
   4762   4760   4761   4781     1  0.0000000  0.0000000  3
   4762   4760   4761   4780     1  0.0000000  0.6508444  3
   4762   4760   4771   4776     1  0.0000000  1.0460000  1
   4762   4760   4771   4776     1  0.0000000  0.0000000  3
   4762   4760   4771   4774     1  0.0000000  0.6508444  3
   4762   4760   4771   4775     1  0.0000000  0.6508444  3
   4762   4760   4778   4765     1  0.0000000  1.6038667  3
   4763   4761   4781   4782     1  0.0000000  1.0460000  1
   4763   4761   4781   4782     1  0.0000000  0.6694400  3
   4763   4764   4765   4768     1  0.0000000  0.6508444  3
   4763   4764   4783   4773     1  0.0000000  1.2552000  3
   4764   4763   4761   4780     1  0.0000000  0.6508444  3
   4764   4763   4770   4772     1  0.0000000  1.0460000  1
   4764   4763   4770   4772     1  0.0000000  0.6694400  3
   4764   4765   4769   4779     1  0.0000000  1.0460000  1
   4764   4765   4769   4779     1  0.0000000  0.6694400  3
   4765   4764   4763   4767     1  0.0000000  0.6508444  3
   4765   4764   4783   4773     1  0.0000000  1.2552000  3
   4766   4764   4763   4770     1  0.0000000  1.0460000  1
   4766   4764   4763   4770     1  0.0000000  0.0000000  3
   4766   4764   4763   4767     1  0.0000000  0.6508444  3
   4766   4764   4765   4769     1  0.0000000  1.0460000  1
   4766   4764   4765   4769     1  0.0000000  0.0000000  3
   4766   4764   4765   4778     1  0.0000000  1.0460000  1
   4766   4764   4765   4778     1  0.0000000  0.0000000  3
   4766   4764   4765   4768     1  0.0000000  0.6508444  3
   4766   4764   4783   4773     1  0.0000000  1.2552000  3
   4767   4763   4761   4781     1  0.0000000  1.0460000  1
   4767   4763   4761   4781     1  0.0000000  0.0000000  3
   4767   4763   4761   4780     1  0.0000000  0.6508444  3
   4767   4763   4764   4783     1  0.0000000  0.6508444  3
   4767   4763   4770   4772     1  0.0000000  0.6973333  3
   4768   4765   4764   4783     1  0.0000000  0.6508444  3
   4768   4765   4769   4779     1  0.0000000  0.6973333  3
   4770   4763   4761   4780     1  0.0000000  1.0460000  1
   4770   4763   4761   4780     1  0.0000000  0.0000000  3
   4771   4760   4761   4780     1  0.0000000  0.6508444  3
   4774   4771   4760   4778     1  0.0000000  1.0460000  1
   4774   4771   4760   4778     1  0.0000000  0.0000000  3
   4774   4771   4776   4777     1  0.0000000  0.6973333  3
   4775   4771   4760   4778     1  0.0000000  1.0460000  1
   4775   4771   4760   4778     1  0.0000000  0.0000000  3
   4775   4771   4776   4777     1  0.0000000  0.6973333  3
   4778   4760   4761   4780     1  0.0000000  1.0460000  1
   4778   4760   4761   4780     1  0.0000000  0.0000000  3
   4778   4765   4769   4779     1  0.0000000  0.6973333  3
   4780   4761   4781   4782     1  0.0000000  0.6973333  3
   4785   4787   4789   4791     1  0.0000000  0.6508444  3
   4785   4787   4789   4792     1  0.0000000  0.6508444  3
   4786   4785   4787   4789     1  0.0000000  0.0000000  2
   4786   4785   4787   4788     1  0.0000000  0.0000000  2
   4786   4785   4787   4790     1  0.0000000  0.0000000  2
   4787   4789   4793   4858     1  0.0000000  0.6508444  3
   4788   4787   4789   4793     1  0.0000000  0.6508444  3
   4788   4787   4789   4791     1  0.0000000  0.6508444  3
   4788   4787   4789   4792     1  0.0000000  0.6508444  3
   4789   4793   4794   4803     1  0.0000000  0.6508444  3
   4789   4793   4794   4804     1  0.0000000  0.6508444  3
   4789   4793   4795   4796     1  0.0000000  0.6508444  3
   4789   4793   4795   4798     1  0.0000000  0.6508444  3
   4790   4787   4789   4793     1  0.0000000  0.6508444  3
   4790   4787   4789   4791     1  0.0000000  0.6508444  3
   4790   4787   4789   4792     1  0.0000000  0.6508444  3
   4791   4789   4793   4794     1  0.0000000  0.6508444  3
   4791   4789   4793   4795     1  0.0000000  0.6508444  3
   4791   4789   4793   4858     1  0.0000000  0.6508444  3
   4792   4789   4793   4794     1  0.0000000  0.6508444  3
   4792   4789   4793   4795     1  0.0000000  0.6508444  3
   4792   4789   4793   4858     1  0.0000000  0.6508444  3
   4793   4794   4805   4806     1  0.0000000  0.6508444  3
   4793   4794   4805   4807     1  0.0000000  0.6508444  3
   4793   4795   4797   4799     1  0.0000000  0.6508444  3
   4793   4795   4797   4800     1  0.0000000  0.6508444  3
   4794   4793   4795   4796     1  0.0000000  0.6508444  3
   4794   4793   4795   4798     1  0.0000000  0.6508444  3
   4795   4793   4794   4803     1  0.0000000  0.6508444  3
   4795   4793   4794   4804     1  0.0000000  0.6508444  3
   4796   4795   4797   4801     1  0.0000000  0.6508444  3
   4796   4795   4797   4799     1  0.0000000  0.6508444  3
   4796   4795   4797   4800     1  0.0000000  0.6508444  3
   4796   4795   4793   4858     1  0.0000000  0.6508444  3
   4797   4801   4833   4823     1  180.0000771  6.0668000  2
   4797   4801   4833   4823     1  180.0000771  1.4644000  4
   4797   4795   4793   4858     1  0.0000000  0.6508444  3
   4798   4795   4797   4801     1  0.0000000  0.6508444  3
   4798   4795   4797   4799     1  0.0000000  0.6508444  3
   4798   4795   4797   4800     1  0.0000000  0.6508444  3
   4798   4795   4793   4858     1  0.0000000  0.6508444  3
   4799   4797   4801   4802     1  0.0000000  3.3472000  1
   4799   4797   4801   4802     1  0.0000000  0.0000000  2
   4799   4797   4801   4802     1  180.0000771  0.3347200  3
   4799   4797   4801   4833     1  180.0000771  0.0000000  2
   4800   4797   4801   4802     1  0.0000000  3.3472000  1
   4800   4797   4801   4802     1  0.0000000  0.0000000  2
   4800   4797   4801   4802     1  180.0000771  0.3347200  3
   4800   4797   4801   4833     1  180.0000771  0.0000000  2
   4801   4833   4814   4816     1  0.0000000  1.2552000  3
   4802   4801   4833   4823     1  180.0000771  6.0668000  2
   4802   4801   4833   4823     1  180.0000771  1.4644000  4
   4803   4794   4805   4808     1  0.0000000  0.6508444  3
   4803   4794   4805   4806     1  0.0000000  0.6508444  3
   4803   4794   4805   4807     1  0.0000000  0.6508444  3
   4803   4794   4793   4858     1  0.0000000  0.6508444  3
   4804   4794   4805   4808     1  0.0000000  0.6508444  3
   4804   4794   4805   4806     1  0.0000000  0.6508444  3
   4804   4794   4805   4807     1  0.0000000  0.6508444  3
   4804   4794   4793   4858     1  0.0000000  0.6508444  3
   4805   4808   4857   4847     1  180.0000771  6.0668000  2
   4805   4808   4857   4847     1  180.0000771  1.4644000  4
   4805   4794   4793   4858     1  0.0000000  0.6508444  3
   4806   4805   4808   4809     1  0.0000000  3.3472000  1
   4806   4805   4808   4809     1  0.0000000  0.0000000  2
   4806   4805   4808   4809     1  180.0000771  0.3347200  3
   4806   4805   4808   4857     1  180.0000771  0.0000000  2
   4807   4805   4808   4809     1  0.0000000  3.3472000  1
   4807   4805   4808   4809     1  0.0000000  0.0000000  2
   4807   4805   4808   4809     1  180.0000771  0.3347200  3
   4807   4805   4808   4857     1  180.0000771  0.0000000  2
   4808   4857   4838   4840     1  0.0000000  1.2552000  3
   4809   4808   4857   4847     1  180.0000771  6.0668000  2
   4809   4808   4857   4847     1  180.0000771  1.4644000  4
   4810   4811   4813   4817     1  0.0000000  0.6508444  3
   4810   4811   4831   4832     1  0.0000000  1.0460000  1
   4810   4811   4831   4832     1  0.0000000  0.6694400  3
   4810   4821   4826   4827     1  0.0000000  1.0460000  1
   4810   4821   4826   4827     1  0.0000000  0.6694400  3
   4810   4828   4815   4818     1  0.0000000  1.6038667  3
   4811   4813   4814   4816     1  0.0000000  0.6508444  3
   4811   4813   4820   4822     1  0.0000000  1.0460000  1
   4811   4813   4820   4822     1  0.0000000  0.6694400  3
   4811   4810   4821   4824     1  0.0000000  0.6508444  3
   4811   4810   4821   4825     1  0.0000000  0.6508444  3
   4812   4810   4811   4813     1  0.0000000  0.6508444  3
   4812   4810   4811   4831     1  0.0000000  1.0460000  1
   4812   4810   4811   4831     1  0.0000000  0.0000000  3
   4812   4810   4811   4830     1  0.0000000  0.6508444  3
   4812   4810   4821   4826     1  0.0000000  1.0460000  1
   4812   4810   4821   4826     1  0.0000000  0.0000000  3
   4812   4810   4821   4824     1  0.0000000  0.6508444  3
   4812   4810   4821   4825     1  0.0000000  0.6508444  3
   4812   4810   4828   4815     1  0.0000000  1.6038667  3
   4813   4814   4815   4818     1  0.0000000  0.6508444  3
   4813   4814   4833   4823     1  0.0000000  1.2552000  3
   4813   4811   4831   4832     1  0.0000000  1.0460000  1
   4813   4811   4831   4832     1  0.0000000  0.6694400  3
   4814   4815   4819   4829     1  0.0000000  1.0460000  1
   4814   4815   4819   4829     1  0.0000000  0.6694400  3
   4814   4813   4820   4822     1  0.0000000  1.0460000  1
   4814   4813   4820   4822     1  0.0000000  0.6694400  3
   4814   4813   4811   4830     1  0.0000000  0.6508444  3
   4815   4814   4833   4823     1  0.0000000  1.2552000  3
   4815   4814   4813   4817     1  0.0000000  0.6508444  3
   4816   4814   4815   4819     1  0.0000000  1.0460000  1
   4816   4814   4815   4819     1  0.0000000  0.0000000  3
   4816   4814   4815   4828     1  0.0000000  1.0460000  1
   4816   4814   4815   4828     1  0.0000000  0.0000000  3
   4816   4814   4815   4818     1  0.0000000  0.6508444  3
   4816   4814   4833   4823     1  0.0000000  1.2552000  3
   4816   4814   4813   4820     1  0.0000000  1.0460000  1
   4816   4814   4813   4820     1  0.0000000  0.0000000  3
   4816   4814   4813   4817     1  0.0000000  0.6508444  3
   4817   4813   4814   4833     1  0.0000000  0.6508444  3
   4817   4813   4820   4822     1  0.0000000  0.6973333  3
   4817   4813   4811   4831     1  0.0000000  1.0460000  1
   4817   4813   4811   4831     1  0.0000000  0.0000000  3
   4817   4813   4811   4830     1  0.0000000  0.6508444  3
   4818   4815   4819   4829     1  0.0000000  0.6973333  3
   4818   4815   4814   4833     1  0.0000000  0.6508444  3
   4820   4813   4811   4830     1  0.0000000  1.0460000  1
   4820   4813   4811   4830     1  0.0000000  0.0000000  3
   4821   4810   4811   4830     1  0.0000000  0.6508444  3
   4824   4821   4826   4827     1  0.0000000  0.6973333  3
   4824   4821   4810   4828     1  0.0000000  1.0460000  1
   4824   4821   4810   4828     1  0.0000000  0.0000000  3
   4825   4821   4826   4827     1  0.0000000  0.6973333  3
   4825   4821   4810   4828     1  0.0000000  1.0460000  1
   4825   4821   4810   4828     1  0.0000000  0.0000000  3
   4828   4815   4819   4829     1  0.0000000  0.6973333  3
   4828   4810   4811   4830     1  0.0000000  1.0460000  1
   4828   4810   4811   4830     1  0.0000000  0.0000000  3
   4830   4811   4831   4832     1  0.0000000  0.6973333  3
   4834   4835   4837   4841     1  0.0000000  0.6508444  3
   4834   4835   4855   4856     1  0.0000000  1.0460000  1
   4834   4835   4855   4856     1  0.0000000  0.6694400  3
   4834   4845   4850   4851     1  0.0000000  1.0460000  1
   4834   4845   4850   4851     1  0.0000000  0.6694400  3
   4834   4852   4839   4842     1  0.0000000  1.6038667  3
   4835   4837   4838   4840     1  0.0000000  0.6508444  3
   4835   4837   4844   4846     1  0.0000000  1.0460000  1
   4835   4837   4844   4846     1  0.0000000  0.6694400  3
   4835   4834   4845   4848     1  0.0000000  0.6508444  3
   4835   4834   4845   4849     1  0.0000000  0.6508444  3
   4836   4834   4835   4837     1  0.0000000  0.6508444  3
   4836   4834   4835   4855     1  0.0000000  1.0460000  1
   4836   4834   4835   4855     1  0.0000000  0.0000000  3
   4836   4834   4835   4854     1  0.0000000  0.6508444  3
   4836   4834   4845   4850     1  0.0000000  1.0460000  1
   4836   4834   4845   4850     1  0.0000000  0.0000000  3
   4836   4834   4845   4848     1  0.0000000  0.6508444  3
   4836   4834   4845   4849     1  0.0000000  0.6508444  3
   4836   4834   4852   4839     1  0.0000000  1.6038667  3
   4837   4838   4839   4842     1  0.0000000  0.6508444  3
   4837   4838   4857   4847     1  0.0000000  1.2552000  3
   4837   4835   4855   4856     1  0.0000000  1.0460000  1
   4837   4835   4855   4856     1  0.0000000  0.6694400  3
   4838   4839   4843   4853     1  0.0000000  1.0460000  1
   4838   4839   4843   4853     1  0.0000000  0.6694400  3
   4838   4837   4844   4846     1  0.0000000  1.0460000  1
   4838   4837   4844   4846     1  0.0000000  0.6694400  3
   4838   4837   4835   4854     1  0.0000000  0.6508444  3
   4839   4838   4857   4847     1  0.0000000  1.2552000  3
   4839   4838   4837   4841     1  0.0000000  0.6508444  3
   4840   4838   4839   4843     1  0.0000000  1.0460000  1
   4840   4838   4839   4843     1  0.0000000  0.0000000  3
   4840   4838   4839   4852     1  0.0000000  1.0460000  1
   4840   4838   4839   4852     1  0.0000000  0.0000000  3
   4840   4838   4839   4842     1  0.0000000  0.6508444  3
   4840   4838   4857   4847     1  0.0000000  1.2552000  3
   4840   4838   4837   4844     1  0.0000000  1.0460000  1
   4840   4838   4837   4844     1  0.0000000  0.0000000  3
   4840   4838   4837   4841     1  0.0000000  0.6508444  3
   4841   4837   4838   4857     1  0.0000000  0.6508444  3
   4841   4837   4844   4846     1  0.0000000  0.6973333  3
   4841   4837   4835   4855     1  0.0000000  1.0460000  1
   4841   4837   4835   4855     1  0.0000000  0.0000000  3
   4841   4837   4835   4854     1  0.0000000  0.6508444  3
   4842   4839   4843   4853     1  0.0000000  0.6973333  3
   4842   4839   4838   4857     1  0.0000000  0.6508444  3
   4844   4837   4835   4854     1  0.0000000  1.0460000  1
   4844   4837   4835   4854     1  0.0000000  0.0000000  3
   4845   4834   4835   4854     1  0.0000000  0.6508444  3
   4848   4845   4850   4851     1  0.0000000  0.6973333  3
   4848   4845   4834   4852     1  0.0000000  1.0460000  1
   4848   4845   4834   4852     1  0.0000000  0.0000000  3
   4849   4845   4850   4851     1  0.0000000  0.6973333  3
   4849   4845   4834   4852     1  0.0000000  1.0460000  1
   4849   4845   4834   4852     1  0.0000000  0.0000000  3
   4852   4839   4843   4853     1  0.0000000  0.6973333  3
   4852   4834   4835   4854     1  0.0000000  1.0460000  1
   4852   4834   4835   4854     1  0.0000000  0.0000000  3
   4854   4835   4855   4856     1  0.0000000  0.6973333  3
   4859   4861   4863   4865     1  0.0000000  0.6508444  3
   4859   4861   4863   4866     1  0.0000000  0.6508444  3
   4860   4859   4861   4863     1  0.0000000  0.0000000  2
   4860   4859   4861   4862     1  0.0000000  0.0000000  2
   4860   4859   4861   4864     1  0.0000000  0.0000000  2
   4861   4863   4867   4932     1  0.0000000  0.6508444  3
   4862   4861   4863   4867     1  0.0000000  0.6508444  3
   4862   4861   4863   4865     1  0.0000000  0.6508444  3
   4862   4861   4863   4866     1  0.0000000  0.6508444  3
   4863   4867   4868   4877     1  0.0000000  0.6508444  3
   4863   4867   4868   4878     1  0.0000000  0.6508444  3
   4863   4867   4869   4870     1  0.0000000  0.6508444  3
   4863   4867   4869   4872     1  0.0000000  0.6508444  3
   4864   4861   4863   4867     1  0.0000000  0.6508444  3
   4864   4861   4863   4865     1  0.0000000  0.6508444  3
   4864   4861   4863   4866     1  0.0000000  0.6508444  3
   4865   4863   4867   4868     1  0.0000000  0.6508444  3
   4865   4863   4867   4869     1  0.0000000  0.6508444  3
   4865   4863   4867   4932     1  0.0000000  0.6508444  3
   4866   4863   4867   4868     1  0.0000000  0.6508444  3
   4866   4863   4867   4869     1  0.0000000  0.6508444  3
   4866   4863   4867   4932     1  0.0000000  0.6508444  3
   4867   4868   4879   4880     1  0.0000000  0.6508444  3
   4867   4868   4879   4881     1  0.0000000  0.6508444  3
   4867   4869   4871   4873     1  0.0000000  0.6508444  3
   4867   4869   4871   4874     1  0.0000000  0.6508444  3
   4868   4867   4869   4870     1  0.0000000  0.6508444  3
   4868   4867   4869   4872     1  0.0000000  0.6508444  3
   4869   4867   4868   4877     1  0.0000000  0.6508444  3
   4869   4867   4868   4878     1  0.0000000  0.6508444  3
   4870   4869   4867   4932     1  0.0000000  0.6508444  3
   4870   4869   4871   4875     1  0.0000000  0.6508444  3
   4870   4869   4871   4873     1  0.0000000  0.6508444  3
   4870   4869   4871   4874     1  0.0000000  0.6508444  3
   4871   4869   4867   4932     1  0.0000000  0.6508444  3
   4871   4875   4907   4897     1  180.0000771  6.0668000  2
   4871   4875   4907   4897     1  180.0000771  1.4644000  4
   4872   4869   4867   4932     1  0.0000000  0.6508444  3
   4872   4869   4871   4875     1  0.0000000  0.6508444  3
   4872   4869   4871   4873     1  0.0000000  0.6508444  3
   4872   4869   4871   4874     1  0.0000000  0.6508444  3
   4873   4871   4875   4876     1  0.0000000  3.3472000  1
   4873   4871   4875   4876     1  0.0000000  0.0000000  2
   4873   4871   4875   4876     1  180.0000771  0.3347200  3
   4873   4871   4875   4907     1  180.0000771  0.0000000  2
   4874   4871   4875   4876     1  0.0000000  3.3472000  1
   4874   4871   4875   4876     1  0.0000000  0.0000000  2
   4874   4871   4875   4876     1  180.0000771  0.3347200  3
   4874   4871   4875   4907     1  180.0000771  0.0000000  2
   4875   4907   4888   4890     1  0.0000000  1.2552000  3
   4876   4875   4907   4897     1  180.0000771  6.0668000  2
   4876   4875   4907   4897     1  180.0000771  1.4644000  4
   4877   4868   4867   4932     1  0.0000000  0.6508444  3
   4877   4868   4879   4882     1  0.0000000  0.6508444  3
   4877   4868   4879   4880     1  0.0000000  0.6508444  3
   4877   4868   4879   4881     1  0.0000000  0.6508444  3
   4878   4868   4867   4932     1  0.0000000  0.6508444  3
   4878   4868   4879   4882     1  0.0000000  0.6508444  3
   4878   4868   4879   4880     1  0.0000000  0.6508444  3
   4878   4868   4879   4881     1  0.0000000  0.6508444  3
   4879   4868   4867   4932     1  0.0000000  0.6508444  3
   4879   4882   4931   4921     1  180.0000771  6.0668000  2
   4879   4882   4931   4921     1  180.0000771  1.4644000  4
   4880   4879   4882   4883     1  0.0000000  3.3472000  1
   4880   4879   4882   4883     1  0.0000000  0.0000000  2
   4880   4879   4882   4883     1  180.0000771  0.3347200  3
   4880   4879   4882   4931     1  180.0000771  0.0000000  2
   4881   4879   4882   4883     1  0.0000000  3.3472000  1
   4881   4879   4882   4883     1  0.0000000  0.0000000  2
   4881   4879   4882   4883     1  180.0000771  0.3347200  3
   4881   4879   4882   4931     1  180.0000771  0.0000000  2
   4882   4931   4912   4914     1  0.0000000  1.2552000  3
   4883   4882   4931   4921     1  180.0000771  6.0668000  2
   4883   4882   4931   4921     1  180.0000771  1.4644000  4
   4884   4885   4887   4891     1  0.0000000  0.6508444  3
   4884   4885   4905   4906     1  0.0000000  1.0460000  1
   4884   4885   4905   4906     1  0.0000000  0.6694400  3
   4884   4895   4900   4901     1  0.0000000  1.0460000  1
   4884   4895   4900   4901     1  0.0000000  0.6694400  3
   4884   4902   4889   4892     1  0.0000000  1.6038667  3
   4885   4884   4895   4898     1  0.0000000  0.6508444  3
   4885   4884   4895   4899     1  0.0000000  0.6508444  3
   4885   4887   4888   4890     1  0.0000000  0.6508444  3
   4885   4887   4894   4896     1  0.0000000  1.0460000  1
   4885   4887   4894   4896     1  0.0000000  0.6694400  3
   4886   4884   4885   4887     1  0.0000000  0.6508444  3
   4886   4884   4885   4905     1  0.0000000  1.0460000  1
   4886   4884   4885   4905     1  0.0000000  0.0000000  3
   4886   4884   4885   4904     1  0.0000000  0.6508444  3
   4886   4884   4895   4900     1  0.0000000  1.0460000  1
   4886   4884   4895   4900     1  0.0000000  0.0000000  3
   4886   4884   4895   4898     1  0.0000000  0.6508444  3
   4886   4884   4895   4899     1  0.0000000  0.6508444  3
   4886   4884   4902   4889     1  0.0000000  1.6038667  3
   4887   4885   4905   4906     1  0.0000000  1.0460000  1
   4887   4885   4905   4906     1  0.0000000  0.6694400  3
   4887   4888   4889   4892     1  0.0000000  0.6508444  3
   4887   4888   4907   4897     1  0.0000000  1.2552000  3
   4888   4887   4885   4904     1  0.0000000  0.6508444  3
   4888   4887   4894   4896     1  0.0000000  1.0460000  1
   4888   4887   4894   4896     1  0.0000000  0.6694400  3
   4888   4889   4893   4903     1  0.0000000  1.0460000  1
   4888   4889   4893   4903     1  0.0000000  0.6694400  3
   4889   4888   4887   4891     1  0.0000000  0.6508444  3
   4889   4888   4907   4897     1  0.0000000  1.2552000  3
   4890   4888   4887   4894     1  0.0000000  1.0460000  1
   4890   4888   4887   4894     1  0.0000000  0.0000000  3
   4890   4888   4887   4891     1  0.0000000  0.6508444  3
   4890   4888   4889   4893     1  0.0000000  1.0460000  1
   4890   4888   4889   4893     1  0.0000000  0.0000000  3
   4890   4888   4889   4902     1  0.0000000  1.0460000  1
   4890   4888   4889   4902     1  0.0000000  0.0000000  3
   4890   4888   4889   4892     1  0.0000000  0.6508444  3
   4890   4888   4907   4897     1  0.0000000  1.2552000  3
   4891   4887   4885   4905     1  0.0000000  1.0460000  1
   4891   4887   4885   4905     1  0.0000000  0.0000000  3
   4891   4887   4885   4904     1  0.0000000  0.6508444  3
   4891   4887   4888   4907     1  0.0000000  0.6508444  3
   4891   4887   4894   4896     1  0.0000000  0.6973333  3
   4892   4889   4888   4907     1  0.0000000  0.6508444  3
   4892   4889   4893   4903     1  0.0000000  0.6973333  3
   4894   4887   4885   4904     1  0.0000000  1.0460000  1
   4894   4887   4885   4904     1  0.0000000  0.0000000  3
   4895   4884   4885   4904     1  0.0000000  0.6508444  3
   4898   4895   4884   4902     1  0.0000000  1.0460000  1
   4898   4895   4884   4902     1  0.0000000  0.0000000  3
   4898   4895   4900   4901     1  0.0000000  0.6973333  3
   4899   4895   4884   4902     1  0.0000000  1.0460000  1
   4899   4895   4884   4902     1  0.0000000  0.0000000  3
   4899   4895   4900   4901     1  0.0000000  0.6973333  3
   4902   4884   4885   4904     1  0.0000000  1.0460000  1
   4902   4884   4885   4904     1  0.0000000  0.0000000  3
   4902   4889   4893   4903     1  0.0000000  0.6973333  3
   4904   4885   4905   4906     1  0.0000000  0.6973333  3
   4908   4909   4911   4915     1  0.0000000  0.6508444  3
   4908   4909   4929   4930     1  0.0000000  1.0460000  1
   4908   4909   4929   4930     1  0.0000000  0.6694400  3
   4908   4919   4924   4925     1  0.0000000  1.0460000  1
   4908   4919   4924   4925     1  0.0000000  0.6694400  3
   4908   4926   4913   4916     1  0.0000000  1.6038667  3
   4909   4908   4919   4922     1  0.0000000  0.6508444  3
   4909   4908   4919   4923     1  0.0000000  0.6508444  3
   4909   4911   4912   4914     1  0.0000000  0.6508444  3
   4909   4911   4918   4920     1  0.0000000  1.0460000  1
   4909   4911   4918   4920     1  0.0000000  0.6694400  3
   4910   4908   4909   4911     1  0.0000000  0.6508444  3
   4910   4908   4909   4929     1  0.0000000  1.0460000  1
   4910   4908   4909   4929     1  0.0000000  0.0000000  3
   4910   4908   4909   4928     1  0.0000000  0.6508444  3
   4910   4908   4919   4924     1  0.0000000  1.0460000  1
   4910   4908   4919   4924     1  0.0000000  0.0000000  3
   4910   4908   4919   4922     1  0.0000000  0.6508444  3
   4910   4908   4919   4923     1  0.0000000  0.6508444  3
   4910   4908   4926   4913     1  0.0000000  1.6038667  3
   4911   4909   4929   4930     1  0.0000000  1.0460000  1
   4911   4909   4929   4930     1  0.0000000  0.6694400  3
   4911   4912   4913   4916     1  0.0000000  0.6508444  3
   4911   4912   4931   4921     1  0.0000000  1.2552000  3
   4912   4911   4909   4928     1  0.0000000  0.6508444  3
   4912   4911   4918   4920     1  0.0000000  1.0460000  1
   4912   4911   4918   4920     1  0.0000000  0.6694400  3
   4912   4913   4917   4927     1  0.0000000  1.0460000  1
   4912   4913   4917   4927     1  0.0000000  0.6694400  3
   4913   4912   4911   4915     1  0.0000000  0.6508444  3
   4913   4912   4931   4921     1  0.0000000  1.2552000  3
   4914   4912   4911   4918     1  0.0000000  1.0460000  1
   4914   4912   4911   4918     1  0.0000000  0.0000000  3
   4914   4912   4911   4915     1  0.0000000  0.6508444  3
   4914   4912   4913   4917     1  0.0000000  1.0460000  1
   4914   4912   4913   4917     1  0.0000000  0.0000000  3
   4914   4912   4913   4926     1  0.0000000  1.0460000  1
   4914   4912   4913   4926     1  0.0000000  0.0000000  3
   4914   4912   4913   4916     1  0.0000000  0.6508444  3
   4914   4912   4931   4921     1  0.0000000  1.2552000  3
   4915   4911   4909   4929     1  0.0000000  1.0460000  1
   4915   4911   4909   4929     1  0.0000000  0.0000000  3
   4915   4911   4909   4928     1  0.0000000  0.6508444  3
   4915   4911   4912   4931     1  0.0000000  0.6508444  3
   4915   4911   4918   4920     1  0.0000000  0.6973333  3
   4916   4913   4912   4931     1  0.0000000  0.6508444  3
   4916   4913   4917   4927     1  0.0000000  0.6973333  3
   4918   4911   4909   4928     1  0.0000000  1.0460000  1
   4918   4911   4909   4928     1  0.0000000  0.0000000  3
   4919   4908   4909   4928     1  0.0000000  0.6508444  3
   4922   4919   4908   4926     1  0.0000000  1.0460000  1
   4922   4919   4908   4926     1  0.0000000  0.0000000  3
   4922   4919   4924   4925     1  0.0000000  0.6973333  3
   4923   4919   4908   4926     1  0.0000000  1.0460000  1
   4923   4919   4908   4926     1  0.0000000  0.0000000  3
   4923   4919   4924   4925     1  0.0000000  0.6973333  3
   4926   4908   4909   4928     1  0.0000000  1.0460000  1
   4926   4908   4909   4928     1  0.0000000  0.0000000  3
   4926   4913   4917   4927     1  0.0000000  0.6973333  3
   4928   4909   4929   4930     1  0.0000000  0.6973333  3
   4933   4935   4937   4939     1  0.0000000  0.6508444  3
   4933   4935   4937   4940     1  0.0000000  0.6508444  3
   4934   4933   4935   4937     1  0.0000000  0.0000000  2
   4934   4933   4935   4936     1  0.0000000  0.0000000  2
   4934   4933   4935   4938     1  0.0000000  0.0000000  2
   4935   4937   4941   5006     1  0.0000000  0.6508444  3
   4936   4935   4937   4941     1  0.0000000  0.6508444  3
   4936   4935   4937   4939     1  0.0000000  0.6508444  3
   4936   4935   4937   4940     1  0.0000000  0.6508444  3
   4937   4941   4942   4951     1  0.0000000  0.6508444  3
   4937   4941   4942   4952     1  0.0000000  0.6508444  3
   4937   4941   4943   4944     1  0.0000000  0.6508444  3
   4937   4941   4943   4946     1  0.0000000  0.6508444  3
   4938   4935   4937   4941     1  0.0000000  0.6508444  3
   4938   4935   4937   4939     1  0.0000000  0.6508444  3
   4938   4935   4937   4940     1  0.0000000  0.6508444  3
   4939   4937   4941   4942     1  0.0000000  0.6508444  3
   4939   4937   4941   4943     1  0.0000000  0.6508444  3
   4939   4937   4941   5006     1  0.0000000  0.6508444  3
   4940   4937   4941   4942     1  0.0000000  0.6508444  3
   4940   4937   4941   4943     1  0.0000000  0.6508444  3
   4940   4937   4941   5006     1  0.0000000  0.6508444  3
   4941   4942   4953   4954     1  0.0000000  0.6508444  3
   4941   4942   4953   4955     1  0.0000000  0.6508444  3
   4941   4943   4945   4947     1  0.0000000  0.6508444  3
   4941   4943   4945   4948     1  0.0000000  0.6508444  3
   4942   4941   4943   4944     1  0.0000000  0.6508444  3
   4942   4941   4943   4946     1  0.0000000  0.6508444  3
   4943   4941   4942   4951     1  0.0000000  0.6508444  3
   4943   4941   4942   4952     1  0.0000000  0.6508444  3
   4944   4943   4945   4949     1  0.0000000  0.6508444  3
   4944   4943   4945   4947     1  0.0000000  0.6508444  3
   4944   4943   4945   4948     1  0.0000000  0.6508444  3
   4944   4943   4941   5006     1  0.0000000  0.6508444  3
   4945   4949   4981   4971     1  180.0000771  6.0668000  2
   4945   4949   4981   4971     1  180.0000771  1.4644000  4
   4945   4943   4941   5006     1  0.0000000  0.6508444  3
   4946   4943   4945   4949     1  0.0000000  0.6508444  3
   4946   4943   4945   4947     1  0.0000000  0.6508444  3
   4946   4943   4945   4948     1  0.0000000  0.6508444  3
   4946   4943   4941   5006     1  0.0000000  0.6508444  3
   4947   4945   4949   4950     1  0.0000000  3.3472000  1
   4947   4945   4949   4950     1  0.0000000  0.0000000  2
   4947   4945   4949   4950     1  180.0000771  0.3347200  3
   4947   4945   4949   4981     1  180.0000771  0.0000000  2
   4948   4945   4949   4950     1  0.0000000  3.3472000  1
   4948   4945   4949   4950     1  0.0000000  0.0000000  2
   4948   4945   4949   4950     1  180.0000771  0.3347200  3
   4948   4945   4949   4981     1  180.0000771  0.0000000  2
   4949   4981   4962   4964     1  0.0000000  1.2552000  3
   4950   4949   4981   4971     1  180.0000771  6.0668000  2
   4950   4949   4981   4971     1  180.0000771  1.4644000  4
   4951   4942   4953   4956     1  0.0000000  0.6508444  3
   4951   4942   4953   4954     1  0.0000000  0.6508444  3
   4951   4942   4953   4955     1  0.0000000  0.6508444  3
   4951   4942   4941   5006     1  0.0000000  0.6508444  3
   4952   4942   4953   4956     1  0.0000000  0.6508444  3
   4952   4942   4953   4954     1  0.0000000  0.6508444  3
   4952   4942   4953   4955     1  0.0000000  0.6508444  3
   4952   4942   4941   5006     1  0.0000000  0.6508444  3
   4953   4956   5005   4995     1  180.0000771  6.0668000  2
   4953   4956   5005   4995     1  180.0000771  1.4644000  4
   4953   4942   4941   5006     1  0.0000000  0.6508444  3
   4954   4953   4956   4957     1  0.0000000  3.3472000  1
   4954   4953   4956   4957     1  0.0000000  0.0000000  2
   4954   4953   4956   4957     1  180.0000771  0.3347200  3
   4954   4953   4956   5005     1  180.0000771  0.0000000  2
   4955   4953   4956   4957     1  0.0000000  3.3472000  1
   4955   4953   4956   4957     1  0.0000000  0.0000000  2
   4955   4953   4956   4957     1  180.0000771  0.3347200  3
   4955   4953   4956   5005     1  180.0000771  0.0000000  2
   4956   5005   4986   4988     1  0.0000000  1.2552000  3
   4957   4956   5005   4995     1  180.0000771  6.0668000  2
   4957   4956   5005   4995     1  180.0000771  1.4644000  4
   4958   4959   4961   4965     1  0.0000000  0.6508444  3
   4958   4959   4979   4980     1  0.0000000  1.0460000  1
   4958   4959   4979   4980     1  0.0000000  0.6694400  3
   4958   4969   4974   4975     1  0.0000000  1.0460000  1
   4958   4969   4974   4975     1  0.0000000  0.6694400  3
   4958   4976   4963   4966     1  0.0000000  1.6038667  3
   4959   4961   4962   4964     1  0.0000000  0.6508444  3
   4959   4961   4968   4970     1  0.0000000  1.0460000  1
   4959   4961   4968   4970     1  0.0000000  0.6694400  3
   4959   4958   4969   4972     1  0.0000000  0.6508444  3
   4959   4958   4969   4973     1  0.0000000  0.6508444  3
   4960   4958   4959   4961     1  0.0000000  0.6508444  3
   4960   4958   4959   4979     1  0.0000000  1.0460000  1
   4960   4958   4959   4979     1  0.0000000  0.0000000  3
   4960   4958   4959   4978     1  0.0000000  0.6508444  3
   4960   4958   4969   4974     1  0.0000000  1.0460000  1
   4960   4958   4969   4974     1  0.0000000  0.0000000  3
   4960   4958   4969   4972     1  0.0000000  0.6508444  3
   4960   4958   4969   4973     1  0.0000000  0.6508444  3
   4960   4958   4976   4963     1  0.0000000  1.6038667  3
   4961   4962   4963   4966     1  0.0000000  0.6508444  3
   4961   4962   4981   4971     1  0.0000000  1.2552000  3
   4961   4959   4979   4980     1  0.0000000  1.0460000  1
   4961   4959   4979   4980     1  0.0000000  0.6694400  3
   4962   4963   4967   4977     1  0.0000000  1.0460000  1
   4962   4963   4967   4977     1  0.0000000  0.6694400  3
   4962   4961   4968   4970     1  0.0000000  1.0460000  1
   4962   4961   4968   4970     1  0.0000000  0.6694400  3
   4962   4961   4959   4978     1  0.0000000  0.6508444  3
   4963   4962   4981   4971     1  0.0000000  1.2552000  3
   4963   4962   4961   4965     1  0.0000000  0.6508444  3
   4964   4962   4963   4967     1  0.0000000  1.0460000  1
   4964   4962   4963   4967     1  0.0000000  0.0000000  3
   4964   4962   4963   4976     1  0.0000000  1.0460000  1
   4964   4962   4963   4976     1  0.0000000  0.0000000  3
   4964   4962   4963   4966     1  0.0000000  0.6508444  3
   4964   4962   4981   4971     1  0.0000000  1.2552000  3
   4964   4962   4961   4968     1  0.0000000  1.0460000  1
   4964   4962   4961   4968     1  0.0000000  0.0000000  3
   4964   4962   4961   4965     1  0.0000000  0.6508444  3
   4965   4961   4962   4981     1  0.0000000  0.6508444  3
   4965   4961   4968   4970     1  0.0000000  0.6973333  3
   4965   4961   4959   4979     1  0.0000000  1.0460000  1
   4965   4961   4959   4979     1  0.0000000  0.0000000  3
   4965   4961   4959   4978     1  0.0000000  0.6508444  3
   4966   4963   4967   4977     1  0.0000000  0.6973333  3
   4966   4963   4962   4981     1  0.0000000  0.6508444  3
   4968   4961   4959   4978     1  0.0000000  1.0460000  1
   4968   4961   4959   4978     1  0.0000000  0.0000000  3
   4969   4958   4959   4978     1  0.0000000  0.6508444  3
   4972   4969   4974   4975     1  0.0000000  0.6973333  3
   4972   4969   4958   4976     1  0.0000000  1.0460000  1
   4972   4969   4958   4976     1  0.0000000  0.0000000  3
   4973   4969   4974   4975     1  0.0000000  0.6973333  3
   4973   4969   4958   4976     1  0.0000000  1.0460000  1
   4973   4969   4958   4976     1  0.0000000  0.0000000  3
   4976   4963   4967   4977     1  0.0000000  0.6973333  3
   4976   4958   4959   4978     1  0.0000000  1.0460000  1
   4976   4958   4959   4978     1  0.0000000  0.0000000  3
   4978   4959   4979   4980     1  0.0000000  0.6973333  3
   4982   4983   4985   4989     1  0.0000000  0.6508444  3
   4982   4983   5003   5004     1  0.0000000  1.0460000  1
   4982   4983   5003   5004     1  0.0000000  0.6694400  3
   4982   4993   4998   4999     1  0.0000000  1.0460000  1
   4982   4993   4998   4999     1  0.0000000  0.6694400  3
   4982   5000   4987   4990     1  0.0000000  1.6038667  3
   4983   4985   4986   4988     1  0.0000000  0.6508444  3
   4983   4985   4992   4994     1  0.0000000  1.0460000  1
   4983   4985   4992   4994     1  0.0000000  0.6694400  3
   4983   4982   4993   4996     1  0.0000000  0.6508444  3
   4983   4982   4993   4997     1  0.0000000  0.6508444  3
   4984   4982   4983   4985     1  0.0000000  0.6508444  3
   4984   4982   4983   5003     1  0.0000000  1.0460000  1
   4984   4982   4983   5003     1  0.0000000  0.0000000  3
   4984   4982   4983   5002     1  0.0000000  0.6508444  3
   4984   4982   4993   4998     1  0.0000000  1.0460000  1
   4984   4982   4993   4998     1  0.0000000  0.0000000  3
   4984   4982   4993   4996     1  0.0000000  0.6508444  3
   4984   4982   4993   4997     1  0.0000000  0.6508444  3
   4984   4982   5000   4987     1  0.0000000  1.6038667  3
   4985   4986   4987   4990     1  0.0000000  0.6508444  3
   4985   4986   5005   4995     1  0.0000000  1.2552000  3
   4985   4983   5003   5004     1  0.0000000  1.0460000  1
   4985   4983   5003   5004     1  0.0000000  0.6694400  3
   4986   4987   4991   5001     1  0.0000000  1.0460000  1
   4986   4987   4991   5001     1  0.0000000  0.6694400  3
   4986   4985   4992   4994     1  0.0000000  1.0460000  1
   4986   4985   4992   4994     1  0.0000000  0.6694400  3
   4986   4985   4983   5002     1  0.0000000  0.6508444  3
   4987   4986   5005   4995     1  0.0000000  1.2552000  3
   4987   4986   4985   4989     1  0.0000000  0.6508444  3
   4988   4986   4987   4991     1  0.0000000  1.0460000  1
   4988   4986   4987   4991     1  0.0000000  0.0000000  3
   4988   4986   4987   5000     1  0.0000000  1.0460000  1
   4988   4986   4987   5000     1  0.0000000  0.0000000  3
   4988   4986   4987   4990     1  0.0000000  0.6508444  3
   4988   4986   5005   4995     1  0.0000000  1.2552000  3
   4988   4986   4985   4992     1  0.0000000  1.0460000  1
   4988   4986   4985   4992     1  0.0000000  0.0000000  3
   4988   4986   4985   4989     1  0.0000000  0.6508444  3
   4989   4985   4986   5005     1  0.0000000  0.6508444  3
   4989   4985   4992   4994     1  0.0000000  0.6973333  3
   4989   4985   4983   5003     1  0.0000000  1.0460000  1
   4989   4985   4983   5003     1  0.0000000  0.0000000  3
   4989   4985   4983   5002     1  0.0000000  0.6508444  3
   4990   4987   4991   5001     1  0.0000000  0.6973333  3
   4990   4987   4986   5005     1  0.0000000  0.6508444  3
   4992   4985   4983   5002     1  0.0000000  1.0460000  1
   4992   4985   4983   5002     1  0.0000000  0.0000000  3
   4993   4982   4983   5002     1  0.0000000  0.6508444  3
   4996   4993   4998   4999     1  0.0000000  0.6973333  3
   4996   4993   4982   5000     1  0.0000000  1.0460000  1
   4996   4993   4982   5000     1  0.0000000  0.0000000  3
   4997   4993   4998   4999     1  0.0000000  0.6973333  3
   4997   4993   4982   5000     1  0.0000000  1.0460000  1
   4997   4993   4982   5000     1  0.0000000  0.0000000  3
   5000   4987   4991   5001     1  0.0000000  0.6973333  3
   5000   4982   4983   5002     1  0.0000000  1.0460000  1
   5000   4982   4983   5002     1  0.0000000  0.0000000  3
   5002   4983   5003   5004     1  0.0000000  0.6973333  3
   5007   5009   5011   5013     1  0.0000000  0.6508444  3
   5007   5009   5011   5014     1  0.0000000  0.6508444  3
   5008   5007   5009   5011     1  0.0000000  0.0000000  2
   5008   5007   5009   5010     1  0.0000000  0.0000000  2
   5008   5007   5009   5012     1  0.0000000  0.0000000  2
   5009   5011   5015   5080     1  0.0000000  0.6508444  3
   5010   5009   5011   5015     1  0.0000000  0.6508444  3
   5010   5009   5011   5013     1  0.0000000  0.6508444  3
   5010   5009   5011   5014     1  0.0000000  0.6508444  3
   5011   5015   5016   5025     1  0.0000000  0.6508444  3
   5011   5015   5016   5026     1  0.0000000  0.6508444  3
   5011   5015   5017   5018     1  0.0000000  0.6508444  3
   5011   5015   5017   5020     1  0.0000000  0.6508444  3
   5012   5009   5011   5015     1  0.0000000  0.6508444  3
   5012   5009   5011   5013     1  0.0000000  0.6508444  3
   5012   5009   5011   5014     1  0.0000000  0.6508444  3
   5013   5011   5015   5016     1  0.0000000  0.6508444  3
   5013   5011   5015   5017     1  0.0000000  0.6508444  3
   5013   5011   5015   5080     1  0.0000000  0.6508444  3
   5014   5011   5015   5016     1  0.0000000  0.6508444  3
   5014   5011   5015   5017     1  0.0000000  0.6508444  3
   5014   5011   5015   5080     1  0.0000000  0.6508444  3
   5015   5016   5027   5028     1  0.0000000  0.6508444  3
   5015   5016   5027   5029     1  0.0000000  0.6508444  3
   5015   5017   5019   5021     1  0.0000000  0.6508444  3
   5015   5017   5019   5022     1  0.0000000  0.6508444  3
   5016   5015   5017   5018     1  0.0000000  0.6508444  3
   5016   5015   5017   5020     1  0.0000000  0.6508444  3
   5017   5015   5016   5025     1  0.0000000  0.6508444  3
   5017   5015   5016   5026     1  0.0000000  0.6508444  3
   5018   5017   5015   5080     1  0.0000000  0.6508444  3
   5018   5017   5019   5023     1  0.0000000  0.6508444  3
   5018   5017   5019   5021     1  0.0000000  0.6508444  3
   5018   5017   5019   5022     1  0.0000000  0.6508444  3
   5019   5017   5015   5080     1  0.0000000  0.6508444  3
   5019   5023   5055   5045     1  180.0000771  6.0668000  2
   5019   5023   5055   5045     1  180.0000771  1.4644000  4
   5020   5017   5015   5080     1  0.0000000  0.6508444  3
   5020   5017   5019   5023     1  0.0000000  0.6508444  3
   5020   5017   5019   5021     1  0.0000000  0.6508444  3
   5020   5017   5019   5022     1  0.0000000  0.6508444  3
   5021   5019   5023   5024     1  0.0000000  3.3472000  1
   5021   5019   5023   5024     1  0.0000000  0.0000000  2
   5021   5019   5023   5024     1  180.0000771  0.3347200  3
   5021   5019   5023   5055     1  180.0000771  0.0000000  2
   5022   5019   5023   5024     1  0.0000000  3.3472000  1
   5022   5019   5023   5024     1  0.0000000  0.0000000  2
   5022   5019   5023   5024     1  180.0000771  0.3347200  3
   5022   5019   5023   5055     1  180.0000771  0.0000000  2
   5023   5055   5036   5038     1  0.0000000  1.2552000  3
   5024   5023   5055   5045     1  180.0000771  6.0668000  2
   5024   5023   5055   5045     1  180.0000771  1.4644000  4
   5025   5016   5015   5080     1  0.0000000  0.6508444  3
   5025   5016   5027   5030     1  0.0000000  0.6508444  3
   5025   5016   5027   5028     1  0.0000000  0.6508444  3
   5025   5016   5027   5029     1  0.0000000  0.6508444  3
   5026   5016   5015   5080     1  0.0000000  0.6508444  3
   5026   5016   5027   5030     1  0.0000000  0.6508444  3
   5026   5016   5027   5028     1  0.0000000  0.6508444  3
   5026   5016   5027   5029     1  0.0000000  0.6508444  3
   5027   5016   5015   5080     1  0.0000000  0.6508444  3
   5027   5030   5079   5069     1  180.0000771  6.0668000  2
   5027   5030   5079   5069     1  180.0000771  1.4644000  4
   5028   5027   5030   5031     1  0.0000000  3.3472000  1
   5028   5027   5030   5031     1  0.0000000  0.0000000  2
   5028   5027   5030   5031     1  180.0000771  0.3347200  3
   5028   5027   5030   5079     1  180.0000771  0.0000000  2
   5029   5027   5030   5031     1  0.0000000  3.3472000  1
   5029   5027   5030   5031     1  0.0000000  0.0000000  2
   5029   5027   5030   5031     1  180.0000771  0.3347200  3
   5029   5027   5030   5079     1  180.0000771  0.0000000  2
   5030   5079   5060   5062     1  0.0000000  1.2552000  3
   5031   5030   5079   5069     1  180.0000771  6.0668000  2
   5031   5030   5079   5069     1  180.0000771  1.4644000  4
   5032   5033   5035   5039     1  0.0000000  0.6508444  3
   5032   5033   5053   5054     1  0.0000000  1.0460000  1
   5032   5033   5053   5054     1  0.0000000  0.6694400  3
   5032   5043   5048   5049     1  0.0000000  1.0460000  1
   5032   5043   5048   5049     1  0.0000000  0.6694400  3
   5032   5050   5037   5040     1  0.0000000  1.6038667  3
   5033   5032   5043   5046     1  0.0000000  0.6508444  3
   5033   5032   5043   5047     1  0.0000000  0.6508444  3
   5033   5035   5036   5038     1  0.0000000  0.6508444  3
   5033   5035   5042   5044     1  0.0000000  1.0460000  1
   5033   5035   5042   5044     1  0.0000000  0.6694400  3
   5034   5032   5033   5035     1  0.0000000  0.6508444  3
   5034   5032   5033   5053     1  0.0000000  1.0460000  1
   5034   5032   5033   5053     1  0.0000000  0.0000000  3
   5034   5032   5033   5052     1  0.0000000  0.6508444  3
   5034   5032   5043   5048     1  0.0000000  1.0460000  1
   5034   5032   5043   5048     1  0.0000000  0.0000000  3
   5034   5032   5043   5046     1  0.0000000  0.6508444  3
   5034   5032   5043   5047     1  0.0000000  0.6508444  3
   5034   5032   5050   5037     1  0.0000000  1.6038667  3
   5035   5033   5053   5054     1  0.0000000  1.0460000  1
   5035   5033   5053   5054     1  0.0000000  0.6694400  3
   5035   5036   5037   5040     1  0.0000000  0.6508444  3
   5035   5036   5055   5045     1  0.0000000  1.2552000  3
   5036   5035   5033   5052     1  0.0000000  0.6508444  3
   5036   5035   5042   5044     1  0.0000000  1.0460000  1
   5036   5035   5042   5044     1  0.0000000  0.6694400  3
   5036   5037   5041   5051     1  0.0000000  1.0460000  1
   5036   5037   5041   5051     1  0.0000000  0.6694400  3
   5037   5036   5035   5039     1  0.0000000  0.6508444  3
   5037   5036   5055   5045     1  0.0000000  1.2552000  3
   5038   5036   5035   5042     1  0.0000000  1.0460000  1
   5038   5036   5035   5042     1  0.0000000  0.0000000  3
   5038   5036   5035   5039     1  0.0000000  0.6508444  3
   5038   5036   5037   5041     1  0.0000000  1.0460000  1
   5038   5036   5037   5041     1  0.0000000  0.0000000  3
   5038   5036   5037   5050     1  0.0000000  1.0460000  1
   5038   5036   5037   5050     1  0.0000000  0.0000000  3
   5038   5036   5037   5040     1  0.0000000  0.6508444  3
   5038   5036   5055   5045     1  0.0000000  1.2552000  3
   5039   5035   5033   5053     1  0.0000000  1.0460000  1
   5039   5035   5033   5053     1  0.0000000  0.0000000  3
   5039   5035   5033   5052     1  0.0000000  0.6508444  3
   5039   5035   5036   5055     1  0.0000000  0.6508444  3
   5039   5035   5042   5044     1  0.0000000  0.6973333  3
   5040   5037   5036   5055     1  0.0000000  0.6508444  3
   5040   5037   5041   5051     1  0.0000000  0.6973333  3
   5042   5035   5033   5052     1  0.0000000  1.0460000  1
   5042   5035   5033   5052     1  0.0000000  0.0000000  3
   5043   5032   5033   5052     1  0.0000000  0.6508444  3
   5046   5043   5032   5050     1  0.0000000  1.0460000  1
   5046   5043   5032   5050     1  0.0000000  0.0000000  3
   5046   5043   5048   5049     1  0.0000000  0.6973333  3
   5047   5043   5032   5050     1  0.0000000  1.0460000  1
   5047   5043   5032   5050     1  0.0000000  0.0000000  3
   5047   5043   5048   5049     1  0.0000000  0.6973333  3
   5050   5032   5033   5052     1  0.0000000  1.0460000  1
   5050   5032   5033   5052     1  0.0000000  0.0000000  3
   5050   5037   5041   5051     1  0.0000000  0.6973333  3
   5052   5033   5053   5054     1  0.0000000  0.6973333  3
   5056   5057   5059   5063     1  0.0000000  0.6508444  3
   5056   5057   5077   5078     1  0.0000000  1.0460000  1
   5056   5057   5077   5078     1  0.0000000  0.6694400  3
   5056   5067   5072   5073     1  0.0000000  1.0460000  1
   5056   5067   5072   5073     1  0.0000000  0.6694400  3
   5056   5074   5061   5064     1  0.0000000  1.6038667  3
   5057   5056   5067   5070     1  0.0000000  0.6508444  3
   5057   5056   5067   5071     1  0.0000000  0.6508444  3
   5057   5059   5060   5062     1  0.0000000  0.6508444  3
   5057   5059   5066   5068     1  0.0000000  1.0460000  1
   5057   5059   5066   5068     1  0.0000000  0.6694400  3
   5058   5056   5057   5059     1  0.0000000  0.6508444  3
   5058   5056   5057   5077     1  0.0000000  1.0460000  1
   5058   5056   5057   5077     1  0.0000000  0.0000000  3
   5058   5056   5057   5076     1  0.0000000  0.6508444  3
   5058   5056   5067   5072     1  0.0000000  1.0460000  1
   5058   5056   5067   5072     1  0.0000000  0.0000000  3
   5058   5056   5067   5070     1  0.0000000  0.6508444  3
   5058   5056   5067   5071     1  0.0000000  0.6508444  3
   5058   5056   5074   5061     1  0.0000000  1.6038667  3
   5059   5057   5077   5078     1  0.0000000  1.0460000  1
   5059   5057   5077   5078     1  0.0000000  0.6694400  3
   5059   5060   5061   5064     1  0.0000000  0.6508444  3
   5059   5060   5079   5069     1  0.0000000  1.2552000  3
   5060   5059   5057   5076     1  0.0000000  0.6508444  3
   5060   5059   5066   5068     1  0.0000000  1.0460000  1
   5060   5059   5066   5068     1  0.0000000  0.6694400  3
   5060   5061   5065   5075     1  0.0000000  1.0460000  1
   5060   5061   5065   5075     1  0.0000000  0.6694400  3
   5061   5060   5059   5063     1  0.0000000  0.6508444  3
   5061   5060   5079   5069     1  0.0000000  1.2552000  3
   5062   5060   5059   5066     1  0.0000000  1.0460000  1
   5062   5060   5059   5066     1  0.0000000  0.0000000  3
   5062   5060   5059   5063     1  0.0000000  0.6508444  3
   5062   5060   5061   5065     1  0.0000000  1.0460000  1
   5062   5060   5061   5065     1  0.0000000  0.0000000  3
   5062   5060   5061   5074     1  0.0000000  1.0460000  1
   5062   5060   5061   5074     1  0.0000000  0.0000000  3
   5062   5060   5061   5064     1  0.0000000  0.6508444  3
   5062   5060   5079   5069     1  0.0000000  1.2552000  3
   5063   5059   5057   5077     1  0.0000000  1.0460000  1
   5063   5059   5057   5077     1  0.0000000  0.0000000  3
   5063   5059   5057   5076     1  0.0000000  0.6508444  3
   5063   5059   5060   5079     1  0.0000000  0.6508444  3
   5063   5059   5066   5068     1  0.0000000  0.6973333  3
   5064   5061   5060   5079     1  0.0000000  0.6508444  3
   5064   5061   5065   5075     1  0.0000000  0.6973333  3
   5066   5059   5057   5076     1  0.0000000  1.0460000  1
   5066   5059   5057   5076     1  0.0000000  0.0000000  3
   5067   5056   5057   5076     1  0.0000000  0.6508444  3
   5070   5067   5056   5074     1  0.0000000  1.0460000  1
   5070   5067   5056   5074     1  0.0000000  0.0000000  3
   5070   5067   5072   5073     1  0.0000000  0.6973333  3
   5071   5067   5056   5074     1  0.0000000  1.0460000  1
   5071   5067   5056   5074     1  0.0000000  0.0000000  3
   5071   5067   5072   5073     1  0.0000000  0.6973333  3
   5074   5056   5057   5076     1  0.0000000  1.0460000  1
   5074   5056   5057   5076     1  0.0000000  0.0000000  3
   5074   5061   5065   5075     1  0.0000000  0.6973333  3
   5076   5057   5077   5078     1  0.0000000  0.6973333  3
   5081   5083   5085   5087     1  0.0000000  0.6508444  3
   5081   5083   5085   5088     1  0.0000000  0.6508444  3
   5082   5081   5083   5085     1  0.0000000  0.0000000  2
   5082   5081   5083   5084     1  0.0000000  0.0000000  2
   5082   5081   5083   5086     1  0.0000000  0.0000000  2
   5083   5085   5089   5154     1  0.0000000  0.6508444  3
   5084   5083   5085   5089     1  0.0000000  0.6508444  3
   5084   5083   5085   5087     1  0.0000000  0.6508444  3
   5084   5083   5085   5088     1  0.0000000  0.6508444  3
   5085   5089   5090   5099     1  0.0000000  0.6508444  3
   5085   5089   5090   5100     1  0.0000000  0.6508444  3
   5085   5089   5091   5092     1  0.0000000  0.6508444  3
   5085   5089   5091   5094     1  0.0000000  0.6508444  3
   5086   5083   5085   5089     1  0.0000000  0.6508444  3
   5086   5083   5085   5087     1  0.0000000  0.6508444  3
   5086   5083   5085   5088     1  0.0000000  0.6508444  3
   5087   5085   5089   5090     1  0.0000000  0.6508444  3
   5087   5085   5089   5091     1  0.0000000  0.6508444  3
   5087   5085   5089   5154     1  0.0000000  0.6508444  3
   5088   5085   5089   5090     1  0.0000000  0.6508444  3
   5088   5085   5089   5091     1  0.0000000  0.6508444  3
   5088   5085   5089   5154     1  0.0000000  0.6508444  3
   5089   5090   5101   5102     1  0.0000000  0.6508444  3
   5089   5090   5101   5103     1  0.0000000  0.6508444  3
   5089   5091   5093   5095     1  0.0000000  0.6508444  3
   5089   5091   5093   5096     1  0.0000000  0.6508444  3
   5090   5089   5091   5092     1  0.0000000  0.6508444  3
   5090   5089   5091   5094     1  0.0000000  0.6508444  3
   5091   5089   5090   5099     1  0.0000000  0.6508444  3
   5091   5089   5090   5100     1  0.0000000  0.6508444  3
   5092   5091   5093   5097     1  0.0000000  0.6508444  3
   5092   5091   5093   5095     1  0.0000000  0.6508444  3
   5092   5091   5093   5096     1  0.0000000  0.6508444  3
   5092   5091   5089   5154     1  0.0000000  0.6508444  3
   5093   5097   5129   5119     1  180.0000771  6.0668000  2
   5093   5097   5129   5119     1  180.0000771  1.4644000  4
   5093   5091   5089   5154     1  0.0000000  0.6508444  3
   5094   5091   5093   5097     1  0.0000000  0.6508444  3
   5094   5091   5093   5095     1  0.0000000  0.6508444  3
   5094   5091   5093   5096     1  0.0000000  0.6508444  3
   5094   5091   5089   5154     1  0.0000000  0.6508444  3
   5095   5093   5097   5098     1  0.0000000  3.3472000  1
   5095   5093   5097   5098     1  0.0000000  0.0000000  2
   5095   5093   5097   5098     1  180.0000771  0.3347200  3
   5095   5093   5097   5129     1  180.0000771  0.0000000  2
   5096   5093   5097   5098     1  0.0000000  3.3472000  1
   5096   5093   5097   5098     1  0.0000000  0.0000000  2
   5096   5093   5097   5098     1  180.0000771  0.3347200  3
   5096   5093   5097   5129     1  180.0000771  0.0000000  2
   5097   5129   5110   5112     1  0.0000000  1.2552000  3
   5098   5097   5129   5119     1  180.0000771  6.0668000  2
   5098   5097   5129   5119     1  180.0000771  1.4644000  4
   5099   5090   5101   5104     1  0.0000000  0.6508444  3
   5099   5090   5101   5102     1  0.0000000  0.6508444  3
   5099   5090   5101   5103     1  0.0000000  0.6508444  3
   5099   5090   5089   5154     1  0.0000000  0.6508444  3
   5100   5090   5101   5104     1  0.0000000  0.6508444  3
   5100   5090   5101   5102     1  0.0000000  0.6508444  3
   5100   5090   5101   5103     1  0.0000000  0.6508444  3
   5100   5090   5089   5154     1  0.0000000  0.6508444  3
   5101   5104   5153   5143     1  180.0000771  6.0668000  2
   5101   5104   5153   5143     1  180.0000771  1.4644000  4
   5101   5090   5089   5154     1  0.0000000  0.6508444  3
   5102   5101   5104   5105     1  0.0000000  3.3472000  1
   5102   5101   5104   5105     1  0.0000000  0.0000000  2
   5102   5101   5104   5105     1  180.0000771  0.3347200  3
   5102   5101   5104   5153     1  180.0000771  0.0000000  2
   5103   5101   5104   5105     1  0.0000000  3.3472000  1
   5103   5101   5104   5105     1  0.0000000  0.0000000  2
   5103   5101   5104   5105     1  180.0000771  0.3347200  3
   5103   5101   5104   5153     1  180.0000771  0.0000000  2
   5104   5153   5134   5136     1  0.0000000  1.2552000  3
   5105   5104   5153   5143     1  180.0000771  6.0668000  2
   5105   5104   5153   5143     1  180.0000771  1.4644000  4
   5106   5107   5109   5113     1  0.0000000  0.6508444  3
   5106   5107   5127   5128     1  0.0000000  1.0460000  1
   5106   5107   5127   5128     1  0.0000000  0.6694400  3
   5106   5117   5122   5123     1  0.0000000  1.0460000  1
   5106   5117   5122   5123     1  0.0000000  0.6694400  3
   5106   5124   5111   5114     1  0.0000000  1.6038667  3
   5107   5109   5110   5112     1  0.0000000  0.6508444  3
   5107   5109   5116   5118     1  0.0000000  1.0460000  1
   5107   5109   5116   5118     1  0.0000000  0.6694400  3
   5107   5106   5117   5120     1  0.0000000  0.6508444  3
   5107   5106   5117   5121     1  0.0000000  0.6508444  3
   5108   5106   5107   5109     1  0.0000000  0.6508444  3
   5108   5106   5107   5127     1  0.0000000  1.0460000  1
   5108   5106   5107   5127     1  0.0000000  0.0000000  3
   5108   5106   5107   5126     1  0.0000000  0.6508444  3
   5108   5106   5117   5122     1  0.0000000  1.0460000  1
   5108   5106   5117   5122     1  0.0000000  0.0000000  3
   5108   5106   5117   5120     1  0.0000000  0.6508444  3
   5108   5106   5117   5121     1  0.0000000  0.6508444  3
   5108   5106   5124   5111     1  0.0000000  1.6038667  3
   5109   5110   5111   5114     1  0.0000000  0.6508444  3
   5109   5110   5129   5119     1  0.0000000  1.2552000  3
   5109   5107   5127   5128     1  0.0000000  1.0460000  1
   5109   5107   5127   5128     1  0.0000000  0.6694400  3
   5110   5111   5115   5125     1  0.0000000  1.0460000  1
   5110   5111   5115   5125     1  0.0000000  0.6694400  3
   5110   5109   5116   5118     1  0.0000000  1.0460000  1
   5110   5109   5116   5118     1  0.0000000  0.6694400  3
   5110   5109   5107   5126     1  0.0000000  0.6508444  3
   5111   5110   5129   5119     1  0.0000000  1.2552000  3
   5111   5110   5109   5113     1  0.0000000  0.6508444  3
   5112   5110   5111   5115     1  0.0000000  1.0460000  1
   5112   5110   5111   5115     1  0.0000000  0.0000000  3
   5112   5110   5111   5124     1  0.0000000  1.0460000  1
   5112   5110   5111   5124     1  0.0000000  0.0000000  3
   5112   5110   5111   5114     1  0.0000000  0.6508444  3
   5112   5110   5129   5119     1  0.0000000  1.2552000  3
   5112   5110   5109   5116     1  0.0000000  1.0460000  1
   5112   5110   5109   5116     1  0.0000000  0.0000000  3
   5112   5110   5109   5113     1  0.0000000  0.6508444  3
   5113   5109   5110   5129     1  0.0000000  0.6508444  3
   5113   5109   5116   5118     1  0.0000000  0.6973333  3
   5113   5109   5107   5127     1  0.0000000  1.0460000  1
   5113   5109   5107   5127     1  0.0000000  0.0000000  3
   5113   5109   5107   5126     1  0.0000000  0.6508444  3
   5114   5111   5115   5125     1  0.0000000  0.6973333  3
   5114   5111   5110   5129     1  0.0000000  0.6508444  3
   5116   5109   5107   5126     1  0.0000000  1.0460000  1
   5116   5109   5107   5126     1  0.0000000  0.0000000  3
   5117   5106   5107   5126     1  0.0000000  0.6508444  3
   5120   5117   5122   5123     1  0.0000000  0.6973333  3
   5120   5117   5106   5124     1  0.0000000  1.0460000  1
   5120   5117   5106   5124     1  0.0000000  0.0000000  3
   5121   5117   5122   5123     1  0.0000000  0.6973333  3
   5121   5117   5106   5124     1  0.0000000  1.0460000  1
   5121   5117   5106   5124     1  0.0000000  0.0000000  3
   5124   5111   5115   5125     1  0.0000000  0.6973333  3
   5124   5106   5107   5126     1  0.0000000  1.0460000  1
   5124   5106   5107   5126     1  0.0000000  0.0000000  3
   5126   5107   5127   5128     1  0.0000000  0.6973333  3
   5130   5131   5133   5137     1  0.0000000  0.6508444  3
   5130   5131   5151   5152     1  0.0000000  1.0460000  1
   5130   5131   5151   5152     1  0.0000000  0.6694400  3
   5130   5141   5146   5147     1  0.0000000  1.0460000  1
   5130   5141   5146   5147     1  0.0000000  0.6694400  3
   5130   5148   5135   5138     1  0.0000000  1.6038667  3
   5131   5133   5134   5136     1  0.0000000  0.6508444  3
   5131   5133   5140   5142     1  0.0000000  1.0460000  1
   5131   5133   5140   5142     1  0.0000000  0.6694400  3
   5131   5130   5141   5144     1  0.0000000  0.6508444  3
   5131   5130   5141   5145     1  0.0000000  0.6508444  3
   5132   5130   5131   5133     1  0.0000000  0.6508444  3
   5132   5130   5131   5151     1  0.0000000  1.0460000  1
   5132   5130   5131   5151     1  0.0000000  0.0000000  3
   5132   5130   5131   5150     1  0.0000000  0.6508444  3
   5132   5130   5141   5146     1  0.0000000  1.0460000  1
   5132   5130   5141   5146     1  0.0000000  0.0000000  3
   5132   5130   5141   5144     1  0.0000000  0.6508444  3
   5132   5130   5141   5145     1  0.0000000  0.6508444  3
   5132   5130   5148   5135     1  0.0000000  1.6038667  3
   5133   5134   5135   5138     1  0.0000000  0.6508444  3
   5133   5134   5153   5143     1  0.0000000  1.2552000  3
   5133   5131   5151   5152     1  0.0000000  1.0460000  1
   5133   5131   5151   5152     1  0.0000000  0.6694400  3
   5134   5135   5139   5149     1  0.0000000  1.0460000  1
   5134   5135   5139   5149     1  0.0000000  0.6694400  3
   5134   5133   5140   5142     1  0.0000000  1.0460000  1
   5134   5133   5140   5142     1  0.0000000  0.6694400  3
   5134   5133   5131   5150     1  0.0000000  0.6508444  3
   5135   5134   5153   5143     1  0.0000000  1.2552000  3
   5135   5134   5133   5137     1  0.0000000  0.6508444  3
   5136   5134   5135   5139     1  0.0000000  1.0460000  1
   5136   5134   5135   5139     1  0.0000000  0.0000000  3
   5136   5134   5135   5148     1  0.0000000  1.0460000  1
   5136   5134   5135   5148     1  0.0000000  0.0000000  3
   5136   5134   5135   5138     1  0.0000000  0.6508444  3
   5136   5134   5153   5143     1  0.0000000  1.2552000  3
   5136   5134   5133   5140     1  0.0000000  1.0460000  1
   5136   5134   5133   5140     1  0.0000000  0.0000000  3
   5136   5134   5133   5137     1  0.0000000  0.6508444  3
   5137   5133   5134   5153     1  0.0000000  0.6508444  3
   5137   5133   5140   5142     1  0.0000000  0.6973333  3
   5137   5133   5131   5151     1  0.0000000  1.0460000  1
   5137   5133   5131   5151     1  0.0000000  0.0000000  3
   5137   5133   5131   5150     1  0.0000000  0.6508444  3
   5138   5135   5139   5149     1  0.0000000  0.6973333  3
   5138   5135   5134   5153     1  0.0000000  0.6508444  3
   5140   5133   5131   5150     1  0.0000000  1.0460000  1
   5140   5133   5131   5150     1  0.0000000  0.0000000  3
   5141   5130   5131   5150     1  0.0000000  0.6508444  3
   5144   5141   5146   5147     1  0.0000000  0.6973333  3
   5144   5141   5130   5148     1  0.0000000  1.0460000  1
   5144   5141   5130   5148     1  0.0000000  0.0000000  3
   5145   5141   5146   5147     1  0.0000000  0.6973333  3
   5145   5141   5130   5148     1  0.0000000  1.0460000  1
   5145   5141   5130   5148     1  0.0000000  0.0000000  3
   5148   5135   5139   5149     1  0.0000000  0.6973333  3
   5148   5130   5131   5150     1  0.0000000  1.0460000  1
   5148   5130   5131   5150     1  0.0000000  0.0000000  3
   5150   5131   5151   5152     1  0.0000000  0.6973333  3
   5155   5157   5159   5161     1  0.0000000  0.6508444  3
   5155   5157   5159   5162     1  0.0000000  0.6508444  3
   5156   5155   5157   5159     1  0.0000000  0.0000000  2
   5156   5155   5157   5158     1  0.0000000  0.0000000  2
   5156   5155   5157   5160     1  0.0000000  0.0000000  2
   5157   5159   5163   5228     1  0.0000000  0.6508444  3
   5158   5157   5159   5163     1  0.0000000  0.6508444  3
   5158   5157   5159   5161     1  0.0000000  0.6508444  3
   5158   5157   5159   5162     1  0.0000000  0.6508444  3
   5159   5163   5164   5173     1  0.0000000  0.6508444  3
   5159   5163   5164   5174     1  0.0000000  0.6508444  3
   5159   5163   5165   5166     1  0.0000000  0.6508444  3
   5159   5163   5165   5168     1  0.0000000  0.6508444  3
   5160   5157   5159   5163     1  0.0000000  0.6508444  3
   5160   5157   5159   5161     1  0.0000000  0.6508444  3
   5160   5157   5159   5162     1  0.0000000  0.6508444  3
   5161   5159   5163   5164     1  0.0000000  0.6508444  3
   5161   5159   5163   5165     1  0.0000000  0.6508444  3
   5161   5159   5163   5228     1  0.0000000  0.6508444  3
   5162   5159   5163   5164     1  0.0000000  0.6508444  3
   5162   5159   5163   5165     1  0.0000000  0.6508444  3
   5162   5159   5163   5228     1  0.0000000  0.6508444  3
   5163   5164   5175   5176     1  0.0000000  0.6508444  3
   5163   5164   5175   5177     1  0.0000000  0.6508444  3
   5163   5165   5167   5169     1  0.0000000  0.6508444  3
   5163   5165   5167   5170     1  0.0000000  0.6508444  3
   5164   5163   5165   5166     1  0.0000000  0.6508444  3
   5164   5163   5165   5168     1  0.0000000  0.6508444  3
   5165   5163   5164   5173     1  0.0000000  0.6508444  3
   5165   5163   5164   5174     1  0.0000000  0.6508444  3
   5166   5165   5163   5228     1  0.0000000  0.6508444  3
   5166   5165   5167   5171     1  0.0000000  0.6508444  3
   5166   5165   5167   5169     1  0.0000000  0.6508444  3
   5166   5165   5167   5170     1  0.0000000  0.6508444  3
   5167   5165   5163   5228     1  0.0000000  0.6508444  3
   5167   5171   5203   5193     1  180.0000771  6.0668000  2
   5167   5171   5203   5193     1  180.0000771  1.4644000  4
   5168   5165   5163   5228     1  0.0000000  0.6508444  3
   5168   5165   5167   5171     1  0.0000000  0.6508444  3
   5168   5165   5167   5169     1  0.0000000  0.6508444  3
   5168   5165   5167   5170     1  0.0000000  0.6508444  3
   5169   5167   5171   5172     1  0.0000000  3.3472000  1
   5169   5167   5171   5172     1  0.0000000  0.0000000  2
   5169   5167   5171   5172     1  180.0000771  0.3347200  3
   5169   5167   5171   5203     1  180.0000771  0.0000000  2
   5170   5167   5171   5172     1  0.0000000  3.3472000  1
   5170   5167   5171   5172     1  0.0000000  0.0000000  2
   5170   5167   5171   5172     1  180.0000771  0.3347200  3
   5170   5167   5171   5203     1  180.0000771  0.0000000  2
   5171   5203   5184   5186     1  0.0000000  1.2552000  3
   5172   5171   5203   5193     1  180.0000771  6.0668000  2
   5172   5171   5203   5193     1  180.0000771  1.4644000  4
   5173   5164   5163   5228     1  0.0000000  0.6508444  3
   5173   5164   5175   5178     1  0.0000000  0.6508444  3
   5173   5164   5175   5176     1  0.0000000  0.6508444  3
   5173   5164   5175   5177     1  0.0000000  0.6508444  3
   5174   5164   5163   5228     1  0.0000000  0.6508444  3
   5174   5164   5175   5178     1  0.0000000  0.6508444  3
   5174   5164   5175   5176     1  0.0000000  0.6508444  3
   5174   5164   5175   5177     1  0.0000000  0.6508444  3
   5175   5164   5163   5228     1  0.0000000  0.6508444  3
   5175   5178   5227   5217     1  180.0000771  6.0668000  2
   5175   5178   5227   5217     1  180.0000771  1.4644000  4
   5176   5175   5178   5179     1  0.0000000  3.3472000  1
   5176   5175   5178   5179     1  0.0000000  0.0000000  2
   5176   5175   5178   5179     1  180.0000771  0.3347200  3
   5176   5175   5178   5227     1  180.0000771  0.0000000  2
   5177   5175   5178   5179     1  0.0000000  3.3472000  1
   5177   5175   5178   5179     1  0.0000000  0.0000000  2
   5177   5175   5178   5179     1  180.0000771  0.3347200  3
   5177   5175   5178   5227     1  180.0000771  0.0000000  2
   5178   5227   5208   5210     1  0.0000000  1.2552000  3
   5179   5178   5227   5217     1  180.0000771  6.0668000  2
   5179   5178   5227   5217     1  180.0000771  1.4644000  4
   5180   5181   5183   5187     1  0.0000000  0.6508444  3
   5180   5181   5201   5202     1  0.0000000  1.0460000  1
   5180   5181   5201   5202     1  0.0000000  0.6694400  3
   5180   5191   5196   5197     1  0.0000000  1.0460000  1
   5180   5191   5196   5197     1  0.0000000  0.6694400  3
   5180   5198   5185   5188     1  0.0000000  1.6038667  3
   5181   5180   5191   5194     1  0.0000000  0.6508444  3
   5181   5180   5191   5195     1  0.0000000  0.6508444  3
   5181   5183   5184   5186     1  0.0000000  0.6508444  3
   5181   5183   5190   5192     1  0.0000000  1.0460000  1
   5181   5183   5190   5192     1  0.0000000  0.6694400  3
   5182   5180   5181   5183     1  0.0000000  0.6508444  3
   5182   5180   5181   5201     1  0.0000000  1.0460000  1
   5182   5180   5181   5201     1  0.0000000  0.0000000  3
   5182   5180   5181   5200     1  0.0000000  0.6508444  3
   5182   5180   5191   5196     1  0.0000000  1.0460000  1
   5182   5180   5191   5196     1  0.0000000  0.0000000  3
   5182   5180   5191   5194     1  0.0000000  0.6508444  3
   5182   5180   5191   5195     1  0.0000000  0.6508444  3
   5182   5180   5198   5185     1  0.0000000  1.6038667  3
   5183   5181   5201   5202     1  0.0000000  1.0460000  1
   5183   5181   5201   5202     1  0.0000000  0.6694400  3
   5183   5184   5185   5188     1  0.0000000  0.6508444  3
   5183   5184   5203   5193     1  0.0000000  1.2552000  3
   5184   5183   5181   5200     1  0.0000000  0.6508444  3
   5184   5183   5190   5192     1  0.0000000  1.0460000  1
   5184   5183   5190   5192     1  0.0000000  0.6694400  3
   5184   5185   5189   5199     1  0.0000000  1.0460000  1
   5184   5185   5189   5199     1  0.0000000  0.6694400  3
   5185   5184   5183   5187     1  0.0000000  0.6508444  3
   5185   5184   5203   5193     1  0.0000000  1.2552000  3
   5186   5184   5183   5190     1  0.0000000  1.0460000  1
   5186   5184   5183   5190     1  0.0000000  0.0000000  3
   5186   5184   5183   5187     1  0.0000000  0.6508444  3
   5186   5184   5185   5189     1  0.0000000  1.0460000  1
   5186   5184   5185   5189     1  0.0000000  0.0000000  3
   5186   5184   5185   5198     1  0.0000000  1.0460000  1
   5186   5184   5185   5198     1  0.0000000  0.0000000  3
   5186   5184   5185   5188     1  0.0000000  0.6508444  3
   5186   5184   5203   5193     1  0.0000000  1.2552000  3
   5187   5183   5181   5201     1  0.0000000  1.0460000  1
   5187   5183   5181   5201     1  0.0000000  0.0000000  3
   5187   5183   5181   5200     1  0.0000000  0.6508444  3
   5187   5183   5184   5203     1  0.0000000  0.6508444  3
   5187   5183   5190   5192     1  0.0000000  0.6973333  3
   5188   5185   5184   5203     1  0.0000000  0.6508444  3
   5188   5185   5189   5199     1  0.0000000  0.6973333  3
   5190   5183   5181   5200     1  0.0000000  1.0460000  1
   5190   5183   5181   5200     1  0.0000000  0.0000000  3
   5191   5180   5181   5200     1  0.0000000  0.6508444  3
   5194   5191   5180   5198     1  0.0000000  1.0460000  1
   5194   5191   5180   5198     1  0.0000000  0.0000000  3
   5194   5191   5196   5197     1  0.0000000  0.6973333  3
   5195   5191   5180   5198     1  0.0000000  1.0460000  1
   5195   5191   5180   5198     1  0.0000000  0.0000000  3
   5195   5191   5196   5197     1  0.0000000  0.6973333  3
   5198   5180   5181   5200     1  0.0000000  1.0460000  1
   5198   5180   5181   5200     1  0.0000000  0.0000000  3
   5198   5185   5189   5199     1  0.0000000  0.6973333  3
   5200   5181   5201   5202     1  0.0000000  0.6973333  3
   5204   5205   5207   5211     1  0.0000000  0.6508444  3
   5204   5205   5225   5226     1  0.0000000  1.0460000  1
   5204   5205   5225   5226     1  0.0000000  0.6694400  3
   5204   5215   5220   5221     1  0.0000000  1.0460000  1
   5204   5215   5220   5221     1  0.0000000  0.6694400  3
   5204   5222   5209   5212     1  0.0000000  1.6038667  3
   5205   5204   5215   5218     1  0.0000000  0.6508444  3
   5205   5204   5215   5219     1  0.0000000  0.6508444  3
   5205   5207   5208   5210     1  0.0000000  0.6508444  3
   5205   5207   5214   5216     1  0.0000000  1.0460000  1
   5205   5207   5214   5216     1  0.0000000  0.6694400  3
   5206   5204   5205   5207     1  0.0000000  0.6508444  3
   5206   5204   5205   5225     1  0.0000000  1.0460000  1
   5206   5204   5205   5225     1  0.0000000  0.0000000  3
   5206   5204   5205   5224     1  0.0000000  0.6508444  3
   5206   5204   5215   5220     1  0.0000000  1.0460000  1
   5206   5204   5215   5220     1  0.0000000  0.0000000  3
   5206   5204   5215   5218     1  0.0000000  0.6508444  3
   5206   5204   5215   5219     1  0.0000000  0.6508444  3
   5206   5204   5222   5209     1  0.0000000  1.6038667  3
   5207   5205   5225   5226     1  0.0000000  1.0460000  1
   5207   5205   5225   5226     1  0.0000000  0.6694400  3
   5207   5208   5209   5212     1  0.0000000  0.6508444  3
   5207   5208   5227   5217     1  0.0000000  1.2552000  3
   5208   5207   5205   5224     1  0.0000000  0.6508444  3
   5208   5207   5214   5216     1  0.0000000  1.0460000  1
   5208   5207   5214   5216     1  0.0000000  0.6694400  3
   5208   5209   5213   5223     1  0.0000000  1.0460000  1
   5208   5209   5213   5223     1  0.0000000  0.6694400  3
   5209   5208   5207   5211     1  0.0000000  0.6508444  3
   5209   5208   5227   5217     1  0.0000000  1.2552000  3
   5210   5208   5207   5214     1  0.0000000  1.0460000  1
   5210   5208   5207   5214     1  0.0000000  0.0000000  3
   5210   5208   5207   5211     1  0.0000000  0.6508444  3
   5210   5208   5209   5213     1  0.0000000  1.0460000  1
   5210   5208   5209   5213     1  0.0000000  0.0000000  3
   5210   5208   5209   5222     1  0.0000000  1.0460000  1
   5210   5208   5209   5222     1  0.0000000  0.0000000  3
   5210   5208   5209   5212     1  0.0000000  0.6508444  3
   5210   5208   5227   5217     1  0.0000000  1.2552000  3
   5211   5207   5205   5225     1  0.0000000  1.0460000  1
   5211   5207   5205   5225     1  0.0000000  0.0000000  3
   5211   5207   5205   5224     1  0.0000000  0.6508444  3
   5211   5207   5208   5227     1  0.0000000  0.6508444  3
   5211   5207   5214   5216     1  0.0000000  0.6973333  3
   5212   5209   5208   5227     1  0.0000000  0.6508444  3
   5212   5209   5213   5223     1  0.0000000  0.6973333  3
   5214   5207   5205   5224     1  0.0000000  1.0460000  1
   5214   5207   5205   5224     1  0.0000000  0.0000000  3
   5215   5204   5205   5224     1  0.0000000  0.6508444  3
   5218   5215   5204   5222     1  0.0000000  1.0460000  1
   5218   5215   5204   5222     1  0.0000000  0.0000000  3
   5218   5215   5220   5221     1  0.0000000  0.6973333  3
   5219   5215   5204   5222     1  0.0000000  1.0460000  1
   5219   5215   5204   5222     1  0.0000000  0.0000000  3
   5219   5215   5220   5221     1  0.0000000  0.6973333  3
   5222   5204   5205   5224     1  0.0000000  1.0460000  1
   5222   5204   5205   5224     1  0.0000000  0.0000000  3
   5222   5209   5213   5223     1  0.0000000  0.6973333  3
   5224   5205   5225   5226     1  0.0000000  0.6973333  3
   5229   5231   5233   5235     1  0.0000000  0.6508444  3
   5229   5231   5233   5236     1  0.0000000  0.6508444  3
   5230   5229   5231   5233     1  0.0000000  0.0000000  2
   5230   5229   5231   5232     1  0.0000000  0.0000000  2
   5230   5229   5231   5234     1  0.0000000  0.0000000  2
   5231   5233   5237   5302     1  0.0000000  0.6508444  3
   5232   5231   5233   5237     1  0.0000000  0.6508444  3
   5232   5231   5233   5235     1  0.0000000  0.6508444  3
   5232   5231   5233   5236     1  0.0000000  0.6508444  3
   5233   5237   5238   5247     1  0.0000000  0.6508444  3
   5233   5237   5238   5248     1  0.0000000  0.6508444  3
   5233   5237   5239   5240     1  0.0000000  0.6508444  3
   5233   5237   5239   5242     1  0.0000000  0.6508444  3
   5234   5231   5233   5237     1  0.0000000  0.6508444  3
   5234   5231   5233   5235     1  0.0000000  0.6508444  3
   5234   5231   5233   5236     1  0.0000000  0.6508444  3
   5235   5233   5237   5238     1  0.0000000  0.6508444  3
   5235   5233   5237   5239     1  0.0000000  0.6508444  3
   5235   5233   5237   5302     1  0.0000000  0.6508444  3
   5236   5233   5237   5238     1  0.0000000  0.6508444  3
   5236   5233   5237   5239     1  0.0000000  0.6508444  3
   5236   5233   5237   5302     1  0.0000000  0.6508444  3
   5237   5238   5249   5250     1  0.0000000  0.6508444  3
   5237   5238   5249   5251     1  0.0000000  0.6508444  3
   5237   5239   5241   5243     1  0.0000000  0.6508444  3
   5237   5239   5241   5244     1  0.0000000  0.6508444  3
   5238   5237   5239   5240     1  0.0000000  0.6508444  3
   5238   5237   5239   5242     1  0.0000000  0.6508444  3
   5239   5237   5238   5247     1  0.0000000  0.6508444  3
   5239   5237   5238   5248     1  0.0000000  0.6508444  3
   5240   5239   5241   5245     1  0.0000000  0.6508444  3
   5240   5239   5241   5243     1  0.0000000  0.6508444  3
   5240   5239   5241   5244     1  0.0000000  0.6508444  3
   5240   5239   5237   5302     1  0.0000000  0.6508444  3
   5241   5245   5277   5267     1  180.0000771  6.0668000  2
   5241   5245   5277   5267     1  180.0000771  1.4644000  4
   5241   5239   5237   5302     1  0.0000000  0.6508444  3
   5242   5239   5241   5245     1  0.0000000  0.6508444  3
   5242   5239   5241   5243     1  0.0000000  0.6508444  3
   5242   5239   5241   5244     1  0.0000000  0.6508444  3
   5242   5239   5237   5302     1  0.0000000  0.6508444  3
   5243   5241   5245   5246     1  0.0000000  3.3472000  1
   5243   5241   5245   5246     1  0.0000000  0.0000000  2
   5243   5241   5245   5246     1  180.0000771  0.3347200  3
   5243   5241   5245   5277     1  180.0000771  0.0000000  2
   5244   5241   5245   5246     1  0.0000000  3.3472000  1
   5244   5241   5245   5246     1  0.0000000  0.0000000  2
   5244   5241   5245   5246     1  180.0000771  0.3347200  3
   5244   5241   5245   5277     1  180.0000771  0.0000000  2
   5245   5277   5258   5260     1  0.0000000  1.2552000  3
   5246   5245   5277   5267     1  180.0000771  6.0668000  2
   5246   5245   5277   5267     1  180.0000771  1.4644000  4
   5247   5238   5249   5252     1  0.0000000  0.6508444  3
   5247   5238   5249   5250     1  0.0000000  0.6508444  3
   5247   5238   5249   5251     1  0.0000000  0.6508444  3
   5247   5238   5237   5302     1  0.0000000  0.6508444  3
   5248   5238   5249   5252     1  0.0000000  0.6508444  3
   5248   5238   5249   5250     1  0.0000000  0.6508444  3
   5248   5238   5249   5251     1  0.0000000  0.6508444  3
   5248   5238   5237   5302     1  0.0000000  0.6508444  3
   5249   5252   5301   5291     1  180.0000771  6.0668000  2
   5249   5252   5301   5291     1  180.0000771  1.4644000  4
   5249   5238   5237   5302     1  0.0000000  0.6508444  3
   5250   5249   5252   5253     1  0.0000000  3.3472000  1
   5250   5249   5252   5253     1  0.0000000  0.0000000  2
   5250   5249   5252   5253     1  180.0000771  0.3347200  3
   5250   5249   5252   5301     1  180.0000771  0.0000000  2
   5251   5249   5252   5253     1  0.0000000  3.3472000  1
   5251   5249   5252   5253     1  0.0000000  0.0000000  2
   5251   5249   5252   5253     1  180.0000771  0.3347200  3
   5251   5249   5252   5301     1  180.0000771  0.0000000  2
   5252   5301   5282   5284     1  0.0000000  1.2552000  3
   5253   5252   5301   5291     1  180.0000771  6.0668000  2
   5253   5252   5301   5291     1  180.0000771  1.4644000  4
   5254   5255   5257   5261     1  0.0000000  0.6508444  3
   5254   5255   5275   5276     1  0.0000000  1.0460000  1
   5254   5255   5275   5276     1  0.0000000  0.6694400  3
   5254   5265   5270   5271     1  0.0000000  1.0460000  1
   5254   5265   5270   5271     1  0.0000000  0.6694400  3
   5254   5272   5259   5262     1  0.0000000  1.6038667  3
   5255   5257   5258   5260     1  0.0000000  0.6508444  3
   5255   5257   5264   5266     1  0.0000000  1.0460000  1
   5255   5257   5264   5266     1  0.0000000  0.6694400  3
   5255   5254   5265   5268     1  0.0000000  0.6508444  3
   5255   5254   5265   5269     1  0.0000000  0.6508444  3
   5256   5254   5255   5257     1  0.0000000  0.6508444  3
   5256   5254   5255   5275     1  0.0000000  1.0460000  1
   5256   5254   5255   5275     1  0.0000000  0.0000000  3
   5256   5254   5255   5274     1  0.0000000  0.6508444  3
   5256   5254   5265   5270     1  0.0000000  1.0460000  1
   5256   5254   5265   5270     1  0.0000000  0.0000000  3
   5256   5254   5265   5268     1  0.0000000  0.6508444  3
   5256   5254   5265   5269     1  0.0000000  0.6508444  3
   5256   5254   5272   5259     1  0.0000000  1.6038667  3
   5257   5258   5259   5262     1  0.0000000  0.6508444  3
   5257   5258   5277   5267     1  0.0000000  1.2552000  3
   5257   5255   5275   5276     1  0.0000000  1.0460000  1
   5257   5255   5275   5276     1  0.0000000  0.6694400  3
   5258   5259   5263   5273     1  0.0000000  1.0460000  1
   5258   5259   5263   5273     1  0.0000000  0.6694400  3
   5258   5257   5264   5266     1  0.0000000  1.0460000  1
   5258   5257   5264   5266     1  0.0000000  0.6694400  3
   5258   5257   5255   5274     1  0.0000000  0.6508444  3
   5259   5258   5277   5267     1  0.0000000  1.2552000  3
   5259   5258   5257   5261     1  0.0000000  0.6508444  3
   5260   5258   5259   5263     1  0.0000000  1.0460000  1
   5260   5258   5259   5263     1  0.0000000  0.0000000  3
   5260   5258   5259   5272     1  0.0000000  1.0460000  1
   5260   5258   5259   5272     1  0.0000000  0.0000000  3
   5260   5258   5259   5262     1  0.0000000  0.6508444  3
   5260   5258   5277   5267     1  0.0000000  1.2552000  3
   5260   5258   5257   5264     1  0.0000000  1.0460000  1
   5260   5258   5257   5264     1  0.0000000  0.0000000  3
   5260   5258   5257   5261     1  0.0000000  0.6508444  3
   5261   5257   5258   5277     1  0.0000000  0.6508444  3
   5261   5257   5264   5266     1  0.0000000  0.6973333  3
   5261   5257   5255   5275     1  0.0000000  1.0460000  1
   5261   5257   5255   5275     1  0.0000000  0.0000000  3
   5261   5257   5255   5274     1  0.0000000  0.6508444  3
   5262   5259   5263   5273     1  0.0000000  0.6973333  3
   5262   5259   5258   5277     1  0.0000000  0.6508444  3
   5264   5257   5255   5274     1  0.0000000  1.0460000  1
   5264   5257   5255   5274     1  0.0000000  0.0000000  3
   5265   5254   5255   5274     1  0.0000000  0.6508444  3
   5268   5265   5270   5271     1  0.0000000  0.6973333  3
   5268   5265   5254   5272     1  0.0000000  1.0460000  1
   5268   5265   5254   5272     1  0.0000000  0.0000000  3
   5269   5265   5270   5271     1  0.0000000  0.6973333  3
   5269   5265   5254   5272     1  0.0000000  1.0460000  1
   5269   5265   5254   5272     1  0.0000000  0.0000000  3
   5272   5259   5263   5273     1  0.0000000  0.6973333  3
   5272   5254   5255   5274     1  0.0000000  1.0460000  1
   5272   5254   5255   5274     1  0.0000000  0.0000000  3
   5274   5255   5275   5276     1  0.0000000  0.6973333  3
   5278   5279   5281   5285     1  0.0000000  0.6508444  3
   5278   5279   5299   5300     1  0.0000000  1.0460000  1
   5278   5279   5299   5300     1  0.0000000  0.6694400  3
   5278   5289   5294   5295     1  0.0000000  1.0460000  1
   5278   5289   5294   5295     1  0.0000000  0.6694400  3
   5278   5296   5283   5286     1  0.0000000  1.6038667  3
   5279   5281   5282   5284     1  0.0000000  0.6508444  3
   5279   5281   5288   5290     1  0.0000000  1.0460000  1
   5279   5281   5288   5290     1  0.0000000  0.6694400  3
   5279   5278   5289   5292     1  0.0000000  0.6508444  3
   5279   5278   5289   5293     1  0.0000000  0.6508444  3
   5280   5278   5279   5281     1  0.0000000  0.6508444  3
   5280   5278   5279   5299     1  0.0000000  1.0460000  1
   5280   5278   5279   5299     1  0.0000000  0.0000000  3
   5280   5278   5279   5298     1  0.0000000  0.6508444  3
   5280   5278   5289   5294     1  0.0000000  1.0460000  1
   5280   5278   5289   5294     1  0.0000000  0.0000000  3
   5280   5278   5289   5292     1  0.0000000  0.6508444  3
   5280   5278   5289   5293     1  0.0000000  0.6508444  3
   5280   5278   5296   5283     1  0.0000000  1.6038667  3
   5281   5282   5283   5286     1  0.0000000  0.6508444  3
   5281   5282   5301   5291     1  0.0000000  1.2552000  3
   5281   5279   5299   5300     1  0.0000000  1.0460000  1
   5281   5279   5299   5300     1  0.0000000  0.6694400  3
   5282   5283   5287   5297     1  0.0000000  1.0460000  1
   5282   5283   5287   5297     1  0.0000000  0.6694400  3
   5282   5281   5288   5290     1  0.0000000  1.0460000  1
   5282   5281   5288   5290     1  0.0000000  0.6694400  3
   5282   5281   5279   5298     1  0.0000000  0.6508444  3
   5283   5282   5301   5291     1  0.0000000  1.2552000  3
   5283   5282   5281   5285     1  0.0000000  0.6508444  3
   5284   5282   5283   5287     1  0.0000000  1.0460000  1
   5284   5282   5283   5287     1  0.0000000  0.0000000  3
   5284   5282   5283   5296     1  0.0000000  1.0460000  1
   5284   5282   5283   5296     1  0.0000000  0.0000000  3
   5284   5282   5283   5286     1  0.0000000  0.6508444  3
   5284   5282   5301   5291     1  0.0000000  1.2552000  3
   5284   5282   5281   5288     1  0.0000000  1.0460000  1
   5284   5282   5281   5288     1  0.0000000  0.0000000  3
   5284   5282   5281   5285     1  0.0000000  0.6508444  3
   5285   5281   5282   5301     1  0.0000000  0.6508444  3
   5285   5281   5288   5290     1  0.0000000  0.6973333  3
   5285   5281   5279   5299     1  0.0000000  1.0460000  1
   5285   5281   5279   5299     1  0.0000000  0.0000000  3
   5285   5281   5279   5298     1  0.0000000  0.6508444  3
   5286   5283   5287   5297     1  0.0000000  0.6973333  3
   5286   5283   5282   5301     1  0.0000000  0.6508444  3
   5288   5281   5279   5298     1  0.0000000  1.0460000  1
   5288   5281   5279   5298     1  0.0000000  0.0000000  3
   5289   5278   5279   5298     1  0.0000000  0.6508444  3
   5292   5289   5294   5295     1  0.0000000  0.6973333  3
   5292   5289   5278   5296     1  0.0000000  1.0460000  1
   5292   5289   5278   5296     1  0.0000000  0.0000000  3
   5293   5289   5294   5295     1  0.0000000  0.6973333  3
   5293   5289   5278   5296     1  0.0000000  1.0460000  1
   5293   5289   5278   5296     1  0.0000000  0.0000000  3
   5296   5283   5287   5297     1  0.0000000  0.6973333  3
   5296   5278   5279   5298     1  0.0000000  1.0460000  1
   5296   5278   5279   5298     1  0.0000000  0.0000000  3
   5298   5279   5299   5300     1  0.0000000  0.6973333  3
   5303   5305   5307   5309     1  0.0000000  0.6508444  3
   5303   5305   5307   5310     1  0.0000000  0.6508444  3
   5304   5303   5305   5307     1  0.0000000  0.0000000  2
   5304   5303   5305   5306     1  0.0000000  0.0000000  2
   5304   5303   5305   5308     1  0.0000000  0.0000000  2
   5305   5307   5311   5376     1  0.0000000  0.6508444  3
   5306   5305   5307   5311     1  0.0000000  0.6508444  3
   5306   5305   5307   5309     1  0.0000000  0.6508444  3
   5306   5305   5307   5310     1  0.0000000  0.6508444  3
   5307   5311   5312   5321     1  0.0000000  0.6508444  3
   5307   5311   5312   5322     1  0.0000000  0.6508444  3
   5307   5311   5313   5314     1  0.0000000  0.6508444  3
   5307   5311   5313   5316     1  0.0000000  0.6508444  3
   5308   5305   5307   5311     1  0.0000000  0.6508444  3
   5308   5305   5307   5309     1  0.0000000  0.6508444  3
   5308   5305   5307   5310     1  0.0000000  0.6508444  3
   5309   5307   5311   5312     1  0.0000000  0.6508444  3
   5309   5307   5311   5313     1  0.0000000  0.6508444  3
   5309   5307   5311   5376     1  0.0000000  0.6508444  3
   5310   5307   5311   5312     1  0.0000000  0.6508444  3
   5310   5307   5311   5313     1  0.0000000  0.6508444  3
   5310   5307   5311   5376     1  0.0000000  0.6508444  3
   5311   5312   5323   5324     1  0.0000000  0.6508444  3
   5311   5312   5323   5325     1  0.0000000  0.6508444  3
   5311   5313   5315   5317     1  0.0000000  0.6508444  3
   5311   5313   5315   5318     1  0.0000000  0.6508444  3
   5312   5311   5313   5314     1  0.0000000  0.6508444  3
   5312   5311   5313   5316     1  0.0000000  0.6508444  3
   5313   5311   5312   5321     1  0.0000000  0.6508444  3
   5313   5311   5312   5322     1  0.0000000  0.6508444  3
   5314   5313   5311   5376     1  0.0000000  0.6508444  3
   5314   5313   5315   5319     1  0.0000000  0.6508444  3
   5314   5313   5315   5317     1  0.0000000  0.6508444  3
   5314   5313   5315   5318     1  0.0000000  0.6508444  3
   5315   5313   5311   5376     1  0.0000000  0.6508444  3
   5315   5319   5351   5341     1  180.0000771  6.0668000  2
   5315   5319   5351   5341     1  180.0000771  1.4644000  4
   5316   5313   5311   5376     1  0.0000000  0.6508444  3
   5316   5313   5315   5319     1  0.0000000  0.6508444  3
   5316   5313   5315   5317     1  0.0000000  0.6508444  3
   5316   5313   5315   5318     1  0.0000000  0.6508444  3
   5317   5315   5319   5320     1  0.0000000  3.3472000  1
   5317   5315   5319   5320     1  0.0000000  0.0000000  2
   5317   5315   5319   5320     1  180.0000771  0.3347200  3
   5317   5315   5319   5351     1  180.0000771  0.0000000  2
   5318   5315   5319   5320     1  0.0000000  3.3472000  1
   5318   5315   5319   5320     1  0.0000000  0.0000000  2
   5318   5315   5319   5320     1  180.0000771  0.3347200  3
   5318   5315   5319   5351     1  180.0000771  0.0000000  2
   5319   5351   5332   5334     1  0.0000000  1.2552000  3
   5320   5319   5351   5341     1  180.0000771  6.0668000  2
   5320   5319   5351   5341     1  180.0000771  1.4644000  4
   5321   5312   5311   5376     1  0.0000000  0.6508444  3
   5321   5312   5323   5326     1  0.0000000  0.6508444  3
   5321   5312   5323   5324     1  0.0000000  0.6508444  3
   5321   5312   5323   5325     1  0.0000000  0.6508444  3
   5322   5312   5311   5376     1  0.0000000  0.6508444  3
   5322   5312   5323   5326     1  0.0000000  0.6508444  3
   5322   5312   5323   5324     1  0.0000000  0.6508444  3
   5322   5312   5323   5325     1  0.0000000  0.6508444  3
   5323   5312   5311   5376     1  0.0000000  0.6508444  3
   5323   5326   5375   5365     1  180.0000771  6.0668000  2
   5323   5326   5375   5365     1  180.0000771  1.4644000  4
   5324   5323   5326   5327     1  0.0000000  3.3472000  1
   5324   5323   5326   5327     1  0.0000000  0.0000000  2
   5324   5323   5326   5327     1  180.0000771  0.3347200  3
   5324   5323   5326   5375     1  180.0000771  0.0000000  2
   5325   5323   5326   5327     1  0.0000000  3.3472000  1
   5325   5323   5326   5327     1  0.0000000  0.0000000  2
   5325   5323   5326   5327     1  180.0000771  0.3347200  3
   5325   5323   5326   5375     1  180.0000771  0.0000000  2
   5326   5375   5356   5358     1  0.0000000  1.2552000  3
   5327   5326   5375   5365     1  180.0000771  6.0668000  2
   5327   5326   5375   5365     1  180.0000771  1.4644000  4
   5328   5329   5331   5335     1  0.0000000  0.6508444  3
   5328   5329   5349   5350     1  0.0000000  1.0460000  1
   5328   5329   5349   5350     1  0.0000000  0.6694400  3
   5328   5339   5344   5345     1  0.0000000  1.0460000  1
   5328   5339   5344   5345     1  0.0000000  0.6694400  3
   5328   5346   5333   5336     1  0.0000000  1.6038667  3
   5329   5328   5339   5342     1  0.0000000  0.6508444  3
   5329   5328   5339   5343     1  0.0000000  0.6508444  3
   5329   5331   5332   5334     1  0.0000000  0.6508444  3
   5329   5331   5338   5340     1  0.0000000  1.0460000  1
   5329   5331   5338   5340     1  0.0000000  0.6694400  3
   5330   5328   5329   5331     1  0.0000000  0.6508444  3
   5330   5328   5329   5349     1  0.0000000  1.0460000  1
   5330   5328   5329   5349     1  0.0000000  0.0000000  3
   5330   5328   5329   5348     1  0.0000000  0.6508444  3
   5330   5328   5339   5344     1  0.0000000  1.0460000  1
   5330   5328   5339   5344     1  0.0000000  0.0000000  3
   5330   5328   5339   5342     1  0.0000000  0.6508444  3
   5330   5328   5339   5343     1  0.0000000  0.6508444  3
   5330   5328   5346   5333     1  0.0000000  1.6038667  3
   5331   5329   5349   5350     1  0.0000000  1.0460000  1
   5331   5329   5349   5350     1  0.0000000  0.6694400  3
   5331   5332   5333   5336     1  0.0000000  0.6508444  3
   5331   5332   5351   5341     1  0.0000000  1.2552000  3
   5332   5331   5329   5348     1  0.0000000  0.6508444  3
   5332   5331   5338   5340     1  0.0000000  1.0460000  1
   5332   5331   5338   5340     1  0.0000000  0.6694400  3
   5332   5333   5337   5347     1  0.0000000  1.0460000  1
   5332   5333   5337   5347     1  0.0000000  0.6694400  3
   5333   5332   5331   5335     1  0.0000000  0.6508444  3
   5333   5332   5351   5341     1  0.0000000  1.2552000  3
   5334   5332   5331   5338     1  0.0000000  1.0460000  1
   5334   5332   5331   5338     1  0.0000000  0.0000000  3
   5334   5332   5331   5335     1  0.0000000  0.6508444  3
   5334   5332   5333   5337     1  0.0000000  1.0460000  1
   5334   5332   5333   5337     1  0.0000000  0.0000000  3
   5334   5332   5333   5346     1  0.0000000  1.0460000  1
   5334   5332   5333   5346     1  0.0000000  0.0000000  3
   5334   5332   5333   5336     1  0.0000000  0.6508444  3
   5334   5332   5351   5341     1  0.0000000  1.2552000  3
   5335   5331   5329   5349     1  0.0000000  1.0460000  1
   5335   5331   5329   5349     1  0.0000000  0.0000000  3
   5335   5331   5329   5348     1  0.0000000  0.6508444  3
   5335   5331   5332   5351     1  0.0000000  0.6508444  3
   5335   5331   5338   5340     1  0.0000000  0.6973333  3
   5336   5333   5332   5351     1  0.0000000  0.6508444  3
   5336   5333   5337   5347     1  0.0000000  0.6973333  3
   5338   5331   5329   5348     1  0.0000000  1.0460000  1
   5338   5331   5329   5348     1  0.0000000  0.0000000  3
   5339   5328   5329   5348     1  0.0000000  0.6508444  3
   5342   5339   5328   5346     1  0.0000000  1.0460000  1
   5342   5339   5328   5346     1  0.0000000  0.0000000  3
   5342   5339   5344   5345     1  0.0000000  0.6973333  3
   5343   5339   5328   5346     1  0.0000000  1.0460000  1
   5343   5339   5328   5346     1  0.0000000  0.0000000  3
   5343   5339   5344   5345     1  0.0000000  0.6973333  3
   5346   5328   5329   5348     1  0.0000000  1.0460000  1
   5346   5328   5329   5348     1  0.0000000  0.0000000  3
   5346   5333   5337   5347     1  0.0000000  0.6973333  3
   5348   5329   5349   5350     1  0.0000000  0.6973333  3
   5352   5353   5355   5359     1  0.0000000  0.6508444  3
   5352   5353   5373   5374     1  0.0000000  1.0460000  1
   5352   5353   5373   5374     1  0.0000000  0.6694400  3
   5352   5363   5368   5369     1  0.0000000  1.0460000  1
   5352   5363   5368   5369     1  0.0000000  0.6694400  3
   5352   5370   5357   5360     1  0.0000000  1.6038667  3
   5353   5352   5363   5366     1  0.0000000  0.6508444  3
   5353   5352   5363   5367     1  0.0000000  0.6508444  3
   5353   5355   5356   5358     1  0.0000000  0.6508444  3
   5353   5355   5362   5364     1  0.0000000  1.0460000  1
   5353   5355   5362   5364     1  0.0000000  0.6694400  3
   5354   5352   5353   5355     1  0.0000000  0.6508444  3
   5354   5352   5353   5373     1  0.0000000  1.0460000  1
   5354   5352   5353   5373     1  0.0000000  0.0000000  3
   5354   5352   5353   5372     1  0.0000000  0.6508444  3
   5354   5352   5363   5368     1  0.0000000  1.0460000  1
   5354   5352   5363   5368     1  0.0000000  0.0000000  3
   5354   5352   5363   5366     1  0.0000000  0.6508444  3
   5354   5352   5363   5367     1  0.0000000  0.6508444  3
   5354   5352   5370   5357     1  0.0000000  1.6038667  3
   5355   5353   5373   5374     1  0.0000000  1.0460000  1
   5355   5353   5373   5374     1  0.0000000  0.6694400  3
   5355   5356   5357   5360     1  0.0000000  0.6508444  3
   5355   5356   5375   5365     1  0.0000000  1.2552000  3
   5356   5355   5353   5372     1  0.0000000  0.6508444  3
   5356   5355   5362   5364     1  0.0000000  1.0460000  1
   5356   5355   5362   5364     1  0.0000000  0.6694400  3
   5356   5357   5361   5371     1  0.0000000  1.0460000  1
   5356   5357   5361   5371     1  0.0000000  0.6694400  3
   5357   5356   5355   5359     1  0.0000000  0.6508444  3
   5357   5356   5375   5365     1  0.0000000  1.2552000  3
   5358   5356   5355   5362     1  0.0000000  1.0460000  1
   5358   5356   5355   5362     1  0.0000000  0.0000000  3
   5358   5356   5355   5359     1  0.0000000  0.6508444  3
   5358   5356   5357   5361     1  0.0000000  1.0460000  1
   5358   5356   5357   5361     1  0.0000000  0.0000000  3
   5358   5356   5357   5370     1  0.0000000  1.0460000  1
   5358   5356   5357   5370     1  0.0000000  0.0000000  3
   5358   5356   5357   5360     1  0.0000000  0.6508444  3
   5358   5356   5375   5365     1  0.0000000  1.2552000  3
   5359   5355   5353   5373     1  0.0000000  1.0460000  1
   5359   5355   5353   5373     1  0.0000000  0.0000000  3
   5359   5355   5353   5372     1  0.0000000  0.6508444  3
   5359   5355   5356   5375     1  0.0000000  0.6508444  3
   5359   5355   5362   5364     1  0.0000000  0.6973333  3
   5360   5357   5356   5375     1  0.0000000  0.6508444  3
   5360   5357   5361   5371     1  0.0000000  0.6973333  3
   5362   5355   5353   5372     1  0.0000000  1.0460000  1
   5362   5355   5353   5372     1  0.0000000  0.0000000  3
   5363   5352   5353   5372     1  0.0000000  0.6508444  3
   5366   5363   5352   5370     1  0.0000000  1.0460000  1
   5366   5363   5352   5370     1  0.0000000  0.0000000  3
   5366   5363   5368   5369     1  0.0000000  0.6973333  3
   5367   5363   5352   5370     1  0.0000000  1.0460000  1
   5367   5363   5352   5370     1  0.0000000  0.0000000  3
   5367   5363   5368   5369     1  0.0000000  0.6973333  3
   5370   5352   5353   5372     1  0.0000000  1.0460000  1
   5370   5352   5353   5372     1  0.0000000  0.0000000  3
   5370   5357   5361   5371     1  0.0000000  0.6973333  3
   5372   5353   5373   5374     1  0.0000000  0.6973333  3
   5377   5379   5381   5383     1  0.0000000  0.6508444  3
   5377   5379   5381   5384     1  0.0000000  0.6508444  3
   5378   5377   5379   5381     1  0.0000000  0.0000000  2
   5378   5377   5379   5380     1  0.0000000  0.0000000  2
   5378   5377   5379   5382     1  0.0000000  0.0000000  2
   5379   5381   5385   5450     1  0.0000000  0.6508444  3
   5380   5379   5381   5385     1  0.0000000  0.6508444  3
   5380   5379   5381   5383     1  0.0000000  0.6508444  3
   5380   5379   5381   5384     1  0.0000000  0.6508444  3
   5381   5385   5386   5395     1  0.0000000  0.6508444  3
   5381   5385   5386   5396     1  0.0000000  0.6508444  3
   5381   5385   5387   5388     1  0.0000000  0.6508444  3
   5381   5385   5387   5390     1  0.0000000  0.6508444  3
   5382   5379   5381   5385     1  0.0000000  0.6508444  3
   5382   5379   5381   5383     1  0.0000000  0.6508444  3
   5382   5379   5381   5384     1  0.0000000  0.6508444  3
   5383   5381   5385   5386     1  0.0000000  0.6508444  3
   5383   5381   5385   5387     1  0.0000000  0.6508444  3
   5383   5381   5385   5450     1  0.0000000  0.6508444  3
   5384   5381   5385   5386     1  0.0000000  0.6508444  3
   5384   5381   5385   5387     1  0.0000000  0.6508444  3
   5384   5381   5385   5450     1  0.0000000  0.6508444  3
   5385   5386   5397   5398     1  0.0000000  0.6508444  3
   5385   5386   5397   5399     1  0.0000000  0.6508444  3
   5385   5387   5389   5391     1  0.0000000  0.6508444  3
   5385   5387   5389   5392     1  0.0000000  0.6508444  3
   5386   5385   5387   5388     1  0.0000000  0.6508444  3
   5386   5385   5387   5390     1  0.0000000  0.6508444  3
   5387   5385   5386   5395     1  0.0000000  0.6508444  3
   5387   5385   5386   5396     1  0.0000000  0.6508444  3
   5388   5387   5389   5393     1  0.0000000  0.6508444  3
   5388   5387   5389   5391     1  0.0000000  0.6508444  3
   5388   5387   5389   5392     1  0.0000000  0.6508444  3
   5388   5387   5385   5450     1  0.0000000  0.6508444  3
   5389   5393   5425   5415     1  180.0000771  6.0668000  2
   5389   5393   5425   5415     1  180.0000771  1.4644000  4
   5389   5387   5385   5450     1  0.0000000  0.6508444  3
   5390   5387   5389   5393     1  0.0000000  0.6508444  3
   5390   5387   5389   5391     1  0.0000000  0.6508444  3
   5390   5387   5389   5392     1  0.0000000  0.6508444  3
   5390   5387   5385   5450     1  0.0000000  0.6508444  3
   5391   5389   5393   5394     1  0.0000000  3.3472000  1
   5391   5389   5393   5394     1  0.0000000  0.0000000  2
   5391   5389   5393   5394     1  180.0000771  0.3347200  3
   5391   5389   5393   5425     1  180.0000771  0.0000000  2
   5392   5389   5393   5394     1  0.0000000  3.3472000  1
   5392   5389   5393   5394     1  0.0000000  0.0000000  2
   5392   5389   5393   5394     1  180.0000771  0.3347200  3
   5392   5389   5393   5425     1  180.0000771  0.0000000  2
   5393   5425   5406   5408     1  0.0000000  1.2552000  3
   5394   5393   5425   5415     1  180.0000771  6.0668000  2
   5394   5393   5425   5415     1  180.0000771  1.4644000  4
   5395   5386   5397   5400     1  0.0000000  0.6508444  3
   5395   5386   5397   5398     1  0.0000000  0.6508444  3
   5395   5386   5397   5399     1  0.0000000  0.6508444  3
   5395   5386   5385   5450     1  0.0000000  0.6508444  3
   5396   5386   5397   5400     1  0.0000000  0.6508444  3
   5396   5386   5397   5398     1  0.0000000  0.6508444  3
   5396   5386   5397   5399     1  0.0000000  0.6508444  3
   5396   5386   5385   5450     1  0.0000000  0.6508444  3
   5397   5400   5449   5439     1  180.0000771  6.0668000  2
   5397   5400   5449   5439     1  180.0000771  1.4644000  4
   5397   5386   5385   5450     1  0.0000000  0.6508444  3
   5398   5397   5400   5401     1  0.0000000  3.3472000  1
   5398   5397   5400   5401     1  0.0000000  0.0000000  2
   5398   5397   5400   5401     1  180.0000771  0.3347200  3
   5398   5397   5400   5449     1  180.0000771  0.0000000  2
   5399   5397   5400   5401     1  0.0000000  3.3472000  1
   5399   5397   5400   5401     1  0.0000000  0.0000000  2
   5399   5397   5400   5401     1  180.0000771  0.3347200  3
   5399   5397   5400   5449     1  180.0000771  0.0000000  2
   5400   5449   5430   5432     1  0.0000000  1.2552000  3
   5401   5400   5449   5439     1  180.0000771  6.0668000  2
   5401   5400   5449   5439     1  180.0000771  1.4644000  4
   5402   5403   5405   5409     1  0.0000000  0.6508444  3
   5402   5403   5423   5424     1  0.0000000  1.0460000  1
   5402   5403   5423   5424     1  0.0000000  0.6694400  3
   5402   5413   5418   5419     1  0.0000000  1.0460000  1
   5402   5413   5418   5419     1  0.0000000  0.6694400  3
   5402   5420   5407   5410     1  0.0000000  1.6038667  3
   5403   5405   5406   5408     1  0.0000000  0.6508444  3
   5403   5405   5412   5414     1  0.0000000  1.0460000  1
   5403   5405   5412   5414     1  0.0000000  0.6694400  3
   5403   5402   5413   5416     1  0.0000000  0.6508444  3
   5403   5402   5413   5417     1  0.0000000  0.6508444  3
   5404   5402   5403   5405     1  0.0000000  0.6508444  3
   5404   5402   5403   5423     1  0.0000000  1.0460000  1
   5404   5402   5403   5423     1  0.0000000  0.0000000  3
   5404   5402   5403   5422     1  0.0000000  0.6508444  3
   5404   5402   5413   5418     1  0.0000000  1.0460000  1
   5404   5402   5413   5418     1  0.0000000  0.0000000  3
   5404   5402   5413   5416     1  0.0000000  0.6508444  3
   5404   5402   5413   5417     1  0.0000000  0.6508444  3
   5404   5402   5420   5407     1  0.0000000  1.6038667  3
   5405   5406   5407   5410     1  0.0000000  0.6508444  3
   5405   5406   5425   5415     1  0.0000000  1.2552000  3
   5405   5403   5423   5424     1  0.0000000  1.0460000  1
   5405   5403   5423   5424     1  0.0000000  0.6694400  3
   5406   5407   5411   5421     1  0.0000000  1.0460000  1
   5406   5407   5411   5421     1  0.0000000  0.6694400  3
   5406   5405   5412   5414     1  0.0000000  1.0460000  1
   5406   5405   5412   5414     1  0.0000000  0.6694400  3
   5406   5405   5403   5422     1  0.0000000  0.6508444  3
   5407   5406   5425   5415     1  0.0000000  1.2552000  3
   5407   5406   5405   5409     1  0.0000000  0.6508444  3
   5408   5406   5407   5411     1  0.0000000  1.0460000  1
   5408   5406   5407   5411     1  0.0000000  0.0000000  3
   5408   5406   5407   5420     1  0.0000000  1.0460000  1
   5408   5406   5407   5420     1  0.0000000  0.0000000  3
   5408   5406   5407   5410     1  0.0000000  0.6508444  3
   5408   5406   5425   5415     1  0.0000000  1.2552000  3
   5408   5406   5405   5412     1  0.0000000  1.0460000  1
   5408   5406   5405   5412     1  0.0000000  0.0000000  3
   5408   5406   5405   5409     1  0.0000000  0.6508444  3
   5409   5405   5406   5425     1  0.0000000  0.6508444  3
   5409   5405   5412   5414     1  0.0000000  0.6973333  3
   5409   5405   5403   5423     1  0.0000000  1.0460000  1
   5409   5405   5403   5423     1  0.0000000  0.0000000  3
   5409   5405   5403   5422     1  0.0000000  0.6508444  3
   5410   5407   5411   5421     1  0.0000000  0.6973333  3
   5410   5407   5406   5425     1  0.0000000  0.6508444  3
   5412   5405   5403   5422     1  0.0000000  1.0460000  1
   5412   5405   5403   5422     1  0.0000000  0.0000000  3
   5413   5402   5403   5422     1  0.0000000  0.6508444  3
   5416   5413   5418   5419     1  0.0000000  0.6973333  3
   5416   5413   5402   5420     1  0.0000000  1.0460000  1
   5416   5413   5402   5420     1  0.0000000  0.0000000  3
   5417   5413   5418   5419     1  0.0000000  0.6973333  3
   5417   5413   5402   5420     1  0.0000000  1.0460000  1
   5417   5413   5402   5420     1  0.0000000  0.0000000  3
   5420   5407   5411   5421     1  0.0000000  0.6973333  3
   5420   5402   5403   5422     1  0.0000000  1.0460000  1
   5420   5402   5403   5422     1  0.0000000  0.0000000  3
   5422   5403   5423   5424     1  0.0000000  0.6973333  3
   5426   5427   5429   5433     1  0.0000000  0.6508444  3
   5426   5427   5447   5448     1  0.0000000  1.0460000  1
   5426   5427   5447   5448     1  0.0000000  0.6694400  3
   5426   5437   5442   5443     1  0.0000000  1.0460000  1
   5426   5437   5442   5443     1  0.0000000  0.6694400  3
   5426   5444   5431   5434     1  0.0000000  1.6038667  3
   5427   5429   5430   5432     1  0.0000000  0.6508444  3
   5427   5429   5436   5438     1  0.0000000  1.0460000  1
   5427   5429   5436   5438     1  0.0000000  0.6694400  3
   5427   5426   5437   5440     1  0.0000000  0.6508444  3
   5427   5426   5437   5441     1  0.0000000  0.6508444  3
   5428   5426   5427   5429     1  0.0000000  0.6508444  3
   5428   5426   5427   5447     1  0.0000000  1.0460000  1
   5428   5426   5427   5447     1  0.0000000  0.0000000  3
   5428   5426   5427   5446     1  0.0000000  0.6508444  3
   5428   5426   5437   5442     1  0.0000000  1.0460000  1
   5428   5426   5437   5442     1  0.0000000  0.0000000  3
   5428   5426   5437   5440     1  0.0000000  0.6508444  3
   5428   5426   5437   5441     1  0.0000000  0.6508444  3
   5428   5426   5444   5431     1  0.0000000  1.6038667  3
   5429   5430   5431   5434     1  0.0000000  0.6508444  3
   5429   5430   5449   5439     1  0.0000000  1.2552000  3
   5429   5427   5447   5448     1  0.0000000  1.0460000  1
   5429   5427   5447   5448     1  0.0000000  0.6694400  3
   5430   5431   5435   5445     1  0.0000000  1.0460000  1
   5430   5431   5435   5445     1  0.0000000  0.6694400  3
   5430   5429   5436   5438     1  0.0000000  1.0460000  1
   5430   5429   5436   5438     1  0.0000000  0.6694400  3
   5430   5429   5427   5446     1  0.0000000  0.6508444  3
   5431   5430   5449   5439     1  0.0000000  1.2552000  3
   5431   5430   5429   5433     1  0.0000000  0.6508444  3
   5432   5430   5431   5435     1  0.0000000  1.0460000  1
   5432   5430   5431   5435     1  0.0000000  0.0000000  3
   5432   5430   5431   5444     1  0.0000000  1.0460000  1
   5432   5430   5431   5444     1  0.0000000  0.0000000  3
   5432   5430   5431   5434     1  0.0000000  0.6508444  3
   5432   5430   5449   5439     1  0.0000000  1.2552000  3
   5432   5430   5429   5436     1  0.0000000  1.0460000  1
   5432   5430   5429   5436     1  0.0000000  0.0000000  3
   5432   5430   5429   5433     1  0.0000000  0.6508444  3
   5433   5429   5430   5449     1  0.0000000  0.6508444  3
   5433   5429   5436   5438     1  0.0000000  0.6973333  3
   5433   5429   5427   5447     1  0.0000000  1.0460000  1
   5433   5429   5427   5447     1  0.0000000  0.0000000  3
   5433   5429   5427   5446     1  0.0000000  0.6508444  3
   5434   5431   5435   5445     1  0.0000000  0.6973333  3
   5434   5431   5430   5449     1  0.0000000  0.6508444  3
   5436   5429   5427   5446     1  0.0000000  1.0460000  1
   5436   5429   5427   5446     1  0.0000000  0.0000000  3
   5437   5426   5427   5446     1  0.0000000  0.6508444  3
   5440   5437   5442   5443     1  0.0000000  0.6973333  3
   5440   5437   5426   5444     1  0.0000000  1.0460000  1
   5440   5437   5426   5444     1  0.0000000  0.0000000  3
   5441   5437   5442   5443     1  0.0000000  0.6973333  3
   5441   5437   5426   5444     1  0.0000000  1.0460000  1
   5441   5437   5426   5444     1  0.0000000  0.0000000  3
   5444   5431   5435   5445     1  0.0000000  0.6973333  3
   5444   5426   5427   5446     1  0.0000000  1.0460000  1
   5444   5426   5427   5446     1  0.0000000  0.0000000  3
   5446   5427   5447   5448     1  0.0000000  0.6973333  3
   5451   5453   5455   5457     1  0.0000000  0.6508444  3
   5451   5453   5455   5458     1  0.0000000  0.6508444  3
   5452   5451   5453   5455     1  0.0000000  0.0000000  2
   5452   5451   5453   5454     1  0.0000000  0.0000000  2
   5452   5451   5453   5456     1  0.0000000  0.0000000  2
   5453   5455   5459   5524     1  0.0000000  0.6508444  3
   5454   5453   5455   5459     1  0.0000000  0.6508444  3
   5454   5453   5455   5457     1  0.0000000  0.6508444  3
   5454   5453   5455   5458     1  0.0000000  0.6508444  3
   5455   5459   5460   5469     1  0.0000000  0.6508444  3
   5455   5459   5460   5470     1  0.0000000  0.6508444  3
   5455   5459   5461   5462     1  0.0000000  0.6508444  3
   5455   5459   5461   5464     1  0.0000000  0.6508444  3
   5456   5453   5455   5459     1  0.0000000  0.6508444  3
   5456   5453   5455   5457     1  0.0000000  0.6508444  3
   5456   5453   5455   5458     1  0.0000000  0.6508444  3
   5457   5455   5459   5460     1  0.0000000  0.6508444  3
   5457   5455   5459   5461     1  0.0000000  0.6508444  3
   5457   5455   5459   5524     1  0.0000000  0.6508444  3
   5458   5455   5459   5460     1  0.0000000  0.6508444  3
   5458   5455   5459   5461     1  0.0000000  0.6508444  3
   5458   5455   5459   5524     1  0.0000000  0.6508444  3
   5459   5460   5471   5472     1  0.0000000  0.6508444  3
   5459   5460   5471   5473     1  0.0000000  0.6508444  3
   5459   5461   5463   5465     1  0.0000000  0.6508444  3
   5459   5461   5463   5466     1  0.0000000  0.6508444  3
   5460   5459   5461   5462     1  0.0000000  0.6508444  3
   5460   5459   5461   5464     1  0.0000000  0.6508444  3
   5461   5459   5460   5469     1  0.0000000  0.6508444  3
   5461   5459   5460   5470     1  0.0000000  0.6508444  3
   5462   5461   5459   5524     1  0.0000000  0.6508444  3
   5462   5461   5463   5467     1  0.0000000  0.6508444  3
   5462   5461   5463   5465     1  0.0000000  0.6508444  3
   5462   5461   5463   5466     1  0.0000000  0.6508444  3
   5463   5461   5459   5524     1  0.0000000  0.6508444  3
   5463   5467   5499   5489     1  180.0000771  6.0668000  2
   5463   5467   5499   5489     1  180.0000771  1.4644000  4
   5464   5461   5459   5524     1  0.0000000  0.6508444  3
   5464   5461   5463   5467     1  0.0000000  0.6508444  3
   5464   5461   5463   5465     1  0.0000000  0.6508444  3
   5464   5461   5463   5466     1  0.0000000  0.6508444  3
   5465   5463   5467   5468     1  0.0000000  3.3472000  1
   5465   5463   5467   5468     1  0.0000000  0.0000000  2
   5465   5463   5467   5468     1  180.0000771  0.3347200  3
   5465   5463   5467   5499     1  180.0000771  0.0000000  2
   5466   5463   5467   5468     1  0.0000000  3.3472000  1
   5466   5463   5467   5468     1  0.0000000  0.0000000  2
   5466   5463   5467   5468     1  180.0000771  0.3347200  3
   5466   5463   5467   5499     1  180.0000771  0.0000000  2
   5467   5499   5480   5482     1  0.0000000  1.2552000  3
   5468   5467   5499   5489     1  180.0000771  6.0668000  2
   5468   5467   5499   5489     1  180.0000771  1.4644000  4
   5469   5460   5459   5524     1  0.0000000  0.6508444  3
   5469   5460   5471   5474     1  0.0000000  0.6508444  3
   5469   5460   5471   5472     1  0.0000000  0.6508444  3
   5469   5460   5471   5473     1  0.0000000  0.6508444  3
   5470   5460   5459   5524     1  0.0000000  0.6508444  3
   5470   5460   5471   5474     1  0.0000000  0.6508444  3
   5470   5460   5471   5472     1  0.0000000  0.6508444  3
   5470   5460   5471   5473     1  0.0000000  0.6508444  3
   5471   5460   5459   5524     1  0.0000000  0.6508444  3
   5471   5474   5523   5513     1  180.0000771  6.0668000  2
   5471   5474   5523   5513     1  180.0000771  1.4644000  4
   5472   5471   5474   5475     1  0.0000000  3.3472000  1
   5472   5471   5474   5475     1  0.0000000  0.0000000  2
   5472   5471   5474   5475     1  180.0000771  0.3347200  3
   5472   5471   5474   5523     1  180.0000771  0.0000000  2
   5473   5471   5474   5475     1  0.0000000  3.3472000  1
   5473   5471   5474   5475     1  0.0000000  0.0000000  2
   5473   5471   5474   5475     1  180.0000771  0.3347200  3
   5473   5471   5474   5523     1  180.0000771  0.0000000  2
   5474   5523   5504   5506     1  0.0000000  1.2552000  3
   5475   5474   5523   5513     1  180.0000771  6.0668000  2
   5475   5474   5523   5513     1  180.0000771  1.4644000  4
   5476   5477   5479   5483     1  0.0000000  0.6508444  3
   5476   5477   5497   5498     1  0.0000000  1.0460000  1
   5476   5477   5497   5498     1  0.0000000  0.6694400  3
   5476   5487   5492   5493     1  0.0000000  1.0460000  1
   5476   5487   5492   5493     1  0.0000000  0.6694400  3
   5476   5494   5481   5484     1  0.0000000  1.6038667  3
   5477   5476   5487   5490     1  0.0000000  0.6508444  3
   5477   5476   5487   5491     1  0.0000000  0.6508444  3
   5477   5479   5480   5482     1  0.0000000  0.6508444  3
   5477   5479   5486   5488     1  0.0000000  1.0460000  1
   5477   5479   5486   5488     1  0.0000000  0.6694400  3
   5478   5476   5477   5479     1  0.0000000  0.6508444  3
   5478   5476   5477   5497     1  0.0000000  1.0460000  1
   5478   5476   5477   5497     1  0.0000000  0.0000000  3
   5478   5476   5477   5496     1  0.0000000  0.6508444  3
   5478   5476   5487   5492     1  0.0000000  1.0460000  1
   5478   5476   5487   5492     1  0.0000000  0.0000000  3
   5478   5476   5487   5490     1  0.0000000  0.6508444  3
   5478   5476   5487   5491     1  0.0000000  0.6508444  3
   5478   5476   5494   5481     1  0.0000000  1.6038667  3
   5479   5477   5497   5498     1  0.0000000  1.0460000  1
   5479   5477   5497   5498     1  0.0000000  0.6694400  3
   5479   5480   5481   5484     1  0.0000000  0.6508444  3
   5479   5480   5499   5489     1  0.0000000  1.2552000  3
   5480   5479   5477   5496     1  0.0000000  0.6508444  3
   5480   5479   5486   5488     1  0.0000000  1.0460000  1
   5480   5479   5486   5488     1  0.0000000  0.6694400  3
   5480   5481   5485   5495     1  0.0000000  1.0460000  1
   5480   5481   5485   5495     1  0.0000000  0.6694400  3
   5481   5480   5479   5483     1  0.0000000  0.6508444  3
   5481   5480   5499   5489     1  0.0000000  1.2552000  3
   5482   5480   5479   5486     1  0.0000000  1.0460000  1
   5482   5480   5479   5486     1  0.0000000  0.0000000  3
   5482   5480   5479   5483     1  0.0000000  0.6508444  3
   5482   5480   5481   5485     1  0.0000000  1.0460000  1
   5482   5480   5481   5485     1  0.0000000  0.0000000  3
   5482   5480   5481   5494     1  0.0000000  1.0460000  1
   5482   5480   5481   5494     1  0.0000000  0.0000000  3
   5482   5480   5481   5484     1  0.0000000  0.6508444  3
   5482   5480   5499   5489     1  0.0000000  1.2552000  3
   5483   5479   5477   5497     1  0.0000000  1.0460000  1
   5483   5479   5477   5497     1  0.0000000  0.0000000  3
   5483   5479   5477   5496     1  0.0000000  0.6508444  3
   5483   5479   5480   5499     1  0.0000000  0.6508444  3
   5483   5479   5486   5488     1  0.0000000  0.6973333  3
   5484   5481   5480   5499     1  0.0000000  0.6508444  3
   5484   5481   5485   5495     1  0.0000000  0.6973333  3
   5486   5479   5477   5496     1  0.0000000  1.0460000  1
   5486   5479   5477   5496     1  0.0000000  0.0000000  3
   5487   5476   5477   5496     1  0.0000000  0.6508444  3
   5490   5487   5476   5494     1  0.0000000  1.0460000  1
   5490   5487   5476   5494     1  0.0000000  0.0000000  3
   5490   5487   5492   5493     1  0.0000000  0.6973333  3
   5491   5487   5476   5494     1  0.0000000  1.0460000  1
   5491   5487   5476   5494     1  0.0000000  0.0000000  3
   5491   5487   5492   5493     1  0.0000000  0.6973333  3
   5494   5476   5477   5496     1  0.0000000  1.0460000  1
   5494   5476   5477   5496     1  0.0000000  0.0000000  3
   5494   5481   5485   5495     1  0.0000000  0.6973333  3
   5496   5477   5497   5498     1  0.0000000  0.6973333  3
   5500   5501   5503   5507     1  0.0000000  0.6508444  3
   5500   5501   5521   5522     1  0.0000000  1.0460000  1
   5500   5501   5521   5522     1  0.0000000  0.6694400  3
   5500   5511   5516   5517     1  0.0000000  1.0460000  1
   5500   5511   5516   5517     1  0.0000000  0.6694400  3
   5500   5518   5505   5508     1  0.0000000  1.6038667  3
   5501   5500   5511   5514     1  0.0000000  0.6508444  3
   5501   5500   5511   5515     1  0.0000000  0.6508444  3
   5501   5503   5504   5506     1  0.0000000  0.6508444  3
   5501   5503   5510   5512     1  0.0000000  1.0460000  1
   5501   5503   5510   5512     1  0.0000000  0.6694400  3
   5502   5500   5501   5503     1  0.0000000  0.6508444  3
   5502   5500   5501   5521     1  0.0000000  1.0460000  1
   5502   5500   5501   5521     1  0.0000000  0.0000000  3
   5502   5500   5501   5520     1  0.0000000  0.6508444  3
   5502   5500   5511   5516     1  0.0000000  1.0460000  1
   5502   5500   5511   5516     1  0.0000000  0.0000000  3
   5502   5500   5511   5514     1  0.0000000  0.6508444  3
   5502   5500   5511   5515     1  0.0000000  0.6508444  3
   5502   5500   5518   5505     1  0.0000000  1.6038667  3
   5503   5501   5521   5522     1  0.0000000  1.0460000  1
   5503   5501   5521   5522     1  0.0000000  0.6694400  3
   5503   5504   5505   5508     1  0.0000000  0.6508444  3
   5503   5504   5523   5513     1  0.0000000  1.2552000  3
   5504   5503   5501   5520     1  0.0000000  0.6508444  3
   5504   5503   5510   5512     1  0.0000000  1.0460000  1
   5504   5503   5510   5512     1  0.0000000  0.6694400  3
   5504   5505   5509   5519     1  0.0000000  1.0460000  1
   5504   5505   5509   5519     1  0.0000000  0.6694400  3
   5505   5504   5503   5507     1  0.0000000  0.6508444  3
   5505   5504   5523   5513     1  0.0000000  1.2552000  3
   5506   5504   5503   5510     1  0.0000000  1.0460000  1
   5506   5504   5503   5510     1  0.0000000  0.0000000  3
   5506   5504   5503   5507     1  0.0000000  0.6508444  3
   5506   5504   5505   5509     1  0.0000000  1.0460000  1
   5506   5504   5505   5509     1  0.0000000  0.0000000  3
   5506   5504   5505   5518     1  0.0000000  1.0460000  1
   5506   5504   5505   5518     1  0.0000000  0.0000000  3
   5506   5504   5505   5508     1  0.0000000  0.6508444  3
   5506   5504   5523   5513     1  0.0000000  1.2552000  3
   5507   5503   5501   5521     1  0.0000000  1.0460000  1
   5507   5503   5501   5521     1  0.0000000  0.0000000  3
   5507   5503   5501   5520     1  0.0000000  0.6508444  3
   5507   5503   5504   5523     1  0.0000000  0.6508444  3
   5507   5503   5510   5512     1  0.0000000  0.6973333  3
   5508   5505   5504   5523     1  0.0000000  0.6508444  3
   5508   5505   5509   5519     1  0.0000000  0.6973333  3
   5510   5503   5501   5520     1  0.0000000  1.0460000  1
   5510   5503   5501   5520     1  0.0000000  0.0000000  3
   5511   5500   5501   5520     1  0.0000000  0.6508444  3
   5514   5511   5500   5518     1  0.0000000  1.0460000  1
   5514   5511   5500   5518     1  0.0000000  0.0000000  3
   5514   5511   5516   5517     1  0.0000000  0.6973333  3
   5515   5511   5500   5518     1  0.0000000  1.0460000  1
   5515   5511   5500   5518     1  0.0000000  0.0000000  3
   5515   5511   5516   5517     1  0.0000000  0.6973333  3
   5518   5500   5501   5520     1  0.0000000  1.0460000  1
   5518   5500   5501   5520     1  0.0000000  0.0000000  3
   5518   5505   5509   5519     1  0.0000000  0.6973333  3
   5520   5501   5521   5522     1  0.0000000  0.6973333  3
   5525   5527   5529   5531     1  0.0000000  0.6508444  3
   5525   5527   5529   5532     1  0.0000000  0.6508444  3
   5526   5525   5527   5529     1  0.0000000  0.0000000  2
   5526   5525   5527   5528     1  0.0000000  0.0000000  2
   5526   5525   5527   5530     1  0.0000000  0.0000000  2
   5527   5529   5533   5598     1  0.0000000  0.6508444  3
   5528   5527   5529   5533     1  0.0000000  0.6508444  3
   5528   5527   5529   5531     1  0.0000000  0.6508444  3
   5528   5527   5529   5532     1  0.0000000  0.6508444  3
   5529   5533   5534   5543     1  0.0000000  0.6508444  3
   5529   5533   5534   5544     1  0.0000000  0.6508444  3
   5529   5533   5535   5536     1  0.0000000  0.6508444  3
   5529   5533   5535   5538     1  0.0000000  0.6508444  3
   5530   5527   5529   5533     1  0.0000000  0.6508444  3
   5530   5527   5529   5531     1  0.0000000  0.6508444  3
   5530   5527   5529   5532     1  0.0000000  0.6508444  3
   5531   5529   5533   5534     1  0.0000000  0.6508444  3
   5531   5529   5533   5535     1  0.0000000  0.6508444  3
   5531   5529   5533   5598     1  0.0000000  0.6508444  3
   5532   5529   5533   5534     1  0.0000000  0.6508444  3
   5532   5529   5533   5535     1  0.0000000  0.6508444  3
   5532   5529   5533   5598     1  0.0000000  0.6508444  3
   5533   5534   5545   5546     1  0.0000000  0.6508444  3
   5533   5534   5545   5547     1  0.0000000  0.6508444  3
   5533   5535   5537   5539     1  0.0000000  0.6508444  3
   5533   5535   5537   5540     1  0.0000000  0.6508444  3
   5534   5533   5535   5536     1  0.0000000  0.6508444  3
   5534   5533   5535   5538     1  0.0000000  0.6508444  3
   5535   5533   5534   5543     1  0.0000000  0.6508444  3
   5535   5533   5534   5544     1  0.0000000  0.6508444  3
   5536   5535   5537   5541     1  0.0000000  0.6508444  3
   5536   5535   5537   5539     1  0.0000000  0.6508444  3
   5536   5535   5537   5540     1  0.0000000  0.6508444  3
   5536   5535   5533   5598     1  0.0000000  0.6508444  3
   5537   5541   5573   5563     1  180.0000771  6.0668000  2
   5537   5541   5573   5563     1  180.0000771  1.4644000  4
   5537   5535   5533   5598     1  0.0000000  0.6508444  3
   5538   5535   5537   5541     1  0.0000000  0.6508444  3
   5538   5535   5537   5539     1  0.0000000  0.6508444  3
   5538   5535   5537   5540     1  0.0000000  0.6508444  3
   5538   5535   5533   5598     1  0.0000000  0.6508444  3
   5539   5537   5541   5542     1  0.0000000  3.3472000  1
   5539   5537   5541   5542     1  0.0000000  0.0000000  2
   5539   5537   5541   5542     1  180.0000771  0.3347200  3
   5539   5537   5541   5573     1  180.0000771  0.0000000  2
   5540   5537   5541   5542     1  0.0000000  3.3472000  1
   5540   5537   5541   5542     1  0.0000000  0.0000000  2
   5540   5537   5541   5542     1  180.0000771  0.3347200  3
   5540   5537   5541   5573     1  180.0000771  0.0000000  2
   5541   5573   5554   5556     1  0.0000000  1.2552000  3
   5542   5541   5573   5563     1  180.0000771  6.0668000  2
   5542   5541   5573   5563     1  180.0000771  1.4644000  4
   5543   5534   5545   5548     1  0.0000000  0.6508444  3
   5543   5534   5545   5546     1  0.0000000  0.6508444  3
   5543   5534   5545   5547     1  0.0000000  0.6508444  3
   5543   5534   5533   5598     1  0.0000000  0.6508444  3
   5544   5534   5545   5548     1  0.0000000  0.6508444  3
   5544   5534   5545   5546     1  0.0000000  0.6508444  3
   5544   5534   5545   5547     1  0.0000000  0.6508444  3
   5544   5534   5533   5598     1  0.0000000  0.6508444  3
   5545   5548   5597   5587     1  180.0000771  6.0668000  2
   5545   5548   5597   5587     1  180.0000771  1.4644000  4
   5545   5534   5533   5598     1  0.0000000  0.6508444  3
   5546   5545   5548   5549     1  0.0000000  3.3472000  1
   5546   5545   5548   5549     1  0.0000000  0.0000000  2
   5546   5545   5548   5549     1  180.0000771  0.3347200  3
   5546   5545   5548   5597     1  180.0000771  0.0000000  2
   5547   5545   5548   5549     1  0.0000000  3.3472000  1
   5547   5545   5548   5549     1  0.0000000  0.0000000  2
   5547   5545   5548   5549     1  180.0000771  0.3347200  3
   5547   5545   5548   5597     1  180.0000771  0.0000000  2
   5548   5597   5578   5580     1  0.0000000  1.2552000  3
   5549   5548   5597   5587     1  180.0000771  6.0668000  2
   5549   5548   5597   5587     1  180.0000771  1.4644000  4
   5550   5551   5553   5557     1  0.0000000  0.6508444  3
   5550   5551   5571   5572     1  0.0000000  1.0460000  1
   5550   5551   5571   5572     1  0.0000000  0.6694400  3
   5550   5561   5566   5567     1  0.0000000  1.0460000  1
   5550   5561   5566   5567     1  0.0000000  0.6694400  3
   5550   5568   5555   5558     1  0.0000000  1.6038667  3
   5551   5553   5554   5556     1  0.0000000  0.6508444  3
   5551   5553   5560   5562     1  0.0000000  1.0460000  1
   5551   5553   5560   5562     1  0.0000000  0.6694400  3
   5551   5550   5561   5564     1  0.0000000  0.6508444  3
   5551   5550   5561   5565     1  0.0000000  0.6508444  3
   5552   5550   5551   5553     1  0.0000000  0.6508444  3
   5552   5550   5551   5571     1  0.0000000  1.0460000  1
   5552   5550   5551   5571     1  0.0000000  0.0000000  3
   5552   5550   5551   5570     1  0.0000000  0.6508444  3
   5552   5550   5561   5566     1  0.0000000  1.0460000  1
   5552   5550   5561   5566     1  0.0000000  0.0000000  3
   5552   5550   5561   5564     1  0.0000000  0.6508444  3
   5552   5550   5561   5565     1  0.0000000  0.6508444  3
   5552   5550   5568   5555     1  0.0000000  1.6038667  3
   5553   5554   5555   5558     1  0.0000000  0.6508444  3
   5553   5554   5573   5563     1  0.0000000  1.2552000  3
   5553   5551   5571   5572     1  0.0000000  1.0460000  1
   5553   5551   5571   5572     1  0.0000000  0.6694400  3
   5554   5555   5559   5569     1  0.0000000  1.0460000  1
   5554   5555   5559   5569     1  0.0000000  0.6694400  3
   5554   5553   5560   5562     1  0.0000000  1.0460000  1
   5554   5553   5560   5562     1  0.0000000  0.6694400  3
   5554   5553   5551   5570     1  0.0000000  0.6508444  3
   5555   5554   5573   5563     1  0.0000000  1.2552000  3
   5555   5554   5553   5557     1  0.0000000  0.6508444  3
   5556   5554   5555   5559     1  0.0000000  1.0460000  1
   5556   5554   5555   5559     1  0.0000000  0.0000000  3
   5556   5554   5555   5568     1  0.0000000  1.0460000  1
   5556   5554   5555   5568     1  0.0000000  0.0000000  3
   5556   5554   5555   5558     1  0.0000000  0.6508444  3
   5556   5554   5573   5563     1  0.0000000  1.2552000  3
   5556   5554   5553   5560     1  0.0000000  1.0460000  1
   5556   5554   5553   5560     1  0.0000000  0.0000000  3
   5556   5554   5553   5557     1  0.0000000  0.6508444  3
   5557   5553   5554   5573     1  0.0000000  0.6508444  3
   5557   5553   5560   5562     1  0.0000000  0.6973333  3
   5557   5553   5551   5571     1  0.0000000  1.0460000  1
   5557   5553   5551   5571     1  0.0000000  0.0000000  3
   5557   5553   5551   5570     1  0.0000000  0.6508444  3
   5558   5555   5559   5569     1  0.0000000  0.6973333  3
   5558   5555   5554   5573     1  0.0000000  0.6508444  3
   5560   5553   5551   5570     1  0.0000000  1.0460000  1
   5560   5553   5551   5570     1  0.0000000  0.0000000  3
   5561   5550   5551   5570     1  0.0000000  0.6508444  3
   5564   5561   5566   5567     1  0.0000000  0.6973333  3
   5564   5561   5550   5568     1  0.0000000  1.0460000  1
   5564   5561   5550   5568     1  0.0000000  0.0000000  3
   5565   5561   5566   5567     1  0.0000000  0.6973333  3
   5565   5561   5550   5568     1  0.0000000  1.0460000  1
   5565   5561   5550   5568     1  0.0000000  0.0000000  3
   5568   5555   5559   5569     1  0.0000000  0.6973333  3
   5568   5550   5551   5570     1  0.0000000  1.0460000  1
   5568   5550   5551   5570     1  0.0000000  0.0000000  3
   5570   5551   5571   5572     1  0.0000000  0.6973333  3
   5574   5575   5577   5581     1  0.0000000  0.6508444  3
   5574   5575   5595   5596     1  0.0000000  1.0460000  1
   5574   5575   5595   5596     1  0.0000000  0.6694400  3
   5574   5585   5590   5591     1  0.0000000  1.0460000  1
   5574   5585   5590   5591     1  0.0000000  0.6694400  3
   5574   5592   5579   5582     1  0.0000000  1.6038667  3
   5575   5577   5578   5580     1  0.0000000  0.6508444  3
   5575   5577   5584   5586     1  0.0000000  1.0460000  1
   5575   5577   5584   5586     1  0.0000000  0.6694400  3
   5575   5574   5585   5588     1  0.0000000  0.6508444  3
   5575   5574   5585   5589     1  0.0000000  0.6508444  3
   5576   5574   5575   5577     1  0.0000000  0.6508444  3
   5576   5574   5575   5595     1  0.0000000  1.0460000  1
   5576   5574   5575   5595     1  0.0000000  0.0000000  3
   5576   5574   5575   5594     1  0.0000000  0.6508444  3
   5576   5574   5585   5590     1  0.0000000  1.0460000  1
   5576   5574   5585   5590     1  0.0000000  0.0000000  3
   5576   5574   5585   5588     1  0.0000000  0.6508444  3
   5576   5574   5585   5589     1  0.0000000  0.6508444  3
   5576   5574   5592   5579     1  0.0000000  1.6038667  3
   5577   5578   5579   5582     1  0.0000000  0.6508444  3
   5577   5578   5597   5587     1  0.0000000  1.2552000  3
   5577   5575   5595   5596     1  0.0000000  1.0460000  1
   5577   5575   5595   5596     1  0.0000000  0.6694400  3
   5578   5579   5583   5593     1  0.0000000  1.0460000  1
   5578   5579   5583   5593     1  0.0000000  0.6694400  3
   5578   5577   5584   5586     1  0.0000000  1.0460000  1
   5578   5577   5584   5586     1  0.0000000  0.6694400  3
   5578   5577   5575   5594     1  0.0000000  0.6508444  3
   5579   5578   5597   5587     1  0.0000000  1.2552000  3
   5579   5578   5577   5581     1  0.0000000  0.6508444  3
   5580   5578   5579   5583     1  0.0000000  1.0460000  1
   5580   5578   5579   5583     1  0.0000000  0.0000000  3
   5580   5578   5579   5592     1  0.0000000  1.0460000  1
   5580   5578   5579   5592     1  0.0000000  0.0000000  3
   5580   5578   5579   5582     1  0.0000000  0.6508444  3
   5580   5578   5597   5587     1  0.0000000  1.2552000  3
   5580   5578   5577   5584     1  0.0000000  1.0460000  1
   5580   5578   5577   5584     1  0.0000000  0.0000000  3
   5580   5578   5577   5581     1  0.0000000  0.6508444  3
   5581   5577   5578   5597     1  0.0000000  0.6508444  3
   5581   5577   5584   5586     1  0.0000000  0.6973333  3
   5581   5577   5575   5595     1  0.0000000  1.0460000  1
   5581   5577   5575   5595     1  0.0000000  0.0000000  3
   5581   5577   5575   5594     1  0.0000000  0.6508444  3
   5582   5579   5583   5593     1  0.0000000  0.6973333  3
   5582   5579   5578   5597     1  0.0000000  0.6508444  3
   5584   5577   5575   5594     1  0.0000000  1.0460000  1
   5584   5577   5575   5594     1  0.0000000  0.0000000  3
   5585   5574   5575   5594     1  0.0000000  0.6508444  3
   5588   5585   5590   5591     1  0.0000000  0.6973333  3
   5588   5585   5574   5592     1  0.0000000  1.0460000  1
   5588   5585   5574   5592     1  0.0000000  0.0000000  3
   5589   5585   5590   5591     1  0.0000000  0.6973333  3
   5589   5585   5574   5592     1  0.0000000  1.0460000  1
   5589   5585   5574   5592     1  0.0000000  0.0000000  3
   5592   5579   5583   5593     1  0.0000000  0.6973333  3
   5592   5574   5575   5594     1  0.0000000  1.0460000  1
   5592   5574   5575   5594     1  0.0000000  0.0000000  3
   5594   5575   5595   5596     1  0.0000000  0.6973333  3
   5599   5601   5603   5605     1  0.0000000  0.6508444  3
   5599   5601   5603   5606     1  0.0000000  0.6508444  3
   5600   5599   5601   5603     1  0.0000000  0.0000000  2
   5600   5599   5601   5602     1  0.0000000  0.0000000  2
   5600   5599   5601   5604     1  0.0000000  0.0000000  2
   5601   5603   5607   5672     1  0.0000000  0.6508444  3
   5602   5601   5603   5607     1  0.0000000  0.6508444  3
   5602   5601   5603   5605     1  0.0000000  0.6508444  3
   5602   5601   5603   5606     1  0.0000000  0.6508444  3
   5603   5607   5608   5617     1  0.0000000  0.6508444  3
   5603   5607   5608   5618     1  0.0000000  0.6508444  3
   5603   5607   5609   5610     1  0.0000000  0.6508444  3
   5603   5607   5609   5612     1  0.0000000  0.6508444  3
   5604   5601   5603   5607     1  0.0000000  0.6508444  3
   5604   5601   5603   5605     1  0.0000000  0.6508444  3
   5604   5601   5603   5606     1  0.0000000  0.6508444  3
   5605   5603   5607   5608     1  0.0000000  0.6508444  3
   5605   5603   5607   5609     1  0.0000000  0.6508444  3
   5605   5603   5607   5672     1  0.0000000  0.6508444  3
   5606   5603   5607   5608     1  0.0000000  0.6508444  3
   5606   5603   5607   5609     1  0.0000000  0.6508444  3
   5606   5603   5607   5672     1  0.0000000  0.6508444  3
   5607   5608   5619   5620     1  0.0000000  0.6508444  3
   5607   5608   5619   5621     1  0.0000000  0.6508444  3
   5607   5609   5611   5613     1  0.0000000  0.6508444  3
   5607   5609   5611   5614     1  0.0000000  0.6508444  3
   5608   5607   5609   5610     1  0.0000000  0.6508444  3
   5608   5607   5609   5612     1  0.0000000  0.6508444  3
   5609   5607   5608   5617     1  0.0000000  0.6508444  3
   5609   5607   5608   5618     1  0.0000000  0.6508444  3
   5610   5609   5607   5672     1  0.0000000  0.6508444  3
   5610   5609   5611   5615     1  0.0000000  0.6508444  3
   5610   5609   5611   5613     1  0.0000000  0.6508444  3
   5610   5609   5611   5614     1  0.0000000  0.6508444  3
   5611   5609   5607   5672     1  0.0000000  0.6508444  3
   5611   5615   5647   5637     1  180.0000771  6.0668000  2
   5611   5615   5647   5637     1  180.0000771  1.4644000  4
   5612   5609   5607   5672     1  0.0000000  0.6508444  3
   5612   5609   5611   5615     1  0.0000000  0.6508444  3
   5612   5609   5611   5613     1  0.0000000  0.6508444  3
   5612   5609   5611   5614     1  0.0000000  0.6508444  3
   5613   5611   5615   5616     1  0.0000000  3.3472000  1
   5613   5611   5615   5616     1  0.0000000  0.0000000  2
   5613   5611   5615   5616     1  180.0000771  0.3347200  3
   5613   5611   5615   5647     1  180.0000771  0.0000000  2
   5614   5611   5615   5616     1  0.0000000  3.3472000  1
   5614   5611   5615   5616     1  0.0000000  0.0000000  2
   5614   5611   5615   5616     1  180.0000771  0.3347200  3
   5614   5611   5615   5647     1  180.0000771  0.0000000  2
   5615   5647   5628   5630     1  0.0000000  1.2552000  3
   5616   5615   5647   5637     1  180.0000771  6.0668000  2
   5616   5615   5647   5637     1  180.0000771  1.4644000  4
   5617   5608   5607   5672     1  0.0000000  0.6508444  3
   5617   5608   5619   5622     1  0.0000000  0.6508444  3
   5617   5608   5619   5620     1  0.0000000  0.6508444  3
   5617   5608   5619   5621     1  0.0000000  0.6508444  3
   5618   5608   5607   5672     1  0.0000000  0.6508444  3
   5618   5608   5619   5622     1  0.0000000  0.6508444  3
   5618   5608   5619   5620     1  0.0000000  0.6508444  3
   5618   5608   5619   5621     1  0.0000000  0.6508444  3
   5619   5608   5607   5672     1  0.0000000  0.6508444  3
   5619   5622   5671   5661     1  180.0000771  6.0668000  2
   5619   5622   5671   5661     1  180.0000771  1.4644000  4
   5620   5619   5622   5623     1  0.0000000  3.3472000  1
   5620   5619   5622   5623     1  0.0000000  0.0000000  2
   5620   5619   5622   5623     1  180.0000771  0.3347200  3
   5620   5619   5622   5671     1  180.0000771  0.0000000  2
   5621   5619   5622   5623     1  0.0000000  3.3472000  1
   5621   5619   5622   5623     1  0.0000000  0.0000000  2
   5621   5619   5622   5623     1  180.0000771  0.3347200  3
   5621   5619   5622   5671     1  180.0000771  0.0000000  2
   5622   5671   5652   5654     1  0.0000000  1.2552000  3
   5623   5622   5671   5661     1  180.0000771  6.0668000  2
   5623   5622   5671   5661     1  180.0000771  1.4644000  4
   5624   5625   5627   5631     1  0.0000000  0.6508444  3
   5624   5625   5645   5646     1  0.0000000  1.0460000  1
   5624   5625   5645   5646     1  0.0000000  0.6694400  3
   5624   5635   5640   5641     1  0.0000000  1.0460000  1
   5624   5635   5640   5641     1  0.0000000  0.6694400  3
   5624   5642   5629   5632     1  0.0000000  1.6038667  3
   5625   5624   5635   5638     1  0.0000000  0.6508444  3
   5625   5624   5635   5639     1  0.0000000  0.6508444  3
   5625   5627   5628   5630     1  0.0000000  0.6508444  3
   5625   5627   5634   5636     1  0.0000000  1.0460000  1
   5625   5627   5634   5636     1  0.0000000  0.6694400  3
   5626   5624   5625   5627     1  0.0000000  0.6508444  3
   5626   5624   5625   5645     1  0.0000000  1.0460000  1
   5626   5624   5625   5645     1  0.0000000  0.0000000  3
   5626   5624   5625   5644     1  0.0000000  0.6508444  3
   5626   5624   5635   5640     1  0.0000000  1.0460000  1
   5626   5624   5635   5640     1  0.0000000  0.0000000  3
   5626   5624   5635   5638     1  0.0000000  0.6508444  3
   5626   5624   5635   5639     1  0.0000000  0.6508444  3
   5626   5624   5642   5629     1  0.0000000  1.6038667  3
   5627   5625   5645   5646     1  0.0000000  1.0460000  1
   5627   5625   5645   5646     1  0.0000000  0.6694400  3
   5627   5628   5629   5632     1  0.0000000  0.6508444  3
   5627   5628   5647   5637     1  0.0000000  1.2552000  3
   5628   5627   5625   5644     1  0.0000000  0.6508444  3
   5628   5627   5634   5636     1  0.0000000  1.0460000  1
   5628   5627   5634   5636     1  0.0000000  0.6694400  3
   5628   5629   5633   5643     1  0.0000000  1.0460000  1
   5628   5629   5633   5643     1  0.0000000  0.6694400  3
   5629   5628   5627   5631     1  0.0000000  0.6508444  3
   5629   5628   5647   5637     1  0.0000000  1.2552000  3
   5630   5628   5627   5634     1  0.0000000  1.0460000  1
   5630   5628   5627   5634     1  0.0000000  0.0000000  3
   5630   5628   5627   5631     1  0.0000000  0.6508444  3
   5630   5628   5629   5633     1  0.0000000  1.0460000  1
   5630   5628   5629   5633     1  0.0000000  0.0000000  3
   5630   5628   5629   5642     1  0.0000000  1.0460000  1
   5630   5628   5629   5642     1  0.0000000  0.0000000  3
   5630   5628   5629   5632     1  0.0000000  0.6508444  3
   5630   5628   5647   5637     1  0.0000000  1.2552000  3
   5631   5627   5625   5645     1  0.0000000  1.0460000  1
   5631   5627   5625   5645     1  0.0000000  0.0000000  3
   5631   5627   5625   5644     1  0.0000000  0.6508444  3
   5631   5627   5628   5647     1  0.0000000  0.6508444  3
   5631   5627   5634   5636     1  0.0000000  0.6973333  3
   5632   5629   5628   5647     1  0.0000000  0.6508444  3
   5632   5629   5633   5643     1  0.0000000  0.6973333  3
   5634   5627   5625   5644     1  0.0000000  1.0460000  1
   5634   5627   5625   5644     1  0.0000000  0.0000000  3
   5635   5624   5625   5644     1  0.0000000  0.6508444  3
   5638   5635   5624   5642     1  0.0000000  1.0460000  1
   5638   5635   5624   5642     1  0.0000000  0.0000000  3
   5638   5635   5640   5641     1  0.0000000  0.6973333  3
   5639   5635   5624   5642     1  0.0000000  1.0460000  1
   5639   5635   5624   5642     1  0.0000000  0.0000000  3
   5639   5635   5640   5641     1  0.0000000  0.6973333  3
   5642   5624   5625   5644     1  0.0000000  1.0460000  1
   5642   5624   5625   5644     1  0.0000000  0.0000000  3
   5642   5629   5633   5643     1  0.0000000  0.6973333  3
   5644   5625   5645   5646     1  0.0000000  0.6973333  3
   5648   5649   5651   5655     1  0.0000000  0.6508444  3
   5648   5649   5669   5670     1  0.0000000  1.0460000  1
   5648   5649   5669   5670     1  0.0000000  0.6694400  3
   5648   5659   5664   5665     1  0.0000000  1.0460000  1
   5648   5659   5664   5665     1  0.0000000  0.6694400  3
   5648   5666   5653   5656     1  0.0000000  1.6038667  3
   5649   5648   5659   5662     1  0.0000000  0.6508444  3
   5649   5648   5659   5663     1  0.0000000  0.6508444  3
   5649   5651   5652   5654     1  0.0000000  0.6508444  3
   5649   5651   5658   5660     1  0.0000000  1.0460000  1
   5649   5651   5658   5660     1  0.0000000  0.6694400  3
   5650   5648   5649   5651     1  0.0000000  0.6508444  3
   5650   5648   5649   5669     1  0.0000000  1.0460000  1
   5650   5648   5649   5669     1  0.0000000  0.0000000  3
   5650   5648   5649   5668     1  0.0000000  0.6508444  3
   5650   5648   5659   5664     1  0.0000000  1.0460000  1
   5650   5648   5659   5664     1  0.0000000  0.0000000  3
   5650   5648   5659   5662     1  0.0000000  0.6508444  3
   5650   5648   5659   5663     1  0.0000000  0.6508444  3
   5650   5648   5666   5653     1  0.0000000  1.6038667  3
   5651   5649   5669   5670     1  0.0000000  1.0460000  1
   5651   5649   5669   5670     1  0.0000000  0.6694400  3
   5651   5652   5653   5656     1  0.0000000  0.6508444  3
   5651   5652   5671   5661     1  0.0000000  1.2552000  3
   5652   5651   5649   5668     1  0.0000000  0.6508444  3
   5652   5651   5658   5660     1  0.0000000  1.0460000  1
   5652   5651   5658   5660     1  0.0000000  0.6694400  3
   5652   5653   5657   5667     1  0.0000000  1.0460000  1
   5652   5653   5657   5667     1  0.0000000  0.6694400  3
   5653   5652   5651   5655     1  0.0000000  0.6508444  3
   5653   5652   5671   5661     1  0.0000000  1.2552000  3
   5654   5652   5651   5658     1  0.0000000  1.0460000  1
   5654   5652   5651   5658     1  0.0000000  0.0000000  3
   5654   5652   5651   5655     1  0.0000000  0.6508444  3
   5654   5652   5653   5657     1  0.0000000  1.0460000  1
   5654   5652   5653   5657     1  0.0000000  0.0000000  3
   5654   5652   5653   5666     1  0.0000000  1.0460000  1
   5654   5652   5653   5666     1  0.0000000  0.0000000  3
   5654   5652   5653   5656     1  0.0000000  0.6508444  3
   5654   5652   5671   5661     1  0.0000000  1.2552000  3
   5655   5651   5649   5669     1  0.0000000  1.0460000  1
   5655   5651   5649   5669     1  0.0000000  0.0000000  3
   5655   5651   5649   5668     1  0.0000000  0.6508444  3
   5655   5651   5652   5671     1  0.0000000  0.6508444  3
   5655   5651   5658   5660     1  0.0000000  0.6973333  3
   5656   5653   5652   5671     1  0.0000000  0.6508444  3
   5656   5653   5657   5667     1  0.0000000  0.6973333  3
   5658   5651   5649   5668     1  0.0000000  1.0460000  1
   5658   5651   5649   5668     1  0.0000000  0.0000000  3
   5659   5648   5649   5668     1  0.0000000  0.6508444  3
   5662   5659   5648   5666     1  0.0000000  1.0460000  1
   5662   5659   5648   5666     1  0.0000000  0.0000000  3
   5662   5659   5664   5665     1  0.0000000  0.6973333  3
   5663   5659   5648   5666     1  0.0000000  1.0460000  1
   5663   5659   5648   5666     1  0.0000000  0.0000000  3
   5663   5659   5664   5665     1  0.0000000  0.6973333  3
   5666   5648   5649   5668     1  0.0000000  1.0460000  1
   5666   5648   5649   5668     1  0.0000000  0.0000000  3
   5666   5653   5657   5667     1  0.0000000  0.6973333  3
   5668   5649   5669   5670     1  0.0000000  0.6973333  3
   5673   5675   5677   5679     1  0.0000000  0.6508444  3
   5673   5675   5677   5680     1  0.0000000  0.6508444  3
   5674   5673   5675   5677     1  0.0000000  0.0000000  2
   5674   5673   5675   5676     1  0.0000000  0.0000000  2
   5674   5673   5675   5678     1  0.0000000  0.0000000  2
   5675   5677   5681   5746     1  0.0000000  0.6508444  3
   5676   5675   5677   5681     1  0.0000000  0.6508444  3
   5676   5675   5677   5679     1  0.0000000  0.6508444  3
   5676   5675   5677   5680     1  0.0000000  0.6508444  3
   5677   5681   5682   5691     1  0.0000000  0.6508444  3
   5677   5681   5682   5692     1  0.0000000  0.6508444  3
   5677   5681   5683   5684     1  0.0000000  0.6508444  3
   5677   5681   5683   5686     1  0.0000000  0.6508444  3
   5678   5675   5677   5681     1  0.0000000  0.6508444  3
   5678   5675   5677   5679     1  0.0000000  0.6508444  3
   5678   5675   5677   5680     1  0.0000000  0.6508444  3
   5679   5677   5681   5682     1  0.0000000  0.6508444  3
   5679   5677   5681   5683     1  0.0000000  0.6508444  3
   5679   5677   5681   5746     1  0.0000000  0.6508444  3
   5680   5677   5681   5682     1  0.0000000  0.6508444  3
   5680   5677   5681   5683     1  0.0000000  0.6508444  3
   5680   5677   5681   5746     1  0.0000000  0.6508444  3
   5681   5682   5693   5694     1  0.0000000  0.6508444  3
   5681   5682   5693   5695     1  0.0000000  0.6508444  3
   5681   5683   5685   5687     1  0.0000000  0.6508444  3
   5681   5683   5685   5688     1  0.0000000  0.6508444  3
   5682   5681   5683   5684     1  0.0000000  0.6508444  3
   5682   5681   5683   5686     1  0.0000000  0.6508444  3
   5683   5681   5682   5691     1  0.0000000  0.6508444  3
   5683   5681   5682   5692     1  0.0000000  0.6508444  3
   5684   5683   5685   5689     1  0.0000000  0.6508444  3
   5684   5683   5685   5687     1  0.0000000  0.6508444  3
   5684   5683   5685   5688     1  0.0000000  0.6508444  3
   5684   5683   5681   5746     1  0.0000000  0.6508444  3
   5685   5689   5721   5711     1  180.0000771  6.0668000  2
   5685   5689   5721   5711     1  180.0000771  1.4644000  4
   5685   5683   5681   5746     1  0.0000000  0.6508444  3
   5686   5683   5685   5689     1  0.0000000  0.6508444  3
   5686   5683   5685   5687     1  0.0000000  0.6508444  3
   5686   5683   5685   5688     1  0.0000000  0.6508444  3
   5686   5683   5681   5746     1  0.0000000  0.6508444  3
   5687   5685   5689   5690     1  0.0000000  3.3472000  1
   5687   5685   5689   5690     1  0.0000000  0.0000000  2
   5687   5685   5689   5690     1  180.0000771  0.3347200  3
   5687   5685   5689   5721     1  180.0000771  0.0000000  2
   5688   5685   5689   5690     1  0.0000000  3.3472000  1
   5688   5685   5689   5690     1  0.0000000  0.0000000  2
   5688   5685   5689   5690     1  180.0000771  0.3347200  3
   5688   5685   5689   5721     1  180.0000771  0.0000000  2
   5689   5721   5702   5704     1  0.0000000  1.2552000  3
   5690   5689   5721   5711     1  180.0000771  6.0668000  2
   5690   5689   5721   5711     1  180.0000771  1.4644000  4
   5691   5682   5693   5696     1  0.0000000  0.6508444  3
   5691   5682   5693   5694     1  0.0000000  0.6508444  3
   5691   5682   5693   5695     1  0.0000000  0.6508444  3
   5691   5682   5681   5746     1  0.0000000  0.6508444  3
   5692   5682   5693   5696     1  0.0000000  0.6508444  3
   5692   5682   5693   5694     1  0.0000000  0.6508444  3
   5692   5682   5693   5695     1  0.0000000  0.6508444  3
   5692   5682   5681   5746     1  0.0000000  0.6508444  3
   5693   5696   5745   5735     1  180.0000771  6.0668000  2
   5693   5696   5745   5735     1  180.0000771  1.4644000  4
   5693   5682   5681   5746     1  0.0000000  0.6508444  3
   5694   5693   5696   5697     1  0.0000000  3.3472000  1
   5694   5693   5696   5697     1  0.0000000  0.0000000  2
   5694   5693   5696   5697     1  180.0000771  0.3347200  3
   5694   5693   5696   5745     1  180.0000771  0.0000000  2
   5695   5693   5696   5697     1  0.0000000  3.3472000  1
   5695   5693   5696   5697     1  0.0000000  0.0000000  2
   5695   5693   5696   5697     1  180.0000771  0.3347200  3
   5695   5693   5696   5745     1  180.0000771  0.0000000  2
   5696   5745   5726   5728     1  0.0000000  1.2552000  3
   5697   5696   5745   5735     1  180.0000771  6.0668000  2
   5697   5696   5745   5735     1  180.0000771  1.4644000  4
   5698   5699   5701   5705     1  0.0000000  0.6508444  3
   5698   5699   5719   5720     1  0.0000000  1.0460000  1
   5698   5699   5719   5720     1  0.0000000  0.6694400  3
   5698   5709   5714   5715     1  0.0000000  1.0460000  1
   5698   5709   5714   5715     1  0.0000000  0.6694400  3
   5698   5716   5703   5706     1  0.0000000  1.6038667  3
   5699   5701   5702   5704     1  0.0000000  0.6508444  3
   5699   5701   5708   5710     1  0.0000000  1.0460000  1
   5699   5701   5708   5710     1  0.0000000  0.6694400  3
   5699   5698   5709   5712     1  0.0000000  0.6508444  3
   5699   5698   5709   5713     1  0.0000000  0.6508444  3
   5700   5698   5699   5701     1  0.0000000  0.6508444  3
   5700   5698   5699   5719     1  0.0000000  1.0460000  1
   5700   5698   5699   5719     1  0.0000000  0.0000000  3
   5700   5698   5699   5718     1  0.0000000  0.6508444  3
   5700   5698   5709   5714     1  0.0000000  1.0460000  1
   5700   5698   5709   5714     1  0.0000000  0.0000000  3
   5700   5698   5709   5712     1  0.0000000  0.6508444  3
   5700   5698   5709   5713     1  0.0000000  0.6508444  3
   5700   5698   5716   5703     1  0.0000000  1.6038667  3
   5701   5702   5703   5706     1  0.0000000  0.6508444  3
   5701   5702   5721   5711     1  0.0000000  1.2552000  3
   5701   5699   5719   5720     1  0.0000000  1.0460000  1
   5701   5699   5719   5720     1  0.0000000  0.6694400  3
   5702   5703   5707   5717     1  0.0000000  1.0460000  1
   5702   5703   5707   5717     1  0.0000000  0.6694400  3
   5702   5701   5708   5710     1  0.0000000  1.0460000  1
   5702   5701   5708   5710     1  0.0000000  0.6694400  3
   5702   5701   5699   5718     1  0.0000000  0.6508444  3
   5703   5702   5721   5711     1  0.0000000  1.2552000  3
   5703   5702   5701   5705     1  0.0000000  0.6508444  3
   5704   5702   5703   5707     1  0.0000000  1.0460000  1
   5704   5702   5703   5707     1  0.0000000  0.0000000  3
   5704   5702   5703   5716     1  0.0000000  1.0460000  1
   5704   5702   5703   5716     1  0.0000000  0.0000000  3
   5704   5702   5703   5706     1  0.0000000  0.6508444  3
   5704   5702   5721   5711     1  0.0000000  1.2552000  3
   5704   5702   5701   5708     1  0.0000000  1.0460000  1
   5704   5702   5701   5708     1  0.0000000  0.0000000  3
   5704   5702   5701   5705     1  0.0000000  0.6508444  3
   5705   5701   5702   5721     1  0.0000000  0.6508444  3
   5705   5701   5708   5710     1  0.0000000  0.6973333  3
   5705   5701   5699   5719     1  0.0000000  1.0460000  1
   5705   5701   5699   5719     1  0.0000000  0.0000000  3
   5705   5701   5699   5718     1  0.0000000  0.6508444  3
   5706   5703   5707   5717     1  0.0000000  0.6973333  3
   5706   5703   5702   5721     1  0.0000000  0.6508444  3
   5708   5701   5699   5718     1  0.0000000  1.0460000  1
   5708   5701   5699   5718     1  0.0000000  0.0000000  3
   5709   5698   5699   5718     1  0.0000000  0.6508444  3
   5712   5709   5714   5715     1  0.0000000  0.6973333  3
   5712   5709   5698   5716     1  0.0000000  1.0460000  1
   5712   5709   5698   5716     1  0.0000000  0.0000000  3
   5713   5709   5714   5715     1  0.0000000  0.6973333  3
   5713   5709   5698   5716     1  0.0000000  1.0460000  1
   5713   5709   5698   5716     1  0.0000000  0.0000000  3
   5716   5703   5707   5717     1  0.0000000  0.6973333  3
   5716   5698   5699   5718     1  0.0000000  1.0460000  1
   5716   5698   5699   5718     1  0.0000000  0.0000000  3
   5718   5699   5719   5720     1  0.0000000  0.6973333  3
   5722   5723   5725   5729     1  0.0000000  0.6508444  3
   5722   5723   5743   5744     1  0.0000000  1.0460000  1
   5722   5723   5743   5744     1  0.0000000  0.6694400  3
   5722   5733   5738   5739     1  0.0000000  1.0460000  1
   5722   5733   5738   5739     1  0.0000000  0.6694400  3
   5722   5740   5727   5730     1  0.0000000  1.6038667  3
   5723   5725   5726   5728     1  0.0000000  0.6508444  3
   5723   5725   5732   5734     1  0.0000000  1.0460000  1
   5723   5725   5732   5734     1  0.0000000  0.6694400  3
   5723   5722   5733   5736     1  0.0000000  0.6508444  3
   5723   5722   5733   5737     1  0.0000000  0.6508444  3
   5724   5722   5723   5725     1  0.0000000  0.6508444  3
   5724   5722   5723   5743     1  0.0000000  1.0460000  1
   5724   5722   5723   5743     1  0.0000000  0.0000000  3
   5724   5722   5723   5742     1  0.0000000  0.6508444  3
   5724   5722   5733   5738     1  0.0000000  1.0460000  1
   5724   5722   5733   5738     1  0.0000000  0.0000000  3
   5724   5722   5733   5736     1  0.0000000  0.6508444  3
   5724   5722   5733   5737     1  0.0000000  0.6508444  3
   5724   5722   5740   5727     1  0.0000000  1.6038667  3
   5725   5726   5727   5730     1  0.0000000  0.6508444  3
   5725   5726   5745   5735     1  0.0000000  1.2552000  3
   5725   5723   5743   5744     1  0.0000000  1.0460000  1
   5725   5723   5743   5744     1  0.0000000  0.6694400  3
   5726   5727   5731   5741     1  0.0000000  1.0460000  1
   5726   5727   5731   5741     1  0.0000000  0.6694400  3
   5726   5725   5732   5734     1  0.0000000  1.0460000  1
   5726   5725   5732   5734     1  0.0000000  0.6694400  3
   5726   5725   5723   5742     1  0.0000000  0.6508444  3
   5727   5726   5745   5735     1  0.0000000  1.2552000  3
   5727   5726   5725   5729     1  0.0000000  0.6508444  3
   5728   5726   5727   5731     1  0.0000000  1.0460000  1
   5728   5726   5727   5731     1  0.0000000  0.0000000  3
   5728   5726   5727   5740     1  0.0000000  1.0460000  1
   5728   5726   5727   5740     1  0.0000000  0.0000000  3
   5728   5726   5727   5730     1  0.0000000  0.6508444  3
   5728   5726   5745   5735     1  0.0000000  1.2552000  3
   5728   5726   5725   5732     1  0.0000000  1.0460000  1
   5728   5726   5725   5732     1  0.0000000  0.0000000  3
   5728   5726   5725   5729     1  0.0000000  0.6508444  3
   5729   5725   5726   5745     1  0.0000000  0.6508444  3
   5729   5725   5732   5734     1  0.0000000  0.6973333  3
   5729   5725   5723   5743     1  0.0000000  1.0460000  1
   5729   5725   5723   5743     1  0.0000000  0.0000000  3
   5729   5725   5723   5742     1  0.0000000  0.6508444  3
   5730   5727   5731   5741     1  0.0000000  0.6973333  3
   5730   5727   5726   5745     1  0.0000000  0.6508444  3
   5732   5725   5723   5742     1  0.0000000  1.0460000  1
   5732   5725   5723   5742     1  0.0000000  0.0000000  3
   5733   5722   5723   5742     1  0.0000000  0.6508444  3
   5736   5733   5738   5739     1  0.0000000  0.6973333  3
   5736   5733   5722   5740     1  0.0000000  1.0460000  1
   5736   5733   5722   5740     1  0.0000000  0.0000000  3
   5737   5733   5738   5739     1  0.0000000  0.6973333  3
   5737   5733   5722   5740     1  0.0000000  1.0460000  1
   5737   5733   5722   5740     1  0.0000000  0.0000000  3
   5740   5727   5731   5741     1  0.0000000  0.6973333  3
   5740   5722   5723   5742     1  0.0000000  1.0460000  1
   5740   5722   5723   5742     1  0.0000000  0.0000000  3
   5742   5723   5743   5744     1  0.0000000  0.6973333  3
   5747   5749   5751   5753     1  0.0000000  0.6508444  3
   5747   5749   5751   5754     1  0.0000000  0.6508444  3
   5748   5747   5749   5751     1  0.0000000  0.0000000  2
   5748   5747   5749   5750     1  0.0000000  0.0000000  2
   5748   5747   5749   5752     1  0.0000000  0.0000000  2
   5749   5751   5755   5820     1  0.0000000  0.6508444  3
   5750   5749   5751   5755     1  0.0000000  0.6508444  3
   5750   5749   5751   5753     1  0.0000000  0.6508444  3
   5750   5749   5751   5754     1  0.0000000  0.6508444  3
   5751   5755   5756   5765     1  0.0000000  0.6508444  3
   5751   5755   5756   5766     1  0.0000000  0.6508444  3
   5751   5755   5757   5758     1  0.0000000  0.6508444  3
   5751   5755   5757   5760     1  0.0000000  0.6508444  3
   5752   5749   5751   5755     1  0.0000000  0.6508444  3
   5752   5749   5751   5753     1  0.0000000  0.6508444  3
   5752   5749   5751   5754     1  0.0000000  0.6508444  3
   5753   5751   5755   5756     1  0.0000000  0.6508444  3
   5753   5751   5755   5757     1  0.0000000  0.6508444  3
   5753   5751   5755   5820     1  0.0000000  0.6508444  3
   5754   5751   5755   5756     1  0.0000000  0.6508444  3
   5754   5751   5755   5757     1  0.0000000  0.6508444  3
   5754   5751   5755   5820     1  0.0000000  0.6508444  3
   5755   5756   5767   5768     1  0.0000000  0.6508444  3
   5755   5756   5767   5769     1  0.0000000  0.6508444  3
   5755   5757   5759   5761     1  0.0000000  0.6508444  3
   5755   5757   5759   5762     1  0.0000000  0.6508444  3
   5756   5755   5757   5758     1  0.0000000  0.6508444  3
   5756   5755   5757   5760     1  0.0000000  0.6508444  3
   5757   5755   5756   5765     1  0.0000000  0.6508444  3
   5757   5755   5756   5766     1  0.0000000  0.6508444  3
   5758   5757   5755   5820     1  0.0000000  0.6508444  3
   5758   5757   5759   5763     1  0.0000000  0.6508444  3
   5758   5757   5759   5761     1  0.0000000  0.6508444  3
   5758   5757   5759   5762     1  0.0000000  0.6508444  3
   5759   5757   5755   5820     1  0.0000000  0.6508444  3
   5759   5763   5795   5785     1  180.0000771  6.0668000  2
   5759   5763   5795   5785     1  180.0000771  1.4644000  4
   5760   5757   5755   5820     1  0.0000000  0.6508444  3
   5760   5757   5759   5763     1  0.0000000  0.6508444  3
   5760   5757   5759   5761     1  0.0000000  0.6508444  3
   5760   5757   5759   5762     1  0.0000000  0.6508444  3
   5761   5759   5763   5764     1  0.0000000  3.3472000  1
   5761   5759   5763   5764     1  0.0000000  0.0000000  2
   5761   5759   5763   5764     1  180.0000771  0.3347200  3
   5761   5759   5763   5795     1  180.0000771  0.0000000  2
   5762   5759   5763   5764     1  0.0000000  3.3472000  1
   5762   5759   5763   5764     1  0.0000000  0.0000000  2
   5762   5759   5763   5764     1  180.0000771  0.3347200  3
   5762   5759   5763   5795     1  180.0000771  0.0000000  2
   5763   5795   5776   5778     1  0.0000000  1.2552000  3
   5764   5763   5795   5785     1  180.0000771  6.0668000  2
   5764   5763   5795   5785     1  180.0000771  1.4644000  4
   5765   5756   5755   5820     1  0.0000000  0.6508444  3
   5765   5756   5767   5770     1  0.0000000  0.6508444  3
   5765   5756   5767   5768     1  0.0000000  0.6508444  3
   5765   5756   5767   5769     1  0.0000000  0.6508444  3
   5766   5756   5755   5820     1  0.0000000  0.6508444  3
   5766   5756   5767   5770     1  0.0000000  0.6508444  3
   5766   5756   5767   5768     1  0.0000000  0.6508444  3
   5766   5756   5767   5769     1  0.0000000  0.6508444  3
   5767   5756   5755   5820     1  0.0000000  0.6508444  3
   5767   5770   5819   5809     1  180.0000771  6.0668000  2
   5767   5770   5819   5809     1  180.0000771  1.4644000  4
   5768   5767   5770   5771     1  0.0000000  3.3472000  1
   5768   5767   5770   5771     1  0.0000000  0.0000000  2
   5768   5767   5770   5771     1  180.0000771  0.3347200  3
   5768   5767   5770   5819     1  180.0000771  0.0000000  2
   5769   5767   5770   5771     1  0.0000000  3.3472000  1
   5769   5767   5770   5771     1  0.0000000  0.0000000  2
   5769   5767   5770   5771     1  180.0000771  0.3347200  3
   5769   5767   5770   5819     1  180.0000771  0.0000000  2
   5770   5819   5800   5802     1  0.0000000  1.2552000  3
   5771   5770   5819   5809     1  180.0000771  6.0668000  2
   5771   5770   5819   5809     1  180.0000771  1.4644000  4
   5772   5773   5775   5779     1  0.0000000  0.6508444  3
   5772   5773   5793   5794     1  0.0000000  1.0460000  1
   5772   5773   5793   5794     1  0.0000000  0.6694400  3
   5772   5783   5788   5789     1  0.0000000  1.0460000  1
   5772   5783   5788   5789     1  0.0000000  0.6694400  3
   5772   5790   5777   5780     1  0.0000000  1.6038667  3
   5773   5772   5783   5786     1  0.0000000  0.6508444  3
   5773   5772   5783   5787     1  0.0000000  0.6508444  3
   5773   5775   5776   5778     1  0.0000000  0.6508444  3
   5773   5775   5782   5784     1  0.0000000  1.0460000  1
   5773   5775   5782   5784     1  0.0000000  0.6694400  3
   5774   5772   5773   5775     1  0.0000000  0.6508444  3
   5774   5772   5773   5793     1  0.0000000  1.0460000  1
   5774   5772   5773   5793     1  0.0000000  0.0000000  3
   5774   5772   5773   5792     1  0.0000000  0.6508444  3
   5774   5772   5783   5788     1  0.0000000  1.0460000  1
   5774   5772   5783   5788     1  0.0000000  0.0000000  3
   5774   5772   5783   5786     1  0.0000000  0.6508444  3
   5774   5772   5783   5787     1  0.0000000  0.6508444  3
   5774   5772   5790   5777     1  0.0000000  1.6038667  3
   5775   5773   5793   5794     1  0.0000000  1.0460000  1
   5775   5773   5793   5794     1  0.0000000  0.6694400  3
   5775   5776   5777   5780     1  0.0000000  0.6508444  3
   5775   5776   5795   5785     1  0.0000000  1.2552000  3
   5776   5775   5773   5792     1  0.0000000  0.6508444  3
   5776   5775   5782   5784     1  0.0000000  1.0460000  1
   5776   5775   5782   5784     1  0.0000000  0.6694400  3
   5776   5777   5781   5791     1  0.0000000  1.0460000  1
   5776   5777   5781   5791     1  0.0000000  0.6694400  3
   5777   5776   5775   5779     1  0.0000000  0.6508444  3
   5777   5776   5795   5785     1  0.0000000  1.2552000  3
   5778   5776   5775   5782     1  0.0000000  1.0460000  1
   5778   5776   5775   5782     1  0.0000000  0.0000000  3
   5778   5776   5775   5779     1  0.0000000  0.6508444  3
   5778   5776   5777   5781     1  0.0000000  1.0460000  1
   5778   5776   5777   5781     1  0.0000000  0.0000000  3
   5778   5776   5777   5790     1  0.0000000  1.0460000  1
   5778   5776   5777   5790     1  0.0000000  0.0000000  3
   5778   5776   5777   5780     1  0.0000000  0.6508444  3
   5778   5776   5795   5785     1  0.0000000  1.2552000  3
   5779   5775   5773   5793     1  0.0000000  1.0460000  1
   5779   5775   5773   5793     1  0.0000000  0.0000000  3
   5779   5775   5773   5792     1  0.0000000  0.6508444  3
   5779   5775   5776   5795     1  0.0000000  0.6508444  3
   5779   5775   5782   5784     1  0.0000000  0.6973333  3
   5780   5777   5776   5795     1  0.0000000  0.6508444  3
   5780   5777   5781   5791     1  0.0000000  0.6973333  3
   5782   5775   5773   5792     1  0.0000000  1.0460000  1
   5782   5775   5773   5792     1  0.0000000  0.0000000  3
   5783   5772   5773   5792     1  0.0000000  0.6508444  3
   5786   5783   5772   5790     1  0.0000000  1.0460000  1
   5786   5783   5772   5790     1  0.0000000  0.0000000  3
   5786   5783   5788   5789     1  0.0000000  0.6973333  3
   5787   5783   5772   5790     1  0.0000000  1.0460000  1
   5787   5783   5772   5790     1  0.0000000  0.0000000  3
   5787   5783   5788   5789     1  0.0000000  0.6973333  3
   5790   5772   5773   5792     1  0.0000000  1.0460000  1
   5790   5772   5773   5792     1  0.0000000  0.0000000  3
   5790   5777   5781   5791     1  0.0000000  0.6973333  3
   5792   5773   5793   5794     1  0.0000000  0.6973333  3
   5796   5797   5799   5803     1  0.0000000  0.6508444  3
   5796   5797   5817   5818     1  0.0000000  1.0460000  1
   5796   5797   5817   5818     1  0.0000000  0.6694400  3
   5796   5807   5812   5813     1  0.0000000  1.0460000  1
   5796   5807   5812   5813     1  0.0000000  0.6694400  3
   5796   5814   5801   5804     1  0.0000000  1.6038667  3
   5797   5796   5807   5810     1  0.0000000  0.6508444  3
   5797   5796   5807   5811     1  0.0000000  0.6508444  3
   5797   5799   5800   5802     1  0.0000000  0.6508444  3
   5797   5799   5806   5808     1  0.0000000  1.0460000  1
   5797   5799   5806   5808     1  0.0000000  0.6694400  3
   5798   5796   5797   5799     1  0.0000000  0.6508444  3
   5798   5796   5797   5817     1  0.0000000  1.0460000  1
   5798   5796   5797   5817     1  0.0000000  0.0000000  3
   5798   5796   5797   5816     1  0.0000000  0.6508444  3
   5798   5796   5807   5812     1  0.0000000  1.0460000  1
   5798   5796   5807   5812     1  0.0000000  0.0000000  3
   5798   5796   5807   5810     1  0.0000000  0.6508444  3
   5798   5796   5807   5811     1  0.0000000  0.6508444  3
   5798   5796   5814   5801     1  0.0000000  1.6038667  3
   5799   5797   5817   5818     1  0.0000000  1.0460000  1
   5799   5797   5817   5818     1  0.0000000  0.6694400  3
   5799   5800   5801   5804     1  0.0000000  0.6508444  3
   5799   5800   5819   5809     1  0.0000000  1.2552000  3
   5800   5799   5797   5816     1  0.0000000  0.6508444  3
   5800   5799   5806   5808     1  0.0000000  1.0460000  1
   5800   5799   5806   5808     1  0.0000000  0.6694400  3
   5800   5801   5805   5815     1  0.0000000  1.0460000  1
   5800   5801   5805   5815     1  0.0000000  0.6694400  3
   5801   5800   5799   5803     1  0.0000000  0.6508444  3
   5801   5800   5819   5809     1  0.0000000  1.2552000  3
   5802   5800   5799   5806     1  0.0000000  1.0460000  1
   5802   5800   5799   5806     1  0.0000000  0.0000000  3
   5802   5800   5799   5803     1  0.0000000  0.6508444  3
   5802   5800   5801   5805     1  0.0000000  1.0460000  1
   5802   5800   5801   5805     1  0.0000000  0.0000000  3
   5802   5800   5801   5814     1  0.0000000  1.0460000  1
   5802   5800   5801   5814     1  0.0000000  0.0000000  3
   5802   5800   5801   5804     1  0.0000000  0.6508444  3
   5802   5800   5819   5809     1  0.0000000  1.2552000  3
   5803   5799   5797   5817     1  0.0000000  1.0460000  1
   5803   5799   5797   5817     1  0.0000000  0.0000000  3
   5803   5799   5797   5816     1  0.0000000  0.6508444  3
   5803   5799   5800   5819     1  0.0000000  0.6508444  3
   5803   5799   5806   5808     1  0.0000000  0.6973333  3
   5804   5801   5800   5819     1  0.0000000  0.6508444  3
   5804   5801   5805   5815     1  0.0000000  0.6973333  3
   5806   5799   5797   5816     1  0.0000000  1.0460000  1
   5806   5799   5797   5816     1  0.0000000  0.0000000  3
   5807   5796   5797   5816     1  0.0000000  0.6508444  3
   5810   5807   5796   5814     1  0.0000000  1.0460000  1
   5810   5807   5796   5814     1  0.0000000  0.0000000  3
   5810   5807   5812   5813     1  0.0000000  0.6973333  3
   5811   5807   5796   5814     1  0.0000000  1.0460000  1
   5811   5807   5796   5814     1  0.0000000  0.0000000  3
   5811   5807   5812   5813     1  0.0000000  0.6973333  3
   5814   5796   5797   5816     1  0.0000000  1.0460000  1
   5814   5796   5797   5816     1  0.0000000  0.0000000  3
   5814   5801   5805   5815     1  0.0000000  0.6973333  3
   5816   5797   5817   5818     1  0.0000000  0.6973333  3
   5821   5823   5825   5827     1  0.0000000  0.6508444  3
   5821   5823   5825   5828     1  0.0000000  0.6508444  3
   5822   5821   5823   5825     1  0.0000000  0.0000000  2
   5822   5821   5823   5824     1  0.0000000  0.0000000  2
   5822   5821   5823   5826     1  0.0000000  0.0000000  2
   5823   5825   5829   5894     1  0.0000000  0.6508444  3
   5824   5823   5825   5829     1  0.0000000  0.6508444  3
   5824   5823   5825   5827     1  0.0000000  0.6508444  3
   5824   5823   5825   5828     1  0.0000000  0.6508444  3
   5825   5829   5830   5839     1  0.0000000  0.6508444  3
   5825   5829   5830   5840     1  0.0000000  0.6508444  3
   5825   5829   5831   5832     1  0.0000000  0.6508444  3
   5825   5829   5831   5834     1  0.0000000  0.6508444  3
   5826   5823   5825   5829     1  0.0000000  0.6508444  3
   5826   5823   5825   5827     1  0.0000000  0.6508444  3
   5826   5823   5825   5828     1  0.0000000  0.6508444  3
   5827   5825   5829   5830     1  0.0000000  0.6508444  3
   5827   5825   5829   5831     1  0.0000000  0.6508444  3
   5827   5825   5829   5894     1  0.0000000  0.6508444  3
   5828   5825   5829   5830     1  0.0000000  0.6508444  3
   5828   5825   5829   5831     1  0.0000000  0.6508444  3
   5828   5825   5829   5894     1  0.0000000  0.6508444  3
   5829   5830   5841   5842     1  0.0000000  0.6508444  3
   5829   5830   5841   5843     1  0.0000000  0.6508444  3
   5829   5831   5833   5835     1  0.0000000  0.6508444  3
   5829   5831   5833   5836     1  0.0000000  0.6508444  3
   5830   5829   5831   5832     1  0.0000000  0.6508444  3
   5830   5829   5831   5834     1  0.0000000  0.6508444  3
   5831   5829   5830   5839     1  0.0000000  0.6508444  3
   5831   5829   5830   5840     1  0.0000000  0.6508444  3
   5832   5831   5833   5837     1  0.0000000  0.6508444  3
   5832   5831   5833   5835     1  0.0000000  0.6508444  3
   5832   5831   5833   5836     1  0.0000000  0.6508444  3
   5832   5831   5829   5894     1  0.0000000  0.6508444  3
   5833   5837   5869   5859     1  180.0000771  6.0668000  2
   5833   5837   5869   5859     1  180.0000771  1.4644000  4
   5833   5831   5829   5894     1  0.0000000  0.6508444  3
   5834   5831   5833   5837     1  0.0000000  0.6508444  3
   5834   5831   5833   5835     1  0.0000000  0.6508444  3
   5834   5831   5833   5836     1  0.0000000  0.6508444  3
   5834   5831   5829   5894     1  0.0000000  0.6508444  3
   5835   5833   5837   5838     1  0.0000000  3.3472000  1
   5835   5833   5837   5838     1  0.0000000  0.0000000  2
   5835   5833   5837   5838     1  180.0000771  0.3347200  3
   5835   5833   5837   5869     1  180.0000771  0.0000000  2
   5836   5833   5837   5838     1  0.0000000  3.3472000  1
   5836   5833   5837   5838     1  0.0000000  0.0000000  2
   5836   5833   5837   5838     1  180.0000771  0.3347200  3
   5836   5833   5837   5869     1  180.0000771  0.0000000  2
   5837   5869   5850   5852     1  0.0000000  1.2552000  3
   5838   5837   5869   5859     1  180.0000771  6.0668000  2
   5838   5837   5869   5859     1  180.0000771  1.4644000  4
   5839   5830   5841   5844     1  0.0000000  0.6508444  3
   5839   5830   5841   5842     1  0.0000000  0.6508444  3
   5839   5830   5841   5843     1  0.0000000  0.6508444  3
   5839   5830   5829   5894     1  0.0000000  0.6508444  3
   5840   5830   5841   5844     1  0.0000000  0.6508444  3
   5840   5830   5841   5842     1  0.0000000  0.6508444  3
   5840   5830   5841   5843     1  0.0000000  0.6508444  3
   5840   5830   5829   5894     1  0.0000000  0.6508444  3
   5841   5844   5893   5883     1  180.0000771  6.0668000  2
   5841   5844   5893   5883     1  180.0000771  1.4644000  4
   5841   5830   5829   5894     1  0.0000000  0.6508444  3
   5842   5841   5844   5845     1  0.0000000  3.3472000  1
   5842   5841   5844   5845     1  0.0000000  0.0000000  2
   5842   5841   5844   5845     1  180.0000771  0.3347200  3
   5842   5841   5844   5893     1  180.0000771  0.0000000  2
   5843   5841   5844   5845     1  0.0000000  3.3472000  1
   5843   5841   5844   5845     1  0.0000000  0.0000000  2
   5843   5841   5844   5845     1  180.0000771  0.3347200  3
   5843   5841   5844   5893     1  180.0000771  0.0000000  2
   5844   5893   5874   5876     1  0.0000000  1.2552000  3
   5845   5844   5893   5883     1  180.0000771  6.0668000  2
   5845   5844   5893   5883     1  180.0000771  1.4644000  4
   5846   5847   5849   5853     1  0.0000000  0.6508444  3
   5846   5847   5867   5868     1  0.0000000  1.0460000  1
   5846   5847   5867   5868     1  0.0000000  0.6694400  3
   5846   5857   5862   5863     1  0.0000000  1.0460000  1
   5846   5857   5862   5863     1  0.0000000  0.6694400  3
   5846   5864   5851   5854     1  0.0000000  1.6038667  3
   5847   5849   5850   5852     1  0.0000000  0.6508444  3
   5847   5849   5856   5858     1  0.0000000  1.0460000  1
   5847   5849   5856   5858     1  0.0000000  0.6694400  3
   5847   5846   5857   5860     1  0.0000000  0.6508444  3
   5847   5846   5857   5861     1  0.0000000  0.6508444  3
   5848   5846   5847   5849     1  0.0000000  0.6508444  3
   5848   5846   5847   5867     1  0.0000000  1.0460000  1
   5848   5846   5847   5867     1  0.0000000  0.0000000  3
   5848   5846   5847   5866     1  0.0000000  0.6508444  3
   5848   5846   5857   5862     1  0.0000000  1.0460000  1
   5848   5846   5857   5862     1  0.0000000  0.0000000  3
   5848   5846   5857   5860     1  0.0000000  0.6508444  3
   5848   5846   5857   5861     1  0.0000000  0.6508444  3
   5848   5846   5864   5851     1  0.0000000  1.6038667  3
   5849   5850   5851   5854     1  0.0000000  0.6508444  3
   5849   5850   5869   5859     1  0.0000000  1.2552000  3
   5849   5847   5867   5868     1  0.0000000  1.0460000  1
   5849   5847   5867   5868     1  0.0000000  0.6694400  3
   5850   5851   5855   5865     1  0.0000000  1.0460000  1
   5850   5851   5855   5865     1  0.0000000  0.6694400  3
   5850   5849   5856   5858     1  0.0000000  1.0460000  1
   5850   5849   5856   5858     1  0.0000000  0.6694400  3
   5850   5849   5847   5866     1  0.0000000  0.6508444  3
   5851   5850   5869   5859     1  0.0000000  1.2552000  3
   5851   5850   5849   5853     1  0.0000000  0.6508444  3
   5852   5850   5851   5855     1  0.0000000  1.0460000  1
   5852   5850   5851   5855     1  0.0000000  0.0000000  3
   5852   5850   5851   5864     1  0.0000000  1.0460000  1
   5852   5850   5851   5864     1  0.0000000  0.0000000  3
   5852   5850   5851   5854     1  0.0000000  0.6508444  3
   5852   5850   5869   5859     1  0.0000000  1.2552000  3
   5852   5850   5849   5856     1  0.0000000  1.0460000  1
   5852   5850   5849   5856     1  0.0000000  0.0000000  3
   5852   5850   5849   5853     1  0.0000000  0.6508444  3
   5853   5849   5850   5869     1  0.0000000  0.6508444  3
   5853   5849   5856   5858     1  0.0000000  0.6973333  3
   5853   5849   5847   5867     1  0.0000000  1.0460000  1
   5853   5849   5847   5867     1  0.0000000  0.0000000  3
   5853   5849   5847   5866     1  0.0000000  0.6508444  3
   5854   5851   5855   5865     1  0.0000000  0.6973333  3
   5854   5851   5850   5869     1  0.0000000  0.6508444  3
   5856   5849   5847   5866     1  0.0000000  1.0460000  1
   5856   5849   5847   5866     1  0.0000000  0.0000000  3
   5857   5846   5847   5866     1  0.0000000  0.6508444  3
   5860   5857   5862   5863     1  0.0000000  0.6973333  3
   5860   5857   5846   5864     1  0.0000000  1.0460000  1
   5860   5857   5846   5864     1  0.0000000  0.0000000  3
   5861   5857   5862   5863     1  0.0000000  0.6973333  3
   5861   5857   5846   5864     1  0.0000000  1.0460000  1
   5861   5857   5846   5864     1  0.0000000  0.0000000  3
   5864   5851   5855   5865     1  0.0000000  0.6973333  3
   5864   5846   5847   5866     1  0.0000000  1.0460000  1
   5864   5846   5847   5866     1  0.0000000  0.0000000  3
   5866   5847   5867   5868     1  0.0000000  0.6973333  3
   5870   5871   5873   5877     1  0.0000000  0.6508444  3
   5870   5871   5891   5892     1  0.0000000  1.0460000  1
   5870   5871   5891   5892     1  0.0000000  0.6694400  3
   5870   5881   5886   5887     1  0.0000000  1.0460000  1
   5870   5881   5886   5887     1  0.0000000  0.6694400  3
   5870   5888   5875   5878     1  0.0000000  1.6038667  3
   5871   5873   5874   5876     1  0.0000000  0.6508444  3
   5871   5873   5880   5882     1  0.0000000  1.0460000  1
   5871   5873   5880   5882     1  0.0000000  0.6694400  3
   5871   5870   5881   5884     1  0.0000000  0.6508444  3
   5871   5870   5881   5885     1  0.0000000  0.6508444  3
   5872   5870   5871   5873     1  0.0000000  0.6508444  3
   5872   5870   5871   5891     1  0.0000000  1.0460000  1
   5872   5870   5871   5891     1  0.0000000  0.0000000  3
   5872   5870   5871   5890     1  0.0000000  0.6508444  3
   5872   5870   5881   5886     1  0.0000000  1.0460000  1
   5872   5870   5881   5886     1  0.0000000  0.0000000  3
   5872   5870   5881   5884     1  0.0000000  0.6508444  3
   5872   5870   5881   5885     1  0.0000000  0.6508444  3
   5872   5870   5888   5875     1  0.0000000  1.6038667  3
   5873   5874   5875   5878     1  0.0000000  0.6508444  3
   5873   5874   5893   5883     1  0.0000000  1.2552000  3
   5873   5871   5891   5892     1  0.0000000  1.0460000  1
   5873   5871   5891   5892     1  0.0000000  0.6694400  3
   5874   5875   5879   5889     1  0.0000000  1.0460000  1
   5874   5875   5879   5889     1  0.0000000  0.6694400  3
   5874   5873   5880   5882     1  0.0000000  1.0460000  1
   5874   5873   5880   5882     1  0.0000000  0.6694400  3
   5874   5873   5871   5890     1  0.0000000  0.6508444  3
   5875   5874   5893   5883     1  0.0000000  1.2552000  3
   5875   5874   5873   5877     1  0.0000000  0.6508444  3
   5876   5874   5875   5879     1  0.0000000  1.0460000  1
   5876   5874   5875   5879     1  0.0000000  0.0000000  3
   5876   5874   5875   5888     1  0.0000000  1.0460000  1
   5876   5874   5875   5888     1  0.0000000  0.0000000  3
   5876   5874   5875   5878     1  0.0000000  0.6508444  3
   5876   5874   5893   5883     1  0.0000000  1.2552000  3
   5876   5874   5873   5880     1  0.0000000  1.0460000  1
   5876   5874   5873   5880     1  0.0000000  0.0000000  3
   5876   5874   5873   5877     1  0.0000000  0.6508444  3
   5877   5873   5874   5893     1  0.0000000  0.6508444  3
   5877   5873   5880   5882     1  0.0000000  0.6973333  3
   5877   5873   5871   5891     1  0.0000000  1.0460000  1
   5877   5873   5871   5891     1  0.0000000  0.0000000  3
   5877   5873   5871   5890     1  0.0000000  0.6508444  3
   5878   5875   5879   5889     1  0.0000000  0.6973333  3
   5878   5875   5874   5893     1  0.0000000  0.6508444  3
   5880   5873   5871   5890     1  0.0000000  1.0460000  1
   5880   5873   5871   5890     1  0.0000000  0.0000000  3
   5881   5870   5871   5890     1  0.0000000  0.6508444  3
   5884   5881   5886   5887     1  0.0000000  0.6973333  3
   5884   5881   5870   5888     1  0.0000000  1.0460000  1
   5884   5881   5870   5888     1  0.0000000  0.0000000  3
   5885   5881   5886   5887     1  0.0000000  0.6973333  3
   5885   5881   5870   5888     1  0.0000000  1.0460000  1
   5885   5881   5870   5888     1  0.0000000  0.0000000  3
   5888   5875   5879   5889     1  0.0000000  0.6973333  3
   5888   5870   5871   5890     1  0.0000000  1.0460000  1
   5888   5870   5871   5890     1  0.0000000  0.0000000  3
   5890   5871   5891   5892     1  0.0000000  0.6973333  3
   5895   5897   5899   5901     1  0.0000000  0.6508444  3
   5895   5897   5899   5902     1  0.0000000  0.6508444  3
   5896   5895   5897   5899     1  0.0000000  0.0000000  2
   5896   5895   5897   5898     1  0.0000000  0.0000000  2
   5896   5895   5897   5900     1  0.0000000  0.0000000  2
   5897   5899   5903   5968     1  0.0000000  0.6508444  3
   5898   5897   5899   5903     1  0.0000000  0.6508444  3
   5898   5897   5899   5901     1  0.0000000  0.6508444  3
   5898   5897   5899   5902     1  0.0000000  0.6508444  3
   5899   5903   5904   5913     1  0.0000000  0.6508444  3
   5899   5903   5904   5914     1  0.0000000  0.6508444  3
   5899   5903   5905   5906     1  0.0000000  0.6508444  3
   5899   5903   5905   5908     1  0.0000000  0.6508444  3
   5900   5897   5899   5903     1  0.0000000  0.6508444  3
   5900   5897   5899   5901     1  0.0000000  0.6508444  3
   5900   5897   5899   5902     1  0.0000000  0.6508444  3
   5901   5899   5903   5904     1  0.0000000  0.6508444  3
   5901   5899   5903   5905     1  0.0000000  0.6508444  3
   5901   5899   5903   5968     1  0.0000000  0.6508444  3
   5902   5899   5903   5904     1  0.0000000  0.6508444  3
   5902   5899   5903   5905     1  0.0000000  0.6508444  3
   5902   5899   5903   5968     1  0.0000000  0.6508444  3
   5903   5904   5915   5916     1  0.0000000  0.6508444  3
   5903   5904   5915   5917     1  0.0000000  0.6508444  3
   5903   5905   5907   5909     1  0.0000000  0.6508444  3
   5903   5905   5907   5910     1  0.0000000  0.6508444  3
   5904   5903   5905   5906     1  0.0000000  0.6508444  3
   5904   5903   5905   5908     1  0.0000000  0.6508444  3
   5905   5903   5904   5913     1  0.0000000  0.6508444  3
   5905   5903   5904   5914     1  0.0000000  0.6508444  3
   5906   5905   5903   5968     1  0.0000000  0.6508444  3
   5906   5905   5907   5911     1  0.0000000  0.6508444  3
   5906   5905   5907   5909     1  0.0000000  0.6508444  3
   5906   5905   5907   5910     1  0.0000000  0.6508444  3
   5907   5905   5903   5968     1  0.0000000  0.6508444  3
   5907   5911   5943   5933     1  180.0000771  6.0668000  2
   5907   5911   5943   5933     1  180.0000771  1.4644000  4
   5908   5905   5903   5968     1  0.0000000  0.6508444  3
   5908   5905   5907   5911     1  0.0000000  0.6508444  3
   5908   5905   5907   5909     1  0.0000000  0.6508444  3
   5908   5905   5907   5910     1  0.0000000  0.6508444  3
   5909   5907   5911   5912     1  0.0000000  3.3472000  1
   5909   5907   5911   5912     1  0.0000000  0.0000000  2
   5909   5907   5911   5912     1  180.0000771  0.3347200  3
   5909   5907   5911   5943     1  180.0000771  0.0000000  2
   5910   5907   5911   5912     1  0.0000000  3.3472000  1
   5910   5907   5911   5912     1  0.0000000  0.0000000  2
   5910   5907   5911   5912     1  180.0000771  0.3347200  3
   5910   5907   5911   5943     1  180.0000771  0.0000000  2
   5911   5943   5924   5926     1  0.0000000  1.2552000  3
   5912   5911   5943   5933     1  180.0000771  6.0668000  2
   5912   5911   5943   5933     1  180.0000771  1.4644000  4
   5913   5904   5903   5968     1  0.0000000  0.6508444  3
   5913   5904   5915   5918     1  0.0000000  0.6508444  3
   5913   5904   5915   5916     1  0.0000000  0.6508444  3
   5913   5904   5915   5917     1  0.0000000  0.6508444  3
   5914   5904   5903   5968     1  0.0000000  0.6508444  3
   5914   5904   5915   5918     1  0.0000000  0.6508444  3
   5914   5904   5915   5916     1  0.0000000  0.6508444  3
   5914   5904   5915   5917     1  0.0000000  0.6508444  3
   5915   5904   5903   5968     1  0.0000000  0.6508444  3
   5915   5918   5967   5957     1  180.0000771  6.0668000  2
   5915   5918   5967   5957     1  180.0000771  1.4644000  4
   5916   5915   5918   5919     1  0.0000000  3.3472000  1
   5916   5915   5918   5919     1  0.0000000  0.0000000  2
   5916   5915   5918   5919     1  180.0000771  0.3347200  3
   5916   5915   5918   5967     1  180.0000771  0.0000000  2
   5917   5915   5918   5919     1  0.0000000  3.3472000  1
   5917   5915   5918   5919     1  0.0000000  0.0000000  2
   5917   5915   5918   5919     1  180.0000771  0.3347200  3
   5917   5915   5918   5967     1  180.0000771  0.0000000  2
   5918   5967   5948   5950     1  0.0000000  1.2552000  3
   5919   5918   5967   5957     1  180.0000771  6.0668000  2
   5919   5918   5967   5957     1  180.0000771  1.4644000  4
   5920   5921   5923   5927     1  0.0000000  0.6508444  3
   5920   5921   5941   5942     1  0.0000000  1.0460000  1
   5920   5921   5941   5942     1  0.0000000  0.6694400  3
   5920   5931   5936   5937     1  0.0000000  1.0460000  1
   5920   5931   5936   5937     1  0.0000000  0.6694400  3
   5920   5938   5925   5928     1  0.0000000  1.6038667  3
   5921   5920   5931   5934     1  0.0000000  0.6508444  3
   5921   5920   5931   5935     1  0.0000000  0.6508444  3
   5921   5923   5924   5926     1  0.0000000  0.6508444  3
   5921   5923   5930   5932     1  0.0000000  1.0460000  1
   5921   5923   5930   5932     1  0.0000000  0.6694400  3
   5922   5920   5921   5923     1  0.0000000  0.6508444  3
   5922   5920   5921   5941     1  0.0000000  1.0460000  1
   5922   5920   5921   5941     1  0.0000000  0.0000000  3
   5922   5920   5921   5940     1  0.0000000  0.6508444  3
   5922   5920   5931   5936     1  0.0000000  1.0460000  1
   5922   5920   5931   5936     1  0.0000000  0.0000000  3
   5922   5920   5931   5934     1  0.0000000  0.6508444  3
   5922   5920   5931   5935     1  0.0000000  0.6508444  3
   5922   5920   5938   5925     1  0.0000000  1.6038667  3
   5923   5921   5941   5942     1  0.0000000  1.0460000  1
   5923   5921   5941   5942     1  0.0000000  0.6694400  3
   5923   5924   5925   5928     1  0.0000000  0.6508444  3
   5923   5924   5943   5933     1  0.0000000  1.2552000  3
   5924   5923   5921   5940     1  0.0000000  0.6508444  3
   5924   5923   5930   5932     1  0.0000000  1.0460000  1
   5924   5923   5930   5932     1  0.0000000  0.6694400  3
   5924   5925   5929   5939     1  0.0000000  1.0460000  1
   5924   5925   5929   5939     1  0.0000000  0.6694400  3
   5925   5924   5923   5927     1  0.0000000  0.6508444  3
   5925   5924   5943   5933     1  0.0000000  1.2552000  3
   5926   5924   5923   5930     1  0.0000000  1.0460000  1
   5926   5924   5923   5930     1  0.0000000  0.0000000  3
   5926   5924   5923   5927     1  0.0000000  0.6508444  3
   5926   5924   5925   5929     1  0.0000000  1.0460000  1
   5926   5924   5925   5929     1  0.0000000  0.0000000  3
   5926   5924   5925   5938     1  0.0000000  1.0460000  1
   5926   5924   5925   5938     1  0.0000000  0.0000000  3
   5926   5924   5925   5928     1  0.0000000  0.6508444  3
   5926   5924   5943   5933     1  0.0000000  1.2552000  3
   5927   5923   5921   5941     1  0.0000000  1.0460000  1
   5927   5923   5921   5941     1  0.0000000  0.0000000  3
   5927   5923   5921   5940     1  0.0000000  0.6508444  3
   5927   5923   5924   5943     1  0.0000000  0.6508444  3
   5927   5923   5930   5932     1  0.0000000  0.6973333  3
   5928   5925   5924   5943     1  0.0000000  0.6508444  3
   5928   5925   5929   5939     1  0.0000000  0.6973333  3
   5930   5923   5921   5940     1  0.0000000  1.0460000  1
   5930   5923   5921   5940     1  0.0000000  0.0000000  3
   5931   5920   5921   5940     1  0.0000000  0.6508444  3
   5934   5931   5920   5938     1  0.0000000  1.0460000  1
   5934   5931   5920   5938     1  0.0000000  0.0000000  3
   5934   5931   5936   5937     1  0.0000000  0.6973333  3
   5935   5931   5920   5938     1  0.0000000  1.0460000  1
   5935   5931   5920   5938     1  0.0000000  0.0000000  3
   5935   5931   5936   5937     1  0.0000000  0.6973333  3
   5938   5920   5921   5940     1  0.0000000  1.0460000  1
   5938   5920   5921   5940     1  0.0000000  0.0000000  3
   5938   5925   5929   5939     1  0.0000000  0.6973333  3
   5940   5921   5941   5942     1  0.0000000  0.6973333  3
   5944   5945   5947   5951     1  0.0000000  0.6508444  3
   5944   5945   5965   5966     1  0.0000000  1.0460000  1
   5944   5945   5965   5966     1  0.0000000  0.6694400  3
   5944   5955   5960   5961     1  0.0000000  1.0460000  1
   5944   5955   5960   5961     1  0.0000000  0.6694400  3
   5944   5962   5949   5952     1  0.0000000  1.6038667  3
   5945   5944   5955   5958     1  0.0000000  0.6508444  3
   5945   5944   5955   5959     1  0.0000000  0.6508444  3
   5945   5947   5948   5950     1  0.0000000  0.6508444  3
   5945   5947   5954   5956     1  0.0000000  1.0460000  1
   5945   5947   5954   5956     1  0.0000000  0.6694400  3
   5946   5944   5945   5947     1  0.0000000  0.6508444  3
   5946   5944   5945   5965     1  0.0000000  1.0460000  1
   5946   5944   5945   5965     1  0.0000000  0.0000000  3
   5946   5944   5945   5964     1  0.0000000  0.6508444  3
   5946   5944   5955   5960     1  0.0000000  1.0460000  1
   5946   5944   5955   5960     1  0.0000000  0.0000000  3
   5946   5944   5955   5958     1  0.0000000  0.6508444  3
   5946   5944   5955   5959     1  0.0000000  0.6508444  3
   5946   5944   5962   5949     1  0.0000000  1.6038667  3
   5947   5945   5965   5966     1  0.0000000  1.0460000  1
   5947   5945   5965   5966     1  0.0000000  0.6694400  3
   5947   5948   5949   5952     1  0.0000000  0.6508444  3
   5947   5948   5967   5957     1  0.0000000  1.2552000  3
   5948   5947   5945   5964     1  0.0000000  0.6508444  3
   5948   5947   5954   5956     1  0.0000000  1.0460000  1
   5948   5947   5954   5956     1  0.0000000  0.6694400  3
   5948   5949   5953   5963     1  0.0000000  1.0460000  1
   5948   5949   5953   5963     1  0.0000000  0.6694400  3
   5949   5948   5947   5951     1  0.0000000  0.6508444  3
   5949   5948   5967   5957     1  0.0000000  1.2552000  3
   5950   5948   5947   5954     1  0.0000000  1.0460000  1
   5950   5948   5947   5954     1  0.0000000  0.0000000  3
   5950   5948   5947   5951     1  0.0000000  0.6508444  3
   5950   5948   5949   5953     1  0.0000000  1.0460000  1
   5950   5948   5949   5953     1  0.0000000  0.0000000  3
   5950   5948   5949   5962     1  0.0000000  1.0460000  1
   5950   5948   5949   5962     1  0.0000000  0.0000000  3
   5950   5948   5949   5952     1  0.0000000  0.6508444  3
   5950   5948   5967   5957     1  0.0000000  1.2552000  3
   5951   5947   5945   5965     1  0.0000000  1.0460000  1
   5951   5947   5945   5965     1  0.0000000  0.0000000  3
   5951   5947   5945   5964     1  0.0000000  0.6508444  3
   5951   5947   5948   5967     1  0.0000000  0.6508444  3
   5951   5947   5954   5956     1  0.0000000  0.6973333  3
   5952   5949   5948   5967     1  0.0000000  0.6508444  3
   5952   5949   5953   5963     1  0.0000000  0.6973333  3
   5954   5947   5945   5964     1  0.0000000  1.0460000  1
   5954   5947   5945   5964     1  0.0000000  0.0000000  3
   5955   5944   5945   5964     1  0.0000000  0.6508444  3
   5958   5955   5944   5962     1  0.0000000  1.0460000  1
   5958   5955   5944   5962     1  0.0000000  0.0000000  3
   5958   5955   5960   5961     1  0.0000000  0.6973333  3
   5959   5955   5944   5962     1  0.0000000  1.0460000  1
   5959   5955   5944   5962     1  0.0000000  0.0000000  3
   5959   5955   5960   5961     1  0.0000000  0.6973333  3
   5962   5944   5945   5964     1  0.0000000  1.0460000  1
   5962   5944   5945   5964     1  0.0000000  0.0000000  3
   5962   5949   5953   5963     1  0.0000000  0.6973333  3
   5964   5945   5965   5966     1  0.0000000  0.6973333  3
   5969   5971   5973   5975     1  0.0000000  0.6508444  3
   5969   5971   5973   5976     1  0.0000000  0.6508444  3
   5970   5969   5971   5973     1  0.0000000  0.0000000  2
   5970   5969   5971   5972     1  0.0000000  0.0000000  2
   5970   5969   5971   5974     1  0.0000000  0.0000000  2
   5971   5973   5977   6042     1  0.0000000  0.6508444  3
   5972   5971   5973   5977     1  0.0000000  0.6508444  3
   5972   5971   5973   5975     1  0.0000000  0.6508444  3
   5972   5971   5973   5976     1  0.0000000  0.6508444  3
   5973   5977   5978   5987     1  0.0000000  0.6508444  3
   5973   5977   5978   5988     1  0.0000000  0.6508444  3
   5973   5977   5979   5980     1  0.0000000  0.6508444  3
   5973   5977   5979   5982     1  0.0000000  0.6508444  3
   5974   5971   5973   5977     1  0.0000000  0.6508444  3
   5974   5971   5973   5975     1  0.0000000  0.6508444  3
   5974   5971   5973   5976     1  0.0000000  0.6508444  3
   5975   5973   5977   5978     1  0.0000000  0.6508444  3
   5975   5973   5977   5979     1  0.0000000  0.6508444  3
   5975   5973   5977   6042     1  0.0000000  0.6508444  3
   5976   5973   5977   5978     1  0.0000000  0.6508444  3
   5976   5973   5977   5979     1  0.0000000  0.6508444  3
   5976   5973   5977   6042     1  0.0000000  0.6508444  3
   5977   5978   5989   5990     1  0.0000000  0.6508444  3
   5977   5978   5989   5991     1  0.0000000  0.6508444  3
   5977   5979   5981   5983     1  0.0000000  0.6508444  3
   5977   5979   5981   5984     1  0.0000000  0.6508444  3
   5978   5977   5979   5980     1  0.0000000  0.6508444  3
   5978   5977   5979   5982     1  0.0000000  0.6508444  3
   5979   5977   5978   5987     1  0.0000000  0.6508444  3
   5979   5977   5978   5988     1  0.0000000  0.6508444  3
   5980   5979   5981   5985     1  0.0000000  0.6508444  3
   5980   5979   5981   5983     1  0.0000000  0.6508444  3
   5980   5979   5981   5984     1  0.0000000  0.6508444  3
   5980   5979   5977   6042     1  0.0000000  0.6508444  3
   5981   5985   6017   6007     1  180.0000771  6.0668000  2
   5981   5985   6017   6007     1  180.0000771  1.4644000  4
   5981   5979   5977   6042     1  0.0000000  0.6508444  3
   5982   5979   5981   5985     1  0.0000000  0.6508444  3
   5982   5979   5981   5983     1  0.0000000  0.6508444  3
   5982   5979   5981   5984     1  0.0000000  0.6508444  3
   5982   5979   5977   6042     1  0.0000000  0.6508444  3
   5983   5981   5985   5986     1  0.0000000  3.3472000  1
   5983   5981   5985   5986     1  0.0000000  0.0000000  2
   5983   5981   5985   5986     1  180.0000771  0.3347200  3
   5983   5981   5985   6017     1  180.0000771  0.0000000  2
   5984   5981   5985   5986     1  0.0000000  3.3472000  1
   5984   5981   5985   5986     1  0.0000000  0.0000000  2
   5984   5981   5985   5986     1  180.0000771  0.3347200  3
   5984   5981   5985   6017     1  180.0000771  0.0000000  2
   5985   6017   5998   6000     1  0.0000000  1.2552000  3
   5986   5985   6017   6007     1  180.0000771  6.0668000  2
   5986   5985   6017   6007     1  180.0000771  1.4644000  4
   5987   5978   5989   5992     1  0.0000000  0.6508444  3
   5987   5978   5989   5990     1  0.0000000  0.6508444  3
   5987   5978   5989   5991     1  0.0000000  0.6508444  3
   5987   5978   5977   6042     1  0.0000000  0.6508444  3
   5988   5978   5989   5992     1  0.0000000  0.6508444  3
   5988   5978   5989   5990     1  0.0000000  0.6508444  3
   5988   5978   5989   5991     1  0.0000000  0.6508444  3
   5988   5978   5977   6042     1  0.0000000  0.6508444  3
   5989   5992   6041   6031     1  180.0000771  6.0668000  2
   5989   5992   6041   6031     1  180.0000771  1.4644000  4
   5989   5978   5977   6042     1  0.0000000  0.6508444  3
   5990   5989   5992   5993     1  0.0000000  3.3472000  1
   5990   5989   5992   5993     1  0.0000000  0.0000000  2
   5990   5989   5992   5993     1  180.0000771  0.3347200  3
   5990   5989   5992   6041     1  180.0000771  0.0000000  2
   5991   5989   5992   5993     1  0.0000000  3.3472000  1
   5991   5989   5992   5993     1  0.0000000  0.0000000  2
   5991   5989   5992   5993     1  180.0000771  0.3347200  3
   5991   5989   5992   6041     1  180.0000771  0.0000000  2
   5992   6041   6022   6024     1  0.0000000  1.2552000  3
   5993   5992   6041   6031     1  180.0000771  6.0668000  2
   5993   5992   6041   6031     1  180.0000771  1.4644000  4
   5994   5995   5997   6001     1  0.0000000  0.6508444  3
   5994   5995   6015   6016     1  0.0000000  1.0460000  1
   5994   5995   6015   6016     1  0.0000000  0.6694400  3
   5994   6005   6010   6011     1  0.0000000  1.0460000  1
   5994   6005   6010   6011     1  0.0000000  0.6694400  3
   5994   6012   5999   6002     1  0.0000000  1.6038667  3
   5995   5997   5998   6000     1  0.0000000  0.6508444  3
   5995   5997   6004   6006     1  0.0000000  1.0460000  1
   5995   5997   6004   6006     1  0.0000000  0.6694400  3
   5995   5994   6005   6008     1  0.0000000  0.6508444  3
   5995   5994   6005   6009     1  0.0000000  0.6508444  3
   5996   5994   5995   5997     1  0.0000000  0.6508444  3
   5996   5994   5995   6015     1  0.0000000  1.0460000  1
   5996   5994   5995   6015     1  0.0000000  0.0000000  3
   5996   5994   5995   6014     1  0.0000000  0.6508444  3
   5996   5994   6005   6010     1  0.0000000  1.0460000  1
   5996   5994   6005   6010     1  0.0000000  0.0000000  3
   5996   5994   6005   6008     1  0.0000000  0.6508444  3
   5996   5994   6005   6009     1  0.0000000  0.6508444  3
   5996   5994   6012   5999     1  0.0000000  1.6038667  3
   5997   5998   5999   6002     1  0.0000000  0.6508444  3
   5997   5998   6017   6007     1  0.0000000  1.2552000  3
   5997   5995   6015   6016     1  0.0000000  1.0460000  1
   5997   5995   6015   6016     1  0.0000000  0.6694400  3
   5998   5999   6003   6013     1  0.0000000  1.0460000  1
   5998   5999   6003   6013     1  0.0000000  0.6694400  3
   5998   5997   6004   6006     1  0.0000000  1.0460000  1
   5998   5997   6004   6006     1  0.0000000  0.6694400  3
   5998   5997   5995   6014     1  0.0000000  0.6508444  3
   5999   5998   6017   6007     1  0.0000000  1.2552000  3
   5999   5998   5997   6001     1  0.0000000  0.6508444  3
   6000   5998   5999   6003     1  0.0000000  1.0460000  1
   6000   5998   5999   6003     1  0.0000000  0.0000000  3
   6000   5998   5999   6012     1  0.0000000  1.0460000  1
   6000   5998   5999   6012     1  0.0000000  0.0000000  3
   6000   5998   5999   6002     1  0.0000000  0.6508444  3
   6000   5998   6017   6007     1  0.0000000  1.2552000  3
   6000   5998   5997   6004     1  0.0000000  1.0460000  1
   6000   5998   5997   6004     1  0.0000000  0.0000000  3
   6000   5998   5997   6001     1  0.0000000  0.6508444  3
   6001   5997   5998   6017     1  0.0000000  0.6508444  3
   6001   5997   6004   6006     1  0.0000000  0.6973333  3
   6001   5997   5995   6015     1  0.0000000  1.0460000  1
   6001   5997   5995   6015     1  0.0000000  0.0000000  3
   6001   5997   5995   6014     1  0.0000000  0.6508444  3
   6002   5999   6003   6013     1  0.0000000  0.6973333  3
   6002   5999   5998   6017     1  0.0000000  0.6508444  3
   6004   5997   5995   6014     1  0.0000000  1.0460000  1
   6004   5997   5995   6014     1  0.0000000  0.0000000  3
   6005   5994   5995   6014     1  0.0000000  0.6508444  3
   6008   6005   6010   6011     1  0.0000000  0.6973333  3
   6008   6005   5994   6012     1  0.0000000  1.0460000  1
   6008   6005   5994   6012     1  0.0000000  0.0000000  3
   6009   6005   6010   6011     1  0.0000000  0.6973333  3
   6009   6005   5994   6012     1  0.0000000  1.0460000  1
   6009   6005   5994   6012     1  0.0000000  0.0000000  3
   6012   5999   6003   6013     1  0.0000000  0.6973333  3
   6012   5994   5995   6014     1  0.0000000  1.0460000  1
   6012   5994   5995   6014     1  0.0000000  0.0000000  3
   6014   5995   6015   6016     1  0.0000000  0.6973333  3
   6018   6019   6021   6025     1  0.0000000  0.6508444  3
   6018   6019   6039   6040     1  0.0000000  1.0460000  1
   6018   6019   6039   6040     1  0.0000000  0.6694400  3
   6018   6029   6034   6035     1  0.0000000  1.0460000  1
   6018   6029   6034   6035     1  0.0000000  0.6694400  3
   6018   6036   6023   6026     1  0.0000000  1.6038667  3
   6019   6021   6022   6024     1  0.0000000  0.6508444  3
   6019   6021   6028   6030     1  0.0000000  1.0460000  1
   6019   6021   6028   6030     1  0.0000000  0.6694400  3
   6019   6018   6029   6032     1  0.0000000  0.6508444  3
   6019   6018   6029   6033     1  0.0000000  0.6508444  3
   6020   6018   6019   6021     1  0.0000000  0.6508444  3
   6020   6018   6019   6039     1  0.0000000  1.0460000  1
   6020   6018   6019   6039     1  0.0000000  0.0000000  3
   6020   6018   6019   6038     1  0.0000000  0.6508444  3
   6020   6018   6029   6034     1  0.0000000  1.0460000  1
   6020   6018   6029   6034     1  0.0000000  0.0000000  3
   6020   6018   6029   6032     1  0.0000000  0.6508444  3
   6020   6018   6029   6033     1  0.0000000  0.6508444  3
   6020   6018   6036   6023     1  0.0000000  1.6038667  3
   6021   6022   6023   6026     1  0.0000000  0.6508444  3
   6021   6022   6041   6031     1  0.0000000  1.2552000  3
   6021   6019   6039   6040     1  0.0000000  1.0460000  1
   6021   6019   6039   6040     1  0.0000000  0.6694400  3
   6022   6023   6027   6037     1  0.0000000  1.0460000  1
   6022   6023   6027   6037     1  0.0000000  0.6694400  3
   6022   6021   6028   6030     1  0.0000000  1.0460000  1
   6022   6021   6028   6030     1  0.0000000  0.6694400  3
   6022   6021   6019   6038     1  0.0000000  0.6508444  3
   6023   6022   6041   6031     1  0.0000000  1.2552000  3
   6023   6022   6021   6025     1  0.0000000  0.6508444  3
   6024   6022   6023   6027     1  0.0000000  1.0460000  1
   6024   6022   6023   6027     1  0.0000000  0.0000000  3
   6024   6022   6023   6036     1  0.0000000  1.0460000  1
   6024   6022   6023   6036     1  0.0000000  0.0000000  3
   6024   6022   6023   6026     1  0.0000000  0.6508444  3
   6024   6022   6041   6031     1  0.0000000  1.2552000  3
   6024   6022   6021   6028     1  0.0000000  1.0460000  1
   6024   6022   6021   6028     1  0.0000000  0.0000000  3
   6024   6022   6021   6025     1  0.0000000  0.6508444  3
   6025   6021   6022   6041     1  0.0000000  0.6508444  3
   6025   6021   6028   6030     1  0.0000000  0.6973333  3
   6025   6021   6019   6039     1  0.0000000  1.0460000  1
   6025   6021   6019   6039     1  0.0000000  0.0000000  3
   6025   6021   6019   6038     1  0.0000000  0.6508444  3
   6026   6023   6027   6037     1  0.0000000  0.6973333  3
   6026   6023   6022   6041     1  0.0000000  0.6508444  3
   6028   6021   6019   6038     1  0.0000000  1.0460000  1
   6028   6021   6019   6038     1  0.0000000  0.0000000  3
   6029   6018   6019   6038     1  0.0000000  0.6508444  3
   6032   6029   6034   6035     1  0.0000000  0.6973333  3
   6032   6029   6018   6036     1  0.0000000  1.0460000  1
   6032   6029   6018   6036     1  0.0000000  0.0000000  3
   6033   6029   6034   6035     1  0.0000000  0.6973333  3
   6033   6029   6018   6036     1  0.0000000  1.0460000  1
   6033   6029   6018   6036     1  0.0000000  0.0000000  3
   6036   6023   6027   6037     1  0.0000000  0.6973333  3
   6036   6018   6019   6038     1  0.0000000  1.0460000  1
   6036   6018   6019   6038     1  0.0000000  0.0000000  3
   6038   6019   6039   6040     1  0.0000000  0.6973333  3
   6043   6045   6047   6049     1  0.0000000  0.6508444  3
   6043   6045   6047   6050     1  0.0000000  0.6508444  3
   6044   6043   6045   6047     1  0.0000000  0.0000000  2
   6044   6043   6045   6046     1  0.0000000  0.0000000  2
   6044   6043   6045   6048     1  0.0000000  0.0000000  2
   6045   6047   6051   6116     1  0.0000000  0.6508444  3
   6046   6045   6047   6051     1  0.0000000  0.6508444  3
   6046   6045   6047   6049     1  0.0000000  0.6508444  3
   6046   6045   6047   6050     1  0.0000000  0.6508444  3
   6047   6051   6052   6061     1  0.0000000  0.6508444  3
   6047   6051   6052   6062     1  0.0000000  0.6508444  3
   6047   6051   6053   6054     1  0.0000000  0.6508444  3
   6047   6051   6053   6056     1  0.0000000  0.6508444  3
   6048   6045   6047   6051     1  0.0000000  0.6508444  3
   6048   6045   6047   6049     1  0.0000000  0.6508444  3
   6048   6045   6047   6050     1  0.0000000  0.6508444  3
   6049   6047   6051   6052     1  0.0000000  0.6508444  3
   6049   6047   6051   6053     1  0.0000000  0.6508444  3
   6049   6047   6051   6116     1  0.0000000  0.6508444  3
   6050   6047   6051   6052     1  0.0000000  0.6508444  3
   6050   6047   6051   6053     1  0.0000000  0.6508444  3
   6050   6047   6051   6116     1  0.0000000  0.6508444  3
   6051   6052   6063   6064     1  0.0000000  0.6508444  3
   6051   6052   6063   6065     1  0.0000000  0.6508444  3
   6051   6053   6055   6057     1  0.0000000  0.6508444  3
   6051   6053   6055   6058     1  0.0000000  0.6508444  3
   6052   6051   6053   6054     1  0.0000000  0.6508444  3
   6052   6051   6053   6056     1  0.0000000  0.6508444  3
   6053   6051   6052   6061     1  0.0000000  0.6508444  3
   6053   6051   6052   6062     1  0.0000000  0.6508444  3
   6054   6053   6051   6116     1  0.0000000  0.6508444  3
   6054   6053   6055   6059     1  0.0000000  0.6508444  3
   6054   6053   6055   6057     1  0.0000000  0.6508444  3
   6054   6053   6055   6058     1  0.0000000  0.6508444  3
   6055   6053   6051   6116     1  0.0000000  0.6508444  3
   6055   6059   6091   6081     1  180.0000771  6.0668000  2
   6055   6059   6091   6081     1  180.0000771  1.4644000  4
   6056   6053   6051   6116     1  0.0000000  0.6508444  3
   6056   6053   6055   6059     1  0.0000000  0.6508444  3
   6056   6053   6055   6057     1  0.0000000  0.6508444  3
   6056   6053   6055   6058     1  0.0000000  0.6508444  3
   6057   6055   6059   6060     1  0.0000000  3.3472000  1
   6057   6055   6059   6060     1  0.0000000  0.0000000  2
   6057   6055   6059   6060     1  180.0000771  0.3347200  3
   6057   6055   6059   6091     1  180.0000771  0.0000000  2
   6058   6055   6059   6060     1  0.0000000  3.3472000  1
   6058   6055   6059   6060     1  0.0000000  0.0000000  2
   6058   6055   6059   6060     1  180.0000771  0.3347200  3
   6058   6055   6059   6091     1  180.0000771  0.0000000  2
   6059   6091   6072   6074     1  0.0000000  1.2552000  3
   6060   6059   6091   6081     1  180.0000771  6.0668000  2
   6060   6059   6091   6081     1  180.0000771  1.4644000  4
   6061   6052   6051   6116     1  0.0000000  0.6508444  3
   6061   6052   6063   6066     1  0.0000000  0.6508444  3
   6061   6052   6063   6064     1  0.0000000  0.6508444  3
   6061   6052   6063   6065     1  0.0000000  0.6508444  3
   6062   6052   6051   6116     1  0.0000000  0.6508444  3
   6062   6052   6063   6066     1  0.0000000  0.6508444  3
   6062   6052   6063   6064     1  0.0000000  0.6508444  3
   6062   6052   6063   6065     1  0.0000000  0.6508444  3
   6063   6052   6051   6116     1  0.0000000  0.6508444  3
   6063   6066   6115   6105     1  180.0000771  6.0668000  2
   6063   6066   6115   6105     1  180.0000771  1.4644000  4
   6064   6063   6066   6067     1  0.0000000  3.3472000  1
   6064   6063   6066   6067     1  0.0000000  0.0000000  2
   6064   6063   6066   6067     1  180.0000771  0.3347200  3
   6064   6063   6066   6115     1  180.0000771  0.0000000  2
   6065   6063   6066   6067     1  0.0000000  3.3472000  1
   6065   6063   6066   6067     1  0.0000000  0.0000000  2
   6065   6063   6066   6067     1  180.0000771  0.3347200  3
   6065   6063   6066   6115     1  180.0000771  0.0000000  2
   6066   6115   6096   6098     1  0.0000000  1.2552000  3
   6067   6066   6115   6105     1  180.0000771  6.0668000  2
   6067   6066   6115   6105     1  180.0000771  1.4644000  4
   6068   6069   6071   6075     1  0.0000000  0.6508444  3
   6068   6069   6089   6090     1  0.0000000  1.0460000  1
   6068   6069   6089   6090     1  0.0000000  0.6694400  3
   6068   6079   6084   6085     1  0.0000000  1.0460000  1
   6068   6079   6084   6085     1  0.0000000  0.6694400  3
   6068   6086   6073   6076     1  0.0000000  1.6038667  3
   6069   6068   6079   6082     1  0.0000000  0.6508444  3
   6069   6068   6079   6083     1  0.0000000  0.6508444  3
   6069   6071   6072   6074     1  0.0000000  0.6508444  3
   6069   6071   6078   6080     1  0.0000000  1.0460000  1
   6069   6071   6078   6080     1  0.0000000  0.6694400  3
   6070   6068   6069   6071     1  0.0000000  0.6508444  3
   6070   6068   6069   6089     1  0.0000000  1.0460000  1
   6070   6068   6069   6089     1  0.0000000  0.0000000  3
   6070   6068   6069   6088     1  0.0000000  0.6508444  3
   6070   6068   6079   6084     1  0.0000000  1.0460000  1
   6070   6068   6079   6084     1  0.0000000  0.0000000  3
   6070   6068   6079   6082     1  0.0000000  0.6508444  3
   6070   6068   6079   6083     1  0.0000000  0.6508444  3
   6070   6068   6086   6073     1  0.0000000  1.6038667  3
   6071   6069   6089   6090     1  0.0000000  1.0460000  1
   6071   6069   6089   6090     1  0.0000000  0.6694400  3
   6071   6072   6073   6076     1  0.0000000  0.6508444  3
   6071   6072   6091   6081     1  0.0000000  1.2552000  3
   6072   6071   6069   6088     1  0.0000000  0.6508444  3
   6072   6071   6078   6080     1  0.0000000  1.0460000  1
   6072   6071   6078   6080     1  0.0000000  0.6694400  3
   6072   6073   6077   6087     1  0.0000000  1.0460000  1
   6072   6073   6077   6087     1  0.0000000  0.6694400  3
   6073   6072   6071   6075     1  0.0000000  0.6508444  3
   6073   6072   6091   6081     1  0.0000000  1.2552000  3
   6074   6072   6071   6078     1  0.0000000  1.0460000  1
   6074   6072   6071   6078     1  0.0000000  0.0000000  3
   6074   6072   6071   6075     1  0.0000000  0.6508444  3
   6074   6072   6073   6077     1  0.0000000  1.0460000  1
   6074   6072   6073   6077     1  0.0000000  0.0000000  3
   6074   6072   6073   6086     1  0.0000000  1.0460000  1
   6074   6072   6073   6086     1  0.0000000  0.0000000  3
   6074   6072   6073   6076     1  0.0000000  0.6508444  3
   6074   6072   6091   6081     1  0.0000000  1.2552000  3
   6075   6071   6069   6089     1  0.0000000  1.0460000  1
   6075   6071   6069   6089     1  0.0000000  0.0000000  3
   6075   6071   6069   6088     1  0.0000000  0.6508444  3
   6075   6071   6072   6091     1  0.0000000  0.6508444  3
   6075   6071   6078   6080     1  0.0000000  0.6973333  3
   6076   6073   6072   6091     1  0.0000000  0.6508444  3
   6076   6073   6077   6087     1  0.0000000  0.6973333  3
   6078   6071   6069   6088     1  0.0000000  1.0460000  1
   6078   6071   6069   6088     1  0.0000000  0.0000000  3
   6079   6068   6069   6088     1  0.0000000  0.6508444  3
   6082   6079   6068   6086     1  0.0000000  1.0460000  1
   6082   6079   6068   6086     1  0.0000000  0.0000000  3
   6082   6079   6084   6085     1  0.0000000  0.6973333  3
   6083   6079   6068   6086     1  0.0000000  1.0460000  1
   6083   6079   6068   6086     1  0.0000000  0.0000000  3
   6083   6079   6084   6085     1  0.0000000  0.6973333  3
   6086   6068   6069   6088     1  0.0000000  1.0460000  1
   6086   6068   6069   6088     1  0.0000000  0.0000000  3
   6086   6073   6077   6087     1  0.0000000  0.6973333  3
   6088   6069   6089   6090     1  0.0000000  0.6973333  3
   6092   6093   6095   6099     1  0.0000000  0.6508444  3
   6092   6093   6113   6114     1  0.0000000  1.0460000  1
   6092   6093   6113   6114     1  0.0000000  0.6694400  3
   6092   6103   6108   6109     1  0.0000000  1.0460000  1
   6092   6103   6108   6109     1  0.0000000  0.6694400  3
   6092   6110   6097   6100     1  0.0000000  1.6038667  3
   6093   6092   6103   6106     1  0.0000000  0.6508444  3
   6093   6092   6103   6107     1  0.0000000  0.6508444  3
   6093   6095   6096   6098     1  0.0000000  0.6508444  3
   6093   6095   6102   6104     1  0.0000000  1.0460000  1
   6093   6095   6102   6104     1  0.0000000  0.6694400  3
   6094   6092   6093   6095     1  0.0000000  0.6508444  3
   6094   6092   6093   6113     1  0.0000000  1.0460000  1
   6094   6092   6093   6113     1  0.0000000  0.0000000  3
   6094   6092   6093   6112     1  0.0000000  0.6508444  3
   6094   6092   6103   6108     1  0.0000000  1.0460000  1
   6094   6092   6103   6108     1  0.0000000  0.0000000  3
   6094   6092   6103   6106     1  0.0000000  0.6508444  3
   6094   6092   6103   6107     1  0.0000000  0.6508444  3
   6094   6092   6110   6097     1  0.0000000  1.6038667  3
   6095   6093   6113   6114     1  0.0000000  1.0460000  1
   6095   6093   6113   6114     1  0.0000000  0.6694400  3
   6095   6096   6097   6100     1  0.0000000  0.6508444  3
   6095   6096   6115   6105     1  0.0000000  1.2552000  3
   6096   6095   6093   6112     1  0.0000000  0.6508444  3
   6096   6095   6102   6104     1  0.0000000  1.0460000  1
   6096   6095   6102   6104     1  0.0000000  0.6694400  3
   6096   6097   6101   6111     1  0.0000000  1.0460000  1
   6096   6097   6101   6111     1  0.0000000  0.6694400  3
   6097   6096   6095   6099     1  0.0000000  0.6508444  3
   6097   6096   6115   6105     1  0.0000000  1.2552000  3
   6098   6096   6095   6102     1  0.0000000  1.0460000  1
   6098   6096   6095   6102     1  0.0000000  0.0000000  3
   6098   6096   6095   6099     1  0.0000000  0.6508444  3
   6098   6096   6097   6101     1  0.0000000  1.0460000  1
   6098   6096   6097   6101     1  0.0000000  0.0000000  3
   6098   6096   6097   6110     1  0.0000000  1.0460000  1
   6098   6096   6097   6110     1  0.0000000  0.0000000  3
   6098   6096   6097   6100     1  0.0000000  0.6508444  3
   6098   6096   6115   6105     1  0.0000000  1.2552000  3
   6099   6095   6093   6113     1  0.0000000  1.0460000  1
   6099   6095   6093   6113     1  0.0000000  0.0000000  3
   6099   6095   6093   6112     1  0.0000000  0.6508444  3
   6099   6095   6096   6115     1  0.0000000  0.6508444  3
   6099   6095   6102   6104     1  0.0000000  0.6973333  3
   6100   6097   6096   6115     1  0.0000000  0.6508444  3
   6100   6097   6101   6111     1  0.0000000  0.6973333  3
   6102   6095   6093   6112     1  0.0000000  1.0460000  1
   6102   6095   6093   6112     1  0.0000000  0.0000000  3
   6103   6092   6093   6112     1  0.0000000  0.6508444  3
   6106   6103   6092   6110     1  0.0000000  1.0460000  1
   6106   6103   6092   6110     1  0.0000000  0.0000000  3
   6106   6103   6108   6109     1  0.0000000  0.6973333  3
   6107   6103   6092   6110     1  0.0000000  1.0460000  1
   6107   6103   6092   6110     1  0.0000000  0.0000000  3
   6107   6103   6108   6109     1  0.0000000  0.6973333  3
   6110   6092   6093   6112     1  0.0000000  1.0460000  1
   6110   6092   6093   6112     1  0.0000000  0.0000000  3
   6110   6097   6101   6111     1  0.0000000  0.6973333  3
   6112   6093   6113   6114     1  0.0000000  0.6973333  3
   6117   6119   6121   6123     1  0.0000000  0.6508444  3
   6117   6119   6121   6124     1  0.0000000  0.6508444  3
   6118   6117   6119   6121     1  0.0000000  0.0000000  2
   6118   6117   6119   6120     1  0.0000000  0.0000000  2
   6118   6117   6119   6122     1  0.0000000  0.0000000  2
   6119   6121   6125   6190     1  0.0000000  0.6508444  3
   6120   6119   6121   6125     1  0.0000000  0.6508444  3
   6120   6119   6121   6123     1  0.0000000  0.6508444  3
   6120   6119   6121   6124     1  0.0000000  0.6508444  3
   6121   6125   6126   6135     1  0.0000000  0.6508444  3
   6121   6125   6126   6136     1  0.0000000  0.6508444  3
   6121   6125   6127   6128     1  0.0000000  0.6508444  3
   6121   6125   6127   6130     1  0.0000000  0.6508444  3
   6122   6119   6121   6125     1  0.0000000  0.6508444  3
   6122   6119   6121   6123     1  0.0000000  0.6508444  3
   6122   6119   6121   6124     1  0.0000000  0.6508444  3
   6123   6121   6125   6126     1  0.0000000  0.6508444  3
   6123   6121   6125   6127     1  0.0000000  0.6508444  3
   6123   6121   6125   6190     1  0.0000000  0.6508444  3
   6124   6121   6125   6126     1  0.0000000  0.6508444  3
   6124   6121   6125   6127     1  0.0000000  0.6508444  3
   6124   6121   6125   6190     1  0.0000000  0.6508444  3
   6125   6126   6137   6138     1  0.0000000  0.6508444  3
   6125   6126   6137   6139     1  0.0000000  0.6508444  3
   6125   6127   6129   6131     1  0.0000000  0.6508444  3
   6125   6127   6129   6132     1  0.0000000  0.6508444  3
   6126   6125   6127   6128     1  0.0000000  0.6508444  3
   6126   6125   6127   6130     1  0.0000000  0.6508444  3
   6127   6125   6126   6135     1  0.0000000  0.6508444  3
   6127   6125   6126   6136     1  0.0000000  0.6508444  3
   6128   6127   6129   6133     1  0.0000000  0.6508444  3
   6128   6127   6129   6131     1  0.0000000  0.6508444  3
   6128   6127   6129   6132     1  0.0000000  0.6508444  3
   6128   6127   6125   6190     1  0.0000000  0.6508444  3
   6129   6133   6165   6155     1  180.0000771  6.0668000  2
   6129   6133   6165   6155     1  180.0000771  1.4644000  4
   6129   6127   6125   6190     1  0.0000000  0.6508444  3
   6130   6127   6129   6133     1  0.0000000  0.6508444  3
   6130   6127   6129   6131     1  0.0000000  0.6508444  3
   6130   6127   6129   6132     1  0.0000000  0.6508444  3
   6130   6127   6125   6190     1  0.0000000  0.6508444  3
   6131   6129   6133   6134     1  0.0000000  3.3472000  1
   6131   6129   6133   6134     1  0.0000000  0.0000000  2
   6131   6129   6133   6134     1  180.0000771  0.3347200  3
   6131   6129   6133   6165     1  180.0000771  0.0000000  2
   6132   6129   6133   6134     1  0.0000000  3.3472000  1
   6132   6129   6133   6134     1  0.0000000  0.0000000  2
   6132   6129   6133   6134     1  180.0000771  0.3347200  3
   6132   6129   6133   6165     1  180.0000771  0.0000000  2
   6133   6165   6146   6148     1  0.0000000  1.2552000  3
   6134   6133   6165   6155     1  180.0000771  6.0668000  2
   6134   6133   6165   6155     1  180.0000771  1.4644000  4
   6135   6126   6137   6140     1  0.0000000  0.6508444  3
   6135   6126   6137   6138     1  0.0000000  0.6508444  3
   6135   6126   6137   6139     1  0.0000000  0.6508444  3
   6135   6126   6125   6190     1  0.0000000  0.6508444  3
   6136   6126   6137   6140     1  0.0000000  0.6508444  3
   6136   6126   6137   6138     1  0.0000000  0.6508444  3
   6136   6126   6137   6139     1  0.0000000  0.6508444  3
   6136   6126   6125   6190     1  0.0000000  0.6508444  3
   6137   6140   6189   6179     1  180.0000771  6.0668000  2
   6137   6140   6189   6179     1  180.0000771  1.4644000  4
   6137   6126   6125   6190     1  0.0000000  0.6508444  3
   6138   6137   6140   6141     1  0.0000000  3.3472000  1
   6138   6137   6140   6141     1  0.0000000  0.0000000  2
   6138   6137   6140   6141     1  180.0000771  0.3347200  3
   6138   6137   6140   6189     1  180.0000771  0.0000000  2
   6139   6137   6140   6141     1  0.0000000  3.3472000  1
   6139   6137   6140   6141     1  0.0000000  0.0000000  2
   6139   6137   6140   6141     1  180.0000771  0.3347200  3
   6139   6137   6140   6189     1  180.0000771  0.0000000  2
   6140   6189   6170   6172     1  0.0000000  1.2552000  3
   6141   6140   6189   6179     1  180.0000771  6.0668000  2
   6141   6140   6189   6179     1  180.0000771  1.4644000  4
   6142   6143   6145   6149     1  0.0000000  0.6508444  3
   6142   6143   6163   6164     1  0.0000000  1.0460000  1
   6142   6143   6163   6164     1  0.0000000  0.6694400  3
   6142   6153   6158   6159     1  0.0000000  1.0460000  1
   6142   6153   6158   6159     1  0.0000000  0.6694400  3
   6142   6160   6147   6150     1  0.0000000  1.6038667  3
   6143   6145   6146   6148     1  0.0000000  0.6508444  3
   6143   6145   6152   6154     1  0.0000000  1.0460000  1
   6143   6145   6152   6154     1  0.0000000  0.6694400  3
   6143   6142   6153   6156     1  0.0000000  0.6508444  3
   6143   6142   6153   6157     1  0.0000000  0.6508444  3
   6144   6142   6143   6145     1  0.0000000  0.6508444  3
   6144   6142   6143   6163     1  0.0000000  1.0460000  1
   6144   6142   6143   6163     1  0.0000000  0.0000000  3
   6144   6142   6143   6162     1  0.0000000  0.6508444  3
   6144   6142   6153   6158     1  0.0000000  1.0460000  1
   6144   6142   6153   6158     1  0.0000000  0.0000000  3
   6144   6142   6153   6156     1  0.0000000  0.6508444  3
   6144   6142   6153   6157     1  0.0000000  0.6508444  3
   6144   6142   6160   6147     1  0.0000000  1.6038667  3
   6145   6146   6147   6150     1  0.0000000  0.6508444  3
   6145   6146   6165   6155     1  0.0000000  1.2552000  3
   6145   6143   6163   6164     1  0.0000000  1.0460000  1
   6145   6143   6163   6164     1  0.0000000  0.6694400  3
   6146   6147   6151   6161     1  0.0000000  1.0460000  1
   6146   6147   6151   6161     1  0.0000000  0.6694400  3
   6146   6145   6152   6154     1  0.0000000  1.0460000  1
   6146   6145   6152   6154     1  0.0000000  0.6694400  3
   6146   6145   6143   6162     1  0.0000000  0.6508444  3
   6147   6146   6165   6155     1  0.0000000  1.2552000  3
   6147   6146   6145   6149     1  0.0000000  0.6508444  3
   6148   6146   6147   6151     1  0.0000000  1.0460000  1
   6148   6146   6147   6151     1  0.0000000  0.0000000  3
   6148   6146   6147   6160     1  0.0000000  1.0460000  1
   6148   6146   6147   6160     1  0.0000000  0.0000000  3
   6148   6146   6147   6150     1  0.0000000  0.6508444  3
   6148   6146   6165   6155     1  0.0000000  1.2552000  3
   6148   6146   6145   6152     1  0.0000000  1.0460000  1
   6148   6146   6145   6152     1  0.0000000  0.0000000  3
   6148   6146   6145   6149     1  0.0000000  0.6508444  3
   6149   6145   6146   6165     1  0.0000000  0.6508444  3
   6149   6145   6152   6154     1  0.0000000  0.6973333  3
   6149   6145   6143   6163     1  0.0000000  1.0460000  1
   6149   6145   6143   6163     1  0.0000000  0.0000000  3
   6149   6145   6143   6162     1  0.0000000  0.6508444  3
   6150   6147   6151   6161     1  0.0000000  0.6973333  3
   6150   6147   6146   6165     1  0.0000000  0.6508444  3
   6152   6145   6143   6162     1  0.0000000  1.0460000  1
   6152   6145   6143   6162     1  0.0000000  0.0000000  3
   6153   6142   6143   6162     1  0.0000000  0.6508444  3
   6156   6153   6158   6159     1  0.0000000  0.6973333  3
   6156   6153   6142   6160     1  0.0000000  1.0460000  1
   6156   6153   6142   6160     1  0.0000000  0.0000000  3
   6157   6153   6158   6159     1  0.0000000  0.6973333  3
   6157   6153   6142   6160     1  0.0000000  1.0460000  1
   6157   6153   6142   6160     1  0.0000000  0.0000000  3
   6160   6147   6151   6161     1  0.0000000  0.6973333  3
   6160   6142   6143   6162     1  0.0000000  1.0460000  1
   6160   6142   6143   6162     1  0.0000000  0.0000000  3
   6162   6143   6163   6164     1  0.0000000  0.6973333  3
   6166   6167   6169   6173     1  0.0000000  0.6508444  3
   6166   6167   6187   6188     1  0.0000000  1.0460000  1
   6166   6167   6187   6188     1  0.0000000  0.6694400  3
   6166   6177   6182   6183     1  0.0000000  1.0460000  1
   6166   6177   6182   6183     1  0.0000000  0.6694400  3
   6166   6184   6171   6174     1  0.0000000  1.6038667  3
   6167   6169   6170   6172     1  0.0000000  0.6508444  3
   6167   6169   6176   6178     1  0.0000000  1.0460000  1
   6167   6169   6176   6178     1  0.0000000  0.6694400  3
   6167   6166   6177   6180     1  0.0000000  0.6508444  3
   6167   6166   6177   6181     1  0.0000000  0.6508444  3
   6168   6166   6167   6169     1  0.0000000  0.6508444  3
   6168   6166   6167   6187     1  0.0000000  1.0460000  1
   6168   6166   6167   6187     1  0.0000000  0.0000000  3
   6168   6166   6167   6186     1  0.0000000  0.6508444  3
   6168   6166   6177   6182     1  0.0000000  1.0460000  1
   6168   6166   6177   6182     1  0.0000000  0.0000000  3
   6168   6166   6177   6180     1  0.0000000  0.6508444  3
   6168   6166   6177   6181     1  0.0000000  0.6508444  3
   6168   6166   6184   6171     1  0.0000000  1.6038667  3
   6169   6170   6171   6174     1  0.0000000  0.6508444  3
   6169   6170   6189   6179     1  0.0000000  1.2552000  3
   6169   6167   6187   6188     1  0.0000000  1.0460000  1
   6169   6167   6187   6188     1  0.0000000  0.6694400  3
   6170   6171   6175   6185     1  0.0000000  1.0460000  1
   6170   6171   6175   6185     1  0.0000000  0.6694400  3
   6170   6169   6176   6178     1  0.0000000  1.0460000  1
   6170   6169   6176   6178     1  0.0000000  0.6694400  3
   6170   6169   6167   6186     1  0.0000000  0.6508444  3
   6171   6170   6189   6179     1  0.0000000  1.2552000  3
   6171   6170   6169   6173     1  0.0000000  0.6508444  3
   6172   6170   6171   6175     1  0.0000000  1.0460000  1
   6172   6170   6171   6175     1  0.0000000  0.0000000  3
   6172   6170   6171   6184     1  0.0000000  1.0460000  1
   6172   6170   6171   6184     1  0.0000000  0.0000000  3
   6172   6170   6171   6174     1  0.0000000  0.6508444  3
   6172   6170   6189   6179     1  0.0000000  1.2552000  3
   6172   6170   6169   6176     1  0.0000000  1.0460000  1
   6172   6170   6169   6176     1  0.0000000  0.0000000  3
   6172   6170   6169   6173     1  0.0000000  0.6508444  3
   6173   6169   6170   6189     1  0.0000000  0.6508444  3
   6173   6169   6176   6178     1  0.0000000  0.6973333  3
   6173   6169   6167   6187     1  0.0000000  1.0460000  1
   6173   6169   6167   6187     1  0.0000000  0.0000000  3
   6173   6169   6167   6186     1  0.0000000  0.6508444  3
   6174   6171   6175   6185     1  0.0000000  0.6973333  3
   6174   6171   6170   6189     1  0.0000000  0.6508444  3
   6176   6169   6167   6186     1  0.0000000  1.0460000  1
   6176   6169   6167   6186     1  0.0000000  0.0000000  3
   6177   6166   6167   6186     1  0.0000000  0.6508444  3
   6180   6177   6182   6183     1  0.0000000  0.6973333  3
   6180   6177   6166   6184     1  0.0000000  1.0460000  1
   6180   6177   6166   6184     1  0.0000000  0.0000000  3
   6181   6177   6182   6183     1  0.0000000  0.6973333  3
   6181   6177   6166   6184     1  0.0000000  1.0460000  1
   6181   6177   6166   6184     1  0.0000000  0.0000000  3
   6184   6171   6175   6185     1  0.0000000  0.6973333  3
   6184   6166   6167   6186     1  0.0000000  1.0460000  1
   6184   6166   6167   6186     1  0.0000000  0.0000000  3
   6186   6167   6187   6188     1  0.0000000  0.6973333  3
   6191   6193   6195   6197     1  0.0000000  0.6508444  3
   6191   6193   6195   6198     1  0.0000000  0.6508444  3
   6192   6191   6193   6195     1  0.0000000  0.0000000  2
   6192   6191   6193   6194     1  0.0000000  0.0000000  2
   6192   6191   6193   6196     1  0.0000000  0.0000000  2
   6193   6195   6199   6264     1  0.0000000  0.6508444  3
   6194   6193   6195   6199     1  0.0000000  0.6508444  3
   6194   6193   6195   6197     1  0.0000000  0.6508444  3
   6194   6193   6195   6198     1  0.0000000  0.6508444  3
   6195   6199   6200   6209     1  0.0000000  0.6508444  3
   6195   6199   6200   6210     1  0.0000000  0.6508444  3
   6195   6199   6201   6202     1  0.0000000  0.6508444  3
   6195   6199   6201   6204     1  0.0000000  0.6508444  3
   6196   6193   6195   6199     1  0.0000000  0.6508444  3
   6196   6193   6195   6197     1  0.0000000  0.6508444  3
   6196   6193   6195   6198     1  0.0000000  0.6508444  3
   6197   6195   6199   6200     1  0.0000000  0.6508444  3
   6197   6195   6199   6201     1  0.0000000  0.6508444  3
   6197   6195   6199   6264     1  0.0000000  0.6508444  3
   6198   6195   6199   6200     1  0.0000000  0.6508444  3
   6198   6195   6199   6201     1  0.0000000  0.6508444  3
   6198   6195   6199   6264     1  0.0000000  0.6508444  3
   6199   6200   6211   6212     1  0.0000000  0.6508444  3
   6199   6200   6211   6213     1  0.0000000  0.6508444  3
   6199   6201   6203   6205     1  0.0000000  0.6508444  3
   6199   6201   6203   6206     1  0.0000000  0.6508444  3
   6200   6199   6201   6202     1  0.0000000  0.6508444  3
   6200   6199   6201   6204     1  0.0000000  0.6508444  3
   6201   6199   6200   6209     1  0.0000000  0.6508444  3
   6201   6199   6200   6210     1  0.0000000  0.6508444  3
   6202   6201   6199   6264     1  0.0000000  0.6508444  3
   6202   6201   6203   6207     1  0.0000000  0.6508444  3
   6202   6201   6203   6205     1  0.0000000  0.6508444  3
   6202   6201   6203   6206     1  0.0000000  0.6508444  3
   6203   6201   6199   6264     1  0.0000000  0.6508444  3
   6203   6207   6239   6229     1  180.0000771  6.0668000  2
   6203   6207   6239   6229     1  180.0000771  1.4644000  4
   6204   6201   6199   6264     1  0.0000000  0.6508444  3
   6204   6201   6203   6207     1  0.0000000  0.6508444  3
   6204   6201   6203   6205     1  0.0000000  0.6508444  3
   6204   6201   6203   6206     1  0.0000000  0.6508444  3
   6205   6203   6207   6208     1  0.0000000  3.3472000  1
   6205   6203   6207   6208     1  0.0000000  0.0000000  2
   6205   6203   6207   6208     1  180.0000771  0.3347200  3
   6205   6203   6207   6239     1  180.0000771  0.0000000  2
   6206   6203   6207   6208     1  0.0000000  3.3472000  1
   6206   6203   6207   6208     1  0.0000000  0.0000000  2
   6206   6203   6207   6208     1  180.0000771  0.3347200  3
   6206   6203   6207   6239     1  180.0000771  0.0000000  2
   6207   6239   6220   6222     1  0.0000000  1.2552000  3
   6208   6207   6239   6229     1  180.0000771  6.0668000  2
   6208   6207   6239   6229     1  180.0000771  1.4644000  4
   6209   6200   6199   6264     1  0.0000000  0.6508444  3
   6209   6200   6211   6214     1  0.0000000  0.6508444  3
   6209   6200   6211   6212     1  0.0000000  0.6508444  3
   6209   6200   6211   6213     1  0.0000000  0.6508444  3
   6210   6200   6199   6264     1  0.0000000  0.6508444  3
   6210   6200   6211   6214     1  0.0000000  0.6508444  3
   6210   6200   6211   6212     1  0.0000000  0.6508444  3
   6210   6200   6211   6213     1  0.0000000  0.6508444  3
   6211   6200   6199   6264     1  0.0000000  0.6508444  3
   6211   6214   6263   6253     1  180.0000771  6.0668000  2
   6211   6214   6263   6253     1  180.0000771  1.4644000  4
   6212   6211   6214   6215     1  0.0000000  3.3472000  1
   6212   6211   6214   6215     1  0.0000000  0.0000000  2
   6212   6211   6214   6215     1  180.0000771  0.3347200  3
   6212   6211   6214   6263     1  180.0000771  0.0000000  2
   6213   6211   6214   6215     1  0.0000000  3.3472000  1
   6213   6211   6214   6215     1  0.0000000  0.0000000  2
   6213   6211   6214   6215     1  180.0000771  0.3347200  3
   6213   6211   6214   6263     1  180.0000771  0.0000000  2
   6214   6263   6244   6246     1  0.0000000  1.2552000  3
   6215   6214   6263   6253     1  180.0000771  6.0668000  2
   6215   6214   6263   6253     1  180.0000771  1.4644000  4
   6216   6217   6219   6223     1  0.0000000  0.6508444  3
   6216   6217   6237   6238     1  0.0000000  1.0460000  1
   6216   6217   6237   6238     1  0.0000000  0.6694400  3
   6216   6227   6232   6233     1  0.0000000  1.0460000  1
   6216   6227   6232   6233     1  0.0000000  0.6694400  3
   6216   6234   6221   6224     1  0.0000000  1.6038667  3
   6217   6216   6227   6230     1  0.0000000  0.6508444  3
   6217   6216   6227   6231     1  0.0000000  0.6508444  3
   6217   6219   6220   6222     1  0.0000000  0.6508444  3
   6217   6219   6226   6228     1  0.0000000  1.0460000  1
   6217   6219   6226   6228     1  0.0000000  0.6694400  3
   6218   6216   6217   6219     1  0.0000000  0.6508444  3
   6218   6216   6217   6237     1  0.0000000  1.0460000  1
   6218   6216   6217   6237     1  0.0000000  0.0000000  3
   6218   6216   6217   6236     1  0.0000000  0.6508444  3
   6218   6216   6227   6232     1  0.0000000  1.0460000  1
   6218   6216   6227   6232     1  0.0000000  0.0000000  3
   6218   6216   6227   6230     1  0.0000000  0.6508444  3
   6218   6216   6227   6231     1  0.0000000  0.6508444  3
   6218   6216   6234   6221     1  0.0000000  1.6038667  3
   6219   6217   6237   6238     1  0.0000000  1.0460000  1
   6219   6217   6237   6238     1  0.0000000  0.6694400  3
   6219   6220   6221   6224     1  0.0000000  0.6508444  3
   6219   6220   6239   6229     1  0.0000000  1.2552000  3
   6220   6219   6217   6236     1  0.0000000  0.6508444  3
   6220   6219   6226   6228     1  0.0000000  1.0460000  1
   6220   6219   6226   6228     1  0.0000000  0.6694400  3
   6220   6221   6225   6235     1  0.0000000  1.0460000  1
   6220   6221   6225   6235     1  0.0000000  0.6694400  3
   6221   6220   6219   6223     1  0.0000000  0.6508444  3
   6221   6220   6239   6229     1  0.0000000  1.2552000  3
   6222   6220   6219   6226     1  0.0000000  1.0460000  1
   6222   6220   6219   6226     1  0.0000000  0.0000000  3
   6222   6220   6219   6223     1  0.0000000  0.6508444  3
   6222   6220   6221   6225     1  0.0000000  1.0460000  1
   6222   6220   6221   6225     1  0.0000000  0.0000000  3
   6222   6220   6221   6234     1  0.0000000  1.0460000  1
   6222   6220   6221   6234     1  0.0000000  0.0000000  3
   6222   6220   6221   6224     1  0.0000000  0.6508444  3
   6222   6220   6239   6229     1  0.0000000  1.2552000  3
   6223   6219   6217   6237     1  0.0000000  1.0460000  1
   6223   6219   6217   6237     1  0.0000000  0.0000000  3
   6223   6219   6217   6236     1  0.0000000  0.6508444  3
   6223   6219   6220   6239     1  0.0000000  0.6508444  3
   6223   6219   6226   6228     1  0.0000000  0.6973333  3
   6224   6221   6220   6239     1  0.0000000  0.6508444  3
   6224   6221   6225   6235     1  0.0000000  0.6973333  3
   6226   6219   6217   6236     1  0.0000000  1.0460000  1
   6226   6219   6217   6236     1  0.0000000  0.0000000  3
   6227   6216   6217   6236     1  0.0000000  0.6508444  3
   6230   6227   6216   6234     1  0.0000000  1.0460000  1
   6230   6227   6216   6234     1  0.0000000  0.0000000  3
   6230   6227   6232   6233     1  0.0000000  0.6973333  3
   6231   6227   6216   6234     1  0.0000000  1.0460000  1
   6231   6227   6216   6234     1  0.0000000  0.0000000  3
   6231   6227   6232   6233     1  0.0000000  0.6973333  3
   6234   6216   6217   6236     1  0.0000000  1.0460000  1
   6234   6216   6217   6236     1  0.0000000  0.0000000  3
   6234   6221   6225   6235     1  0.0000000  0.6973333  3
   6236   6217   6237   6238     1  0.0000000  0.6973333  3
   6240   6241   6243   6247     1  0.0000000  0.6508444  3
   6240   6241   6261   6262     1  0.0000000  1.0460000  1
   6240   6241   6261   6262     1  0.0000000  0.6694400  3
   6240   6251   6256   6257     1  0.0000000  1.0460000  1
   6240   6251   6256   6257     1  0.0000000  0.6694400  3
   6240   6258   6245   6248     1  0.0000000  1.6038667  3
   6241   6240   6251   6254     1  0.0000000  0.6508444  3
   6241   6240   6251   6255     1  0.0000000  0.6508444  3
   6241   6243   6244   6246     1  0.0000000  0.6508444  3
   6241   6243   6250   6252     1  0.0000000  1.0460000  1
   6241   6243   6250   6252     1  0.0000000  0.6694400  3
   6242   6240   6241   6243     1  0.0000000  0.6508444  3
   6242   6240   6241   6261     1  0.0000000  1.0460000  1
   6242   6240   6241   6261     1  0.0000000  0.0000000  3
   6242   6240   6241   6260     1  0.0000000  0.6508444  3
   6242   6240   6251   6256     1  0.0000000  1.0460000  1
   6242   6240   6251   6256     1  0.0000000  0.0000000  3
   6242   6240   6251   6254     1  0.0000000  0.6508444  3
   6242   6240   6251   6255     1  0.0000000  0.6508444  3
   6242   6240   6258   6245     1  0.0000000  1.6038667  3
   6243   6241   6261   6262     1  0.0000000  1.0460000  1
   6243   6241   6261   6262     1  0.0000000  0.6694400  3
   6243   6244   6245   6248     1  0.0000000  0.6508444  3
   6243   6244   6263   6253     1  0.0000000  1.2552000  3
   6244   6243   6241   6260     1  0.0000000  0.6508444  3
   6244   6243   6250   6252     1  0.0000000  1.0460000  1
   6244   6243   6250   6252     1  0.0000000  0.6694400  3
   6244   6245   6249   6259     1  0.0000000  1.0460000  1
   6244   6245   6249   6259     1  0.0000000  0.6694400  3
   6245   6244   6243   6247     1  0.0000000  0.6508444  3
   6245   6244   6263   6253     1  0.0000000  1.2552000  3
   6246   6244   6243   6250     1  0.0000000  1.0460000  1
   6246   6244   6243   6250     1  0.0000000  0.0000000  3
   6246   6244   6243   6247     1  0.0000000  0.6508444  3
   6246   6244   6245   6249     1  0.0000000  1.0460000  1
   6246   6244   6245   6249     1  0.0000000  0.0000000  3
   6246   6244   6245   6258     1  0.0000000  1.0460000  1
   6246   6244   6245   6258     1  0.0000000  0.0000000  3
   6246   6244   6245   6248     1  0.0000000  0.6508444  3
   6246   6244   6263   6253     1  0.0000000  1.2552000  3
   6247   6243   6241   6261     1  0.0000000  1.0460000  1
   6247   6243   6241   6261     1  0.0000000  0.0000000  3
   6247   6243   6241   6260     1  0.0000000  0.6508444  3
   6247   6243   6244   6263     1  0.0000000  0.6508444  3
   6247   6243   6250   6252     1  0.0000000  0.6973333  3
   6248   6245   6244   6263     1  0.0000000  0.6508444  3
   6248   6245   6249   6259     1  0.0000000  0.6973333  3
   6250   6243   6241   6260     1  0.0000000  1.0460000  1
   6250   6243   6241   6260     1  0.0000000  0.0000000  3
   6251   6240   6241   6260     1  0.0000000  0.6508444  3
   6254   6251   6240   6258     1  0.0000000  1.0460000  1
   6254   6251   6240   6258     1  0.0000000  0.0000000  3
   6254   6251   6256   6257     1  0.0000000  0.6973333  3
   6255   6251   6240   6258     1  0.0000000  1.0460000  1
   6255   6251   6240   6258     1  0.0000000  0.0000000  3
   6255   6251   6256   6257     1  0.0000000  0.6973333  3
   6258   6240   6241   6260     1  0.0000000  1.0460000  1
   6258   6240   6241   6260     1  0.0000000  0.0000000  3
   6258   6245   6249   6259     1  0.0000000  0.6973333  3
   6260   6241   6261   6262     1  0.0000000  0.6973333  3
   6265   6267   6269   6271     1  0.0000000  0.6508444  3
   6265   6267   6269   6272     1  0.0000000  0.6508444  3
   6266   6265   6267   6269     1  0.0000000  0.0000000  2
   6266   6265   6267   6268     1  0.0000000  0.0000000  2
   6266   6265   6267   6270     1  0.0000000  0.0000000  2
   6267   6269   6273   6338     1  0.0000000  0.6508444  3
   6268   6267   6269   6273     1  0.0000000  0.6508444  3
   6268   6267   6269   6271     1  0.0000000  0.6508444  3
   6268   6267   6269   6272     1  0.0000000  0.6508444  3
   6269   6273   6274   6283     1  0.0000000  0.6508444  3
   6269   6273   6274   6284     1  0.0000000  0.6508444  3
   6269   6273   6275   6276     1  0.0000000  0.6508444  3
   6269   6273   6275   6278     1  0.0000000  0.6508444  3
   6270   6267   6269   6273     1  0.0000000  0.6508444  3
   6270   6267   6269   6271     1  0.0000000  0.6508444  3
   6270   6267   6269   6272     1  0.0000000  0.6508444  3
   6271   6269   6273   6274     1  0.0000000  0.6508444  3
   6271   6269   6273   6275     1  0.0000000  0.6508444  3
   6271   6269   6273   6338     1  0.0000000  0.6508444  3
   6272   6269   6273   6274     1  0.0000000  0.6508444  3
   6272   6269   6273   6275     1  0.0000000  0.6508444  3
   6272   6269   6273   6338     1  0.0000000  0.6508444  3
   6273   6274   6285   6286     1  0.0000000  0.6508444  3
   6273   6274   6285   6287     1  0.0000000  0.6508444  3
   6273   6275   6277   6279     1  0.0000000  0.6508444  3
   6273   6275   6277   6280     1  0.0000000  0.6508444  3
   6274   6273   6275   6276     1  0.0000000  0.6508444  3
   6274   6273   6275   6278     1  0.0000000  0.6508444  3
   6275   6273   6274   6283     1  0.0000000  0.6508444  3
   6275   6273   6274   6284     1  0.0000000  0.6508444  3
   6276   6275   6277   6281     1  0.0000000  0.6508444  3
   6276   6275   6277   6279     1  0.0000000  0.6508444  3
   6276   6275   6277   6280     1  0.0000000  0.6508444  3
   6276   6275   6273   6338     1  0.0000000  0.6508444  3
   6277   6281   6313   6303     1  180.0000771  6.0668000  2
   6277   6281   6313   6303     1  180.0000771  1.4644000  4
   6277   6275   6273   6338     1  0.0000000  0.6508444  3
   6278   6275   6277   6281     1  0.0000000  0.6508444  3
   6278   6275   6277   6279     1  0.0000000  0.6508444  3
   6278   6275   6277   6280     1  0.0000000  0.6508444  3
   6278   6275   6273   6338     1  0.0000000  0.6508444  3
   6279   6277   6281   6282     1  0.0000000  3.3472000  1
   6279   6277   6281   6282     1  0.0000000  0.0000000  2
   6279   6277   6281   6282     1  180.0000771  0.3347200  3
   6279   6277   6281   6313     1  180.0000771  0.0000000  2
   6280   6277   6281   6282     1  0.0000000  3.3472000  1
   6280   6277   6281   6282     1  0.0000000  0.0000000  2
   6280   6277   6281   6282     1  180.0000771  0.3347200  3
   6280   6277   6281   6313     1  180.0000771  0.0000000  2
   6281   6313   6294   6296     1  0.0000000  1.2552000  3
   6282   6281   6313   6303     1  180.0000771  6.0668000  2
   6282   6281   6313   6303     1  180.0000771  1.4644000  4
   6283   6274   6285   6288     1  0.0000000  0.6508444  3
   6283   6274   6285   6286     1  0.0000000  0.6508444  3
   6283   6274   6285   6287     1  0.0000000  0.6508444  3
   6283   6274   6273   6338     1  0.0000000  0.6508444  3
   6284   6274   6285   6288     1  0.0000000  0.6508444  3
   6284   6274   6285   6286     1  0.0000000  0.6508444  3
   6284   6274   6285   6287     1  0.0000000  0.6508444  3
   6284   6274   6273   6338     1  0.0000000  0.6508444  3
   6285   6288   6337   6327     1  180.0000771  6.0668000  2
   6285   6288   6337   6327     1  180.0000771  1.4644000  4
   6285   6274   6273   6338     1  0.0000000  0.6508444  3
   6286   6285   6288   6289     1  0.0000000  3.3472000  1
   6286   6285   6288   6289     1  0.0000000  0.0000000  2
   6286   6285   6288   6289     1  180.0000771  0.3347200  3
   6286   6285   6288   6337     1  180.0000771  0.0000000  2
   6287   6285   6288   6289     1  0.0000000  3.3472000  1
   6287   6285   6288   6289     1  0.0000000  0.0000000  2
   6287   6285   6288   6289     1  180.0000771  0.3347200  3
   6287   6285   6288   6337     1  180.0000771  0.0000000  2
   6288   6337   6318   6320     1  0.0000000  1.2552000  3
   6289   6288   6337   6327     1  180.0000771  6.0668000  2
   6289   6288   6337   6327     1  180.0000771  1.4644000  4
   6290   6291   6293   6297     1  0.0000000  0.6508444  3
   6290   6291   6311   6312     1  0.0000000  1.0460000  1
   6290   6291   6311   6312     1  0.0000000  0.6694400  3
   6290   6301   6306   6307     1  0.0000000  1.0460000  1
   6290   6301   6306   6307     1  0.0000000  0.6694400  3
   6290   6308   6295   6298     1  0.0000000  1.6038667  3
   6291   6293   6294   6296     1  0.0000000  0.6508444  3
   6291   6293   6300   6302     1  0.0000000  1.0460000  1
   6291   6293   6300   6302     1  0.0000000  0.6694400  3
   6291   6290   6301   6304     1  0.0000000  0.6508444  3
   6291   6290   6301   6305     1  0.0000000  0.6508444  3
   6292   6290   6291   6293     1  0.0000000  0.6508444  3
   6292   6290   6291   6311     1  0.0000000  1.0460000  1
   6292   6290   6291   6311     1  0.0000000  0.0000000  3
   6292   6290   6291   6310     1  0.0000000  0.6508444  3
   6292   6290   6301   6306     1  0.0000000  1.0460000  1
   6292   6290   6301   6306     1  0.0000000  0.0000000  3
   6292   6290   6301   6304     1  0.0000000  0.6508444  3
   6292   6290   6301   6305     1  0.0000000  0.6508444  3
   6292   6290   6308   6295     1  0.0000000  1.6038667  3
   6293   6294   6295   6298     1  0.0000000  0.6508444  3
   6293   6294   6313   6303     1  0.0000000  1.2552000  3
   6293   6291   6311   6312     1  0.0000000  1.0460000  1
   6293   6291   6311   6312     1  0.0000000  0.6694400  3
   6294   6295   6299   6309     1  0.0000000  1.0460000  1
   6294   6295   6299   6309     1  0.0000000  0.6694400  3
   6294   6293   6300   6302     1  0.0000000  1.0460000  1
   6294   6293   6300   6302     1  0.0000000  0.6694400  3
   6294   6293   6291   6310     1  0.0000000  0.6508444  3
   6295   6294   6313   6303     1  0.0000000  1.2552000  3
   6295   6294   6293   6297     1  0.0000000  0.6508444  3
   6296   6294   6295   6299     1  0.0000000  1.0460000  1
   6296   6294   6295   6299     1  0.0000000  0.0000000  3
   6296   6294   6295   6308     1  0.0000000  1.0460000  1
   6296   6294   6295   6308     1  0.0000000  0.0000000  3
   6296   6294   6295   6298     1  0.0000000  0.6508444  3
   6296   6294   6313   6303     1  0.0000000  1.2552000  3
   6296   6294   6293   6300     1  0.0000000  1.0460000  1
   6296   6294   6293   6300     1  0.0000000  0.0000000  3
   6296   6294   6293   6297     1  0.0000000  0.6508444  3
   6297   6293   6294   6313     1  0.0000000  0.6508444  3
   6297   6293   6300   6302     1  0.0000000  0.6973333  3
   6297   6293   6291   6311     1  0.0000000  1.0460000  1
   6297   6293   6291   6311     1  0.0000000  0.0000000  3
   6297   6293   6291   6310     1  0.0000000  0.6508444  3
   6298   6295   6299   6309     1  0.0000000  0.6973333  3
   6298   6295   6294   6313     1  0.0000000  0.6508444  3
   6300   6293   6291   6310     1  0.0000000  1.0460000  1
   6300   6293   6291   6310     1  0.0000000  0.0000000  3
   6301   6290   6291   6310     1  0.0000000  0.6508444  3
   6304   6301   6306   6307     1  0.0000000  0.6973333  3
   6304   6301   6290   6308     1  0.0000000  1.0460000  1
   6304   6301   6290   6308     1  0.0000000  0.0000000  3
   6305   6301   6306   6307     1  0.0000000  0.6973333  3
   6305   6301   6290   6308     1  0.0000000  1.0460000  1
   6305   6301   6290   6308     1  0.0000000  0.0000000  3
   6308   6295   6299   6309     1  0.0000000  0.6973333  3
   6308   6290   6291   6310     1  0.0000000  1.0460000  1
   6308   6290   6291   6310     1  0.0000000  0.0000000  3
   6310   6291   6311   6312     1  0.0000000  0.6973333  3
   6314   6315   6317   6321     1  0.0000000  0.6508444  3
   6314   6315   6335   6336     1  0.0000000  1.0460000  1
   6314   6315   6335   6336     1  0.0000000  0.6694400  3
   6314   6325   6330   6331     1  0.0000000  1.0460000  1
   6314   6325   6330   6331     1  0.0000000  0.6694400  3
   6314   6332   6319   6322     1  0.0000000  1.6038667  3
   6315   6317   6318   6320     1  0.0000000  0.6508444  3
   6315   6317   6324   6326     1  0.0000000  1.0460000  1
   6315   6317   6324   6326     1  0.0000000  0.6694400  3
   6315   6314   6325   6328     1  0.0000000  0.6508444  3
   6315   6314   6325   6329     1  0.0000000  0.6508444  3
   6316   6314   6315   6317     1  0.0000000  0.6508444  3
   6316   6314   6315   6335     1  0.0000000  1.0460000  1
   6316   6314   6315   6335     1  0.0000000  0.0000000  3
   6316   6314   6315   6334     1  0.0000000  0.6508444  3
   6316   6314   6325   6330     1  0.0000000  1.0460000  1
   6316   6314   6325   6330     1  0.0000000  0.0000000  3
   6316   6314   6325   6328     1  0.0000000  0.6508444  3
   6316   6314   6325   6329     1  0.0000000  0.6508444  3
   6316   6314   6332   6319     1  0.0000000  1.6038667  3
   6317   6318   6319   6322     1  0.0000000  0.6508444  3
   6317   6318   6337   6327     1  0.0000000  1.2552000  3
   6317   6315   6335   6336     1  0.0000000  1.0460000  1
   6317   6315   6335   6336     1  0.0000000  0.6694400  3
   6318   6319   6323   6333     1  0.0000000  1.0460000  1
   6318   6319   6323   6333     1  0.0000000  0.6694400  3
   6318   6317   6324   6326     1  0.0000000  1.0460000  1
   6318   6317   6324   6326     1  0.0000000  0.6694400  3
   6318   6317   6315   6334     1  0.0000000  0.6508444  3
   6319   6318   6337   6327     1  0.0000000  1.2552000  3
   6319   6318   6317   6321     1  0.0000000  0.6508444  3
   6320   6318   6319   6323     1  0.0000000  1.0460000  1
   6320   6318   6319   6323     1  0.0000000  0.0000000  3
   6320   6318   6319   6332     1  0.0000000  1.0460000  1
   6320   6318   6319   6332     1  0.0000000  0.0000000  3
   6320   6318   6319   6322     1  0.0000000  0.6508444  3
   6320   6318   6337   6327     1  0.0000000  1.2552000  3
   6320   6318   6317   6324     1  0.0000000  1.0460000  1
   6320   6318   6317   6324     1  0.0000000  0.0000000  3
   6320   6318   6317   6321     1  0.0000000  0.6508444  3
   6321   6317   6318   6337     1  0.0000000  0.6508444  3
   6321   6317   6324   6326     1  0.0000000  0.6973333  3
   6321   6317   6315   6335     1  0.0000000  1.0460000  1
   6321   6317   6315   6335     1  0.0000000  0.0000000  3
   6321   6317   6315   6334     1  0.0000000  0.6508444  3
   6322   6319   6323   6333     1  0.0000000  0.6973333  3
   6322   6319   6318   6337     1  0.0000000  0.6508444  3
   6324   6317   6315   6334     1  0.0000000  1.0460000  1
   6324   6317   6315   6334     1  0.0000000  0.0000000  3
   6325   6314   6315   6334     1  0.0000000  0.6508444  3
   6328   6325   6330   6331     1  0.0000000  0.6973333  3
   6328   6325   6314   6332     1  0.0000000  1.0460000  1
   6328   6325   6314   6332     1  0.0000000  0.0000000  3
   6329   6325   6330   6331     1  0.0000000  0.6973333  3
   6329   6325   6314   6332     1  0.0000000  1.0460000  1
   6329   6325   6314   6332     1  0.0000000  0.0000000  3
   6332   6319   6323   6333     1  0.0000000  0.6973333  3
   6332   6314   6315   6334     1  0.0000000  1.0460000  1
   6332   6314   6315   6334     1  0.0000000  0.0000000  3
   6334   6315   6335   6336     1  0.0000000  0.6973333  3
     10     51     52     67     4  180.0000771  4.6024000  2
     12     77     78     93     4  180.0000771  4.6024000  2
     14    103    104    119     4  180.0000771  4.6024000  2
     16    129    130    145     4  180.0000771  4.6024000  2
     47    155    156    171     4  180.0000771  4.6024000  2
     49    181    182    197     4  180.0000771  4.6024000  2
     73    207    208    223     4  180.0000771  4.6024000  2
     75    233    234    249     4  180.0000771  4.6024000  2
     99    259    260    275     4  180.0000771  4.6024000  2
    101    285    286    301     4  180.0000771  4.6024000  2
    125    311    312    327     4  180.0000771  4.6024000  2
    127    337    338    353     4  180.0000771  4.6024000  2
    151    363    364    379     4  180.0000771  4.6024000  2
    153    389    390    405     4  180.0000771  4.6024000  2
    177    415    416    431     4  180.0000771  4.6024000  2
    179    441    442    457     4  180.0000771  4.6024000  2
    203    467    468    483     4  180.0000771  4.6024000  2
    205    493    494    509     4  180.0000771  4.6024000  2
    229    519    520    535     4  180.0000771  4.6024000  2
    231    545    546    561     4  180.0000771  4.6024000  2
    255    571    572    587     4  180.0000771  4.6024000  2
    257    597    598    613     4  180.0000771  4.6024000  2
    281    623    624    639     4  180.0000771  4.6024000  2
    283    649    650    665     4  180.0000771  4.6024000  2
    307    675    676    691     4  180.0000771  4.6024000  2
    309    701    702    717     4  180.0000771  4.6024000  2
    333    727    728    743     4  180.0000771  4.6024000  2
    335    753    754    769     4  180.0000771  4.6024000  2
    359    779    780    795     4  180.0000771  4.6024000  2
    361    805    806    821     4  180.0000771  4.6024000  2
    385    831    832    847     4  180.0000771  4.6024000  2
    387    857    858    873     4  180.0000771  4.6024000  2
    411    883    884    899     4  180.0000771  4.6024000  2
    413    909    910    925     4  180.0000771  4.6024000  2
    437    935    936    951     4  180.0000771  4.6024000  2
    439    961    962    977     4  180.0000771  4.6024000  2
    463    987    988   1003     4  180.0000771  4.6024000  2
    465   1013   1014   1029     4  180.0000771  4.6024000  2
    489   1039   1040   1055     4  180.0000771  4.6024000  2
    491   1065   1066   1081     4  180.0000771  4.6024000  2
    515   1091   1092   1107     4  180.0000771  4.6024000  2
    517   1117   1118   1133     4  180.0000771  4.6024000  2
    541   1143   1144   1159     4  180.0000771  4.6024000  2
    543   1169   1170   1185     4  180.0000771  4.6024000  2
    567   1195   1196   1211     4  180.0000771  4.6024000  2
    569   1221   1222   1237     4  180.0000771  4.6024000  2
    593   1247   1248   1263     4  180.0000771  4.6024000  2
    595   1273   1274   1289     4  180.0000771  4.6024000  2
    619   1299   1300   1315     4  180.0000771  4.6024000  2
    621   1325   1326   1341     4  180.0000771  4.6024000  2
    645   1351   1352   1367     4  180.0000771  4.6024000  2
    647   1377   1378   1393     4  180.0000771  4.6024000  2
    671   1403   1404   1419     4  180.0000771  4.6024000  2
    673   1429   1430   1445     4  180.0000771  4.6024000  2
    697   1455   1456   1471     4  180.0000771  4.6024000  2
    699   1481   1482   1497     4  180.0000771  4.6024000  2
    723   1507   1508   1523     4  180.0000771  4.6024000  2
    725   1533   1534   1549     4  180.0000771  4.6024000  2
    749   1559   1560   1575     4  180.0000771  4.6024000  2
    751   1585   1586   1601     4  180.0000771  4.6024000  2
    775   1605   1603   1604     4  180.0000771  4.6024000  2
    777   1679   1677   1678     4  180.0000771  4.6024000  2
    801   1753   1751   1752     4  180.0000771  4.6024000  2
    803   1827   1825   1826     4  180.0000771  4.6024000  2
    827   1901   1899   1900     4  180.0000771  4.6024000  2
    829   1975   1973   1974     4  180.0000771  4.6024000  2
    853   2049   2047   2048     4  180.0000771  4.6024000  2
    855   2123   2121   2122     4  180.0000771  4.6024000  2
    879   2197   2195   2196     4  180.0000771  4.6024000  2
    881   2271   2269   2270     4  180.0000771  4.6024000  2
    905   2345   2343   2344     4  180.0000771  4.6024000  2
    907   2419   2417   2418     4  180.0000771  4.6024000  2
    931   2493   2491   2492     4  180.0000771  4.6024000  2
    933   2567   2565   2566     4  180.0000771  4.6024000  2
    957   2641   2639   2640     4  180.0000771  4.6024000  2
    959   2715   2713   2714     4  180.0000771  4.6024000  2
    983   2789   2787   2788     4  180.0000771  4.6024000  2
    985   2863   2861   2862     4  180.0000771  4.6024000  2
   1009   2937   2935   2936     4  180.0000771  4.6024000  2
   1011   3011   3009   3010     4  180.0000771  4.6024000  2
   1035   3085   3083   3084     4  180.0000771  4.6024000  2
   1037   3159   3157   3158     4  180.0000771  4.6024000  2
   1061   3233   3231   3232     4  180.0000771  4.6024000  2
   1063   3307   3305   3306     4  180.0000771  4.6024000  2
   1087   3381   3379   3380     4  180.0000771  4.6024000  2
   1089   3455   3453   3454     4  180.0000771  4.6024000  2
   1113   3529   3527   3528     4  180.0000771  4.6024000  2
   1115   3603   3601   3602     4  180.0000771  4.6024000  2
   1139   3677   3675   3676     4  180.0000771  4.6024000  2
   1141   3751   3749   3750     4  180.0000771  4.6024000  2
   1165   3825   3823   3824     4  180.0000771  4.6024000  2
   1167   3899   3897   3898     4  180.0000771  4.6024000  2
   1191   3973   3971   3972     4  180.0000771  4.6024000  2
   1193   4047   4045   4046     4  180.0000771  4.6024000  2
   1217   4121   4119   4120     4  180.0000771  4.6024000  2
   1219   4195   4193   4194     4  180.0000771  4.6024000  2
   1243   4269   4267   4268     4  180.0000771  4.6024000  2
   1245   4343   4341   4342     4  180.0000771  4.6024000  2
   1269   4417   4415   4416     4  180.0000771  4.6024000  2
   1271   4491   4489   4490     4  180.0000771  4.6024000  2
   1295   4565   4563   4564     4  180.0000771  4.6024000  2
   1297   4639   4637   4638     4  180.0000771  4.6024000  2
   1321   4713   4711   4712     4  180.0000771  4.6024000  2
   1323   4787   4785   4786     4  180.0000771  4.6024000  2
   1347   4861   4859   4860     4  180.0000771  4.6024000  2
   1349   4935   4933   4934     4  180.0000771  4.6024000  2
   1373   5009   5007   5008     4  180.0000771  4.6024000  2
   1375   5083   5081   5082     4  180.0000771  4.6024000  2
   1399   5157   5155   5156     4  180.0000771  4.6024000  2
   1401   5231   5229   5230     4  180.0000771  4.6024000  2
   1425   5305   5303   5304     4  180.0000771  4.6024000  2
   1427   5379   5377   5378     4  180.0000771  4.6024000  2
   1451   5453   5451   5452     4  180.0000771  4.6024000  2
   1453   5527   5525   5526     4  180.0000771  4.6024000  2
   1477   5601   5599   5600     4  180.0000771  4.6024000  2
   1479   5675   5673   5674     4  180.0000771  4.6024000  2
   1503   5749   5747   5748     4  180.0000771  4.6024000  2
   1505   5823   5821   5822     4  180.0000771  4.6024000  2
   1529   5897   5895   5896     4  180.0000771  4.6024000  2
   1531   5971   5969   5970     4  180.0000771  4.6024000  2
   1555   6045   6043   6044     4  180.0000771  4.6024000  2
   1557   6119   6117   6118     4  180.0000771  4.6024000  2
   1581   6193   6191   6192     4  180.0000771  4.6024000  2
   1583   6267   6265   6266     4  180.0000771  4.6024000  2

;[ system ]
;; Name
;Generic title
;
;[ molecules ]
;; Compound       #mols
;system1              1
